<LesHouchesEvents version="3.0">
<!--
file generated with POWHEG-BOX-V2
Input file powheg.input contained:
numevts 1000    ! number of events to be generated

! Production parameters for ttH production
hmass 125.d0      ! mass of the HIggs boson [GeV]
hwidth 0.00498d0  ! width of the Higgs boson [GeV]

hdecaymode -1    ! -1 no decay
                ! 0 all decay channels open
                ! 1-6 d dbar, u ubar,..., t tbar
                ! 7-9 e+ e-, mu+ mu-, tau+ tau-
                ! 10  W+W-
                ! 11  ZZ
                ! 12  gamma gamma

#pythiatune 320	! PYTHIA tune


ih1   1           ! hadron 1 (1 for protons, -1 for antiprotons)
ih2   1           ! hadron 2 (1 for protons, -1 for antiprotons)
ebeam1 6500d0     ! energy of beam 1
ebeam2 6500d0     ! energy of beam 2

! To be set only if using 'native' pdfs
!ndns1 131         ! pdf set for hadron 1 (mlm numbering)
!ndns2 131         ! pdf set for hadron 2 (mlm numbering)
! To be set only if using LHA pdfs
! 10050 cteq6m
! 10042 cteq6l with LO alphas (corr. to vbfnlo LO set)
! 10041 cteq6l with NLO alphas
! 21000 MSTW2008 LO
! 21100 MSTW2008 NLO
! 23300 MSTW2008 NLO, NF=4
! 11082 CT10 Nf4

lhans1  23300      ! pdf set for hadron 1 (LHA numbering)
lhans2  23300      ! pdf set for hadron 2 (LHA numbering)

#bornktmin 1d0    ! Generation cut; minimum kt in underlying born
#bornsuppfact 1d0 ! (default 0d0) switch for Born suppression factor. If < 0 suppfact = 1
delta_mbbmin 0d0 ! generation cut on mbb (no gencut used, if set to 0)

use-old-grid    1 ! if 1 use old grid if file pwggrids.dat is present (<> 1 regenerate)
use-old-ubound  1 ! if 1 use norm of upper bounding function stored in pwgubound.dat, if present; <>

ncall1  500000  ! number of calls for initializing the integration grid
itmx1    2     ! number of iterations for initializing the integration grid
ncall2  50000  ! number of calls for computing the integral and finding upper bound
itmx2     1     ! number of iterations for computing the integral and finding upper bound
foldcsi   1    ! number of folds on csi integration
foldy     1    ! number of folds on  y  integration
foldphi   1    ! number of folds on phi integration
nubound 10000  ! number of bbarra calls to setup norm of upper bounding function
icsimax  1     ! <= 100, number of csi subdivision when computing the upper bounds
iymax    1     ! <= 100, number of y subdivision when computing the upper bounds
xupbound 2d0   ! increase upper bound for radiation generation

#runningscales 2	   ! default 0 (no running scales); 1,2: use running scales
renscfact 1d0   ! (default 1d0) ren scale factor: muren  = muref * renscfact
facscfact 1d0   ! (default 1d0) fac scale factor: mufact = muref * facscfact
testplots  1       ! (default 0, do not) do NLO and PWHG distributions

#bornonly   1      ! (default 0) if 1 do Born only
#fakevirt   1      ! (default 0) if 1 use Born for virtuals

iseed    2

manyseeds  1       ! Used to perform multiple runs with different random
                   ! seeds in the same directory.
                   ! If set to 1, the program asks for an integer j;
                   ! The file pwgseeds.dat at line j is read, and the
                   ! integer at line j is used to initialize the random
                   ! sequence for the generation of the event.
                   ! The event file is called pwgevents-'j'.lhe

#storeinfo_rwgt 1   ! store info for reweighting events
#compute_rwgt 1   ! store info for reweighting events
#xgriditeration 1   ! identifier for grid generation
#parallelstage  4   ! identifier for parallel running stages


toploop 1	! 1 include top loop effects; 0 disregard top loop effects
msbar  1	! 1 MSbar renormalization; 0 On-Shell renormalization
parallelstage 4
End of powheg.input content
PDF package: lha
 Random number generator initialized with:           10             0             0
-->
<init>
     2212     2212  6.50000E+03  6.50000E+03     -1     -1     -1     -1     -4      1
  3.37328E-01  1.60874E-01  1.00000E+00   9999
</init>
<event>
      6   9999  3.45752E-01  7.81815E+00 -1.00000E+00  1.99205E-01
      21    -1     0     0   501   502  0.000000000E+00  0.000000000E+00  7.576676495E+00  7.576676495E+00  0.000000000E+00  0.00000E+00  9.000E+00
      21    -1     0     0   511   503  0.000000000E+00  0.000000000E+00 -9.543732821E+02  9.543732821E+02  0.000000000E+00  0.00000E+00  9.000E+00
      25     1     1     2     0     0 -1.139500314E+00 -8.470892666E-01 -6.549144633E+02  6.667394272E+02  1.250059743E+02  0.00000E+00  9.000E+00
       5     1     1     2   501     0 -9.664093661E-01  1.216337901E-01 -4.485073132E+00  6.605083107E+00  4.750000000E+00  0.00000E+00  9.000E+00
      -5     1     1     2     0   503 -5.487562087E+00 -1.135366874E+00 -2.415611033E+01  2.524841701E+01  4.750000000E+00  0.00000E+00  9.000E+00
      21     1     1     2   511   502  7.593471767E+00  1.860822350E+00 -2.632409588E+02  2.633570312E+02  3.814697266E-06  0.00000E+00  9.000E+00
#rwgt            1           9   5.6133945506482274E-004          10          21           0
</event>
<event>
      6   9999  3.45752E-01  1.05692E+01 -1.00000E+00  1.84696E-01
      21    -1     0     0   501   502  0.000000000E+00  0.000000000E+00  3.417217036E+01  3.417217036E+01  0.000000000E+00  0.00000E+00  9.000E+00
      21    -1     0     0   502   512  0.000000000E+00  0.000000000E+00 -1.780058888E+03  1.780058888E+03  0.000000000E+00  0.00000E+00  9.000E+00
      25     1     1     2     0     0  8.509294061E+01 -5.482872746E+01 -4.096271451E+02  4.400117807E+02  1.247756835E+02  0.00000E+00  9.000E+00
       5     1     1     2   501     0 -1.373252399E+00  2.769277117E+00  1.534259778E+01  1.635581012E+01  4.750000000E+00  0.00000E+00  9.000E+00
      -5     1     1     2     0   503 -8.635437789E+01  4.182387824E+01 -7.448902007E+02  7.510594444E+02  4.750000000E+00  0.00000E+00  9.000E+00
      21     1     1     2   503   512  2.634689678E+00  1.023557211E+01 -6.067119697E+02  6.068040233E+02  1.078959322E-05  0.00000E+00  9.000E+00
#rwgt            1           9   3.2994168774111887E-004          10        3722           0
</event>
<event>
      6   9999  3.45752E-01  1.46040E+01 -1.00000E+00  1.71385E-01
      21    -1     0     0   501   502  0.000000000E+00  0.000000000E+00  2.679399647E+01  2.679399647E+01  0.000000000E+00  0.00000E+00  9.000E+00
      21    -1     0     0   502   511  0.000000000E+00  0.000000000E+00 -1.097159636E+03  1.097159636E+03  0.000000000E+00  0.00000E+00  9.000E+00
      25     1     1     2     0     0  6.075405463E+01  4.022858603E+01 -5.110598976E+02  5.311471428E+02  1.250026967E+02  0.00000E+00  9.000E+00
       5     1     1     2   501     0 -6.771472584E-01  6.052159023E-02  1.399025864E+01  1.479026802E+01  4.750000000E+00  0.00000E+00  9.000E+00
      -5     1     1     2     0   503 -4.603292226E+01 -3.628378017E+01 -4.789588935E+02  4.825554132E+02  4.750000000E+00  0.00000E+00  9.000E+00
      21     1     1     2   503   511 -1.404398512E+01 -4.005327442E+00 -9.433710747E+01  9.546080877E+01  0.000000000E+00  0.00000E+00  9.000E+00
#rwgt            1           9   2.0888865324927771E-004          10        7066           0
</event>
<event>
      6   9999  3.45752E-01  1.03957E+01 -1.00000E+00  1.85436E-01
      21    -1     0     0   502   503  0.000000000E+00  0.000000000E+00  2.261495760E+01  2.261495760E+01  0.000000000E+00  0.00000E+00  9.000E+00
      21    -1     0     0   501   512  0.000000000E+00  0.000000000E+00 -1.100649279E+03  1.100649279E+03  0.000000000E+00  0.00000E+00  9.000E+00
      25     1     1     2     0     0 -5.667005809E+01 -3.623264904E+01 -2.500684684E+02  2.875494102E+02  1.250044962E+02  0.00000E+00  9.000E+00
       5     1     1     2   501     0  5.760686672E+01  3.449305308E+01 -7.151764193E+02  7.183371040E+02  4.750000000E+00  0.00000E+00  9.000E+00
      -5     1     1     2     0   503 -1.108304144E+01 -5.241819816E-01 -1.605177758E+01  2.008309333E+01  4.750000000E+00  0.00000E+00  9.000E+00
      21     1     1     2   502   512  1.014623281E+01  2.263777941E+00 -9.673765636E+01  9.729462929E+01  1.348699152E-06  0.00000E+00  9.000E+00
#rwgt            1           9  0.29910322040224840               10        9713           0
</event>
<event>
      6   9999  3.45752E-01  1.10494E+01 -1.00000E+00  1.82741E-01
      21    -1     0     0   501   502  0.000000000E+00  0.000000000E+00  9.799001158E+00  9.799001158E+00  0.000000000E+00  0.00000E+00  9.000E+00
      21    -1     0     0   502   511  0.000000000E+00  0.000000000E+00 -5.767314707E+02  5.767314707E+02  0.000000000E+00  0.00000E+00  9.000E+00
      25     1     1     2     0     0 -5.521781478E+00  1.079505409E+01 -4.771926679E+02  4.934413821E+02  1.249981282E+02  0.00000E+00  9.000E+00
       5     1     1     2   501     0  5.065078401E-03  3.739230099E-01 -8.287925003E+00  9.559918668E+00  4.750000000E+00  0.00000E+00  9.000E+00
      -5     1     1     2     0   503  2.111830256E+00 -6.572971480E-01 -1.063745689E+01  1.185790267E+01  4.750000000E+00  0.00000E+00  9.000E+00
      21     1     1     2   503   511  3.404886144E+00 -1.051167995E+01 -7.081441973E+01  7.167126835E+01  1.348699152E-06  0.00000E+00  9.000E+00
#rwgt            1           9   4.7962572063609491E-003          10       13193           0
</event>
<event>
      6   9999  3.45752E-01  6.07021E+00 -1.00000E+00  2.13357E-01
      21    -1     0     0   501   502  0.000000000E+00  0.000000000E+00  9.672029135E+00  9.672029135E+00  0.000000000E+00  0.00000E+00  9.000E+00
      21    -1     0     0   502   512  0.000000000E+00  0.000000000E+00 -7.496240825E+02  7.496240825E+02  0.000000000E+00  0.00000E+00  9.000E+00
      25     1     1     2     0     0  1.015282681E+01 -1.107794312E+00 -6.046479351E+02  6.175176304E+02  1.249983657E+02  0.00000E+00  9.000E+00
       5     1     1     2   501     0 -1.494890293E+00  2.015921033E-01 -1.526417230E-01  4.986094249E+00  4.750000000E+00  0.00000E+00  9.000E+00
      -5     1     1     2     0   503 -1.272453056E+01  5.412890533E+00 -8.177061261E+01  8.306749454E+01  4.750000000E+00  0.00000E+00  9.000E+00
      21     1     1     2   503   512  4.066594050E+00 -4.506688324E+00 -5.338086397E+01  5.372489241E+01  9.536743164E-07  0.00000E+00  9.000E+00
#rwgt            1           9   4.9089487825638200E-003          10       15098           0
</event>
<event>
      6   9999  3.45752E-01  4.50795E+00 -1.00000E+00  2.37572E-01
      21    -1     0     0   501   502  0.000000000E+00  0.000000000E+00  2.880680870E+01  2.880680870E+01  0.000000000E+00  0.00000E+00  9.000E+00
      21    -1     0     0   502   511  0.000000000E+00  0.000000000E+00 -1.249312175E+03  1.249312175E+03  0.000000000E+00  0.00000E+00  9.000E+00
      25     1     1     2     0     0  1.900648686E+00 -6.386409014E+00 -1.122384769E+03  1.129343215E+03  1.249965175E+02  0.00000E+00  9.000E+00
       5     1     1     2   501     0  6.772292284E+00  4.326302057E+00  2.408989142E+01  2.583536725E+01  4.750000000E+00  0.00000E+00  9.000E+00
      -5     1     1     2     0   503 -6.611503761E+00 -1.948892054E+00 -9.400162957E+01  9.437361402E+01  4.750000000E+00  0.00000E+00  9.000E+00
      21     1     1     2   503   511 -2.061437209E+00  4.008999011E+00 -2.820885960E+01  2.856678765E+01  0.000000000E+00  0.00000E+00  9.000E+00
#rwgt            1           9   1.1985939027255624E-002          10       18026           0
</event>
<event>
      6   9999  3.45752E-01  4.07501E+01 -1.00000E+00  1.39720E-01
      21    -1     0     0   501   502  0.000000000E+00  0.000000000E+00  6.803124821E+01  6.803124821E+01  0.000000000E+00  0.00000E+00  9.000E+00
      21    -1     0     0   512   503  0.000000000E+00  0.000000000E+00 -1.864335201E+03  1.864335201E+03  0.000000000E+00  0.00000E+00  9.000E+00
      25     1     1     2     0     0 -1.402181172E+01 -1.948470771E+02 -9.708290308E+02  9.981466614E+02  1.250030243E+02  0.00000E+00  9.000E+00
       5     1     1     2   501     0  2.974585968E+00  3.031857669E-01  3.689628875E+01  3.732075437E+01  4.750000000E+00  0.00000E+00  9.000E+00
      -5     1     1     2     0   503  4.702558990E+01  1.754094750E+02 -4.951528328E+02  5.274265639E+02  4.750000000E+00  0.00000E+00  9.000E+00
      21     1     1     2   512   502 -3.597836415E+01  1.913441642E+01 -3.672183783E+02  3.694724698E+02  5.394796609E-06  0.00000E+00  9.000E+00
#rwgt            1           9   1.5388542043481970E-004          10       23670           0
</event>
<event>
      6   9999  3.45752E-01  1.39900E+01 -1.00000E+00  1.73038E-01
      21    -1     0     0   501   502  0.000000000E+00  0.000000000E+00  9.109107395E+00  9.109107395E+00  0.000000000E+00  0.00000E+00  9.000E+00
      21    -1     0     0   502   511  0.000000000E+00  0.000000000E+00 -8.769455871E+02  8.769455871E+02  0.000000000E+00  0.00000E+00  9.000E+00
      25     1     1     2     0     0 -5.949261979E+00  1.539752008E+01 -7.303778556E+02  7.411812459E+02  1.250014001E+02  0.00000E+00  9.000E+00
       5     1     1     2   501     0 -2.028475800E+00  1.266719495E+00  1.967406700E-03  5.318063202E+00  4.750000000E+00  0.00000E+00  9.000E+00
      -5     1     1     2     0   503  1.480592680E+00 -4.274481631E+00 -1.600887519E+01  1.730057608E+01  4.750000000E+00  0.00000E+00  9.000E+00
      21     1     1     2   503   511  6.497145100E+00 -1.238975794E+01 -1.214517164E+02  1.222548094E+02  1.907348633E-06  0.00000E+00  9.000E+00
#rwgt            1           9   2.0514656905011393E-004          10       25886           0
</event>
<event>
      6   9999  3.45752E-01  3.94296E+01 -1.00000E+00  1.40549E-01
      21    -1     0     0   501   502  0.000000000E+00  0.000000000E+00  2.325217362E+03  2.325217362E+03  0.000000000E+00  0.00000E+00  9.000E+00
       2    -1     0     0   502     0  0.000000000E+00  0.000000000E+00 -2.131490510E+02  2.131490510E+02  0.000000000E+00  0.00000E+00  9.000E+00
      25     1     1     2     0     0 -4.050671840E+01 -3.207072213E+01  4.171417354E+02  4.385227059E+02  1.250024428E+02  0.00000E+00  9.000E+00
       5     1     1     2   501     0 -7.532101435E-01 -3.168171020E+00  1.893098813E+03  1.893107573E+03  4.750000000E+00  0.00000E+00  9.000E+00
      -5     1     1     2     0   503  1.374937798E+01  6.992470798E+00 -3.069232012E+01  3.467738539E+01  4.750000000E+00  0.00000E+00  9.000E+00
       2     1     1     2   503     0  2.751055056E+01  2.824642235E+01 -1.674799167E+02  1.720587494E+02  3.303624740E-06  0.00000E+00  9.000E+00
#rwgt            1           9   2.4480983204422802               10       27762           0
</event>
<event>
      6   9999  3.45752E-01  6.12714E+00 -1.00000E+00  2.12797E-01
      21    -1     0     0   501   502  0.000000000E+00  0.000000000E+00  1.272766823E+03  1.272766823E+03  0.000000000E+00  0.00000E+00  9.000E+00
      21    -1     0     0   511   503  0.000000000E+00  0.000000000E+00 -4.627679625E+01  4.627679625E+01  0.000000000E+00  0.00000E+00  9.000E+00
      25     1     1     2     0     0 -5.214698359E+00  3.089696606E+01  7.021830197E+02  7.139108045E+02  1.250033126E+02  0.00000E+00  9.000E+00
       5     1     1     2   501     0 -2.781891954E-01 -2.724323582E-02  4.194214408E+02  4.194484302E+02  4.750000000E+00  0.00000E+00  9.000E+00
      -5     1     1     2     0   503  1.017945356E+01 -2.692283291E+01  1.435770693E+02  1.465107421E+02  4.750000000E+00  0.00000E+00  9.000E+00
      21     1     1     2   511   502 -4.686566002E+00 -3.946889907E+00 -3.869150310E+01  3.917364232E+01  2.336015456E-06  0.00000E+00  9.000E+00
#rwgt            1           9   5.4591461046537393E-005          10       30066           0
</event>
<event>
      6   9999 -3.45752E-01  1.04009E+01 -1.00000E+00  1.85413E-01
      21    -1     0     0   501   502  0.000000000E+00  0.000000000E+00  5.153028833E+01  5.153028833E+01  0.000000000E+00  0.00000E+00  9.000E+00
      21    -1     0     0   502   512  0.000000000E+00  0.000000000E+00 -4.758359255E+02  4.758359255E+02  0.000000000E+00  0.00000E+00  9.000E+00
      25     1     1     2     0     0 -9.629431407E+00 -3.729863898E+00 -4.072515665E+02  4.261281216E+02  1.249987990E+02  0.00000E+00  9.000E+00
       5     1     1     2   501     0 -4.131316655E-01 -2.542899049E+00  4.057398209E+01  4.093223101E+01  4.750000000E+00  0.00000E+00  9.000E+00
      -5     1     1     2     0   503  2.815484153E-01  2.681041627E+00 -8.607469797E+00  1.019403208E+01  4.750000000E+00  0.00000E+00  9.000E+00
      21     1     1     2   503   512  9.761014657E+00  3.591721321E+00 -4.902058297E+01  5.011182918E+01  0.000000000E+00  0.00000E+00  9.000E+00
#rwgt            1           9  -4.1739499027456094E-004          10       33563           0
</event>
<event>
      6   9999 -3.45752E-01  1.37545E+01 -1.00000E+00  1.73700E-01
      21    -1     0     0   502   503  0.000000000E+00  0.000000000E+00  3.459631320E+01  3.459631320E+01  0.000000000E+00  0.00000E+00  9.000E+00
      21    -1     0     0   501   511  0.000000000E+00  0.000000000E+00 -2.669899800E+03  2.669899800E+03  0.000000000E+00  0.00000E+00  9.000E+00
      25     1     1     2     0     0 -7.350662852E+01  4.808648591E+01 -1.757254696E+02  2.328456433E+02  1.249884730E+02  0.00000E+00  9.000E+00
       5     1     1     2   501     0  8.323405649E+01 -4.725727423E+01 -9.475637522E+02  9.523973882E+02  4.750000000E+00  0.00000E+00  9.000E+00
      -5     1     1     2     0   503 -1.327701995E+01  1.245937669E+01 -2.108544676E+01  2.826081902E+01  4.750000000E+00  0.00000E+00  9.000E+00
      21     1     1     2   502   511  3.549591980E+00 -1.328858836E+01 -1.490928818E+03  1.490992263E+03  2.157918644E-05  0.00000E+00  9.000E+00
#rwgt            1           9  -58.358536606734731               10       36502           0
</event>
<event>
      6   9999  3.45752E-01  2.95628E+01 -1.00000E+00  1.48252E-01
      21    -1     0     0   512   502  0.000000000E+00  0.000000000E+00  6.712965601E+01  6.712965601E+01  0.000000000E+00  0.00000E+00  9.000E+00
      21    -1     0     0   502   503  0.000000000E+00  0.000000000E+00 -1.318998122E+03  1.318998122E+03  0.000000000E+00  0.00000E+00  9.000E+00
      25     1     1     2     0     0  5.634771713E+01 -5.952661134E+01 -5.728140820E+01  1.600752685E+02  1.249977967E+02  0.00000E+00  9.000E+00
       5     1     1     2   501     0 -1.031204337E+00  9.425285958E-02  1.670540396E+00  5.140571097E+00  4.750000000E+00  0.00000E+00  9.000E+00
      -5     1     1     2     0   503 -7.667975574E+01  3.899774127E+01 -1.186727483E+03  1.189850953E+03  4.750000000E+00  0.00000E+00  9.000E+00
      21     1     1     2   512   501  2.136324295E+01  2.043461721E+01 -9.530115375E+00  3.106098563E+01  6.194296387E-07  0.00000E+00  9.000E+00
#rwgt            1           9   4.4181368662196203E-004          10       39054           0
</event>
<event>
      6   9999 -3.45752E-01  1.09462E+01 -1.00000E+00  1.83151E-01
       2    -1     0     0   501     0  0.000000000E+00  0.000000000E+00  1.874280816E+02  1.874280816E+02  0.000000000E+00  0.00000E+00  9.000E+00
      21    -1     0     0   502   503  0.000000000E+00  0.000000000E+00 -1.457828631E+03  1.457828631E+03  0.000000000E+00  0.00000E+00  9.000E+00
      25     1     1     2     0     0  6.145851749E+00 -6.142467225E+00 -1.370585573E+03  1.376301149E+03  1.249981547E+02  0.00000E+00  9.000E+00
       5     1     1     2   501     0 -1.320333202E+00 -2.930208810E+00  1.623195009E+00  5.960424941E+00  4.750000000E+00  0.00000E+00  9.000E+00
      -5     1     1     2     0   503  5.700730804E-01 -4.513565154E-01 -8.198053461E+01  8.212124731E+01  4.750000000E+00  0.00000E+00  9.000E+00
       2     1     1     2   502     0 -5.395591627E+00  9.524032551E+00  1.805423632E+02  1.808738912E+02  7.864199878E-06  0.00000E+00  9.000E+00
#rwgt            1           9  -4.2872825943964807E-003          10       41286           0
</event>
<event>
      6   9999  3.45752E-01  3.84807E+01 -1.00000E+00  1.41168E-01
      21    -1     0     0   501   502  0.000000000E+00  0.000000000E+00  3.572950572E+01  3.572950572E+01  0.000000000E+00  0.00000E+00  9.000E+00
      21    -1     0     0   511   503  0.000000000E+00  0.000000000E+00 -2.310317346E+03  2.310317346E+03  0.000000000E+00  0.00000E+00  9.000E+00
      25     1     1     2     0     0  1.401673460E+02  6.469500788E+01 -3.972673462E+02  4.441611518E+02  1.250018218E+02  0.00000E+00  9.000E+00
       5     1     1     2   501     0  1.939037707E+00  1.600644100E-01  5.282244832E+00  7.365466605E+00  4.750000000E+00  0.00000E+00  9.000E+00
      -5     1     1     2     0   503 -1.060769802E+02 -7.836971491E+01 -7.682216484E+02  7.794749524E+02  4.750000000E+00  0.00000E+00  9.000E+00
      21     1     1     2   511   502 -3.602940351E+01  1.351464262E+01 -1.114381091E+03  1.115045281E+03  0.000000000E+00  0.00000E+00  9.000E+00
#rwgt            1           9   3.0857124848482877E-006          10       43560           0
</event>
<event>
      6   9999  3.45752E-01  1.16580E+01 -1.00000E+00  1.80439E-01
       1    -1     0     0   502     0  0.000000000E+00  0.000000000E+00  3.763609812E+02  3.763609812E+02  0.000000000E+00  0.00000E+00  9.000E+00
      21    -1     0     0   501   502  0.000000000E+00  0.000000000E+00 -4.272167142E+02  4.272167142E+02  0.000000000E+00  0.00000E+00  9.000E+00
      25     1     1     2     0     0 -4.349592739E+01  3.102601958E+01 -1.984426450E+02  2.405471074E+02  1.250156708E+02  0.00000E+00  9.000E+00
       5     1     1     2   501     0  2.203893305E-02 -1.640707589E+01 -7.589172684E+01  7.779016215E+01  4.750000000E+00  0.00000E+00  9.000E+00
      -5     1     1     2     0   503  3.789963029E+01 -4.380007668E+00 -1.279587294E+02  1.336097503E+02  4.750000000E+00  0.00000E+00  9.000E+00
       1     1     1     2   503     0  5.574258172E+00 -1.023893602E+01  3.514373682E+02  3.516306755E+02  5.394796609E-06  0.00000E+00  9.000E+00
#rwgt            1           9   8.8189690702912479E-002          10       45211           0
</event>
<event>
      6   9999 -3.45752E-01  2.41140E+00 -1.00000E+00  3.04327E-01
      21    -1     0     0   501   502  0.000000000E+00  0.000000000E+00  1.232453323E+01  1.232453323E+01  0.000000000E+00  0.00000E+00  9.000E+00
      21    -1     0     0   502   511  0.000000000E+00  0.000000000E+00 -1.070628391E+03  1.070628391E+03  0.000000000E+00  0.00000E+00  9.000E+00
      25     1     1     2     0     0 -4.094025205E+01  3.846096862E+01 -5.350820418E+02  5.523524995E+02  1.250005674E+02  0.00000E+00  9.000E+00
       5     1     1     2   501     0  1.336852109E+00  1.186578886E+00 -4.079979499E+00  6.511825836E+00  4.750000000E+00  0.00000E+00  9.000E+00
      -5     1     1     2     0   503  3.842914068E+01 -3.754137841E+01 -2.922987639E+02  2.972327099E+02  4.750000000E+00  0.00000E+00  9.000E+00
      21     1     1     2   503   511  1.174259261E+00 -2.106169095E+00 -2.268430720E+02  2.268558885E+02  0.000000000E+00  0.00000E+00  9.000E+00
#rwgt            1           9  -3.8868117041789253E-002          10       47669           0
</event>
<event>
      6   9999 -3.45752E-01  1.01862E+01 -1.00000E+00  1.86354E-01
      21    -1     0     0   512   502  0.000000000E+00  0.000000000E+00  2.579869105E+01  2.579869105E+01  0.000000000E+00  0.00000E+00  9.000E+00
      21    -1     0     0   502   503  0.000000000E+00  0.000000000E+00 -1.095950366E+03  1.095950366E+03  0.000000000E+00  0.00000E+00  9.000E+00
      25     1     1     2     0     0  6.297303906E+01 -9.295204419E+01 -7.426636361E+02  7.614327867E+02  1.249997042E+02  0.00000E+00  9.000E+00
       5     1     1     2   501     0  8.389578526E+00  1.199883740E+01 -4.594094795E+00  1.606316699E+01  4.750000000E+00  0.00000E+00  9.000E+00
      -5     1     1     2     0   503 -6.382688041E+01  8.780670983E+01 -3.031817428E+02  3.220646218E+02  4.750000000E+00  0.00000E+00  9.000E+00
      21     1     1     2   512   501 -7.535737176E+00 -6.853503040E+00 -1.971220151E+01  2.218848186E+01  3.371747881E-07  0.00000E+00  9.000E+00
#rwgt            1           9  -6.0050959934989040E-004          10       54846           0
</event>
<event>
      6   9999  3.45752E-01  9.84621E+00 -1.00000E+00  1.87905E-01
      21    -1     0     0   501   511  0.000000000E+00  0.000000000E+00  1.283148280E+01  1.283148280E+01  0.000000000E+00  0.00000E+00  9.000E+00
      21    -1     0     0   502   503  0.000000000E+00  0.000000000E+00 -7.925542917E+02  7.925542917E+02  0.000000000E+00  0.00000E+00  9.000E+00
      25     1     1     2     0     0 -2.385811860E+00 -6.702632836E+00 -6.398371648E+02  6.519708924E+02  1.249953187E+02  0.00000E+00  9.000E+00
       5     1     1     2   501     0 -1.391507068E+00  1.308755049E+00  1.662808441E+00  5.382988353E+00  4.750000000E+00  0.00000E+00  9.000E+00
      -5     1     1     2     0   503 -5.832117641E+00  7.540174817E+00 -1.365955716E+02  1.370101475E+02  4.750000000E+00  0.00000E+00  9.000E+00
      21     1     1     2   502   511  9.609436570E+00 -2.146297030E+00 -4.952881025E+00  1.102174635E+01  4.380028980E-07  0.00000E+00  9.000E+00
#rwgt            1           9   8.0689899348067548E-005          10       58542           0
</event>
<event>
      6   9999  3.45752E-01  1.80534E+01 -1.00000E+00  1.63681E-01
      21    -1     0     0   512   502  0.000000000E+00  0.000000000E+00  1.385869174E+02  1.385869174E+02  0.000000000E+00  0.00000E+00  9.000E+00
      21    -1     0     0   502   503  0.000000000E+00  0.000000000E+00 -2.479624537E+03  2.479624537E+03  0.000000000E+00  0.00000E+00  9.000E+00
      25     1     1     2     0     0 -4.472226002E+00  5.283522363E-01 -2.408744663E+03  2.411990443E+03  1.250070724E+02  0.00000E+00  9.000E+00
       5     1     1     2   501     0  8.387032153E+00 -1.819443891E+01  1.757658243E+01  2.707173185E+01  4.750000000E+00  0.00000E+00  9.000E+00
      -5     1     1     2     0   503  1.250854241E-02  4.506259269E-02 -6.370968115E+01  6.388652565E+01  4.750000000E+00  0.00000E+00  9.000E+00
      21     1     1     2   512   501 -3.927314693E+00  1.762102409E+01  1.138401422E+02  1.152627532E+02  1.348699152E-06  0.00000E+00  9.000E+00
#rwgt            1           9  0.15306724631982788               10       60875           0
</event>
<event>
      6   9999  3.45752E-01  5.30397E+00 -1.00000E+00  2.21799E-01
      -1    -1     0     0     0   502  0.000000000E+00  0.000000000E+00  6.222621407E+01  6.222621407E+01  0.000000000E+00  0.00000E+00  9.000E+00
      21    -1     0     0   502   503  0.000000000E+00  0.000000000E+00 -8.525130290E+02  8.525130290E+02  0.000000000E+00  0.00000E+00  9.000E+00
      25     1     1     2     0     0  2.636368318E+00  1.139627961E+01 -7.670388452E+02  7.772446961E+02  1.249956072E+02  0.00000E+00  9.000E+00
       5     1     1     2   501     0  2.580973045E+00 -2.023552769E+00  7.537172694E+00  9.493558863E+00  4.750000000E+00  0.00000E+00  9.000E+00
      -5     1     1     2     0   503 -1.347963962E+00 -5.745050742E+00 -7.906680495E+01  7.942886604E+01  4.750000000E+00  0.00000E+00  9.000E+00
      -1     1     1     2     0   501 -3.869377401E+00 -3.627676096E+00  4.828166251E+01  4.857212215E+01  0.000000000E+00  0.00000E+00  9.000E+00
#rwgt            1           9   2.9673005567118504E-004          10       63246           0
</event>
<event>
      6   9999  3.45752E-01  1.68426E+01 -1.00000E+00  1.66123E-01
      21    -1     0     0   501   502  0.000000000E+00  0.000000000E+00  3.255174228E+01  3.255174228E+01  0.000000000E+00  0.00000E+00  9.000E+00
      21    -1     0     0   502   511  0.000000000E+00  0.000000000E+00 -1.245069581E+03  1.245069581E+03  0.000000000E+00  0.00000E+00  9.000E+00
      25     1     1     2     0     0 -6.238617566E+01 -4.473829768E+01 -8.402174334E+02  8.529263603E+02  1.249979621E+02  0.00000E+00  9.000E+00
       5     1     1     2   501     0  4.796840388E+00 -7.902232090E-01  2.138895281E+01  2.244290384E+01  4.750000000E+00  0.00000E+00  9.000E+00
      -5     1     1     2     0   503  5.853105934E+01  2.871227327E+01 -2.971812539E+02  3.042852933E+02  4.750000000E+00  0.00000E+00  9.000E+00
      21     1     1     2   503   511 -9.417240681E-01  1.681624762E+01 -9.650810458E+01  9.796676619E+01  1.907348633E-06  0.00000E+00  9.000E+00
#rwgt            1           9   7.3070505395781088E-004          10       67322           0
</event>
<event>
      6   9999 -3.45752E-01  1.35229E+01 -1.00000E+00  1.74368E-01
      21    -1     0     0   501   502  0.000000000E+00  0.000000000E+00  9.218538283E+00  9.218538283E+00  0.000000000E+00  0.00000E+00  9.000E+00
      21    -1     0     0   502   512  0.000000000E+00  0.000000000E+00 -8.955082880E+02  8.955082880E+02  0.000000000E+00  0.00000E+00  9.000E+00
      25     1     1     2     0     0  9.271826286E+00  1.838562852E+01 -5.508491428E+02  5.652293639E+02  1.250018303E+02  0.00000E+00  9.000E+00
       5     1     1     2   501     0  5.034489972E-01  5.000222033E-01 -1.941817725E+00  5.180409170E+00  4.750000000E+00  0.00000E+00  9.000E+00
      -5     1     1     2     0   503 -6.053107999E+00 -5.885103031E+00 -1.199410592E+02  1.203316033E+02  4.750000000E+00  0.00000E+00  9.000E+00
      21     1     1     2   503   512 -3.722167284E+00 -1.300054769E+01 -2.135577300E+02  2.139854500E+02  0.000000000E+00  0.00000E+00  9.000E+00
#rwgt            1           9  -1.9380147075070641E-003          10       69384           0
</event>
<event>
      6   9999 -3.45752E-01  2.25675E+01 -1.00000E+00  1.56307E-01
      21    -1     0     0   501   502  0.000000000E+00  0.000000000E+00  3.750279794E+01  3.750279794E+01  0.000000000E+00  0.00000E+00  9.000E+00
      21    -1     0     0   502   511  0.000000000E+00  0.000000000E+00 -1.614903516E+03  1.614903516E+03  0.000000000E+00  0.00000E+00  9.000E+00
      25     1     1     2     0     0  1.037600643E+00  8.997920157E+01 -2.619032632E+02  3.038351556E+02  1.250005967E+02  0.00000E+00  9.000E+00
       5     1     1     2   501     0 -1.411004889E+00  4.479875003E+00  1.380126995E+01  1.533289819E+01  4.750000000E+00  0.00000E+00  9.000E+00
      -5     1     1     2     0   503  1.445480208E+01 -7.682368418E+01 -9.246243585E+02  9.279351198E+02  4.750000000E+00  0.00000E+00  9.000E+00
      21     1     1     2   503   511 -1.408139784E+01 -1.763539239E+01 -4.046743664E+02  4.053031405E+02  5.394796609E-06  0.00000E+00  9.000E+00
#rwgt            1           9  -1.3880389992774802E-004          10       71215           0
</event>
<event>
      6   9999  3.45752E-01  1.99159E+01 -1.00000E+00  1.60350E-01
      21    -1     0     0   501   512  0.000000000E+00  0.000000000E+00  9.296398992E+01  9.296398992E+01  0.000000000E+00  0.00000E+00  9.000E+00
      21    -1     0     0   502   503  0.000000000E+00  0.000000000E+00 -3.103714812E+02  3.103714812E+02  0.000000000E+00  0.00000E+00  9.000E+00
      25     1     1     2     0     0  2.660493087E+01  4.118612144E+00 -9.973834952E+01  1.621708108E+02  1.250073926E+02  0.00000E+00  9.000E+00
       5     1     1     2   501     0  3.950053331E+00  6.041530590E+00  4.028122188E+01  4.119760126E+01  4.750000000E+00  0.00000E+00  9.000E+00
      -5     1     1     2     0   503 -1.187772280E+01 -3.246190022E+00 -1.739318060E+02  1.744318024E+02  4.750000000E+00  0.00000E+00  9.000E+00
      21     1     1     2   502   512 -1.867726140E+01 -6.913952711E+00  1.598144230E+01  2.553525668E+01  6.529361695E-07  0.00000E+00  9.000E+00
#rwgt            1           9   7.1817773887186877E-003          10       73411           0
</event>
<event>
      6   9999  3.45752E-01  1.76748E+01 -1.00000E+00  1.64418E-01
      21    -1     0     0   511   503  0.000000000E+00  0.000000000E+00  2.725101716E+01  2.725101716E+01  0.000000000E+00  0.00000E+00  9.000E+00
      21    -1     0     0   501   502  0.000000000E+00  0.000000000E+00 -6.999780719E+02  6.999780719E+02  0.000000000E+00  0.00000E+00  9.000E+00
      25     1     1     2     0     0  2.472932278E+01  7.364873306E+00 -4.831808983E+02  4.997550461E+02  1.250021792E+02  0.00000E+00  9.000E+00
       5     1     1     2   501     0 -1.111838976E+01  6.868938078E-01 -1.872498771E+02  1.876410653E+02  4.750000000E+00  0.00000E+00  9.000E+00
      -5     1     1     2     0   503  2.717600283E+00 -1.285946321E+00 -1.632607600E+01  1.726679666E+01  4.750000000E+00  0.00000E+00  9.000E+00
      21     1     1     2   511   502 -1.632853330E+01 -6.765820793E+00  1.402979669E+01  2.256618103E+01  8.920806376E-07  0.00000E+00  9.000E+00
#rwgt            1           9   1.4203866045609456E-003          10       75452           0
</event>
<event>
      6   9999  3.45752E-01  1.27771E+01 -1.00000E+00  1.76638E-01
      21    -1     0     0   501   502  0.000000000E+00  0.000000000E+00  9.454833813E+00  9.454833813E+00  0.000000000E+00  0.00000E+00  9.000E+00
      21    -1     0     0   502   512  0.000000000E+00  0.000000000E+00 -9.052079935E+02  9.052079935E+02  0.000000000E+00  0.00000E+00  9.000E+00
      25     1     1     2     0     0 -3.597416117E+00  8.352779722E+00 -7.170439767E+02  7.279131950E+02  1.249913776E+02  0.00000E+00  9.000E+00
       5     1     1     2   501     0 -1.445582622E+00 -5.845032897E-01  8.729972632E-01  5.075034722E+00  4.750000000E+00  0.00000E+00  9.000E+00
      -5     1     1     2     0   503 -7.005811410E+00 -3.516287953E+00 -2.612023981E+01  2.768167448E+01  4.750000000E+00  0.00000E+00  9.000E+00
      21     1     1     2   503   512  1.204881015E+01 -4.251988479E+00 -1.534619403E+02  1.539929231E+02  2.697398305E-06  0.00000E+00  9.000E+00
#rwgt            1           9   1.4752525439460553E-003          10       76881           0
</event>
<event>
      6   9999  3.45752E-01  1.21264E+01 -1.00000E+00  1.78785E-01
      21    -1     0     0   501   502  0.000000000E+00  0.000000000E+00  7.010977248E+02  7.010977248E+02  0.000000000E+00  0.00000E+00  9.000E+00
      21    -1     0     0   511   503  0.000000000E+00  0.000000000E+00 -3.253799749E+01  3.253799749E+01  0.000000000E+00  0.00000E+00  9.000E+00
      25     1     1     2     0     0 -1.927633928E+01  6.210923563E+01  4.201567759E+02  4.431537953E+02  1.249977419E+02  0.00000E+00  9.000E+00
       5     1     1     2   501     0 -3.467685429E+00 -6.720734280E-01  1.963914363E+02  1.964806231E+02  4.750000000E+00  0.00000E+00  9.000E+00
      -5     1     1     2     0   503  1.067086464E+01 -6.030248220E+01  5.391174661E+01  8.172695782E+01  4.750000000E+00  0.00000E+00  9.000E+00
      21     1     1     2   511   502  1.207316007E+01 -1.134680003E+00 -1.900231482E+00  1.227434611E+01  3.358551165E-07  0.00000E+00  9.000E+00
#rwgt            1           9   5.2265996415386631E-004          10       78758           0
</event>
<event>
      6   9999 -3.45752E-01  3.62417E+00 -1.00000E+00  2.57067E-01
      21    -1     0     0   512   502  0.000000000E+00  0.000000000E+00  9.532796886E+01  9.532796886E+01  0.000000000E+00  0.00000E+00  9.000E+00
      21    -1     0     0   502   503  0.000000000E+00  0.000000000E+00 -8.740402316E+02  8.740402316E+02  0.000000000E+00  0.00000E+00  9.000E+00
      25     1     1     2     0     0 -2.039466952E+01 -2.572680755E+01 -5.276391156E+02  5.432366148E+02  1.250006887E+02  0.00000E+00  9.000E+00
       5     1     1     2   501     0 -1.261705329E+00  3.361189682E-01  4.254423147E+00  6.509031618E+00  4.750000000E+00  0.00000E+00  9.000E+00
      -5     1     1     2     0   503  1.986203125E+01  2.224189073E+01 -3.367592465E+02  3.381102698E+02  4.750000000E+00  0.00000E+00  9.000E+00
      21     1     1     2   512   501  1.794343592E+00  3.148797848E+00  8.143167617E+01  8.151228423E+01  2.697398305E-06  0.00000E+00  9.000E+00
#rwgt            1           9  -1.3329231792477288E-004          10       81446           0
</event>
<event>
      6   9999  3.45752E-01  1.29033E+01 -1.00000E+00  1.76240E-01
      21    -1     0     0   501   511  0.000000000E+00  0.000000000E+00  2.526519623E+01  2.526519623E+01  0.000000000E+00  0.00000E+00  9.000E+00
      21    -1     0     0   502   503  0.000000000E+00  0.000000000E+00 -7.213015498E+02  7.213015498E+02  0.000000000E+00  0.00000E+00  9.000E+00
      25     1     1     2     0     0 -1.451750650E+00 -1.724096564E+01 -6.776664776E+02  6.893180023E+02  1.250123788E+02  0.00000E+00  9.000E+00
       5     1     1     2   501     0 -6.081003910E-01  2.467365338E+01 -1.360152771E-02  2.513407333E+01  4.750000000E+00  0.00000E+00  9.000E+00
      -5     1     1     2     0   503 -5.566419506E+00  2.975765420E+00 -1.747942813E+01  1.918158267E+01  4.750000000E+00  0.00000E+00  9.000E+00
      21     1     1     2   502   511  7.626270547E+00 -1.040845316E+01 -8.768462783E-01  1.293308776E+01  2.533197403E-07  0.00000E+00  9.000E+00
#rwgt            1           9   2.7599493399822099E-005          10       86733           0
</event>
<event>
      6   9999 -3.45752E-01  5.18068E+00 -1.00000E+00  2.23343E-01
      21    -1     0     0   501   502  0.000000000E+00  0.000000000E+00  9.409852183E+01  9.409852183E+01  0.000000000E+00  0.00000E+00  9.000E+00
      21    -1     0     0   512   503  0.000000000E+00  0.000000000E+00 -9.051343206E+02  9.051343206E+02  0.000000000E+00  0.00000E+00  9.000E+00
      25     1     1     2     0     0  6.634992540E+00  2.063946007E+00 -3.961176904E+02  4.154318251E+02  1.250043743E+02  0.00000E+00  9.000E+00
       5     1     1     2   501     0 -6.320160554E+00 -1.690914074E+00  8.410940615E+01  8.449709061E+01  4.750000000E+00  0.00000E+00  9.000E+00
      -5     1     1     2     0   503 -2.896484605E-01 -5.553646813E+00 -1.104499049E+02  1.106917833E+02  4.750000000E+00  0.00000E+00  9.000E+00
      21     1     1     2   512   502 -2.518352535E-02  5.180614880E+00 -3.885776095E+02  3.886121435E+02  5.394796609E-06  0.00000E+00  9.000E+00
#rwgt            1           9  -3.7653198525712168E-003          10       89348           0
</event>
<event>
      6   9999  3.45752E-01  1.16499E+01 -1.00000E+00  1.80468E-01
      21    -1     0     0   502   503  0.000000000E+00  0.000000000E+00  1.687773116E+02  1.687773116E+02  0.000000000E+00  0.00000E+00  9.000E+00
      21    -1     0     0   511   502  0.000000000E+00  0.000000000E+00 -3.366959493E+02  3.366959493E+02  0.000000000E+00  0.00000E+00  9.000E+00
      25     1     1     2     0     0  4.426531529E+00 -3.111301303E+01  8.415221363E+01  1.539247695E+02  1.249945032E+02  0.00000E+00  9.000E+00
       5     1     1     2   501     0  2.131990595E+00  7.364123012E+00  9.450875283E+00  1.306358432E+01  4.750000000E+00  0.00000E+00  9.000E+00
      -5     1     1     2     0   503 -1.143684502E+01  3.432825256E+01  2.968671268E+01  4.704353045E+01  4.750000000E+00  0.00000E+00  9.000E+00
      21     1     1     2   511   501  4.878322893E+00 -1.057936254E+01 -2.912084392E+02  2.914413767E+02  5.394796609E-06  0.00000E+00  9.000E+00
#rwgt            1           9   3.2613050712719511E-004          10       95812           0
</event>
<event>
      6   9999  3.45752E-01  3.85034E+01 -1.00000E+00  1.41153E-01
      21    -1     0     0   501   502  0.000000000E+00  0.000000000E+00  3.033909728E+01  3.033909728E+01  0.000000000E+00  0.00000E+00  9.000E+00
      21    -1     0     0   512   503  0.000000000E+00  0.000000000E+00 -4.849080413E+03  4.849080413E+03  0.000000000E+00  0.00000E+00  9.000E+00
      25     1     1     2     0     0 -1.492673059E-01 -3.723877560E+01 -1.452540850E+03  1.458388904E+03  1.250460884E+02  0.00000E+00  9.000E+00
       5     1     1     2   501     0  1.498157857E+01 -1.077650124E+01  2.287960826E+01  2.977615908E+01  4.750000000E+00  0.00000E+00  9.000E+00
      -5     1     1     2     0   503 -1.653340082E+01  9.549425579E+00 -3.038942165E+03  3.039005856E+03  4.750000000E+00  0.00000E+00  9.000E+00
      21     1     1     2   512   502  1.701089559E+00  3.846585126E+01 -3.501379081E+02  3.522485914E+02  3.814697266E-06  0.00000E+00  9.000E+00
#rwgt            1           9   1.5307096143230637E-003          10       97862           0
</event>
<event>
      6   9999  3.45752E-01  1.00524E+01 -1.00000E+00  1.86955E-01
      21    -1     0     0   501   511  0.000000000E+00  0.000000000E+00  6.072536677E+01  6.072536677E+01  0.000000000E+00  0.00000E+00  9.000E+00
      21    -1     0     0   502   503  0.000000000E+00  0.000000000E+00 -1.051017127E+03  1.051017127E+03  0.000000000E+00  0.00000E+00  9.000E+00
      25     1     1     2     0     0  1.600397484E+01  4.180859200E+00 -4.997833029E+02  5.154410326E+02  1.249900052E+02  0.00000E+00  9.000E+00
       5     1     1     2   501     0 -4.089374702E+00 -2.760991187E-02  1.576661979E+01  1.696680722E+01  4.750000000E+00  0.00000E+00  9.000E+00
      -5     1     1     2     0   503 -1.039719257E+01  5.783969158E+00 -5.420361804E+02  5.421875499E+02  4.750000000E+00  0.00000E+00  9.000E+00
      21     1     1     2   502   511 -1.517407569E+00 -9.937218446E+00  3.576110327E+01  3.714710410E+01  4.768371582E-07  0.00000E+00  9.000E+00
#rwgt            1           9  0.21954553515622452               10       99907           0
</event>
<event>
      6   9999  3.45752E-01  2.01542E+01 -1.00000E+00  1.59956E-01
      21    -1     0     0   501   502  0.000000000E+00  0.000000000E+00  1.529647281E+02  1.529647281E+02  0.000000000E+00  0.00000E+00  9.000E+00
      21    -1     0     0   512   503  0.000000000E+00  0.000000000E+00 -2.900771371E+02  2.900771371E+02  0.000000000E+00  0.00000E+00  9.000E+00
      25     1     1     2     0     0  1.861595882E+01 -1.030298539E+01 -2.349935695E+01  1.289530565E+02  1.249958623E+02  0.00000E+00  9.000E+00
       5     1     1     2   501     0  3.764701377E+00  5.958377546E-01  8.618930709E+01  8.640420797E+01  4.750000000E+00  0.00000E+00  9.000E+00
      -5     1     1     2     0   503 -3.520582023E+00  1.681280722E+01  7.549789432E+00  1.935527848E+01  4.750000000E+00  0.00000E+00  9.000E+00
      21     1     1     2   512   502 -1.886007817E+01 -7.105659585E+00 -2.073521486E+02  2.083293222E+02  2.697398305E-06  0.00000E+00  9.000E+00
#rwgt            1           9   1496.5516885587665               10      103004           0
</event>
<event>
      6   9999  3.45752E-01  8.02659E+00 -1.00000E+00  1.97845E-01
      21    -1     0     0   511   502  0.000000000E+00  0.000000000E+00  1.158376638E+02  1.158376638E+02  0.000000000E+00  0.00000E+00  9.000E+00
      21    -1     0     0   502   503  0.000000000E+00  0.000000000E+00 -8.175147698E+02  8.175147698E+02  0.000000000E+00  0.00000E+00  9.000E+00
      25     1     1     2     0     0 -6.053492903E+00  7.615350654E-01 -5.046620268E+02  5.199478191E+02  1.249989944E+02  0.00000E+00  9.000E+00
       5     1     1     2   501     0 -3.141440255E-01 -7.604835187E-01  1.590245086E+00  5.076258571E+00  4.750000000E+00  0.00000E+00  9.000E+00
      -5     1     1     2     0   503  1.031677558E+01 -6.988932654E+00 -3.031664428E+02  3.034596111E+02  4.750000000E+00  0.00000E+00  9.000E+00
      21     1     1     2   511   501 -3.949138651E+00  6.987881107E+00  1.045611184E+02  1.048687450E+02  2.697398305E-06  0.00000E+00  9.000E+00
#rwgt            1           9   1.4968311328284325E-002          10      104645           0
</event>
<event>
      6   9999  3.45752E-01  1.51001E+01 -1.00000E+00  1.70121E-01
      21    -1     0     0   512   503  0.000000000E+00  0.000000000E+00  2.794115598E+03  2.794115598E+03  0.000000000E+00  0.00000E+00  9.000E+00
      21    -1     0     0   501   502  0.000000000E+00  0.000000000E+00 -5.388957640E+00  5.388957640E+00  0.000000000E+00  0.00000E+00  9.000E+00
      25     1     1     2     0     0  1.197714146E+01 -3.223807543E+01  1.105648993E+03  1.113223515E+03  1.249966198E+02  0.00000E+00  9.000E+00
       5     1     1     2   501     0  4.787010673E+00  1.792200918E+01  8.665314564E+01  8.874369856E+01  4.750000000E+00  0.00000E+00  9.000E+00
      -5     1     1     2     0   503 -1.185997588E+01  3.454836885E-02  7.812347443E+01  7.916122775E+01  4.750000000E+00  0.00000E+00  9.000E+00
      21     1     1     2   512   502 -4.904176253E+00  1.428151787E+01  1.518301028E+03  1.518376114E+03  2.157918644E-05  0.00000E+00  9.000E+00
#rwgt            1           9  0.18702179486749013               10      107356           0
</event>
<event>
      6   9999  3.45752E-01  2.10111E+01 -1.00000E+00  1.58593E-01
      21    -1     0     0   511   502  0.000000000E+00  0.000000000E+00  1.004878076E+01  1.004878076E+01  0.000000000E+00  0.00000E+00  9.000E+00
      21    -1     0     0   502   503  0.000000000E+00  0.000000000E+00 -7.359619845E+02  7.359619845E+02  0.000000000E+00  0.00000E+00  9.000E+00
      25     1     1     2     0     0 -1.242871336E+01  2.141638186E+01 -6.213341847E+02  6.342657505E+02  1.249949553E+02  0.00000E+00  9.000E+00
       5     1     1     2   501     0  3.015793425E+00 -1.983276275E+00 -3.414781456E+01  3.466502753E+01  4.750000000E+00  0.00000E+00  9.000E+00
      -5     1     1     2     0   503  1.599837349E+00  7.130747596E-02 -3.869805105E+01  3.902135594E+01  4.750000000E+00  0.00000E+00  9.000E+00
      21     1     1     2   511   501  7.813082584E+00 -1.950441306E+01 -3.173315338E+01  3.805863124E+01  1.215700987E-06  0.00000E+00  9.000E+00
#rwgt            1           9   4.6944935791910525E-004          10      109083           0
</event>
<event>
      6   9999 -3.45752E-01  3.65223E+01 -1.00000E+00  1.42516E-01
      21    -1     0     0   501   502  0.000000000E+00  0.000000000E+00  2.973746872E+01  2.973746872E+01  0.000000000E+00  0.00000E+00  9.000E+00
      21    -1     0     0   512   503  0.000000000E+00  0.000000000E+00 -8.172989524E+02  8.172989524E+02  0.000000000E+00  0.00000E+00  9.000E+00
      25     1     1     2     0     0 -6.761022566E+01 -3.727844093E+01 -6.003436185E+02  6.180601943E+02  1.250004750E+02  0.00000E+00  9.000E+00
       5     1     1     2   501     0 -2.455995817E+00 -7.199227595E-01  3.863453353E+00  6.636186861E+00  4.750000000E+00  0.00000E+00  9.000E+00
      -5     1     1     2     0   503  3.962724184E+01  1.781561330E+01 -2.119954500E+01  4.857671851E+01  4.750000000E+00  0.00000E+00  9.000E+00
      21     1     1     2   512   502  3.043897963E+01  2.018275039E+01 -1.698817735E+02  1.737633214E+02  2.697398305E-06  0.00000E+00  9.000E+00
#rwgt            1           9  -5.2698801770143845E-004          10      110481           0
</event>
<event>
      6   9999  3.45752E-01  1.52198E+02 -1.00000E+00  1.13162E-01
      21    -1     0     0   502   503  0.000000000E+00  0.000000000E+00  7.209295276E+02  7.209295276E+02  0.000000000E+00  0.00000E+00  9.000E+00
      21    -1     0     0   511   502  0.000000000E+00  0.000000000E+00 -2.429240891E+03  2.429240891E+03  0.000000000E+00  0.00000E+00  9.000E+00
      25     1     1     2     0     0 -5.281820261E+02  1.373075384E+01  2.735941200E+02  6.079832942E+02  1.250006288E+02  0.00000E+00  9.000E+00
       5     1     1     2   501     0  5.405203743E+02 -5.080475344E+01 -2.003196738E+03  2.075466968E+03  4.750000000E+00  0.00000E+00  9.000E+00
      -5     1     1     2     0   503 -1.396753558E+02 -4.628949459E+01  1.894396463E+02  2.399205378E+02  4.750000000E+00  0.00000E+00  9.000E+00
      21     1     1     2   511   501  1.273370076E+02  8.336349419E+01 -1.681483909E+02  2.267996187E+02  2.697398305E-06  0.00000E+00  9.000E+00
#rwgt            1           9   7.9170012520302731E-004          10      111587           0
</event>
<event>
      6   9999  3.45752E-01  1.72314E+01 -1.00000E+00  1.65312E-01
      21    -1     0     0   512   502  0.000000000E+00  0.000000000E+00  5.398693520E+02  5.398693520E+02  0.000000000E+00  0.00000E+00  9.000E+00
      21    -1     0     0   502   503  0.000000000E+00  0.000000000E+00 -1.155431448E+03  1.155431448E+03  0.000000000E+00  0.00000E+00  9.000E+00
      25     1     1     2     0     0 -2.518694133E+01  3.238423883E+00 -8.406867706E+02  8.503093530E+02  1.250075207E+02  0.00000E+00  9.000E+00
       5     1     1     2   501     0 -4.884936653E+00  9.695023594E+00  2.528477411E+01  2.792379613E+01  4.750000000E+00  0.00000E+00  9.000E+00
      -5     1     1     2     0   503  3.206957009E+01  4.181721075E+00 -3.076016549E+02  3.093336140E+02  4.750000000E+00  0.00000E+00  9.000E+00
      21     1     1     2   512   501 -1.997692099E+00 -1.711516855E+01  5.074415556E+02  5.077340368E+02  7.629394531E-06  0.00000E+00  9.000E+00
#rwgt            1           9   1.3788154512821701E-003          10      113824           0
</event>
<event>
      6   9999  3.45752E-01  3.62785E+01 -1.00000E+00  1.42691E-01
      21    -1     0     0   511   502  0.000000000E+00  0.000000000E+00  7.466377920E+01  7.466377920E+01  0.000000000E+00  0.00000E+00  9.000E+00
      21    -1     0     0   502   503  0.000000000E+00  0.000000000E+00 -1.487681603E+03  1.487681603E+03  0.000000000E+00  0.00000E+00  9.000E+00
      25     1     1     2     0     0  3.467380414E+01  4.012485482E+01 -5.557436373E+02  5.720901292E+02  1.249953953E+02  0.00000E+00  9.000E+00
       5     1     1     2   501     0 -1.273467035E+01 -1.165809897E+01  5.386932996E+01  5.676751105E+01  4.750000000E+00  0.00000E+00  9.000E+00
      -5     1     1     2     0   503 -2.254302920E+01 -6.474026553E+01 -8.875629556E+02  8.902191039E+02  4.750000000E+00  0.00000E+00  9.000E+00
      21     1     1     2   511   501  6.038954175E-01  3.627350967E+01 -2.358056080E+01  4.326863808E+01  1.066240300E-06  0.00000E+00  9.000E+00
#rwgt            1           9   8.5456625063220311E-004          10      116053           0
</event>
<event>
      6   9999 -3.45752E-01  1.29285E+01 -1.00000E+00  1.76162E-01
      21    -1     0     0   501   502  0.000000000E+00  0.000000000E+00  4.992169285E+01  4.992169285E+01  0.000000000E+00  0.00000E+00  9.000E+00
      21    -1     0     0   502   512  0.000000000E+00  0.000000000E+00 -1.979631286E+03  1.979631286E+03  0.000000000E+00  0.00000E+00  9.000E+00
      25     1     1     2     0     0  1.044566091E+01  8.904104578E+00 -1.232894634E+03  1.239290705E+03  1.249955106E+02  0.00000E+00  9.000E+00
       5     1     1     2   501     0 -5.192781137E-01 -1.327749655E+00  4.628503586E+01  4.654996899E+01  4.750000000E+00  0.00000E+00  9.000E+00
      -5     1     1     2     0   503 -3.674452664E-01  1.128433588E+00 -2.391055681E+01  2.440667133E+01  4.750000000E+00  0.00000E+00  9.000E+00
      21     1     1     2   503   512 -9.558937530E+00 -8.704788511E+00 -7.191894386E+02  7.193056341E+02  0.000000000E+00  0.00000E+00  9.000E+00
#rwgt            1           9  -3.1277078398391098E-002          10      117807           0
</event>
<event>
      6   9999  3.45752E-01  7.13962E+00 -1.00000E+00  2.04051E-01
      21    -1     0     0   511   502  0.000000000E+00  0.000000000E+00  3.677705425E+01  3.677705425E+01  0.000000000E+00  0.00000E+00  9.000E+00
      21    -1     0     0   502   503  0.000000000E+00  0.000000000E+00 -1.213214783E+03  1.213214783E+03  0.000000000E+00  0.00000E+00  9.000E+00
      25     1     1     2     0     0  6.039406223E+00 -1.147059336E+01 -7.484187432E+02  7.588962137E+02  1.249991965E+02  0.00000E+00  9.000E+00
       5     1     1     2   501     0 -4.668695665E+00 -4.657825511E+00  3.012615516E+01  3.120320147E+01  4.750000000E+00  0.00000E+00  9.000E+00
      -5     1     1     2     0   503  3.464537545E+00  1.087536553E+01 -4.427472519E+02  4.429198214E+02  4.750000000E+00  0.00000E+00  9.000E+00
      21     1     1     2   511   501 -4.835248103E+00  5.253053335E+00 -1.539788869E+01  1.697260055E+01  2.384185791E-07  0.00000E+00  9.000E+00
#rwgt            1           9   2.2026720488841976E-003          10      121167           0
</event>
<event>
      6   9999  3.45752E-01  7.65369E+00 -1.00000E+00  2.00318E-01
      21    -1     0     0   501   502  0.000000000E+00  0.000000000E+00  1.108665268E+01  1.108665268E+01  0.000000000E+00  0.00000E+00  9.000E+00
      21    -1     0     0   512   503  0.000000000E+00  0.000000000E+00 -2.557311433E+03  2.557311433E+03  0.000000000E+00  0.00000E+00  9.000E+00
      25     1     1     2     0     0 -5.649624690E+00  4.886366093E+00 -5.332504091E+02  5.477558516E+02  1.249987172E+02  0.00000E+00  9.000E+00
       5     1     1     2   501     0  1.509427267E+00  5.996251719E-01  1.768588826E+00  5.322436233E+00  4.750000000E+00  0.00000E+00  9.000E+00
      -5     1     1     2     0   503  1.011210114E+01 -1.027298995E+01 -2.051513226E+02  2.057119748E+02  4.750000000E+00  0.00000E+00  9.000E+00
      21     1     1     2   512   502 -5.971903716E+00  4.786998681E+00 -1.809591637E+03  1.809607823E+03  0.000000000E+00  0.00000E+00  9.000E+00
#rwgt            1           9   2.4442605480716999E-004          10      125808           0
</event>
<event>
      6   9999  3.45752E-01  3.23508E+00 -1.00000E+00  2.68614E-01
      21    -1     0     0   501   502  0.000000000E+00  0.000000000E+00  3.333915548E+01  3.333915548E+01  0.000000000E+00  0.00000E+00  9.000E+00
      21    -1     0     0   502   511  0.000000000E+00  0.000000000E+00 -1.190820927E+03  1.190820927E+03  0.000000000E+00  0.00000E+00  9.000E+00
      25     1     1     2     0     0  3.779547274E+01 -3.510983102E+01 -3.157758763E+02  3.435140229E+02  1.250051273E+02  0.00000E+00  9.000E+00
       5     1     1     2   501     0 -5.940847532E+00  2.268608788E+00  1.785950636E+01  1.954391779E+01  4.750000000E+00  0.00000E+00  9.000E+00
      -5     1     1     2     0   503 -3.484665873E+01  3.161099886E+01 -8.328882141E+02  8.342295155E+02  4.750000000E+00  0.00000E+00  9.000E+00
      21     1     1     2   503   511  2.992033515E+00  1.230223379E+00 -2.667718740E+01  2.687262626E+01  3.371747881E-07  0.00000E+00  9.000E+00
#rwgt            1           9   8.5666938834000304E-005          10      128983           0
</event>
<event>
      6   9999  3.45752E-01  2.42962E+01 -1.00000E+00  1.54017E-01
      21    -1     0     0   512   502  0.000000000E+00  0.000000000E+00  6.612571347E+02  6.612571347E+02  0.000000000E+00  0.00000E+00  9.000E+00
      21    -1     0     0   502   503  0.000000000E+00  0.000000000E+00 -1.232725491E+01  1.232725491E+01  0.000000000E+00  0.00000E+00  9.000E+00
      25     1     1     2     0     0 -2.684575272E+01  6.028782689E+00  4.747752970E+02  4.917243484E+02  1.249968462E+02  0.00000E+00  9.000E+00
       5     1     1     2   501     0 -5.125144604E-01  8.027079390E-01  3.201569257E+01  3.238014950E+01  4.750000000E+00  0.00000E+00  9.000E+00
      -5     1     1     2     0   503  1.083349938E+01  1.097966349E+01  2.436187392E+01  2.922295536E+01  4.750000000E+00  0.00000E+00  9.000E+00
      21     1     1     2   512   501  1.652476780E+01 -1.781115411E+01  1.177770163E+02  1.202569363E+02  1.907348633E-06  0.00000E+00  9.000E+00
#rwgt            1           9  0.17558680373279920               10      136305           0
</event>
<event>
      6   9999  3.45752E-01  1.04625E+01 -1.00000E+00  1.85149E-01
      21    -1     0     0   511   503  0.000000000E+00  0.000000000E+00  1.251262265E+01  1.251262265E+01  0.000000000E+00  0.00000E+00  9.000E+00
      21    -1     0     0   501   502  0.000000000E+00  0.000000000E+00 -8.305825045E+02  8.305825045E+02  0.000000000E+00  0.00000E+00  9.000E+00
      25     1     1     2     0     0  8.564935971E+00  9.803533858E+00 -3.611458411E+02  3.823876621E+02  1.249981529E+02  0.00000E+00  9.000E+00
       5     1     1     2   501     0  8.606398200E-02  2.886597065E+00 -4.135894361E+02  4.136267931E+02  4.750000000E+00  0.00000E+00  9.000E+00
      -5     1     1     2     0   503 -8.567481290E-01 -5.710562204E+00 -1.305690704E+01  1.504625733E+01  4.750000000E+00  0.00000E+00  9.000E+00
      21     1     1     2   511   502 -7.794251824E+00 -6.979568719E+00 -3.027769765E+01  3.203441455E+01  0.000000000E+00  0.00000E+00  9.000E+00
#rwgt            1           9  0.42212662678782636               10      137265           0
</event>
<event>
      6   9999  3.45752E-01  1.57144E+01 -1.00000E+00  1.68639E-01
      -2    -1     0     0     0   502  0.000000000E+00  0.000000000E+00  4.329519823E+02  4.329519823E+02  0.000000000E+00  0.00000E+00  9.000E+00
      21    -1     0     0   502   503  0.000000000E+00  0.000000000E+00 -8.107937815E+02  8.107937815E+02  0.000000000E+00  0.00000E+00  9.000E+00
      25     1     1     2     0     0  9.581281776E+00 -9.549189398E+00 -7.161671496E+02  7.271195853E+02  1.249980685E+02  0.00000E+00  9.000E+00
       5     1     1     2   501     0  1.541380432E+00 -5.545829525E+00  2.594149446E+00  7.900898057E+00  4.750000000E+00  0.00000E+00  9.000E+00
      -5     1     1     2     0   503 -2.929530283E+00  1.685518590E+00 -8.625239800E+01  8.644918613E+01  4.750000000E+00  0.00000E+00  9.000E+00
      -2     1     1     2     0   501 -8.193131925E+00  1.340950033E+01  4.219835989E+02  4.222760943E+02  9.344061824E-06  0.00000E+00  9.000E+00
#rwgt            1           9   9.9605325509710208E-004          10      140103           0
</event>
<event>
      6   9999  3.45752E-01  1.20452E+01 -1.00000E+00  1.79064E-01
      21    -1     0     0   502   503  0.000000000E+00  0.000000000E+00  5.260249679E+01  5.260249679E+01  0.000000000E+00  0.00000E+00  9.000E+00
       2    -1     0     0   501     0  0.000000000E+00  0.000000000E+00 -6.688087955E+02  6.688087955E+02  0.000000000E+00  0.00000E+00  9.000E+00
      25     1     1     2     0     0 -1.296796699E+01  5.565246024E+00 -2.596369190E+01  1.284457024E+02  1.250001801E+02  0.00000E+00  9.000E+00
       5     1     1     2   501     0 -1.623964925E+00  3.934215529E+00 -3.672636200E+01  3.727604432E+01  4.750000000E+00  0.00000E+00  9.000E+00
      -5     1     1     2     0   503  6.135808851E+00 -9.215082505E-01 -1.395451663E+01  1.599338495E+01  4.750000000E+00  0.00000E+00  9.000E+00
       2     1     1     2   502     0  8.456123061E+00 -8.577953303E+00 -5.395617282E+02  5.396961607E+02  0.000000000E+00  0.00000E+00  9.000E+00
#rwgt            1           9  0.57600118935084077               10      142162           0
</event>
<event>
      6   9999  3.45752E-01  1.31113E+01 -1.00000E+00  1.75597E-01
      21    -1     0     0   501   511  0.000000000E+00  0.000000000E+00  1.318080714E+02  1.318080714E+02  0.000000000E+00  0.00000E+00  9.000E+00
      21    -1     0     0   502   503  0.000000000E+00  0.000000000E+00 -1.013513641E+03  1.013513641E+03  0.000000000E+00  0.00000E+00  9.000E+00
      25     1     1     2     0     0  2.202236192E+01  6.843846243E+01 -2.925731395E+02  3.261790196E+02  1.249996133E+02  0.00000E+00  9.000E+00
       5     1     1     2   501     0 -1.318378988E+00  8.617935600E-01  1.291682232E+00  5.168341541E+00  4.750000000E+00  0.00000E+00  9.000E+00
      -5     1     1     2     0   503 -2.964114263E+01 -5.970686917E+01 -7.002182765E+02  7.034001030E+02  4.750000000E+00  0.00000E+00  9.000E+00
      21     1     1     2   502   511  8.937159698E+00 -9.593386815E+00  1.097941642E+02  1.105742483E+02  0.000000000E+00  0.00000E+00  9.000E+00
#rwgt            1           9   1.4886366858760615E-005          10      144302           0
</event>
<event>
      6   9999  3.45752E-01  2.69761E+00 -1.00000E+00  2.89564E-01
      21    -1     0     0   502   503  0.000000000E+00  0.000000000E+00  8.493360992E+00  8.493360992E+00  0.000000000E+00  0.00000E+00  9.000E+00
      21    -1     0     0   501   512  0.000000000E+00  0.000000000E+00 -7.567700481E+02  7.567700481E+02  0.000000000E+00  0.00000E+00  9.000E+00
      25     1     1     2     0     0  1.489906016E+01  6.236975225E+00 -5.068070668E+02  5.222443533E+02  1.249995193E+02  0.00000E+00  9.000E+00
       5     1     1     2   501     0 -1.439059134E+01 -7.572795533E+00 -2.064752134E+02  2.071690435E+02  4.750000000E+00  0.00000E+00  9.000E+00
      -5     1     1     2     0   503  1.798903067E+00 -6.173172770E-02 -2.205511364E+01  2.263250761E+01  4.750000000E+00  0.00000E+00  9.000E+00
      21     1     1     2   502   512 -2.307371884E+00  1.397552036E+00 -1.293929325E+01  1.321750455E+01  1.685873940E-07  0.00000E+00  9.000E+00
#rwgt            1           9   1.1887625284533931E-003          10      147975           0
</event>
<event>
      6   9999  3.45752E-01  7.40549E+00 -1.00000E+00  2.02070E-01
      21    -1     0     0   511   503  0.000000000E+00  0.000000000E+00  1.339241748E+01  1.339241748E+01  0.000000000E+00  0.00000E+00  9.000E+00
      21    -1     0     0   501   502  0.000000000E+00  0.000000000E+00 -6.827465088E+02  6.827465088E+02  0.000000000E+00  0.00000E+00  9.000E+00
      25     1     1     2     0     0 -5.148882939E+00  5.937324436E-01 -5.885793034E+02  6.017288636E+02  1.250006613E+02  0.00000E+00  9.000E+00
       5     1     1     2   501     0 -1.548714055E+00 -8.494032813E+00 -4.372677302E+01  4.482343458E+01  4.750000000E+00  0.00000E+00  9.000E+00
      -5     1     1     2     0   503  5.121481299E+00  6.644809142E-01 -4.072044510E+01  4.132055487E+01  4.750000000E+00  0.00000E+00  9.000E+00
      21     1     1     2   511   502  1.576115695E+00  7.235819455E+00  3.672430202E+00  8.266073279E+00  1.192092896E-07  0.00000E+00  9.000E+00
#rwgt            1           9   2.9723550823363303E-003          10      153750           0
</event>
<event>
      6   9999  3.45752E-01  5.06009E+00 -1.00000E+00  2.24912E-01
      21    -1     0     0   501   512  0.000000000E+00  0.000000000E+00  1.332693984E+01  1.332693984E+01  0.000000000E+00  0.00000E+00  9.000E+00
      21    -1     0     0   502   503  0.000000000E+00  0.000000000E+00 -6.999844622E+02  6.999844622E+02  0.000000000E+00  0.00000E+00  9.000E+00
      25     1     1     2     0     0  1.404096392E+01  2.564552428E+01 -5.790935050E+02  5.931530346E+02  1.250055733E+02  0.00000E+00  9.000E+00
       5     1     1     2   501     0 -4.879739329E-01  7.943909019E-01  2.434959540E+00  5.418551783E+00  4.750000000E+00  0.00000E+00  9.000E+00
      -5     1     1     2     0   503 -1.026390895E+01 -2.259459831E+01 -1.032957421E+02  1.063411329E+02  4.750000000E+00  0.00000E+00  9.000E+00
      21     1     1     2   502   512 -3.289081038E+00 -3.845316870E+00 -6.703234739E+00  8.398682746E+00  0.000000000E+00  0.00000E+00  9.000E+00
#rwgt            1           9   3.4563595366368031E-004          10      156403           0
</event>
<event>
      6   9999  3.45752E-01  1.03081E+01 -1.00000E+00  1.85816E-01
      21    -1     0     0   501   502  0.000000000E+00  0.000000000E+00  6.236387291E+02  6.236387291E+02  0.000000000E+00  0.00000E+00  9.000E+00
      21    -1     0     0   502   511  0.000000000E+00  0.000000000E+00 -9.028610191E+01  9.028610191E+01  0.000000000E+00  0.00000E+00  9.000E+00
      25     1     1     2     0     0 -5.251747080E+00  6.399243653E+00  5.505564351E+02  5.646293576E+02  1.250015682E+02  0.00000E+00  9.000E+00
       5     1     1     2   501     0 -1.501856815E-03  3.795132538E-01  4.815376402E+01  4.838896074E+01  4.750000000E+00  0.00000E+00  9.000E+00
      -5     1     1     2     0   503  1.146965070E+00  2.676102756E+00  1.700860166E+01  1.789782348E+01  4.750000000E+00  0.00000E+00  9.000E+00
      21     1     1     2   503   511  4.106283867E+00 -9.454859662E+00 -8.236617357E+01  8.300868923E+01  2.697398305E-06  0.00000E+00  9.000E+00
#rwgt            1           9   1.9020946834410847E-004          10      160699           0
</event>
<event>
      6   9999  3.45752E-01  8.81584E+00 -1.00000E+00  1.93150E-01
      21    -1     0     0   501   502  0.000000000E+00  0.000000000E+00  5.045601775E+01  5.045601775E+01  0.000000000E+00  0.00000E+00  9.000E+00
      21    -1     0     0   512   503  0.000000000E+00  0.000000000E+00 -2.984674570E+02  2.984674570E+02  0.000000000E+00  0.00000E+00  9.000E+00
      25     1     1     2     0     0 -1.421123866E+01  3.134004152E+01 -8.521237099E+01  1.551256214E+02  1.249746083E+02  0.00000E+00  9.000E+00
       5     1     1     2   501     0 -1.345362687E+00  1.916640687E-01  1.319824766E+01  1.409265685E+01  4.750000000E+00  0.00000E+00  9.000E+00
      -5     1     1     2     0   503  1.465928514E+01 -2.276165187E+01 -1.353323673E+02  1.380956175E+02  4.750000000E+00  0.00000E+00  9.000E+00
      21     1     1     2   512   502  8.973162074E-01 -8.770053716E+00 -4.066494869E+01  4.160957907E+01  4.768371582E-07  0.00000E+00  9.000E+00
#rwgt            1           9   8.4761010178807799E-005          10      162696           0
</event>
<event>
      6   9999  3.45752E-01  2.80742E+01 -1.00000E+00  1.49726E-01
      21    -1     0     0   501   502  0.000000000E+00  0.000000000E+00  1.046562181E+01  1.046562181E+01  0.000000000E+00  0.00000E+00  9.000E+00
      21    -1     0     0   502   511  0.000000000E+00  0.000000000E+00 -9.321356044E+02  9.321356044E+02  0.000000000E+00  0.00000E+00  9.000E+00
      25     1     1     2     0     0  3.417268849E+01 -2.231037144E+01 -7.326628916E+02  7.443683596E+02  1.249952663E+02  0.00000E+00  9.000E+00
       5     1     1     2   501     0 -1.093311019E+01  6.623353369E+00 -2.005312687E+01  2.425061041E+01  4.750000000E+00  0.00000E+00  9.000E+00
      -5     1     1     2     0   503  3.032797964E+00  5.791413149E+00 -1.156181200E+01  1.410589687E+01  4.750000000E+00  0.00000E+00  9.000E+00
      21     1     1     2   503   511 -2.627237627E+01  9.895604924E+00 -1.573921520E+02  1.598763593E+02  1.907348633E-06  0.00000E+00  9.000E+00
#rwgt            1           9   1.3978210270008845E-004          10      165441           0
</event>
<event>
      6   9999  3.45752E-01  2.14870E+01 -1.00000E+00  1.57869E-01
      21    -1     0     0   512   502  0.000000000E+00  0.000000000E+00  3.093054974E+03  3.093054974E+03  0.000000000E+00  0.00000E+00  9.000E+00
      21    -1     0     0   502   503  0.000000000E+00  0.000000000E+00 -1.319978626E+01  1.319978626E+01  0.000000000E+00  0.00000E+00  9.000E+00
      25     1     1     2     0     0 -1.806814951E+01 -2.987578353E+01  3.266824134E+02  3.515189703E+02  1.250006672E+02  0.00000E+00  9.000E+00
       5     1     1     2   501     0 -2.991213909E+00 -7.768584374E+00  1.968695158E+03  1.968718488E+03  4.750000000E+00  0.00000E+00  9.000E+00
      -5     1     1     2     0   503  1.187870327E+01  1.821737388E+01  2.182899286E+02  2.194220402E+02  4.750000000E+00  0.00000E+00  9.000E+00
      21     1     1     2   512   501  9.180660147E+00  1.942699402E+01  5.661876877E+02  5.665952615E+02  1.078959322E-05  0.00000E+00  9.000E+00
#rwgt            1           9   1.5530643683310503E-004          10      167559           0
</event>
<event>
      6   9999  3.45752E-01  8.20756E+00 -1.00000E+00  1.96707E-01
      21    -1     0     0   511   502  0.000000000E+00  0.000000000E+00  1.422891896E+03  1.422891896E+03  0.000000000E+00  0.00000E+00  9.000E+00
      21    -1     0     0   502   503  0.000000000E+00  0.000000000E+00 -5.004210887E+01  5.004210887E+01  0.000000000E+00  0.00000E+00  9.000E+00
      25     1     1     2     0     0 -2.493339868E+00 -3.973275594E+00  3.157661683E+01  1.290101035E+02  1.249980816E+02  0.00000E+00  9.000E+00
       5     1     1     2   501     0  4.418881405E+00 -6.669575417E-01  1.778255714E+02  1.779451255E+02  4.750000000E+00  0.00000E+00  9.000E+00
      -5     1     1     2     0   503  6.092546909E+00  2.886884590E+00  1.234176574E+01  1.484368257E+01  4.750000000E+00  0.00000E+00  9.000E+00
      21     1     1     2   511   501 -8.018088446E+00  1.753348546E+00  1.151105833E+03  1.151135093E+03  1.525878906E-05  0.00000E+00  9.000E+00
#rwgt            1           9   45.385333149256773               10      169506           0
</event>
<event>
      6   9999  3.45752E-01  3.01044E+01 -1.00000E+00  1.47740E-01
      21    -1     0     0   512   502  0.000000000E+00  0.000000000E+00  1.657366471E+01  1.657366471E+01  0.000000000E+00  0.00000E+00  9.000E+00
      21    -1     0     0   502   503  0.000000000E+00  0.000000000E+00 -7.672021255E+02  7.672021255E+02  0.000000000E+00  0.00000E+00  9.000E+00
      25     1     1     2     0     0  1.991996798E+01  2.314998779E+01 -7.176272671E+02  7.290723570E+02  1.249995204E+02  0.00000E+00  9.000E+00
       5     1     1     2   501     0  1.172696751E+00  2.866804471E+00 -3.735123310E+00  6.790245333E+00  4.750000000E+00  0.00000E+00  9.000E+00
      -5     1     1     2     0   503 -3.510923192E+00 -1.579942142E+00 -1.131936789E+01  1.286520067E+01  4.750000000E+00  0.00000E+00  9.000E+00
      21     1     1     2   512   501 -1.758174154E+01 -2.443685012E+01 -1.794670243E+01  3.504798721E+01  7.152557373E-07  0.00000E+00  9.000E+00
#rwgt            1           9   6.2924486199762687E-007          10      172610           0
</event>
<event>
      6   9999 -3.45752E-01  1.03658E+01 -1.00000E+00  1.85565E-01
      21    -1     0     0   501   502  0.000000000E+00  0.000000000E+00  1.849774001E+01  1.849774001E+01  0.000000000E+00  0.00000E+00  9.000E+00
      21    -1     0     0   502   511  0.000000000E+00  0.000000000E+00 -1.178650479E+03  1.178650479E+03  0.000000000E+00  0.00000E+00  9.000E+00
      25     1     1     2     0     0  4.754784041E+00  6.659881832E+00 -9.728916410E+02  9.809226353E+02  1.249964370E+02  0.00000E+00  9.000E+00
       5     1     1     2   501     0  4.664589155E+00 -2.206601648E+00  1.225791493E+01  1.412255152E+01  4.750000000E+00  0.00000E+00  9.000E+00
      -5     1     1     2     0   503  4.178611608E-01 -1.185615593E+00 -4.072558496E+00  6.381890393E+00  4.750000000E+00  0.00000E+00  9.000E+00
      21     1     1     2   503   511 -9.837234357E+00 -3.267664591E+00 -1.954464545E+02  1.957211419E+02  0.000000000E+00  0.00000E+00  9.000E+00
#rwgt            1           9  -3.5846532246326911E-003          10      173486           0
</event>
<event>
      6   9999  3.45752E-01  6.66179E+00 -1.00000E+00  2.07918E-01
      21    -1     0     0   512   502  0.000000000E+00  0.000000000E+00  1.850380374E+01  1.850380374E+01  0.000000000E+00  0.00000E+00  9.000E+00
      21    -1     0     0   502   503  0.000000000E+00  0.000000000E+00 -7.292931133E+02  7.292931133E+02  0.000000000E+00  0.00000E+00  9.000E+00
      25     1     1     2     0     0 -1.386814867E+00 -1.631794301E+00 -5.826311657E+02  5.958929659E+02  1.249990621E+02  0.00000E+00  9.000E+00
       5     1     1     2   501     0  1.361552680E-01 -8.998915759E-01 -3.825644092E+00  6.166554615E+00  4.750000000E+00  0.00000E+00  9.000E+00
      -5     1     1     2     0   503  9.154778123E-01 -4.121665710E+00 -1.339155744E+02  1.340662888E+02  4.750000000E+00  0.00000E+00  9.000E+00
      21     1     1     2   512   501  3.351817865E-01  6.653351587E+00  9.583074682E+00  1.167110768E+01  8.760057960E-07  0.00000E+00  9.000E+00
#rwgt            1           9   2.0917449408053668E-003          10      176582           0
</event>
<event>
      6   9999  3.45752E-01  4.85333E+01 -1.00000E+00  1.35483E-01
      -2    -1     0     0     0   502  0.000000000E+00  0.000000000E+00  7.607754480E+00  7.607754480E+00  0.000000000E+00  0.00000E+00  9.000E+00
       2    -1     0     0   511     0  0.000000000E+00  0.000000000E+00 -2.411746759E+03  2.411746759E+03  0.000000000E+00  0.00000E+00  9.000E+00
      25     1     1     2     0     0 -2.380566114E+01  6.352196712E+01 -1.028091971E+03  1.037880068E+03  1.249807346E+02  0.00000E+00  9.000E+00
       5     1     1     2   501     0 -3.528194544E+01 -1.199507969E+01 -3.896289512E+02  3.914357926E+02  4.750000000E+00  0.00000E+00  9.000E+00
      -5     1     1     2     0   502  3.159847920E+01 -1.152907685E+01 -3.026836903E+02  3.045839168E+02  4.750000000E+00  0.00000E+00  9.000E+00
      21     1     1     2   511   501  2.748912738E+01 -3.999781058E+01 -6.837343916E+02  6.854547361E+02  1.321449896E-05  0.00000E+00  9.000E+00
#rwgt            1           3   2.2933248579948745E-004          10      180250           0
</event>
<event>
      6   9999 -3.45752E-01  5.81106E+00 -1.00000E+00  2.16012E-01
      21    -1     0     0   501   502  0.000000000E+00  0.000000000E+00  3.609178012E+01  3.609178012E+01  0.000000000E+00  0.00000E+00  9.000E+00
      21    -1     0     0   502   512  0.000000000E+00  0.000000000E+00 -1.511153819E+03  1.511153819E+03  0.000000000E+00  0.00000E+00  9.000E+00
      25     1     1     2     0     0  3.535673727E+01  1.256581068E+02 -7.215667135E+02  7.438566505E+02  1.249965432E+02  0.00000E+00  9.000E+00
       5     1     1     2   501     0  2.821996329E+00 -3.636245934E+00  1.483368953E+01  1.624151449E+01  4.750000000E+00  0.00000E+00  9.000E+00
      -5     1     1     2     0   503 -3.504879768E+01 -1.269179745E+02 -4.531619486E+02  4.719268000E+02  4.750000000E+00  0.00000E+00  9.000E+00
      21     1     1     2   503   512 -3.129935922E+00  4.896113706E+00 -3.151670665E+02  3.152206342E+02  0.000000000E+00  0.00000E+00  9.000E+00
#rwgt            1           9  -1.1234368418394641E-004          10      181653           0
</event>
<event>
      6   9999  3.45752E-01  9.53405E+00 -1.00000E+00  1.89403E-01
      21    -1     0     0   501   502  0.000000000E+00  0.000000000E+00  1.533806493E+02  1.533806493E+02  0.000000000E+00  0.00000E+00  9.000E+00
      21    -1     0     0   502   511  0.000000000E+00  0.000000000E+00 -3.583672599E+02  3.583672599E+02  0.000000000E+00  0.00000E+00  9.000E+00
      25     1     1     2     0     0  5.375252253E+00  7.163241640E+00 -1.592026539E+02  2.026096253E+02  1.249998795E+02  0.00000E+00  9.000E+00
       5     1     1     2   501     0  3.667927334E+00 -6.160946989E+00  1.307255601E+02  1.310081888E+02  4.750000000E+00  0.00000E+00  9.000E+00
      -5     1     1     2     0   503 -1.762183708E-02  2.069729167E+00 -9.275820783E+00  1.062485014E+01  4.750000000E+00  0.00000E+00  9.000E+00
      21     1     1     2   503   511 -9.025557750E+00 -3.072023817E+00 -1.672336960E+02  1.675052450E+02  2.697398305E-06  0.00000E+00  9.000E+00
#rwgt            1           9  0.33065288164416529               10      187071           0
</event>
<event>
      6   9999 -3.45752E-01  5.51578E+01 -1.00000E+00  1.32545E-01
      21    -1     0     0   501   502  0.000000000E+00  0.000000000E+00  1.878614339E+02  1.878614339E+02  0.000000000E+00  0.00000E+00  9.000E+00
      21    -1     0     0   502   512  0.000000000E+00  0.000000000E+00 -7.749053646E+02  7.749053646E+02  0.000000000E+00  0.00000E+00  9.000E+00
      25     1     1     2     0     0 -4.534990732E+01  3.661668729E+02 -2.617204038E+02  4.693148555E+02  1.249962838E+02  0.00000E+00  9.000E+00
       5     1     1     2   501     0  2.178301274E+00 -4.126337124E+01 -2.528715186E+01  4.867662017E+01  4.750000000E+00  0.00000E+00  9.000E+00
      -5     1     1     2     0   503  4.164109820E+01 -2.697669272E+02 -2.440990663E+02  3.662172753E+02  4.750000000E+00  0.00000E+00  9.000E+00
      21     1     1     2   503   512  1.530507844E+00 -5.513657445E+01 -5.593730876E+01  7.855804737E+01  6.743495762E-07  0.00000E+00  9.000E+00
#rwgt            1           9  -4.0249122054798132               10      190669           0
</event>
<event>
      6   9999  3.45752E-01  1.30613E+01 -1.00000E+00  1.75750E-01
      21    -1     0     0   501   511  0.000000000E+00  0.000000000E+00  1.482791436E+01  1.482791436E+01  0.000000000E+00  0.00000E+00  9.000E+00
      21    -1     0     0   502   503  0.000000000E+00  0.000000000E+00 -2.963588620E+03  2.963588620E+03  0.000000000E+00  0.00000E+00  9.000E+00
      25     1     1     2     0     0 -3.361047181E+01  6.528749107E+01 -1.094656652E+03  1.104215072E+03  1.250024796E+02  0.00000E+00  9.000E+00
       5     1     1     2   501     0 -1.044088589E+00 -1.527013299E+00  6.510391033E+00  8.268590085E+00  4.750000000E+00  0.00000E+00  9.000E+00
      -5     1     1     2     0   503  4.456268675E+01 -5.525005988E+01 -1.840961255E+03  1.842335287E+03  4.750000000E+00  0.00000E+00  9.000E+00
      21     1     1     2   502   511 -9.908126355E+00 -8.510417894E+00 -1.965318921E+01  2.359758519E+01  4.129530925E-07  0.00000E+00  9.000E+00
#rwgt            1           9   2.4381561970421802E-004          10      192057           0
</event>
<event>
      6   9999 -3.45752E-01  3.32279E+00 -1.00000E+00  2.65797E-01
      21    -1     0     0   512   502  0.000000000E+00  0.000000000E+00  2.217821974E+01  2.217821974E+01  0.000000000E+00  0.00000E+00  9.000E+00
      21    -1     0     0   502   503  0.000000000E+00  0.000000000E+00 -7.701016219E+02  7.701016219E+02  0.000000000E+00  0.00000E+00  9.000E+00
      25     1     1     2     0     0  7.599859418E+00  7.161143785E-01 -6.801979135E+02  6.916298550E+02  1.249975368E+02  0.00000E+00  9.000E+00
       5     1     1     2   501     0 -3.751326742E-01 -3.876140270E-01 -6.723221893E+00  8.249556460E+00  4.750000000E+00  0.00000E+00  9.000E+00
      -5     1     1     2     0   503 -7.939368762E+00 -3.573530861E+00 -7.620048639E+01  7.684321912E+01  4.750000000E+00  0.00000E+00  9.000E+00
      21     1     1     2   512   501  7.146420185E-01  3.245030510E+00  1.519821958E+01  1.555721102E+01  5.331201500E-07  0.00000E+00  9.000E+00
#rwgt            1           9  -4.4787261377533100E-004          10      195061           0
</event>
<event>
      6   9999  3.45752E-01  8.14617E+01 -1.00000E+00  1.24345E-01
      21    -1     0     0   501   502  0.000000000E+00  0.000000000E+00  8.073176989E+01  8.073176989E+01  0.000000000E+00  0.00000E+00  9.000E+00
      21    -1     0     0   502   511  0.000000000E+00  0.000000000E+00 -1.652123432E+03  1.652123432E+03  0.000000000E+00  0.00000E+00  9.000E+00
      25     1     1     2     0     0  6.520376887E+00  2.239259022E+02 -2.901560750E+02  3.872992135E+02  1.249992318E+02  0.00000E+00  9.000E+00
       5     1     1     2   501     0  5.007923226E+01 -1.341601797E+02 -2.280603347E+02  2.693342943E+02  4.750000000E+00  0.00000E+00  9.000E+00
      -5     1     1     2     0   503 -1.274430403E+02 -4.955117749E+01 -5.673584180E+02  5.836224676E+02  4.750000000E+00  0.00000E+00  9.000E+00
      21     1     1     2   503   511  7.084343117E+01 -4.021454502E+01 -4.858168348E+02  4.925992269E+02  7.629394531E-06  0.00000E+00  9.000E+00
#rwgt            1           9   319.84583961971595               10      199730           0
</event>
<event>
      6   9999  3.45752E-01  4.43098E+00 -1.00000E+00  2.38997E-01
      21    -1     0     0   512   502  0.000000000E+00  0.000000000E+00  3.256653778E+03  3.256653778E+03  0.000000000E+00  0.00000E+00  9.000E+00
      21    -1     0     0   502   503  0.000000000E+00  0.000000000E+00 -4.490553402E+01  4.490553402E+01  0.000000000E+00  0.00000E+00  9.000E+00
      25     1     1     2     0     0  1.433254319E+01 -7.968612821E+00  5.580238366E+01  1.378691603E+02  1.250003150E+02  0.00000E+00  9.000E+00
       5     1     1     2   501     0 -1.525593985E+01  7.337127896E+00  3.123007560E+03  3.123057053E+03  4.750000000E+00  0.00000E+00  9.000E+00
      -5     1     1     2     0   503 -1.274122569E+00  4.479148864E+00 -7.141478877E-01  6.690192080E+00  4.750000000E+00  0.00000E+00  9.000E+00
      21     1     1     2   512   501  2.197519230E+00 -3.847663940E+00  3.365244848E+01  3.394290644E+01  0.000000000E+00  0.00000E+00  9.000E+00
#rwgt            1           9   2.7042498754303004E-002          10      200840           0
</event>
<event>
      6   9999 -3.45752E-01  6.52508E+00 -1.00000E+00  2.09106E-01
      21    -1     0     0   501   502  0.000000000E+00  0.000000000E+00  1.636879319E+01  1.636879319E+01  0.000000000E+00  0.00000E+00  9.000E+00
      21    -1     0     0   502   511  0.000000000E+00  0.000000000E+00 -1.193780063E+03  1.193780063E+03  0.000000000E+00  0.00000E+00  9.000E+00
      25     1     1     2     0     0  4.535005820E+00  1.325848513E+01 -7.908656668E+02  8.008052388E+02  1.249966956E+02  0.00000E+00  9.000E+00
       5     1     1     2   501     0 -2.031308985E+00  1.431173150E+00  1.039545495E+01  1.169625822E+01  4.750000000E+00  0.00000E+00  9.000E+00
      -5     1     1     2     0   503  3.996235486E+00 -1.411738182E+01 -1.981444267E+02  1.987436709E+02  4.750000000E+00  0.00000E+00  9.000E+00
      21     1     1     2   503   511 -6.499932321E+00 -5.722764636E-01 -1.987966312E+02  1.989036882E+02  2.697398305E-06  0.00000E+00  9.000E+00
#rwgt            1           9 -0.14696513852627363               10      208894           0
</event>
<event>
      6   9999  3.45752E-01  2.68928E+01 -1.00000E+00  1.50977E-01
      21    -1     0     0   501   512  0.000000000E+00  0.000000000E+00  1.055376951E+02  1.055376951E+02  0.000000000E+00  0.00000E+00  9.000E+00
      21    -1     0     0   502   503  0.000000000E+00  0.000000000E+00 -1.652838217E+03  1.652838217E+03  0.000000000E+00  0.00000E+00  9.000E+00
      25     1     1     2     0     0 -8.212241180E+01  1.604982400E+02 -5.641764181E+02  6.053295143E+02  1.250000585E+02  0.00000E+00  9.000E+00
       5     1     1     2   501     0 -1.582641481E+00  2.061914963E-01  6.353544329E+01  6.373274138E+01  4.750000000E+00  0.00000E+00  9.000E+00
      -5     1     1     2     0   503  1.105923764E+02 -1.601618443E+02 -1.044326799E+03  1.062319874E+03  4.750000000E+00  0.00000E+00  9.000E+00
      21     1     1     2   502   512 -2.688732311E+01 -5.425871923E-01 -2.332748078E+00  2.699378185E+01  6.982907363E-07  0.00000E+00  9.000E+00
#rwgt            1           9   2.3421978843170245E-002          10      212590           0
</event>
<event>
      6   9999  3.45752E-01  2.90390E+00 -1.00000E+00  2.80663E-01
      21    -1     0     0   511   502  0.000000000E+00  0.000000000E+00  8.155359778E+00  8.155359778E+00  0.000000000E+00  0.00000E+00  9.000E+00
      21    -1     0     0   502   503  0.000000000E+00  0.000000000E+00 -1.809757899E+03  1.809757899E+03  0.000000000E+00  0.00000E+00  9.000E+00
      25     1     1     2     0     0 -1.912324825E+00  1.588089340E+01 -1.547894758E+03  1.553016071E+03  1.249994971E+02  0.00000E+00  9.000E+00
       5     1     1     2   501     0 -4.952246253E-01 -5.849218495E-01 -1.170628089E+00  4.951792718E+00  4.750000000E+00  0.00000E+00  9.000E+00
      -5     1     1     2     0   503  5.229632100E+00 -1.598045033E+01 -2.553236644E+02  2.559208080E+02  4.750000000E+00  0.00000E+00  9.000E+00
      21     1     1     2   511   501 -2.822082649E+00  6.844787791E-01  2.786511041E+00  4.024587613E+00  2.107342426E-07  0.00000E+00  9.000E+00
#rwgt            1           9   2.3099518125309713               10      215048           0
</event>
<event>
      6   9999  3.45752E-01  6.17306E+00 -1.00000E+00  2.12352E-01
      21    -1     0     0   501   502  0.000000000E+00  0.000000000E+00  1.718521424E+01  1.718521424E+01  0.000000000E+00  0.00000E+00  9.000E+00
      21    -1     0     0   512   503  0.000000000E+00  0.000000000E+00 -1.270436925E+03  1.270436925E+03  0.000000000E+00  0.00000E+00  9.000E+00
      25     1     1     2     0     0 -1.230702127E+01  1.094628678E+01 -5.239625673E+02  5.389181067E+02  1.249986792E+02  0.00000E+00  9.000E+00
       5     1     1     2   501     0  1.139180829E+00 -3.423763685E+00  8.642041164E+00  1.050082217E+01  4.750000000E+00  0.00000E+00  9.000E+00
      -5     1     1     2     0   503  5.931394863E+00 -1.079150952E+01 -4.055695392E+02  4.057842428E+02  4.750000000E+00  0.00000E+00  9.000E+00
      21     1     1     2   512   502  5.236445582E+00  3.268986427E+00 -3.323616452E+02  3.324189673E+02  0.000000000E+00  0.00000E+00  9.000E+00
#rwgt            1           9   7.3344569200663153E-003          10      220761           0
</event>
<event>
      6   9999  3.45752E-01  3.42646E+01 -1.00000E+00  1.44199E-01
      21    -1     0     0   502   503  0.000000000E+00  0.000000000E+00  8.387007106E+02  8.387007106E+02  0.000000000E+00  0.00000E+00  9.000E+00
      21    -1     0     0   511   502  0.000000000E+00  0.000000000E+00 -4.495253616E+01  4.495253616E+01  0.000000000E+00  0.00000E+00  9.000E+00
      25     1     1     2     0     0  9.525739678E-01 -1.199903922E+02  3.495669851E+02  3.901551053E+02  1.250013100E+02  0.00000E+00  9.000E+00
       5     1     1     2   501     0 -3.214519275E+01  1.175737688E+02  3.546861012E+02  3.750755889E+02  4.750000000E+00  0.00000E+00  9.000E+00
      -5     1     1     2     0   503  2.052521469E+01  3.497838968E+01  6.314690513E+01  7.519884514E+01  4.750000000E+00  0.00000E+00  9.000E+00
      21     1     1     2   511   501  1.066740409E+01 -3.256176629E+01  2.634818294E+01  4.322370736E+01  5.840038640E-07  0.00000E+00  9.000E+00
#rwgt            1           9  0.10788273427649918               10      224816           0
</event>
<event>
      6   9999  3.45752E-01  3.93141E+01 -1.00000E+00  1.40623E-01
      21    -1     0     0   502   503  0.000000000E+00  0.000000000E+00  4.281495752E+02  4.281495752E+02  0.000000000E+00  0.00000E+00  9.000E+00
      21    -1     0     0   501   512  0.000000000E+00  0.000000000E+00 -2.356427003E+02  2.356427003E+02  0.000000000E+00  0.00000E+00  9.000E+00
      25     1     1     2     0     0 -4.447340419E+01  7.402174004E+01  8.366881221E+01  1.734460632E+02  1.250038600E+02  0.00000E+00  9.000E+00
       5     1     1     2   501     0  3.322630207E+00  3.343641785E+00  2.138279658E+01  2.240549712E+01  4.750000000E+00  0.00000E+00  9.000E+00
      -5     1     1     2     0   503  3.262635966E+01 -3.898656517E+01  2.732768603E+02  2.780058210E+02  4.750000000E+00  0.00000E+00  9.000E+00
      21     1     1     2   502   512  8.524414319E+00 -3.837881665E+01 -1.858215942E+02  1.899348943E+02  2.697398305E-06  0.00000E+00  9.000E+00
#rwgt            1           9   1345.9938742080781               10      226980           0
</event>
<event>
      6   9999  3.45752E-01  1.87127E+01 -1.00000E+00  1.62448E-01
      -1    -1     0     0     0   502  0.000000000E+00  0.000000000E+00  3.257703762E+02  3.257703762E+02  0.000000000E+00  0.00000E+00  9.000E+00
      21    -1     0     0   502   503  0.000000000E+00  0.000000000E+00 -6.899509230E+02  6.899509230E+02  0.000000000E+00  0.00000E+00  9.000E+00
      25     1     1     2     0     0 -1.526889731E+01 -8.209153231E+00 -4.638631451E+02  4.807224417E+02  1.249980769E+02  0.00000E+00  9.000E+00
       5     1     1     2   501     0  3.352111475E+00  7.515803789E+00 -7.857065963E+01  7.914312991E+01  4.750000000E+00  0.00000E+00  9.000E+00
      -5     1     1     2     0   503 -4.823725086E+00  9.055266088E+00 -1.382942287E+02  1.387556210E+02  4.750000000E+00  0.00000E+00  9.000E+00
      -1     1     1     2     0   501  1.674051092E+01 -8.361916646E+00  3.165474866E+02  3.171001066E+02  6.607249480E-06  0.00000E+00  9.000E+00
#rwgt            1           9   5.3657142576911183E-002          10      228062           0
</event>
<event>
      6   9999  3.45752E-01  4.88815E+00 -1.00000E+00  2.31104E-01
      21    -1     0     0   511   502  0.000000000E+00  0.000000000E+00  1.425630574E+01  1.425630574E+01  0.000000000E+00  0.00000E+00  9.000E+00
      21    -1     0     0   502   503  0.000000000E+00  0.000000000E+00 -6.957776905E+02  6.957776905E+02  0.000000000E+00  0.00000E+00  9.000E+00
      25     1     1     2     0     0  9.183777864E+00  7.469310425E+00 -6.079075482E+02  6.207371606E+02  1.249916120E+02  0.00000E+00  9.000E+00
       5     1     1     2   501     0 -1.421577207E+00 -3.752028261E-01  2.489955969E+00  5.560938738E+00  4.750000000E+00  0.00000E+00  9.000E+00
      -5     1     1     2     0   503 -7.233515224E+00 -1.195358241E+01 -7.730613261E+01  7.870204898E+01  4.750000000E+00  0.00000E+00  9.000E+00
      21     1     1     2   511   501 -5.286854339E-01  4.859474807E+00  1.202340010E+00  5.033847950E+00  1.519626234E-07  0.00000E+00  9.000E+00
#rwgt            1           9   2.8886538183807626E-004          10      230342           0
</event>
<event>
      6   9999  3.45752E-01  9.64237E+00 -1.00000E+00  1.88875E-01
      21    -1     0     0   512   502  0.000000000E+00  0.000000000E+00  2.482129362E+01  2.482129362E+01  0.000000000E+00  0.00000E+00  9.000E+00
      21    -1     0     0   502   503  0.000000000E+00  0.000000000E+00 -9.737961932E+02  9.737961932E+02  0.000000000E+00  0.00000E+00  9.000E+00
      25     1     1     2     0     0 -6.716694408E+00 -7.882319678E+00 -9.362947053E+02  9.446585914E+02  1.249993363E+02  0.00000E+00  9.000E+00
       5     1     1     2   501     0 -1.491179913E+00 -4.410797320E-01  1.788745283E+01  1.857260449E+01  4.750000000E+00  0.00000E+00  9.000E+00
      -5     1     1     2     0   503 -6.327161263E-01  4.473813628E+00 -2.015689523E+01  2.119618512E+01  4.750000000E+00  0.00000E+00  9.000E+00
      21     1     1     2   512   501  8.840590447E+00  3.849585781E+00 -1.041075190E+01  1.419010589E+01  2.064765462E-07  0.00000E+00  9.000E+00
#rwgt            1           9   8.1434477591644312E-005          10      234550           0
</event>
<event>
      6   9999  3.45752E-01  5.76986E+00 -1.00000E+00  2.16452E-01
      21    -1     0     0   501   502  0.000000000E+00  0.000000000E+00  4.343279638E+03  4.343279638E+03  0.000000000E+00  0.00000E+00  9.000E+00
      21    -1     0     0   511   503  0.000000000E+00  0.000000000E+00 -3.482805905E+00  3.482805905E+00  0.000000000E+00  0.00000E+00  9.000E+00
      25     1     1     2     0     0  2.315463703E+01  6.395101968E+00  1.351685352E+03  1.357636333E+03  1.246839519E+02  0.00000E+00  9.000E+00
       5     1     1     2   501     0 -1.579365324E+00  2.974173321E+00  2.163070315E+03  2.163078152E+03  4.750000000E+00  0.00000E+00  9.000E+00
      -5     1     1     2     0   503 -2.047899115E+01 -3.704524842E+00  8.023761479E+02  8.026600512E+02  4.750000000E+00  0.00000E+00  9.000E+00
      21     1     1     2   511   502 -1.096280548E+00 -5.664750447E+00  2.266501744E+01  2.338790808E+01  6.743495762E-07  0.00000E+00  9.000E+00
#rwgt            1           9   1.6185506903917295E-004          10      237298           0
</event>
<event>
      6   9999  3.45752E-01  5.68501E+00 -1.00000E+00  2.17373E-01
      21    -1     0     0   512   503  0.000000000E+00  0.000000000E+00  1.129783488E+01  1.129783488E+01  0.000000000E+00  0.00000E+00  9.000E+00
      21    -1     0     0   501   502  0.000000000E+00  0.000000000E+00 -6.843042829E+02  6.843042829E+02  0.000000000E+00  0.00000E+00  9.000E+00
      25     1     1     2     0     0 -9.476411374E-03  6.614325314E+00 -6.137776405E+02  6.264149300E+02  1.250156918E+02  0.00000E+00  9.000E+00
       5     1     1     2   501     0 -2.481687244E-01 -3.550202877E-01 -4.224745943E+01  4.251585534E+01  4.750000000E+00  0.00000E+00  9.000E+00
      -5     1     1     2     0   503  8.520076836E-01 -6.054515240E-01 -1.975563134E+01  2.034551445E+01  4.750000000E+00  0.00000E+00  9.000E+00
      21     1     1     2   512   502 -5.943625479E-01 -5.653853502E+00  2.774283199E+00  6.325818013E+00  5.048833593E-07  0.00000E+00  9.000E+00
#rwgt            1           9  0.50553871350568014               10      240911           0
</event>
<event>
      6   9999 -3.45752E-01  1.27499E+01 -1.00000E+00  1.76725E-01
      21    -1     0     0   501   502  0.000000000E+00  0.000000000E+00  8.840700072E+02  8.840700072E+02  0.000000000E+00  0.00000E+00  9.000E+00
      21    -1     0     0   502   511  0.000000000E+00  0.000000000E+00 -2.816220045E+01  2.816220045E+01  0.000000000E+00  0.00000E+00  9.000E+00
      25     1     1     2     0     0  1.530580605E+01  1.663895474E+01  1.463284205E+02  1.937787109E+02  1.250082382E+02  0.00000E+00  9.000E+00
       5     1     1     2   501     0  8.789100550E-01 -6.176222460E-02  3.628585442E+02  3.628907024E+02  4.750000000E+00  0.00000E+00  9.000E+00
      -5     1     1     2     0   503 -3.437939111E+00 -1.685755631E+01  3.412040864E+02  3.416705836E+02  4.750000000E+00  0.00000E+00  9.000E+00
      21     1     1     2   503   511 -1.274677699E+01  2.803637988E-01  5.516755645E+00  1.389221078E+01  2.665600750E-07  0.00000E+00  9.000E+00
#rwgt            1           9  -5.9433727755845518E-004          10      243864           0
</event>
<event>
      6   9999  3.45752E-01  1.03954E+01 -1.00000E+00  1.85437E-01
      21    -1     0     0   502   512  0.000000000E+00  0.000000000E+00  7.239054186E+01  7.239054186E+01  0.000000000E+00  0.00000E+00  9.000E+00
      21    -1     0     0   501   502  0.000000000E+00  0.000000000E+00 -6.924922221E+02  6.924922221E+02  0.000000000E+00  0.00000E+00  9.000E+00
      25     1     1     2     0     0  7.327253442E+00  7.084978242E+00 -6.373802692E+02  6.496024528E+02  1.250034145E+02  0.00000E+00  9.000E+00
       5     1     1     2   501     0 -1.910769462E-02 -6.186008469E-01 -2.666502173E+01  2.709186070E+01  4.750000000E+00  0.00000E+00  9.000E+00
      -5     1     1     2     0   503  4.527603312E-01  4.497147756E-01 -2.144736824E+01  2.197633590E+01  4.750000000E+00  0.00000E+00  9.000E+00
      21     1     1     2   503   512 -7.760906078E+00 -6.916092171E+00  6.539097889E+01  6.621211456E+01  1.348699152E-06  0.00000E+00  9.000E+00
#rwgt            1           9   1.3533866368233793E-002          10      246396           0
</event>
<event>
      6   9999  3.45752E-01  1.66468E+01 -1.00000E+00  1.66542E-01
      21    -1     0     0   501   511  0.000000000E+00  0.000000000E+00  2.587617337E+02  2.587617337E+02  0.000000000E+00  0.00000E+00  9.000E+00
      21    -1     0     0   502   503  0.000000000E+00  0.000000000E+00 -8.769921478E+02  8.769921478E+02  0.000000000E+00  0.00000E+00  9.000E+00
      25     1     1     2     0     0  5.229073983E+00 -6.462193358E-01 -8.155512836E+02  8.250914939E+02  1.249972650E+02  0.00000E+00  9.000E+00
       5     1     1     2   501     0  8.007372848E+00 -3.164087910E+00  5.320880106E+00  1.118050702E+01  4.750000000E+00  0.00000E+00  9.000E+00
      -5     1     1     2     0   503  2.873339081E+00 -3.837981546E-01 -5.331404910E+01  5.360367254E+01  4.750000000E+00  0.00000E+00  9.000E+00
      21     1     1     2   502   511 -1.610978591E+01  4.194105401E+00  2.453140385E+02  2.458782080E+02  2.697398305E-06  0.00000E+00  9.000E+00
#rwgt            1           9   1.1635159287947275E-003          10      248467           0
</event>
<event>
      6   9999  3.45752E-01  6.70347E+00 -1.00000E+00  2.07564E-01
      21    -1     0     0   501   502  0.000000000E+00  0.000000000E+00  3.328229245E+03  3.328229245E+03  0.000000000E+00  0.00000E+00  9.000E+00
      21    -1     0     0   502   512  0.000000000E+00  0.000000000E+00 -5.730213132E+01  5.730213132E+01  0.000000000E+00  0.00000E+00  9.000E+00
      25     1     1     2     0     0 -7.842236020E+00  2.219319180E-02  7.517325667E+02  7.620960507E+02  1.250081493E+02  0.00000E+00  9.000E+00
       5     1     1     2   501     0 -3.418335550E+00  5.079935141E+00  2.525137095E+03  2.525148986E+03  4.750000000E+00  0.00000E+00  9.000E+00
      -5     1     1     2     0   503  4.569767174E+00 -5.513936409E+00  4.555290657E+01  4.635640262E+01  4.750000000E+00  0.00000E+00  9.000E+00
      21     1     1     2   503   512  6.690804396E+00  4.118080762E-01 -5.149545491E+01  5.192993670E+01  5.642013343E-06  0.00000E+00  9.000E+00
#rwgt            1           9   5.6584610004582264E-003          10      250831           0
</event>
<event>
      6   9999 -3.45752E-01  1.32152E+01 -1.00000E+00  1.75282E-01
      21    -1     0     0   501   502  0.000000000E+00  0.000000000E+00  1.683716152E+01  1.683716152E+01  0.000000000E+00  0.00000E+00  9.000E+00
      21    -1     0     0   511   503  0.000000000E+00  0.000000000E+00 -1.030129525E+03  1.030129525E+03  0.000000000E+00  0.00000E+00  9.000E+00
      25     1     1     2     0     0 -4.927233039E+00 -6.571363956E+01 -4.078010141E+02  4.315892299E+02  1.250001449E+02  0.00000E+00  9.000E+00
       5     1     1     2   501     0 -1.576902645E+00 -9.212659624E-01  9.318545660E-01  5.173606659E+00  4.750000000E+00  0.00000E+00  9.000E+00
      -5     1     1     2     0   503  1.610587152E+00  5.435918185E+01 -4.829993048E+02  4.860744856E+02  4.750000000E+00  0.00000E+00  9.000E+00
      21     1     1     2   511   502  4.893548532E+00  1.227572367E+01 -1.234238995E+02  1.241293647E+02  1.348699152E-06  0.00000E+00  9.000E+00
#rwgt            1           9  -9.0147038645118083E-003          10      254489           0
</event>
<event>
      6   9999 -3.45752E-01  5.00923E+00 -1.00000E+00  2.25592E-01
      21    -1     0     0   501   512  0.000000000E+00  0.000000000E+00  3.314222610E+01  3.314222610E+01  0.000000000E+00  0.00000E+00  9.000E+00
      21    -1     0     0   502   503  0.000000000E+00  0.000000000E+00 -4.695559227E+02  4.695559227E+02  0.000000000E+00  0.00000E+00  9.000E+00
      25     1     1     2     0     0 -1.138544376E+01  1.030974903E+01 -4.406682525E+02  4.583111370E+02  1.249986810E+02  0.00000E+00  9.000E+00
       5     1     1     2   501     0 -1.230593998E+00  4.621121759E+00  1.702210930E+01  1.830802646E+01  4.750000000E+00  0.00000E+00  9.000E+00
      -5     1     1     2     0   503  1.354857035E+01 -1.000920649E+01 -1.139767680E+01  2.088582078E+01  4.750000000E+00  0.00000E+00  9.000E+00
      21     1     1     2   502   512 -9.325325929E-01 -4.921664298E+00 -1.369876588E+00  5.193164581E+00  7.450580597E-08  0.00000E+00  9.000E+00
#rwgt            1           9 -0.64054694678728674               10      256681           0
</event>
<event>
      6   9999  3.45752E-01  6.22852E+00 -1.00000E+00  2.11821E-01
      21    -1     0     0   511   502  0.000000000E+00  0.000000000E+00  1.561837840E+01  1.561837840E+01  0.000000000E+00  0.00000E+00  9.000E+00
      21    -1     0     0   502   503  0.000000000E+00  0.000000000E+00 -2.172589567E+03  2.172589567E+03  0.000000000E+00  0.00000E+00  9.000E+00
      25     1     1     2     0     0 -9.288309702E+00 -4.832951132E+00 -1.956915130E+03  1.960932099E+03  1.250129540E+02  0.00000E+00  9.000E+00
       5     1     1     2   501     0  1.551656939E+00  1.061293635E-01  1.229271976E+00  5.147087749E+00  4.750000000E+00  0.00000E+00  9.000E+00
      -5     1     1     2     0   503  1.825381501E+00  6.689288791E+00 -2.106850973E+02  2.108526769E+02  4.750000000E+00  0.00000E+00  9.000E+00
      21     1     1     2   511   501  5.911271262E+00 -1.962467023E+00  9.399767065E+00  1.127608202E+01  9.078709013E-07  0.00000E+00  9.000E+00
#rwgt            1           9   5.0431970114190681E-003          10      261867           0
</event>
<event>
      6   9999  3.45752E-01  6.37684E+00 -1.00000E+00  2.10438E-01
      21    -1     0     0   501   512  0.000000000E+00  0.000000000E+00  9.163262210E+01  9.163262210E+01  0.000000000E+00  0.00000E+00  9.000E+00
      21    -1     0     0   502   503  0.000000000E+00  0.000000000E+00 -7.379416883E+02  7.379416883E+02  0.000000000E+00  0.00000E+00  9.000E+00
      25     1     1     2     0     0 -2.056440896E+00  8.798247856E+00 -5.995574744E+02  6.125177552E+02  1.250087885E+02  0.00000E+00  9.000E+00
       5     1     1     2   501     0 -1.123786327E+00 -3.203546940E-01 -2.237941045E+00  5.379256729E+00  4.750000000E+00  0.00000E+00  9.000E+00
      -5     1     1     2     0   503 -2.755643619E+00 -6.147750521E+00 -1.278409075E+02  1.281063954E+02  4.750000000E+00  0.00000E+00  9.000E+00
      21     1     1     2   502   512  5.935870841E+00 -2.330142640E+00  8.332725674E+01  8.357090309E+01  3.015782986E-06  0.00000E+00  9.000E+00
#rwgt            1           9   9.3963286590950212E-005          10      265495           0
</event>
<event>
      6   9999  3.45752E-01  5.23301E+01 -1.00000E+00  1.33738E-01
      21    -1     0     0   511   502  0.000000000E+00  0.000000000E+00  8.356965408E+02  8.356965408E+02  0.000000000E+00  0.00000E+00  9.000E+00
      21    -1     0     0   502   503  0.000000000E+00  0.000000000E+00 -1.975464228E+02  1.975464228E+02  0.000000000E+00  0.00000E+00  9.000E+00
      25     1     1     2     0     0  1.945744276E+01  8.988465658E+01 -1.216195090E+02  1.971651843E+02  1.249998454E+02  0.00000E+00  9.000E+00
       5     1     1     2   501     0 -4.160247863E+00  1.473635289E+01  6.286324095E+02  6.288368123E+02  4.750000000E+00  0.00000E+00  9.000E+00
      -5     1     1     2     0   503  1.101347518E+01 -5.938622280E+01 -5.588973199E+00  6.084257733E+01  4.750000000E+00  0.00000E+00  9.000E+00
      21     1     1     2   511   501 -2.631067008E+01 -4.523478666E+01  1.367261908E+02  1.463983898E+02  2.697398305E-06  0.00000E+00  9.000E+00
#rwgt            1           9   6.8682207534222166E-005          10      269024           0
</event>
<event>
      6   9999  3.45752E-01  1.05479E+01 -1.00000E+00  1.84786E-01
      21    -1     0     0   512   502  0.000000000E+00  0.000000000E+00  9.873776375E+01  9.873776375E+01  0.000000000E+00  0.00000E+00  9.000E+00
      21    -1     0     0   502   503  0.000000000E+00  0.000000000E+00 -9.613423904E+02  9.613423904E+02  0.000000000E+00  0.00000E+00  9.000E+00
      25     1     1     2     0     0  5.772431294E+00 -1.428489461E+01 -8.740425101E+02  8.830695602E+02  1.249966379E+02  0.00000E+00  9.000E+00
       5     1     1     2   501     0  4.487146098E-01  1.025963977E+00  1.822027019E+01  1.886252085E+01  4.750000000E+00  0.00000E+00  9.000E+00
      -5     1     1     2     0   503 -7.740019665E+00  2.821002506E+00 -8.182100334E+01  8.237174908E+01  4.750000000E+00  0.00000E+00  9.000E+00
      21     1     1     2   512   501  1.518873761E+00  1.043792813E+01  7.503861654E+01  7.577632409E+01  0.000000000E+00  0.00000E+00  9.000E+00
#rwgt            1           9  0.23586697782013127               10      270715           0
</event>
<event>
      6   9999  3.45752E-01  2.02692E+01 -1.00000E+00  1.59768E-01
      21    -1     0     0   501   511  0.000000000E+00  0.000000000E+00  1.045020887E+02  1.045020887E+02  0.000000000E+00  0.00000E+00  9.000E+00
      21    -1     0     0   502   503  0.000000000E+00  0.000000000E+00 -9.977189028E+02  9.977189028E+02  0.000000000E+00  0.00000E+00  9.000E+00
      25     1     1     2     0     0 -1.827620195E+02 -1.737728164E+02 -4.038569625E+02  4.922649431E+02  1.250015223E+02  0.00000E+00  9.000E+00
       5     1     1     2   501     0  3.802792356E+01  4.185929225E+00 -6.456824576E+01  7.520150154E+01  4.750000000E+00  0.00000E+00  9.000E+00
      -5     1     1     2     0   503  1.608848801E+02  1.573397248E+02 -4.495544607E+02  5.027539251E+02  4.750000000E+00  0.00000E+00  9.000E+00
      21     1     1     2   502   511 -1.615078416E+01  1.224716240E+01  2.476285476E+01  3.200062174E+01  6.743495762E-07  0.00000E+00  9.000E+00
#rwgt            1           9   2.2825196963430997E-004          10      274028           0
</event>
<event>
      6   9999  3.45752E-01  6.68936E+00 -1.00000E+00  2.07683E-01
      21    -1     0     0   512   502  0.000000000E+00  0.000000000E+00  1.375823131E+01  1.375823131E+01  0.000000000E+00  0.00000E+00  9.000E+00
      21    -1     0     0   502   503  0.000000000E+00  0.000000000E+00 -9.286663146E+02  9.286663146E+02  0.000000000E+00  0.00000E+00  9.000E+00
      25     1     1     2     0     0 -1.982688232E+00 -3.920700610E-01 -8.218768047E+02  8.313288892E+02  1.249886201E+02  0.00000E+00  9.000E+00
       5     1     1     2   501     0 -1.507349395E+00  1.934417504E+00  6.867991168E+00  8.703210670E+00  4.750000000E+00  0.00000E+00  9.000E+00
      -5     1     1     2     0   503  9.221809785E+00  1.906466121E+00 -8.886614376E+01  8.948983404E+01  4.750000000E+00  0.00000E+00  9.000E+00
      21     1     1     2   512   501 -5.731772158E+00 -3.448813564E+00 -1.103312600E+01  1.290261200E+01  2.665600750E-07  0.00000E+00  9.000E+00
#rwgt            1           9  0.23015802503068042               10      276656           0
</event>
<event>
      6   9999  3.45752E-01  1.19057E+01 -1.00000E+00  1.79552E-01
      -2    -1     0     0     0   502  0.000000000E+00  0.000000000E+00  1.790127858E+02  1.790127858E+02  0.000000000E+00  0.00000E+00  9.000E+00
      21    -1     0     0   502   503  0.000000000E+00  0.000000000E+00 -8.542852108E+02  8.542852108E+02  0.000000000E+00  0.00000E+00  9.000E+00
      25     1     1     2     0     0 -4.444255519E+01  2.188694700E+01 -6.548223126E+02  6.684857003E+02  1.250067651E+02  0.00000E+00  9.000E+00
       5     1     1     2   501     0  5.617740452E+00 -3.368310271E+01 -2.629331356E+01  4.335909655E+01  4.750000000E+00  0.00000E+00  9.000E+00
      -5     1     1     2     0   503  3.402856628E+01  8.992999171E-01 -1.557118711E+02  1.594600306E+02  4.750000000E+00  0.00000E+00  9.000E+00
      -2     1     1     2     0   501  4.796248449E+00  1.089685580E+01  1.615550722E+02  1.619931691E+02  3.303624740E-06  0.00000E+00  9.000E+00
#rwgt            1           9   2.4043136161808532E-003          10      280932           0
</event>
<event>
      6   9999 -3.45752E-01  8.18610E+00 -1.00000E+00  1.96840E-01
      21    -1     0     0   501   502  0.000000000E+00  0.000000000E+00  4.268832498E+01  4.268832498E+01  0.000000000E+00  0.00000E+00  9.000E+00
      21    -1     0     0   511   503  0.000000000E+00  0.000000000E+00 -1.494981023E+03  1.494981023E+03  0.000000000E+00  0.00000E+00  9.000E+00
      25     1     1     2     0     0 -8.672122617E+01 -7.266875837E+01 -1.116743449E+03  1.129399611E+03  1.250049265E+02  0.00000E+00  9.000E+00
       5     1     1     2   501     0 -2.335606550E+00  5.371236403E-01  6.915808474E+00  8.725506668E+00  4.750000000E+00  0.00000E+00  9.000E+00
      -5     1     1     2     0   503  8.258078550E+01  6.712434186E+01 -7.114188565E+01  1.280975948E+02  4.750000000E+00  0.00000E+00  9.000E+00
      21     1     1     2   511   502  6.476047218E+00  5.007292871E+00 -2.713231716E+02  2.714466350E+02  3.814697266E-06  0.00000E+00  9.000E+00
#rwgt            1           9  -2.3018378951055317E-004          10      283507           0
</event>
<event>
      6   9999  3.45752E-01  1.82341E+01 -1.00000E+00  1.63336E-01
      21    -1     0     0   501   502  0.000000000E+00  0.000000000E+00  3.983733010E+01  3.983733010E+01  0.000000000E+00  0.00000E+00  9.000E+00
      21    -1     0     0   502   512  0.000000000E+00  0.000000000E+00 -1.627343739E+03  1.627343739E+03  0.000000000E+00  0.00000E+00  9.000E+00
      25     1     1     2     0     0 -4.276888018E+00 -2.038199419E+01 -1.147044822E+03  1.154023610E+03  1.249998051E+02  0.00000E+00  9.000E+00
       5     1     1     2   501     0 -2.231909567E+00  5.203474164E+00  3.562028249E+01  3.637890307E+01  4.750000000E+00  0.00000E+00  9.000E+00
      -5     1     1     2     0   503 -4.771623609E+00  8.525233152E-01 -8.436554004E+01  8.463806493E+01  4.750000000E+00  0.00000E+00  9.000E+00
      21     1     1     2   503   512  1.128042119E+01  1.432599671E+01 -3.917163300E+02  3.921404918E+02  5.394796609E-06  0.00000E+00  9.000E+00
#rwgt            1           9   1.2628141368044581E-004          10      287632           0
</event>
<event>
      6   9999  3.45752E-01  1.30240E+01 -1.00000E+00  1.75865E-01
      21    -1     0     0   501   511  0.000000000E+00  0.000000000E+00  8.950823636E+01  8.950823636E+01  0.000000000E+00  0.00000E+00  9.000E+00
      21    -1     0     0   502   503  0.000000000E+00  0.000000000E+00 -7.859674436E+02  7.859674436E+02  0.000000000E+00  0.00000E+00  9.000E+00
      25     1     1     2     0     0  5.766462506E+00  1.256651803E+01 -7.542940512E+02  7.647050154E+02  1.249923014E+02  0.00000E+00  9.000E+00
       5     1     1     2   501     0  2.159509901E+00  3.666135124E+00  9.729790581E-01  6.450830800E+00  4.750000000E+00  0.00000E+00  9.000E+00
      -5     1     1     2     0   503 -2.969621815E-01 -5.676982098E+00 -2.260751147E+01  2.379030028E+01  4.750000000E+00  0.00000E+00  9.000E+00
      21     1     1     2   502   511 -7.629010225E+00 -1.055567106E+01  7.946937636E+01  8.052953351E+01  3.438521648E-06  0.00000E+00  9.000E+00
#rwgt            1           9   4.5621593956981510E-003          10      290146           0
</event>
<event>
      6   9999  3.45752E-01  1.31212E+01 -1.00000E+00  1.75567E-01
      21    -1     0     0   501   512  0.000000000E+00  0.000000000E+00  1.582799244E+01  1.582799244E+01  0.000000000E+00  0.00000E+00  9.000E+00
      21    -1     0     0   502   503  0.000000000E+00  0.000000000E+00 -8.232868176E+02  8.232868176E+02  0.000000000E+00  0.00000E+00  9.000E+00
      25     1     1     2     0     0  2.603402420E+01  4.442104598E+00 -5.903170432E+02  6.039837809E+02  1.249987738E+02  0.00000E+00  9.000E+00
       5     1     1     2   501     0 -3.257022574E+00  6.096684579E-01  3.635188387E+00  6.837908034E+00  4.750000000E+00  0.00000E+00  9.000E+00
      -5     1     1     2     0   503 -3.446677954E+01 -1.101129423E+01 -2.026839501E+02  2.059430834E+02  4.750000000E+00  0.00000E+00  9.000E+00
      21     1     1     2   502   512  1.168977791E+01  5.959521173E+00 -1.809302036E+01  2.235003772E+01  4.129530925E-07  0.00000E+00  9.000E+00
#rwgt            1           9   3.6304901104136177E-005          10      292108           0
</event>
<event>
      6   9999  3.45752E-01  4.68929E+00 -1.00000E+00  2.34375E-01
       2    -1     0     0   501     0  0.000000000E+00  0.000000000E+00  1.856295035E+02  1.856295035E+02  0.000000000E+00  0.00000E+00  9.000E+00
      21    -1     0     0   502   503  0.000000000E+00  0.000000000E+00 -1.243649687E+03  1.243649687E+03  0.000000000E+00  0.00000E+00  9.000E+00
      25     1     1     2     0     0 -3.995542556E+01 -2.325979439E+01 -1.722037112E+02  2.177535736E+02  1.250001865E+02  0.00000E+00  9.000E+00
       5     1     1     2   501     0  1.676916922E+00 -5.609507845E+01 -5.090061638E+01  7.591380062E+01  4.750000000E+00  0.00000E+00  9.000E+00
      -5     1     1     2     0   503  3.361563460E+01  7.985193438E+01 -9.833163514E+02  9.871372507E+02  4.750000000E+00  0.00000E+00  9.000E+00
       2     1     1     2   502     0  4.662874037E+00 -4.970615435E-01  1.484004956E+02  1.484745653E+02  1.907348633E-06  0.00000E+00  9.000E+00
#rwgt            1           9   107.26538283863609               10      294302           0
</event>
<event>
      6   9999  3.45752E-01  4.52020E+01 -1.00000E+00  1.37174E-01
      21    -1     0     0   511   502  0.000000000E+00  0.000000000E+00  9.724333798E+01  9.724333798E+01  0.000000000E+00  0.00000E+00  9.000E+00
      21    -1     0     0   502   503  0.000000000E+00  0.000000000E+00 -8.981673889E+02  8.981673889E+02  0.000000000E+00  0.00000E+00  9.000E+00
      25     1     1     2     0     0  4.142139978E+01  2.188798923E+01 -7.733604220E+02  7.847968353E+02  1.249996558E+02  0.00000E+00  9.000E+00
       5     1     1     2   501     0  7.738956726E+00  9.147507473E+00  8.159134489E+00  1.525458357E+01  4.750000000E+00  0.00000E+00  9.000E+00
      -5     1     1     2     0   503 -1.614108701E+01 -1.656680427E-01 -1.084401537E+02  1.097378310E+02  4.750000000E+00  0.00000E+00  9.000E+00
      21     1     1     2   511   501 -3.301926949E+01 -3.086982866E+01  7.271739024E+01  8.562147699E+01  2.861022949E-06  0.00000E+00  9.000E+00
#rwgt            1           9   6.4800215622215357E-003          10      300674           0
</event>
<event>
      6   9999 -3.45752E-01  4.73234E+00 -1.00000E+00  2.33647E-01
      21    -1     0     0   512   502  0.000000000E+00  0.000000000E+00  1.192233658E+01  1.192233658E+01  0.000000000E+00  0.00000E+00  9.000E+00
      21    -1     0     0   502   503  0.000000000E+00  0.000000000E+00 -1.078287443E+03  1.078287443E+03  0.000000000E+00  0.00000E+00  9.000E+00
      25     1     1     2     0     0 -3.097690733E+01  3.774751466E+01 -8.671113483E+02  8.774340600E+02  1.249959821E+02  0.00000E+00  9.000E+00
       5     1     1     2   501     0 -5.089605597E-02 -5.081307137E-01 -2.764434220E+00  5.519545614E+00  4.750000000E+00  0.00000E+00  9.000E+00
      -5     1     1     2     0   503  3.387906947E+01 -4.101633180E+01 -1.951657942E+02  2.023422362E+02  4.750000000E+00  0.00000E+00  9.000E+00
      21     1     1     2   512   501 -2.851266085E+00  3.776947857E+00 -1.323529602E+00  4.913937729E+00  4.099850801E-07  0.00000E+00  9.000E+00
#rwgt            1           9  -2.1352613763402699               10      302201           0
</event>
<event>
      6   9999 -3.45752E-01  2.34996E+01 -1.00000E+00  1.55043E-01
      21    -1     0     0   511   502  0.000000000E+00  0.000000000E+00  5.617188517E+01  5.617188517E+01  0.000000000E+00  0.00000E+00  9.000E+00
      21    -1     0     0   502   503  0.000000000E+00  0.000000000E+00 -1.320620735E+03  1.320620735E+03  0.000000000E+00  0.00000E+00  9.000E+00
      25     1     1     2     0     0 -1.294164093E+01 -2.601193644E+01 -1.247359755E+03  1.253944124E+03  1.250015992E+02  0.00000E+00  9.000E+00
       5     1     1     2   501     0  3.188389346E+00 -3.078238042E+00  4.590359958E+01  4.636102167E+01  4.750000000E+00  0.00000E+00  9.000E+00
      -5     1     1     2     0   503  8.971475260E+00  5.603622969E+00 -4.612691341E+01  4.756198692E+01  4.750000000E+00  0.00000E+00  9.000E+00
      21     1     1     2   511   501  7.817763201E-01  2.348655152E+01 -1.686578059E+01  2.892548757E+01  3.371747881E-07  0.00000E+00  9.000E+00
#rwgt            1           9  -1.4498163227732175E-003          10      306573           0
</event>
<event>
      6   9999  3.45752E-01  5.80357E+00 -1.00000E+00  2.16092E-01
      21    -1     0     0   501   502  0.000000000E+00  0.000000000E+00  6.574222776E+02  6.574222776E+02  0.000000000E+00  0.00000E+00  9.000E+00
      21    -1     0     0   502   512  0.000000000E+00  0.000000000E+00 -1.191870023E+02  1.191870023E+02  0.000000000E+00  0.00000E+00  9.000E+00
      25     1     1     2     0     0  2.621763277E-01 -1.272756476E+01 -5.631416550E+01  1.376902393E+02  1.250010284E+02  0.00000E+00  9.000E+00
       5     1     1     2   501     0 -3.023623811E+00 -1.424699035E+01  6.035145271E+02  6.037089248E+02  4.750000000E+00  0.00000E+00  9.000E+00
      -5     1     1     2     0   503  6.012292289E+00  2.216691258E+01 -1.418047346E+01  2.740744423E+01  4.750000000E+00  0.00000E+00  9.000E+00
      21     1     1     2   503   512 -3.250844806E+00  4.807642538E+00  5.215387194E+00  7.802671485E+00  0.000000000E+00  0.00000E+00  9.000E+00
#rwgt            1           9  0.46886862394660961               10      309073           0
</event>
<event>
      6   9999  3.45752E-01  1.04603E+01 -1.00000E+00  1.85158E-01
      21    -1     0     0   501   502  0.000000000E+00  0.000000000E+00  2.123824591E+02  2.123824591E+02  0.000000000E+00  0.00000E+00  9.000E+00
      21    -1     0     0   502   511  0.000000000E+00  0.000000000E+00 -4.718754658E+02  4.718754658E+02  0.000000000E+00  0.00000E+00  9.000E+00
      25     1     1     2     0     0  6.100602433E+00  2.262555037E+00  1.288449115E+02  1.796314633E+02  1.249964594E+02  0.00000E+00  9.000E+00
       5     1     1     2   501     0  1.146706865E+00  1.129338462E+00  4.637125905E+01  4.664168208E+01  4.750000000E+00  0.00000E+00  9.000E+00
      -5     1     1     2     0   503  1.601780707E+00  2.185893088E+00  1.093058151E+01  1.222227238E+01  4.750000000E+00  0.00000E+00  9.000E+00
      21     1     1     2   503   511 -8.849090005E+00 -5.577786587E+00 -4.456397588E+02  4.457625071E+02  0.000000000E+00  0.00000E+00  9.000E+00
#rwgt            1           9   5.3923691179985772E-002          10      314891           0
</event>
<event>
      6   9999  3.45752E-01  3.21283E+01 -1.00000E+00  1.45938E-01
      21    -1     0     0   501   512  0.000000000E+00  0.000000000E+00  9.954949170E+01  9.954949170E+01  0.000000000E+00  0.00000E+00  9.000E+00
      21    -1     0     0   502   503  0.000000000E+00  0.000000000E+00 -1.846434566E+03  1.846434566E+03  0.000000000E+00  0.00000E+00  9.000E+00
      25     1     1     2     0     0  1.709885349E+01  4.736528486E+01 -1.740814256E+03  1.746023233E+03  1.250080621E+02  0.00000E+00  9.000E+00
       5     1     1     2   501     0 -1.368374389E+00 -4.959182219E+00  8.943816255E+01  8.971183510E+01  4.750000000E+00  0.00000E+00  9.000E+00
      -5     1     1     2     0   503  2.614311992E+00 -1.603003094E+01 -6.009856353E+01  6.243553762E+01  4.750000000E+00  0.00000E+00  9.000E+00
      21     1     1     2   502   512 -1.834479110E+01 -2.637607170E+01 -3.541041699E+01  4.781345156E+01  0.000000000E+00  0.00000E+00  9.000E+00
#rwgt            1           9   4.3884760553439505E-004          10      317003           0
</event>
<event>
      6   9999  3.45752E-01  1.46231E+01 -1.00000E+00  1.71335E-01
      21    -1     0     0   501   511  0.000000000E+00  0.000000000E+00  1.686802086E+02  1.686802086E+02  0.000000000E+00  0.00000E+00  9.000E+00
      21    -1     0     0   502   503  0.000000000E+00  0.000000000E+00 -1.090223967E+03  1.090223967E+03  0.000000000E+00  0.00000E+00  9.000E+00
      25     1     1     2     0     0 -8.453234849E-01  2.470922676E+01 -8.890344140E+02  8.981192290E+02  1.249987997E+02  0.00000E+00  9.000E+00
       5     1     1     2   501     0 -1.403694727E+01 -1.192076133E+01  1.454337598E+02  1.466720199E+02  4.750000000E+00  0.00000E+00  9.000E+00
      -5     1     1     2     0   503  6.501167947E+00 -8.054179732E-01 -1.929732985E+02  1.931428753E+02  4.750000000E+00  0.00000E+00  9.000E+00
      21     1     1     2   502   511  8.381102809E+00 -1.198304745E+01  1.503019434E+01  2.097005132E+01  2.384185791E-07  0.00000E+00  9.000E+00
#rwgt            1           9   1.0222722794260919E-003          10      319566           0
</event>
<event>
      6   9999  3.45752E-01  8.28486E+00 -1.00000E+00  1.96233E-01
      21    -1     0     0   501   512  0.000000000E+00  0.000000000E+00  5.016895660E+01  5.016895660E+01  0.000000000E+00  0.00000E+00  9.000E+00
      21    -1     0     0   502   503  0.000000000E+00  0.000000000E+00 -1.357085856E+03  1.357085856E+03  0.000000000E+00  0.00000E+00  9.000E+00
      25     1     1     2     0     0  2.297117176E+01  5.956731881E+00 -1.053714969E+03  1.061368723E+03  1.250006907E+02  0.00000E+00  9.000E+00
       5     1     1     2   501     0  1.410846111E-01  2.076933502E-01 -5.301274506E+00  7.122433066E+00  4.750000000E+00  0.00000E+00  9.000E+00
      -5     1     1     2     0   503 -1.586189656E+01 -1.017330682E+01 -2.926294647E+02  2.932740392E+02  4.750000000E+00  0.00000E+00  9.000E+00
      21     1     1     2   502   512 -7.250359807E+00  4.008881586E+00  4.472880942E+01  4.548961685E+01  0.000000000E+00  0.00000E+00  9.000E+00
#rwgt            1           9   9.3899664171808259E-003          10      323273           0
</event>
<event>
      6   9999  3.45752E-01  1.62821E+01 -1.00000E+00  1.67341E-01
       2    -1     0     0   501     0  0.000000000E+00  0.000000000E+00  6.458674818E+02  6.458674818E+02  0.000000000E+00  0.00000E+00  9.000E+00
      21    -1     0     0   502   503  0.000000000E+00  0.000000000E+00 -7.818371777E+01  7.818371777E+01  0.000000000E+00  0.00000E+00  9.000E+00
      25     1     1     2     0     0  7.497824464E+00 -2.202186499E+01 -1.204939712E+01  1.277448810E+02  1.250295435E+02  0.00000E+00  9.000E+00
       5     1     1     2   501     0  2.809284238E+00 -2.973072184E+00  1.322893708E+02  1.324378018E+02  4.750000000E+00  0.00000E+00  9.000E+00
      -5     1     1     2     0   503 -7.826103532E+00  8.903013768E+00 -3.010461489E+00  1.312009638E+01  4.750000000E+00  0.00000E+00  9.000E+00
       2     1     1     2   502     0 -2.481005169E+00  1.609192340E+01  4.504542518E+02  4.507484203E+02  0.000000000E+00  0.00000E+00  9.000E+00
#rwgt            1           9   2.4300380567969473E-002          10      326097           0
</event>
<event>
      6   9999  3.45752E-01  1.07403E+01 -1.00000E+00  1.83985E-01
      21    -1     0     0   511   502  0.000000000E+00  0.000000000E+00  9.131024084E+00  9.131024084E+00  0.000000000E+00  0.00000E+00  9.000E+00
      21    -1     0     0   502   503  0.000000000E+00  0.000000000E+00 -6.596310922E+02  6.596310922E+02  0.000000000E+00  0.00000E+00  9.000E+00
      25     1     1     2     0     0  4.141633190E+00 -1.612374207E+00 -5.990022843E+02  6.119219664E+02  1.250000142E+02  0.00000E+00  9.000E+00
       5     1     1     2   501     0 -1.592913952E-01 -5.341087897E+00 -1.864396211E+01  1.996778448E+01  4.750000000E+00  0.00000E+00  9.000E+00
      -5     1     1     2     0   503  2.041002972E+00 -1.938857542E+00 -1.560468287E+01  1.655274869E+01  4.750000000E+00  0.00000E+00  9.000E+00
      21     1     1     2   511   501 -6.023344767E+00  8.892319645E+00 -1.724913884E+01  2.031961667E+01  5.331201500E-07  0.00000E+00  9.000E+00
#rwgt            1           9   1.2574264886080777E-003          10      328119           0
</event>
<event>
      6   9999 -3.45752E-01  1.95823E+01 -1.00000E+00  1.60913E-01
      21    -1     0     0   501   502  0.000000000E+00  0.000000000E+00  8.829422943E+00  8.829422943E+00  0.000000000E+00  0.00000E+00  9.000E+00
      21    -1     0     0   502   512  0.000000000E+00  0.000000000E+00 -1.036817652E+03  1.036817652E+03  0.000000000E+00  0.00000E+00  9.000E+00
      25     1     1     2     0     0 -1.036119701E+01  1.826651127E+01 -6.432235686E+02  6.555938135E+02  1.250026770E+02  0.00000E+00  9.000E+00
       5     1     1     2   501     0 -8.630953575E-01  1.424841796E+00 -1.450779418E+00  5.238546426E+00  4.750000000E+00  0.00000E+00  9.000E+00
      -5     1     1     2     0   503 -4.817449384E+00 -8.460633030E+00 -6.478469631E+01  6.568416480E+01  4.750000000E+00  0.00000E+00  9.000E+00
      21     1     1     2   503   512  1.604174175E+01 -1.123072004E+01 -3.185291843E+02  3.191305498E+02  3.814697266E-06  0.00000E+00  9.000E+00
#rwgt            1           9  -6.9408821383876718E-003          10      329954           0
</event>
<event>
      6   9999  3.45752E-01  1.41887E+01 -1.00000E+00  1.72491E-01
      21    -1     0     0   501   502  0.000000000E+00  0.000000000E+00  9.772713204E+00  9.772713204E+00  0.000000000E+00  0.00000E+00  9.000E+00
      21    -1     0     0   511   503  0.000000000E+00  0.000000000E+00 -8.338609996E+02  8.338609996E+02  0.000000000E+00  0.00000E+00  9.000E+00
      25     1     1     2     0     0 -3.022907636E+01  1.110647746E+01 -6.836488913E+02  6.957283886E+02  1.250001331E+02  0.00000E+00  9.000E+00
       5     1     1     2   501     0 -3.853048614E-01  1.270287740E-01 -4.484132051E+00  6.544809882E+00  4.750000000E+00  0.00000E+00  9.000E+00
      -5     1     1     2     0   503  1.685502227E+01 -7.769690438E+00 -3.987699917E+01  4.424022410E+01  4.750000000E+00  0.00000E+00  9.000E+00
      21     1     1     2   511   502  1.375935894E+01 -3.463815795E+00 -9.607826392E+01  9.712029024E+01  1.348699152E-06  0.00000E+00  9.000E+00
#rwgt            1           9   1.4935205428716164E-005          10      331479           0
</event>
<event>
      6   9999  3.45752E-01  1.60422E+01 -1.00000E+00  1.67881E-01
      21    -1     0     0   512   503  0.000000000E+00  0.000000000E+00  1.960148163E+01  1.960148163E+01  0.000000000E+00  0.00000E+00  9.000E+00
      21    -1     0     0   501   502  0.000000000E+00  0.000000000E+00 -8.191795828E+02  8.191795828E+02  0.000000000E+00  0.00000E+00  9.000E+00
      25     1     1     2     0     0 -1.825362247E+01 -4.730651377E-01 -4.666422057E+02  4.834381496E+02  1.249963110E+02  0.00000E+00  9.000E+00
       5     1     1     2   501     0 -3.011435872E+00 -7.640776290E+00 -3.211781556E+02  3.213182540E+02  4.750000000E+00  0.00000E+00  9.000E+00
      -5     1     1     2     0   503  5.325971734E+00  9.929495540E+00 -1.310766505E+01  1.792579816E+01  4.750000000E+00  0.00000E+00  9.000E+00
      21     1     1     2   512   502  1.593908661E+01 -1.815654112E+00  1.349925243E+00  1.609886269E+01  8.273835368E-07  0.00000E+00  9.000E+00
#rwgt            1           9   4.4587463938342138               10      333414           0
</event>
<event>
      6   9999 -3.45752E-01  7.55779E+00 -1.00000E+00  2.00985E-01
      21    -1     0     0   502   511  0.000000000E+00  0.000000000E+00  1.146417389E+02  1.146417389E+02  0.000000000E+00  0.00000E+00  9.000E+00
      21    -1     0     0   501   502  0.000000000E+00  0.000000000E+00 -8.602368889E+01  8.602368889E+01  0.000000000E+00  0.00000E+00  9.000E+00
      25     1     1     2     0     0  1.145706712E+01  7.690193521E+00  6.824564820E+01  1.430940492E+02  1.250121392E+02  0.00000E+00  9.000E+00
       5     1     1     2   501     0 -1.894991918E+00 -3.941918118E+00 -3.372256969E+01  3.433517030E+01  4.750000000E+00  0.00000E+00  9.000E+00
      -5     1     1     2     0   503 -1.116272943E+01  3.638071626E+00 -8.491278445E+00  1.524816065E+01  4.750000000E+00  0.00000E+00  9.000E+00
      21     1     1     2   503   511  1.600654228E+00 -7.386347029E+00  2.586249962E+00  7.988047650E+00  6.664001875E-08  0.00000E+00  9.000E+00
#rwgt            1           9  -5.1521020571986789               10      335064           0
</event>
<event>
      6   9999  3.45752E-01  5.73121E+00 -1.00000E+00  2.16869E-01
      21    -1     0     0   512   502  0.000000000E+00  0.000000000E+00  1.150440821E+02  1.150440821E+02  0.000000000E+00  0.00000E+00  9.000E+00
      21    -1     0     0   502   503  0.000000000E+00  0.000000000E+00 -1.367906968E+03  1.367906968E+03  0.000000000E+00  0.00000E+00  9.000E+00
      25     1     1     2     0     0 -3.320988128E+00  2.938285492E+00 -9.230539793E+02  9.314907019E+02  1.250064659E+02  0.00000E+00  9.000E+00
       5     1     1     2   501     0  1.441030716E+01  3.995923359E+00  4.909515905E+01  5.154145417E+01  4.750000000E+00  0.00000E+00  9.000E+00
      -5     1     1     2     0   503 -7.900698998E+00 -2.171909528E+00 -4.392246009E+02  4.393267017E+02  4.750000000E+00  0.00000E+00  9.000E+00
      21     1     1     2   512   501 -3.188620036E+00 -4.762299323E+00  6.032053532E+01  6.059219236E+01  3.631483605E-06  0.00000E+00  9.000E+00
#rwgt            1           9   1.0285484333367855E-003          10      338371           0
</event>
<event>
      6   9999  3.45752E-01  1.10159E+01 -1.00000E+00  1.82874E-01
      21    -1     0     0   511   503  0.000000000E+00  0.000000000E+00  5.543711734E+00  5.543711734E+00  0.000000000E+00  0.00000E+00  9.000E+00
      21    -1     0     0   501   502  0.000000000E+00  0.000000000E+00 -4.229204075E+03  4.229204075E+03  0.000000000E+00  0.00000E+00  9.000E+00
      25     1     1     2     0     0  4.274432597E-01 -7.763793834E+00 -9.014596186E+02  9.101181804E+02  1.250007962E+02  0.00000E+00  9.000E+00
       5     1     1     2   501     0 -7.259409748E+00  1.398686389E+01 -3.228887184E+03  3.228929132E+03  4.750000000E+00  0.00000E+00  9.000E+00
      -5     1     1     2     0   503 -3.249862750E+00 -1.783910946E+00 -6.562511817E+01  6.590115766E+01  4.750000000E+00  0.00000E+00  9.000E+00
      21     1     1     2   511   502  1.008182924E+01 -4.439159106E+00 -2.768844210E+01  2.979931610E+01  1.390207266E-06  0.00000E+00  9.000E+00
#rwgt            1           9   6.8686708501916232E-003          10      344619           0
</event>
<event>
      6   9999  3.45752E-01  3.42550E+01 -1.00000E+00  1.44206E-01
      21    -1     0     0   512   503  0.000000000E+00  0.000000000E+00  1.628141139E+01  1.628141139E+01  0.000000000E+00  0.00000E+00  9.000E+00
      21    -1     0     0   501   502  0.000000000E+00  0.000000000E+00 -6.460572123E+02  6.460572123E+02  0.000000000E+00  0.00000E+00  9.000E+00
      25     1     1     2     0     0 -2.104529229E+01 -2.637242048E+01 -5.675782128E+02  5.821581825E+02  1.249988516E+02  0.00000E+00  9.000E+00
       5     1     1     2   501     0 -7.898313620E-01 -1.221594604E+00 -1.009893859E+01  1.125465182E+01  4.750000000E+00  0.00000E+00  9.000E+00
      -5     1     1     2     0   503  5.910672524E+00 -2.734481863E+00 -2.162203434E+01  2.307570822E+01  4.750000000E+00  0.00000E+00  9.000E+00
      21     1     1     2   512   502  1.592445112E+01  3.032849695E+01 -3.047661521E+01  4.585008119E+01  7.539457465E-07  0.00000E+00  9.000E+00
#rwgt            1           9   5.1514223883901873E-003          10      347366           0
</event>
<event>
      6   9999  3.45752E-01  9.34461E+01 -1.00000E+00  1.21700E-01
      21    -1     0     0   501   502  0.000000000E+00  0.000000000E+00  9.969282282E+01  9.969282282E+01  0.000000000E+00  0.00000E+00  9.000E+00
       2    -1     0     0   502     0  0.000000000E+00  0.000000000E+00 -1.447813418E+03  1.447813418E+03  0.000000000E+00  0.00000E+00  9.000E+00
      25     1     1     2     0     0 -4.756760822E+01  2.315042948E+01 -7.945296391E+01  1.572777524E+02  1.249995928E+02  0.00000E+00  9.000E+00
       5     1     1     2   501     0 -5.727356469E+01 -5.374241802E+01 -3.019433581E+00  7.874127372E+01  4.750000000E+00  0.00000E+00  9.000E+00
      -5     1     1     2     0   503  1.684280384E+02  9.906744241E+01 -4.514903519E+02  4.919842097E+02  4.750000000E+00  0.00000E+00  9.000E+00
       2     1     1     2   503     0 -6.358686551E+01 -6.847545386E+01 -8.141578454E+02  8.195030045E+02  1.078959322E-05  0.00000E+00  9.000E+00
#rwgt            1           9   9.9775994259420145E-002          10      348150           0
</event>
<event>
      6   9999  3.45752E-01  8.05443E+00 -1.00000E+00  1.97667E-01
      21    -1     0     0   501   502  0.000000000E+00  0.000000000E+00  1.736334679E+01  1.736334679E+01  0.000000000E+00  0.00000E+00  9.000E+00
      21    -1     0     0   502   511  0.000000000E+00  0.000000000E+00 -1.295533720E+03  1.295533720E+03  0.000000000E+00  0.00000E+00  9.000E+00
      25     1     1     2     0     0 -1.222712167E+01 -9.768137829E+00 -6.670277772E+02  6.788151015E+02  1.249758675E+02  0.00000E+00  9.000E+00
       5     1     1     2   501     0  3.903735816E-01 -3.088911055E-01  1.082742232E+01  1.183399254E+01  4.750000000E+00  0.00000E+00  9.000E+00
      -5     1     1     2     0   503  8.355164736E+00  2.813941185E+00 -2.696467189E+02  2.698326195E+02  4.750000000E+00  0.00000E+00  9.000E+00
      21     1     1     2   503   511  3.481583348E+00  7.263087750E+00 -3.523233000E+02  3.524153537E+02  6.607249480E-06  0.00000E+00  9.000E+00
#rwgt            1           9   3.7571975584318532E-003          10      348856           0
</event>
<event>
      6   9999  3.45752E-01  2.26748E+00 -1.00000E+00  3.13130E-01
      21    -1     0     0   501   502  0.000000000E+00  0.000000000E+00  1.065059150E+01  1.065059150E+01  0.000000000E+00  0.00000E+00  9.000E+00
      21    -1     0     0   512   503  0.000000000E+00  0.000000000E+00 -9.092557250E+02  9.092557250E+02  0.000000000E+00  0.00000E+00  9.000E+00
      25     1     1     2     0     0 -3.893089018E+00 -4.834303422E+00 -8.386863811E+02  8.479730858E+02  1.249999272E+02  0.00000E+00  9.000E+00
       5     1     1     2   501     0  2.586103001E+00  3.185932832E-01  4.219625515E+00  6.867107826E+00  4.750000000E+00  0.00000E+00  9.000E+00
      -5     1     1     2     0   503  2.209952509E+00  6.595645550E+00 -4.387038154E+01  4.467168350E+01  4.750000000E+00  0.00000E+00  9.000E+00
      21     1     1     2   512   502 -9.029664929E-01 -2.079935412E+00 -2.026799641E+01  2.039443940E+01  4.129530925E-07  0.00000E+00  9.000E+00
#rwgt            1           9  0.68833846269119425               10      351976           0
</event>
<event>
      6   9999  3.45752E-01  1.27368E+01 -1.00000E+00  1.76766E-01
      21    -1     0     0   511   502  0.000000000E+00  0.000000000E+00  1.046153983E+02  1.046153983E+02  0.000000000E+00  0.00000E+00  9.000E+00
      21    -1     0     0   502   503  0.000000000E+00  0.000000000E+00 -9.212953731E+02  9.212953731E+02  0.000000000E+00  0.00000E+00  9.000E+00
      25     1     1     2     0     0 -1.951767206E+01 -2.799709475E+01 -8.045737050E+02  8.149422743E+02  1.250091468E+02  0.00000E+00  9.000E+00
       5     1     1     2   501     0  1.830152797E+01  6.729170360E+00  9.235426373E+01  9.450978885E+01  4.750000000E+00  0.00000E+00  9.000E+00
      -5     1     1     2     0   503  5.046466586E+00  3.341509060E+01 -9.391432213E+01  9.992245747E+01  4.750000000E+00  0.00000E+00  9.000E+00
      21     1     1     2   511   501 -3.830322494E+00 -1.214716621E+01 -1.054621132E+01  1.653625080E+01  3.769728732E-07  0.00000E+00  9.000E+00
#rwgt            1           9   2.1839553022954712E-003          10      358965           0
</event>
<event>
      6   9999  3.45752E-01  5.56093E+00 -1.00000E+00  2.18761E-01
      21    -1     0     0   501   512  0.000000000E+00  0.000000000E+00  1.849373043E+01  1.849373043E+01  0.000000000E+00  0.00000E+00  9.000E+00
      21    -1     0     0   502   503  0.000000000E+00  0.000000000E+00 -5.313731725E+02  5.313731725E+02  0.000000000E+00  0.00000E+00  9.000E+00
      25     1     1     2     0     0 -8.744899233E+00  3.336059050E+01 -3.279372894E+02  3.526432374E+02  1.249999394E+02  0.00000E+00  9.000E+00
       5     1     1     2   501     0 -3.875908535E-01 -7.799536696E-02 -5.795515629E+00  7.503786468E+00  4.750000000E+00  0.00000E+00  9.000E+00
      -5     1     1     2     0   503  3.571834474E+00 -3.333798521E+01 -1.807797844E+02  1.839240936E+02  4.750000000E+00  0.00000E+00  9.000E+00
      21     1     1     2   502   512  5.560655612E+00  5.539007734E-02  1.633147343E+00  5.795785464E+00  2.723286581E-07  0.00000E+00  9.000E+00
#rwgt            1           9   9.4489528805625893E-004          10      362358           0
</event>
<event>
      6   9999 -3.45752E-01  6.09446E+01 -1.00000E+00  1.30343E-01
      21    -1     0     0   501   502  0.000000000E+00  0.000000000E+00  6.174661079E+01  6.174661079E+01  0.000000000E+00  0.00000E+00  9.000E+00
      21    -1     0     0   502   511  0.000000000E+00  0.000000000E+00 -2.018395325E+03  2.018395325E+03  0.000000000E+00  0.00000E+00  9.000E+00
      25     1     1     2     0     0  4.539475328E+01  1.054674580E+01 -1.309644368E+03  1.316421257E+03  1.249985473E+02  0.00000E+00  9.000E+00
       5     1     1     2   501     0  1.516011466E+01 -5.733554075E+00  5.495104739E+01  5.748811032E+01  4.750000000E+00  0.00000E+00  9.000E+00
      -5     1     1     2     0   503  3.233086828E-01 -1.967655267E+00 -7.446437462E+00  9.054729517E+00  4.750000000E+00  0.00000E+00  9.000E+00
      21     1     1     2   503   511 -6.087817662E+01 -2.845536460E+00 -6.945089556E+02  6.971778388E+02  7.629394531E-06  0.00000E+00  9.000E+00
#rwgt            1           9  -1.8877618941356072E-002          10      366031           0
</event>
<event>
      6   9999  3.45752E-01  1.31969E+01 -1.00000E+00  1.75337E-01
      21    -1     0     0   512   502  0.000000000E+00  0.000000000E+00  6.465497491E+01  6.465497491E+01  0.000000000E+00  0.00000E+00  9.000E+00
      21    -1     0     0   502   503  0.000000000E+00  0.000000000E+00 -1.076446799E+03  1.076446799E+03  0.000000000E+00  0.00000E+00  9.000E+00
      25     1     1     2     0     0  3.119956162E+00  3.924400706E+01 -7.638786563E+02  7.750390159E+02  1.250001937E+02  0.00000E+00  9.000E+00
       5     1     1     2   501     0 -8.400731038E+00 -1.182104486E+00  1.813976798E+01  2.058114028E+01  4.750000000E+00  0.00000E+00  9.000E+00
      -5     1     1     2     0   503 -7.724100975E+00 -3.581874960E+01 -3.035187837E+02  3.057594792E+02  4.750000000E+00  0.00000E+00  9.000E+00
      21     1     1     2   512   501  1.300487585E+01 -2.243152971E+00  3.746584790E+01  3.972213854E+01  1.966049969E-06  0.00000E+00  9.000E+00
#rwgt            1           9   2.1354560642007081E-003          10      367693           0
</event>
<event>
      6   9999  3.45752E-01  9.49418E+00 -1.00000E+00  1.89600E-01
      -2    -1     0     0     0   502  0.000000000E+00  0.000000000E+00  3.223983392E+01  3.223983392E+01  0.000000000E+00  0.00000E+00  9.000E+00
       2    -1     0     0   511     0  0.000000000E+00  0.000000000E+00 -1.136175441E+03  1.136175441E+03  0.000000000E+00  0.00000E+00  9.000E+00
      25     1     1     2     0     0 -4.298388543E+01 -6.957730873E+01 -1.688059517E+02  2.254088605E+02  1.250003549E+02  0.00000E+00  9.000E+00
       5     1     1     2   501     0  3.371768013E+01  8.099904446E+01 -5.963241180E+02  6.027625929E+02  4.750000000E+00  0.00000E+00  9.000E+00
      -5     1     1     2     0   502 -1.882672205E-01 -1.228915833E+01 -3.001621545E+02  3.004512280E+02  4.750000000E+00  0.00000E+00  9.000E+00
      21     1     1     2   511   501  9.454472525E+00  8.674226073E-01 -3.864338233E+01  3.979259316E+01  4.768371582E-07  0.00000E+00  9.000E+00
#rwgt            1           3   2.1989261244853296E-004          10      370458           0
</event>
<event>
      6   9999  3.45752E-01  7.11029E+00 -1.00000E+00  2.04277E-01
      21    -1     0     0   501   502  0.000000000E+00  0.000000000E+00  2.756958763E+01  2.756958763E+01  0.000000000E+00  0.00000E+00  9.000E+00
      21    -1     0     0   502   512  0.000000000E+00  0.000000000E+00 -1.172335060E+03  1.172335060E+03  0.000000000E+00  0.00000E+00  9.000E+00
      25     1     1     2     0     0  3.747781526E+01 -8.923857870E+00 -2.426696757E+02  2.756822869E+02  1.250117191E+02  0.00000E+00  9.000E+00
       5     1     1     2   501     0  1.668899392E+00 -1.396051988E+00  9.552559803E+00  1.088797893E+01  4.750000000E+00  0.00000E+00  9.000E+00
      -5     1     1     2     0   503 -4.625692195E+01  1.028553096E+01 -8.349709424E+02  8.363280051E+02  4.750000000E+00  0.00000E+00  9.000E+00
      21     1     1     2   503   512  7.110207301E+00  3.437889452E-02 -7.667741371E+01  7.700637638E+01  9.536743164E-07  0.00000E+00  9.000E+00
#rwgt            1           9   7.2063383105160894E-005          10      377649           0
</event>
<event>
      6   9999  3.45752E-01  6.97452E+00 -1.00000E+00  2.05341E-01
      21    -1     0     0   501   502  0.000000000E+00  0.000000000E+00  3.217170099E+02  3.217170099E+02  0.000000000E+00  0.00000E+00  9.000E+00
      21    -1     0     0   511   503  0.000000000E+00  0.000000000E+00 -2.854692859E+01  2.854692859E+01  0.000000000E+00  0.00000E+00  9.000E+00
      25     1     1     2     0     0  7.429419464E+00 -1.979703390E+01  1.603323362E+02  2.043985672E+02  1.250007897E+02  0.00000E+00  9.000E+00
       5     1     1     2   501     0 -4.635020713E-02  1.414093840E+00  9.821346141E+01  9.833843762E+01  4.750000000E+00  0.00000E+00  9.000E+00
      -5     1     1     2     0   503 -1.392264327E+01  2.080737638E+01  2.865671030E+01  3.834783505E+01  4.750000000E+00  0.00000E+00  9.000E+00
      21     1     1     2   511   502  6.539574011E+00 -2.424436320E+00  5.967573385E+00  9.179098639E+00  1.460009660E-07  0.00000E+00  9.000E+00
#rwgt            1           9   4.3801212140709661E-004          10      381597           0
</event>
<event>
      6   9999 -3.45752E-01  9.24089E+00 -1.00000E+00  1.90879E-01
      21    -1     0     0   501   502  0.000000000E+00  0.000000000E+00  8.721186599E+00  8.721186599E+00  0.000000000E+00  0.00000E+00  9.000E+00
      21    -1     0     0   502   512  0.000000000E+00  0.000000000E+00 -9.530388051E+02  9.530388051E+02  0.000000000E+00  0.00000E+00  9.000E+00
      25     1     1     2     0     0 -8.036707554E+00  5.536056556E+00 -6.576486796E+02  6.694942782E+02  1.250022646E+02  0.00000E+00  9.000E+00
       5     1     1     2   501     0  1.175823633E-01  4.415650036E-01  3.466736326E-01  4.784504977E+00  4.750000000E+00  0.00000E+00  9.000E+00
      -5     1     1     2     0   503  1.753399373E+00  9.055436916E-01 -4.566858785E+01  4.595733712E+01  4.750000000E+00  0.00000E+00  9.000E+00
      21     1     1     2   503   512  6.165725818E+00 -6.883165251E+00 -2.413470247E+02  2.415238714E+02  0.000000000E+00  0.00000E+00  9.000E+00
#rwgt            1           9  -4.4208841677632451E-003          10      384792           0
</event>
<event>
      6   9999 -3.45752E-01  5.72346E+00 -1.00000E+00  2.16953E-01
      21    -1     0     0   501   511  0.000000000E+00  0.000000000E+00  6.610520424E+02  6.610520424E+02  0.000000000E+00  0.00000E+00  9.000E+00
      21    -1     0     0   502   503  0.000000000E+00  0.000000000E+00 -1.070696411E+02  1.070696411E+02  0.000000000E+00  0.00000E+00  9.000E+00
      25     1     1     2     0     0 -2.423663082E+01 -3.757575235E+01  7.769050579E+00  1.329776042E+02  1.249933344E+02  0.00000E+00  9.000E+00
       5     1     1     2   501     0 -6.440312093E-01  1.332729977E+00  2.156563668E+01  2.213210633E+01  4.750000000E+00  0.00000E+00  9.000E+00
      -5     1     1     2     0   503  1.949738686E+01  3.818683056E+01 -3.363400123E+01  5.470092011E+01  4.750000000E+00  0.00000E+00  9.000E+00
      21     1     1     2   502   511  5.383275178E+00 -1.943808188E+00  5.582817152E+02  5.583110527E+02  0.000000000E+00  0.00000E+00  9.000E+00
#rwgt            1           9  -7.7490859932987183E-002          10      387162           0
</event>
<event>
      6   9999 -3.45752E-01  5.12801E+00 -1.00000E+00  2.24021E-01
      21    -1     0     0   512   502  0.000000000E+00  0.000000000E+00  2.538020673E+01  2.538020673E+01  0.000000000E+00  0.00000E+00  9.000E+00
      21    -1     0     0   502   503  0.000000000E+00  0.000000000E+00 -1.078817411E+03  1.078817411E+03  0.000000000E+00  0.00000E+00  9.000E+00
      25     1     1     2     0     0  1.263562075E+00  3.727989759E+00 -1.046261434E+03  1.053709273E+03  1.249990003E+02  0.00000E+00  9.000E+00
       5     1     1     2   501     0 -1.386620449E+00 -6.609518470E+00  1.503398817E+01  1.715201886E+01  4.750000000E+00  0.00000E+00  9.000E+00
      -5     1     1     2     0   503 -2.458554170E+00 -1.549240770E+00 -2.623359554E+01  2.681806612E+01  4.750000000E+00  0.00000E+00  9.000E+00
      21     1     1     2   512   501  2.581612543E+00  4.430769481E+00  4.023837023E+00  6.518259423E+00  4.460403188E-07  0.00000E+00  9.000E+00
#rwgt            1           9  -1.2124495151803839E-002          10      391261           0
</event>
<event>
      6   9999 -3.45752E-01  6.89470E+00 -1.00000E+00  2.05981E-01
       1    -1     0     0   501     0  0.000000000E+00  0.000000000E+00  4.939025267E+02  4.939025267E+02  0.000000000E+00  0.00000E+00  9.000E+00
      21    -1     0     0   502   503  0.000000000E+00  0.000000000E+00 -5.287222060E+01  5.287222060E+01  0.000000000E+00  0.00000E+00  9.000E+00
      25     1     1     2     0     0 -2.930446092E+00  5.984599778E-02  2.806142328E+01  1.281458036E+02  1.250012496E+02  0.00000E+00  9.000E+00
       5     1     1     2   501     0 -1.708627774E+00 -3.171786024E+00  7.692468332E+01  7.715535651E+01  4.750000000E+00  0.00000E+00  9.000E+00
      -5     1     1     2     0   503 -1.164116785E+00 -6.109355850E-01 -4.129050873E-01  4.945846822E+00  4.750000000E+00  0.00000E+00  9.000E+00
       1     1     1     2   502     0  5.803190651E+00  3.722875611E+00  3.364571046E+02  3.365277404E+02  0.000000000E+00  0.00000E+00  9.000E+00
#rwgt            1           9  -2.2878970698576350E-003          10      396083           0
</event>
<event>
      6   9999  3.45752E-01  4.57823E+01 -1.00000E+00  1.36868E-01
       1    -1     0     0   501     0  0.000000000E+00  0.000000000E+00  3.315388007E+01  3.315388007E+01  0.000000000E+00  0.00000E+00  9.000E+00
      21    -1     0     0   502   503  0.000000000E+00  0.000000000E+00 -2.671800676E+03  2.671800676E+03  0.000000000E+00  0.00000E+00  9.000E+00
      25     1     1     2     0     0 -5.976248215E+00 -4.871555736E+01 -2.288578901E+03  2.292515441E+03  1.249989523E+02  0.00000E+00  9.000E+00
       5     1     1     2   501     0 -7.500376963E+00  1.175586620E+01 -1.078735535E+02  1.088748001E+02  4.750000000E+00  0.00000E+00  9.000E+00
      -5     1     1     2     0   503 -2.118385417E+01  7.048587687E+00 -2.550041435E+02  2.560236590E+02  4.750000000E+00  0.00000E+00  9.000E+00
       1     1     1     2   502     0  3.466047935E+01  2.991110348E+01  1.280980244E+01  4.754065606E+01  2.448873351E-06  0.00000E+00  9.000E+00
#rwgt            1           9   1.7547465089008507E-003          10      399411           0
</event>
<event>
      6   9999  3.45752E-01  7.27550E+00 -1.00000E+00  2.03025E-01
      21    -1     0     0   501   511  0.000000000E+00  0.000000000E+00  4.286149579E+01  4.286149579E+01  0.000000000E+00  0.00000E+00  9.000E+00
      21    -1     0     0   502   503  0.000000000E+00  0.000000000E+00 -7.009465818E+02  7.009465818E+02  0.000000000E+00  0.00000E+00  9.000E+00
      25     1     1     2     0     0 -3.136803503E+00 -5.711317436E+00 -5.810602238E+02  5.943843668E+02  1.249773308E+02  0.00000E+00  9.000E+00
       5     1     1     2   501     0  2.762479034E-02  1.706482208E+00 -7.922622463E-01  5.109111872E+00  4.750000000E+00  0.00000E+00  9.000E+00
      -5     1     1     2     0   503  5.295564139E-01  1.080765920E+01 -1.095634674E+02  1.101989193E+02  4.750000000E+00  0.00000E+00  9.000E+00
      21     1     1     2   502   511  2.579622298E+00 -6.802823973E+00  3.333086745E+01  3.411567953E+01  2.336015456E-06  0.00000E+00  9.000E+00
#rwgt            1           9   4.1635189428268302E-005          10      400192           0
</event>
<event>
      6   9999  3.45752E-01  2.48321E+01 -1.00000E+00  1.53353E-01
      21    -1     0     0   501   502  0.000000000E+00  0.000000000E+00  5.724949491E+01  5.724949491E+01  0.000000000E+00  0.00000E+00  9.000E+00
      21    -1     0     0   512   503  0.000000000E+00  0.000000000E+00 -1.806514778E+03  1.806514778E+03  0.000000000E+00  0.00000E+00  9.000E+00
      25     1     1     2     0     0 -1.038812632E+01 -1.787782016E+01 -1.389903270E+03  1.395665664E+03  1.249960629E+02  0.00000E+00  9.000E+00
       5     1     1     2   501     0 -5.328284083E+00  7.932922389E+00  5.297961286E+01  5.404372071E+01  4.750000000E+00  0.00000E+00  9.000E+00
      -5     1     1     2     0   503 -8.911773176E+00  6.768802192E+00 -1.021513320E+02  1.028722193E+02  4.750000000E+00  0.00000E+00  9.000E+00
      21     1     1     2   512   502  2.462818358E+01  3.176095578E+00 -3.101902938E+02  3.111826689E+02  5.394796609E-06  0.00000E+00  9.000E+00
#rwgt            1           9  0.15948523273793641               10      403024           0
</event>
<event>
      6   9999  3.45752E-01  1.02141E+01 -1.00000E+00  1.86230E-01
      21    -1     0     0   501   511  0.000000000E+00  0.000000000E+00  3.035989396E+01  3.035989396E+01  0.000000000E+00  0.00000E+00  9.000E+00
      21    -1     0     0   502   503  0.000000000E+00  0.000000000E+00 -1.119020448E+03  1.119020448E+03  0.000000000E+00  0.00000E+00  9.000E+00
      25     1     1     2     0     0 -4.167774829E+00  9.635238814E+00 -1.018889169E+03  1.026581643E+03  1.249980859E+02  0.00000E+00  9.000E+00
       5     1     1     2   501     0 -3.759152808E+00 -1.276401398E+00  2.002118835E+01  2.095640506E+01  4.750000000E+00  0.00000E+00  9.000E+00
      -5     1     1     2     0   503 -3.570956052E-01 -2.383615682E+00 -9.135431410E+01  9.150946588E+01  4.750000000E+00  0.00000E+00  9.000E+00
      21     1     1     2   502   511  8.284023242E+00 -5.975221734E+00  1.561740675E+00  1.033282874E+01  3.481901123E-07  0.00000E+00  9.000E+00
#rwgt            1           9   8.1740076902997207E-003          10      405310           0
</event>
<event>
      6   9999 -3.45752E-01  3.53115E+01 -1.00000E+00  1.43400E-01
       1    -1     0     0   501     0  0.000000000E+00  0.000000000E+00  1.058230860E+02  1.058230860E+02  0.000000000E+00  0.00000E+00  9.000E+00
      21    -1     0     0   502   503  0.000000000E+00  0.000000000E+00 -1.263708997E+03  1.263708997E+03  0.000000000E+00  0.00000E+00  9.000E+00
      25     1     1     2     0     0 -1.509704563E+01  4.429865509E-01 -9.920382726E+02  9.999979899E+02  1.250117134E+02  0.00000E+00  9.000E+00
       5     1     1     2   501     0 -1.624067392E+01  1.392558527E+01  3.460474743E+01  4.096013256E+01  4.750000000E+00  0.00000E+00  9.000E+00
      -5     1     1     2     0   503  7.096340629E+00  1.130747231E+01 -2.594390164E+02  2.598256776E+02  4.750000000E+00  0.00000E+00  9.000E+00
       1     1     1     2   502     0  2.424137892E+01 -2.567604413E+01  5.898663112E+01  6.874828248E+01  2.132480600E-06  0.00000E+00  9.000E+00
#rwgt            1           9  -1.0321963634463490E-003          10      408422           0
</event>
<event>
      6   9999  3.45752E-01  7.15889E+00 -1.00000E+00  2.03904E-01
      21    -1     0     0   501   502  0.000000000E+00  0.000000000E+00  4.022661215E+03  4.022661215E+03  0.000000000E+00  0.00000E+00  9.000E+00
      21    -1     0     0   511   503  0.000000000E+00  0.000000000E+00 -2.036133583E+01  2.036133583E+01  0.000000000E+00  0.00000E+00  9.000E+00
      25     1     1     2     0     0  3.355168257E+00  1.328070523E+01  2.784290777E+02  3.055030342E+02  1.249868726E+02  0.00000E+00  9.000E+00
       5     1     1     2   501     0 -4.430399981E+00 -1.082636868E+01  3.716131764E+03  3.716153212E+03  4.750000000E+00  0.00000E+00  9.000E+00
      -5     1     1     2     0   503  4.162542373E+00  4.004628208E+00 -3.328165528E+00  8.185535528E+00  4.750000000E+00  0.00000E+00  9.000E+00
      21     1     1     2   511   502 -3.087310649E+00 -6.458964764E+00  1.106720258E+01  1.318076954E+01  2.920019320E-07  0.00000E+00  9.000E+00
#rwgt            1           9   2.3730933870350500E-004          10      409950           0
</event>
<event>
      6   9999  3.45752E-01  8.04619E+00 -1.00000E+00  1.97720E-01
      21    -1     0     0   512   502  0.000000000E+00  0.000000000E+00  1.260403210E+02  1.260403210E+02  0.000000000E+00  0.00000E+00  9.000E+00
      21    -1     0     0   502   503  0.000000000E+00  0.000000000E+00 -7.728072960E+02  7.728072960E+02  0.000000000E+00  0.00000E+00  9.000E+00
      25     1     1     2     0     0  8.276604922E+00 -6.298302716E+00 -6.225672122E+02  6.350761931E+02  1.249946658E+02  0.00000E+00  9.000E+00
       5     1     1     2   501     0  3.434567755E-01 -3.029850180E-01 -6.848106730E+00  8.346785504E+00  4.750000000E+00  0.00000E+00  9.000E+00
      -5     1     1     2     0   503 -2.383263013E+00  1.517637924E+00 -1.361960678E+02  1.363081603E+02  4.750000000E+00  0.00000E+00  9.000E+00
      21     1     1     2   512   501 -6.236798685E+00  5.083649810E+00  1.188444118E+02  1.191164781E+02  1.907348633E-06  0.00000E+00  9.000E+00
#rwgt            1           9   6.8972765235615532E-002          10      415555           0
</event>
<event>
      6   9999  3.45752E-01  1.57736E+01 -1.00000E+00  1.68500E-01
      21    -1     0     0   501   502  0.000000000E+00  0.000000000E+00  4.776705759E+02  4.776705759E+02  0.000000000E+00  0.00000E+00  9.000E+00
      21    -1     0     0   511   503  0.000000000E+00  0.000000000E+00 -8.315325017E+01  8.315325017E+01  0.000000000E+00  0.00000E+00  9.000E+00
      25     1     1     2     0     0 -1.993991359E+01  3.794011568E+00  9.194449379E+01  1.564930239E+02  1.249971276E+02  0.00000E+00  9.000E+00
       5     1     1     2   501     0 -5.022253976E-01  8.807263221E+00  2.899907623E+02  2.901637897E+02  4.750000000E+00  0.00000E+00  9.000E+00
      -5     1     1     2     0   503  1.998133038E+01  3.165575849E+00  6.036823383E+01  6.384481647E+01  4.750000000E+00  0.00000E+00  9.000E+00
      21     1     1     2   511   502  4.608086152E-01 -1.576685064E+01 -4.778616421E+01  5.032219604E+01  6.743495762E-07  0.00000E+00  9.000E+00
#rwgt            1           9   6.8940959372394514E-002          10      418148           0
</event>
<event>
      6   9999  3.45752E-01  4.61991E+00 -1.00000E+00  2.35573E-01
       4    -1     0     0   501     0  0.000000000E+00  0.000000000E+00  7.902985953E+01  7.902985953E+01  0.000000000E+00  0.00000E+00  9.000E+00
      21    -1     0     0   502   503  0.000000000E+00  0.000000000E+00 -7.500151300E+02  7.500151300E+02  0.000000000E+00  0.00000E+00  9.000E+00
      25     1     1     2     0     0  2.184590284E+01  9.826623038E+00 -7.033080600E+02  7.147314176E+02  1.249998646E+02  0.00000E+00  9.000E+00
       5     1     1     2   501     0 -1.744087795E+01 -9.110989140E+00 -3.288833001E+01  3.861863666E+01  4.750000000E+00  0.00000E+00  9.000E+00
      -5     1     1     2     0   503  1.032226836E-01  2.939468814E-01 -4.068183612E+00  6.261763138E+00  4.750000000E+00  0.00000E+00  9.000E+00
       4     1     1     2   502     0 -4.508247576E+00 -1.009580780E+00  6.927930310E+01  6.943317210E+01  3.015782986E-06  0.00000E+00  9.000E+00
#rwgt            1           9   7.3519926412283807               10      420365           0
</event>
<event>
      6   9999  3.45752E-01  8.83529E+00 -1.00000E+00  1.93042E-01
      21    -1     0     0   501   502  0.000000000E+00  0.000000000E+00  9.397463371E+02  9.397463371E+02  0.000000000E+00  0.00000E+00  9.000E+00
       1    -1     0     0   502     0  0.000000000E+00  0.000000000E+00 -1.158259772E+02  1.158259772E+02  0.000000000E+00  0.00000E+00  9.000E+00
      25     1     1     2     0     0  2.158798909E+00 -8.498418691E+00  3.696593059E+02  3.903181789E+02  1.249935790E+02  0.00000E+00  9.000E+00
       5     1     1     2   501     0 -2.294083075E+00 -4.574671873E-01  5.423368476E+02  5.423626931E+02  4.750000000E+00  0.00000E+00  9.000E+00
      -5     1     1     2     0   503 -4.848741949E-01  1.423835406E-01  1.689100369E+01  1.755345783E+01  4.750000000E+00  0.00000E+00  9.000E+00
       1     1     1     2   503     0  6.201583606E-01  8.813502338E+00 -1.049667974E+02  1.053379845E+02  3.015782986E-06  0.00000E+00  9.000E+00
#rwgt            1           9   1.9852485711514328E-003          10      424486           0
</event>
<event>
      6   9999  3.45752E-01  1.23282E+01 -1.00000E+00  1.78101E-01
      21    -1     0     0   501   502  0.000000000E+00  0.000000000E+00  5.268878632E+01  5.268878632E+01  0.000000000E+00  0.00000E+00  9.000E+00
      21    -1     0     0   502   511  0.000000000E+00  0.000000000E+00 -1.833320280E+03  1.833320280E+03  0.000000000E+00  0.00000E+00  9.000E+00
      25     1     1     2     0     0 -2.506024867E+01 -2.949415585E+01 -2.948578574E+02  3.225884453E+02  1.249969108E+02  0.00000E+00  9.000E+00
       5     1     1     2   501     0  4.792969267E+00 -1.868673138E+00  3.805935911E+01  3.869808535E+01  4.750000000E+00  0.00000E+00  9.000E+00
      -5     1     1     2     0   503  8.989764264E+00  3.634290058E+01 -9.363269817E+02  9.370871898E+02  4.750000000E+00  0.00000E+00  9.000E+00
      21     1     1     2   503   511  1.127751514E+01 -4.980071600E+00 -5.875060138E+02  5.876353458E+02  7.629394531E-06  0.00000E+00  9.000E+00
#rwgt            1           9   7.5001780151564808E-004          10      427537           0
</event>
<event>
      6   9999  3.45752E-01  6.05843E+01 -1.00000E+00  1.30472E-01
      21    -1     0     0   501   512  0.000000000E+00  0.000000000E+00  3.448014446E+02  3.448014446E+02  0.000000000E+00  0.00000E+00  9.000E+00
      21    -1     0     0   502   503  0.000000000E+00  0.000000000E+00 -2.356184566E+03  2.356184566E+03  0.000000000E+00  0.00000E+00  9.000E+00
      25     1     1     2     0     0 -1.157392826E+02  3.505574667E+01 -1.649381613E+03  1.658526202E+03  1.249998767E+02  0.00000E+00  9.000E+00
       5     1     1     2   501     0 -5.365480263E+01 -2.210492341E+01  2.708215025E+02  2.770095923E+02  4.750000000E+00  0.00000E+00  9.000E+00
      -5     1     1     2     0   503  1.126350750E+02 -3.413756458E+01 -6.790835839E+02  6.892235558E+02  4.750000000E+00  0.00000E+00  9.000E+00
      21     1     1     2   502   512  5.675901017E+01  2.118674132E+01  4.626057287E+01  7.622666099E+01  1.348699152E-06  0.00000E+00  9.000E+00
#rwgt            1           9   3.2856398468337900E-005          10      430795           0
</event>
<event>
      6   9999  3.45752E-01  1.06401E+01 -1.00000E+00  1.84399E-01
      21    -1     0     0   501   502  0.000000000E+00  0.000000000E+00  9.560823900E+02  9.560823900E+02  0.000000000E+00  0.00000E+00  9.000E+00
      21    -1     0     0   511   503  0.000000000E+00  0.000000000E+00 -7.003440527E+01  7.003440527E+01  0.000000000E+00  0.00000E+00  9.000E+00
      25     1     1     2     0     0  1.313504128E+02 -1.964016562E-01  4.283088746E+02  4.651087443E+02  1.249987297E+02  0.00000E+00  9.000E+00
       5     1     1     2   501     0  9.800448452E-01  5.164026039E+00  4.237060866E+02  4.237653100E+02  4.750000000E+00  0.00000E+00  9.000E+00
      -5     1     1     2     0   503 -1.218399277E+02 -6.745552268E+00  3.329825894E+01  1.265772768E+02  4.750000000E+00  0.00000E+00  9.000E+00
      21     1     1     2   511   502 -1.049053000E+01  1.777927886E+00  7.347646174E-01  1.066546419E+01  2.402740046E-07  0.00000E+00  9.000E+00
#rwgt            1           9   4.1527105548074157E-005          10      432778           0
</event>
<event>
      6   9999  3.45752E-01  5.58516E+00 -1.00000E+00  2.18486E-01
      21    -1     0     0   501   512  0.000000000E+00  0.000000000E+00  1.070448570E+02  1.070448570E+02  0.000000000E+00  0.00000E+00  9.000E+00
      21    -1     0     0   502   503  0.000000000E+00  0.000000000E+00 -8.344473535E+02  8.344473535E+02  0.000000000E+00  0.00000E+00  9.000E+00
      25     1     1     2     0     0  3.851834008E-01  1.980051307E+01 -7.313563559E+02  7.422268915E+02  1.250057220E+02  0.00000E+00  9.000E+00
       5     1     1     2   501     0 -1.066889520E+01 -6.697266812E+00  7.735792698E+01  7.852063471E+01  4.750000000E+00  0.00000E+00  9.000E+00
      -5     1     1     2     0   503  6.897929642E+00 -8.661343902E+00 -9.636446878E+01  9.711474478E+01  4.750000000E+00  0.00000E+00  9.000E+00
      21     1     1     2   502   512  3.385782155E+00 -4.441902357E+00  2.296040117E+01  2.362993947E+01  3.371747881E-07  0.00000E+00  9.000E+00
#rwgt            1           9   8.8292631323983652E-003          10      436739           0
</event>
<event>
      6   9999  3.45752E-01  9.62377E+00 -1.00000E+00  1.88965E-01
      21    -1     0     0   511   502  0.000000000E+00  0.000000000E+00  5.171568189E+01  5.171568189E+01  0.000000000E+00  0.00000E+00  9.000E+00
      21    -1     0     0   502   503  0.000000000E+00  0.000000000E+00 -2.435248440E+02  2.435248440E+02  0.000000000E+00  0.00000E+00  9.000E+00
      25     1     1     2     0     0 -1.329084677E+01 -2.796518992E+00 -2.044564141E+02  2.400229916E+02  1.249965763E+02  0.00000E+00  9.000E+00
       5     1     1     2   501     0 -8.975134176E-01 -1.225147603E+00  2.375887437E+01  2.427659631E+01  4.750000000E+00  0.00000E+00  9.000E+00
      -5     1     1     2     0   503  4.571695166E+00  4.391422885E+00 -1.762294112E+01  1.932137534E+01  4.750000000E+00  0.00000E+00  9.000E+00
      21     1     1     2   511   501  9.616665023E+00 -3.697562896E-01  6.511318727E+00  1.161956270E+01  1.685873940E-07  0.00000E+00  9.000E+00
#rwgt            1           9  0.23051835788110506               10      443271           0
</event>
<event>
      6   9999  3.45752E-01  1.33739E+01 -1.00000E+00  1.74806E-01
      21    -1     0     0   501   512  0.000000000E+00  0.000000000E+00  7.711665228E+01  7.711665228E+01  0.000000000E+00  0.00000E+00  9.000E+00
      21    -1     0     0   502   503  0.000000000E+00  0.000000000E+00 -1.311799694E+02  1.311799694E+02  0.000000000E+00  0.00000E+00  9.000E+00
      25     1     1     2     0     0  1.374666782E+01 -1.420138189E+01 -9.160204875E+01  1.562537310E+02  1.250345672E+02  0.00000E+00  9.000E+00
       5     1     1     2   501     0  9.275902049E-02 -1.483848358E+00  1.470711575E+01  1.552649876E+01  4.750000000E+00  0.00000E+00  9.000E+00
      -5     1     1     2     0   503 -1.315800757E+01  2.328718181E+00  7.072625325E+00  1.584741685E+01  4.750000000E+00  0.00000E+00  9.000E+00
      21     1     1     2   502   512 -6.814192610E-01  1.335651207E+01  1.575899055E+01  2.066897506E+01  2.384185791E-07  0.00000E+00  9.000E+00
#rwgt            1           9   5.0066353052665831E-002          10      445938           0
</event>
<event>
      6   9999  3.45752E-01  5.77730E+00 -1.00000E+00  2.16372E-01
      21    -1     0     0   501   502  0.000000000E+00  0.000000000E+00  1.281318577E+02  1.281318577E+02  0.000000000E+00  0.00000E+00  9.000E+00
      21    -1     0     0   511   503  0.000000000E+00  0.000000000E+00 -8.374835566E+01  8.374835566E+01  0.000000000E+00  0.00000E+00  9.000E+00
      25     1     1     2     0     0  1.914620886E+00 -1.135228371E+01 -2.534571726E+01  1.280478518E+02  1.249852266E+02  0.00000E+00  9.000E+00
       5     1     1     2   501     0  6.383608271E-02 -6.600924030E-01  6.455505007E+01  6.473296522E+01  4.750000000E+00  0.00000E+00  9.000E+00
      -5     1     1     2     0   503 -3.809477369E+00  6.532909020E+00  8.587205297E+00  1.238925393E+01  4.750000000E+00  0.00000E+00  9.000E+00
      21     1     1     2   511   502  1.831020400E+00  5.479467089E+00 -3.413036070E+00  6.710142360E+00  8.429369702E-08  0.00000E+00  9.000E+00
#rwgt            1           9   2.7477216867431386E-002          10      447749           0
</event>
<event>
      6   9999  3.45752E-01  4.71392E+00 -1.00000E+00  2.33957E-01
      21    -1     0     0   501   502  0.000000000E+00  0.000000000E+00  1.028795693E+01  1.028795693E+01  0.000000000E+00  0.00000E+00  9.000E+00
       1    -1     0     0   502     0  0.000000000E+00  0.000000000E+00 -1.615808494E+03  1.615808494E+03  0.000000000E+00  0.00000E+00  9.000E+00
      25     1     1     2     0     0 -9.921715075E+00 -1.688362784E+01 -6.518242945E+02  6.639904298E+02  1.249995308E+02  0.00000E+00  9.000E+00
       5     1     1     2   501     0  5.303512923E-01 -5.112487233E-01  1.979811734E+00  5.198538473E+00  4.750000000E+00  0.00000E+00  9.000E+00
      -5     1     1     2     0   503  7.094103410E+00  1.327861472E+01 -1.016587584E+02  1.028771772E+02  4.750000000E+00  0.00000E+00  9.000E+00
       1     1     1     2   503     0  2.297260372E+00  4.116261843E+00 -8.540172955E+02  8.540303051E+02  1.078959322E-05  0.00000E+00  9.000E+00
#rwgt            1           9   1.4022562829008674E-003          10      451693           0
</event>
<event>
      6   9999  3.45752E-01  7.02027E+00 -1.00000E+00  2.04979E-01
      21    -1     0     0   501   511  0.000000000E+00  0.000000000E+00  1.767124675E+02  1.767124675E+02  0.000000000E+00  0.00000E+00  9.000E+00
      21    -1     0     0   502   503  0.000000000E+00  0.000000000E+00 -2.447448992E+02  2.447448992E+02  0.000000000E+00  0.00000E+00  9.000E+00
      25     1     1     2     0     0  6.785333384E+00  1.528690445E+00 -2.225403400E+02  2.553392724E+02  1.250022539E+02  0.00000E+00  9.000E+00
       5     1     1     2   501     0 -4.167537896E+00  2.334230238E+00  7.402423433E+01  7.433012021E+01  4.750000000E+00  0.00000E+00  9.000E+00
      -5     1     1     2     0   503  2.688765460E+00  7.332257247E-01 -4.129865626E+00  6.883703200E+00  4.750000000E+00  0.00000E+00  9.000E+00
      21     1     1     2   502   511 -5.306560948E+00 -4.596146408E+00  8.461353957E+01  8.490427097E+01  0.000000000E+00  0.00000E+00  9.000E+00
#rwgt            1           9   2.1848061158131087E-003          10      455660           0
</event>
<event>
      6   9999  3.45752E-01  1.36986E+01 -1.00000E+00  1.73860E-01
      21    -1     0     0   512   502  0.000000000E+00  0.000000000E+00  1.034406752E+02  1.034406752E+02  0.000000000E+00  0.00000E+00  9.000E+00
      21    -1     0     0   502   503  0.000000000E+00  0.000000000E+00 -1.544003872E+02  1.544003872E+02  0.000000000E+00  0.00000E+00  9.000E+00
      25     1     1     2     0     0  6.182512020E-01  7.879017282E-01 -9.909749303E+01  1.595225728E+02  1.250045402E+02  0.00000E+00  9.000E+00
       5     1     1     2   501     0 -5.302257365E+00 -5.039321886E+00  5.855904489E+01  5.920500770E+01  4.750000000E+00  0.00000E+00  9.000E+00
      -5     1     1     2     0   503  6.432497288E-02 -8.644702495E+00 -2.006655838E+01  2.235988113E+01  4.750000000E+00  0.00000E+00  9.000E+00
      21     1     1     2   512   501  4.619681191E+00  1.289612265E+01  9.645294474E+00  1.675360078E+01  2.665600750E-07  0.00000E+00  9.000E+00
#rwgt            1           9   7.3518117534032647E-004          10      459822           0
</event>
<event>
      6   9999  3.45752E-01  5.40132E+00 -1.00000E+00  2.20621E-01
       1    -1     0     0   501     0  0.000000000E+00  0.000000000E+00  1.330863541E+02  1.330863541E+02  0.000000000E+00  0.00000E+00  9.000E+00
      21    -1     0     0   502   503  0.000000000E+00  0.000000000E+00 -9.199349066E+02  9.199349066E+02  0.000000000E+00  0.00000E+00  9.000E+00
      25     1     1     2     0     0  3.323299422E+00 -3.470628169E+00 -8.932615321E+02  9.019781303E+02  1.250011730E+02  0.00000E+00  9.000E+00
       5     1     1     2   501     0  2.011218570E+00  2.178686279E+00  9.428925240E+00  1.096625758E+01  4.750000000E+00  0.00000E+00  9.000E+00
      -5     1     1     2     0   503 -8.661550275E-02  1.372870820E-02 -2.122210880E+01  2.174736979E+01  4.750000000E+00  0.00000E+00  9.000E+00
       1     1     1     2   502     0 -5.247902489E+00  1.278213182E+00  1.182061631E+02  1.183295031E+02  4.473129043E-06  0.00000E+00  9.000E+00
#rwgt            1           9   7.9811392315140537E-005          10      462095           0
</event>
<event>
      6   9999  3.45752E-01  1.13589E+01 -1.00000E+00  1.81547E-01
      21    -1     0     0   501   511  0.000000000E+00  0.000000000E+00  3.665167511E+01  3.665167511E+01  0.000000000E+00  0.00000E+00  9.000E+00
      21    -1     0     0   502   503  0.000000000E+00  0.000000000E+00 -9.751433195E+02  9.751433195E+02  0.000000000E+00  0.00000E+00  9.000E+00
      25     1     1     2     0     0 -3.690062300E+01 -1.912846181E+01 -3.839264418E+02  4.058973885E+02  1.250024930E+02  0.00000E+00  9.000E+00
       5     1     1     2   501     0  7.937975795E-02  5.270895063E-01 -4.576699136E+00  6.617612823E+00  4.750000000E+00  0.00000E+00  9.000E+00
      -5     1     1     2     0   503  4.287593902E+01  2.821203665E+01 -5.721022495E+02  5.744195432E+02  4.750000000E+00  0.00000E+00  9.000E+00
      21     1     1     2   502   511 -6.054695777E+00 -9.610664346E+00  2.211374611E+01  2.486045006E+01  1.066240300E-06  0.00000E+00  9.000E+00
#rwgt            1           9   1.6082622298196486E-003          10      466234           0
</event>
<event>
      6   9999  3.45752E-01  7.79555E+00 -1.00000E+00  1.99356E-01
      21    -1     0     0   501   502  0.000000000E+00  0.000000000E+00  1.787891869E+01  1.787891869E+01  0.000000000E+00  0.00000E+00  9.000E+00
      21    -1     0     0   502   512  0.000000000E+00  0.000000000E+00 -2.630135677E+03  2.630135677E+03  0.000000000E+00  0.00000E+00  9.000E+00
      25     1     1     2     0     0 -6.477912062E-02  7.522814991E+00 -8.801582103E+02  8.890219604E+02  1.249998960E+02  0.00000E+00  9.000E+00
       5     1     1     2   501     0  1.232579661E+00 -8.212667507E-02  1.283779340E+01  1.374399639E+01  4.750000000E+00  0.00000E+00  9.000E+00
      -5     1     1     2     0   503 -4.182600274E+00 -2.516985666E-01 -6.804301201E+01  6.833718959E+01  4.750000000E+00  0.00000E+00  9.000E+00
      21     1     1     2   503   512  3.014799734E+00 -7.188989750E+00 -1.676893329E+03  1.676911449E+03  0.000000000E+00  0.00000E+00  9.000E+00
#rwgt            1           9   6.6373781437952602E-004          10      468777           0
</event>
<event>
      6   9999 -3.45752E-01  2.24524E+01 -1.00000E+00  1.56468E-01
      21    -1     0     0   501   502  0.000000000E+00  0.000000000E+00  5.537307502E+00  5.537307502E+00  0.000000000E+00  0.00000E+00  9.000E+00
      21    -1     0     0   502   511  0.000000000E+00  0.000000000E+00 -2.893534495E+03  2.893534495E+03  0.000000000E+00  0.00000E+00  9.000E+00
      25     1     1     2     0     0 -1.847463070E+01  3.553043152E+01 -1.400653193E+03  1.406809053E+03  1.252143061E+02  0.00000E+00  9.000E+00
       5     1     1     2   501     0 -2.705637179E+00  2.253401129E+00 -3.666232162E+00  6.957158002E+00  4.750000000E+00  0.00000E+00  9.000E+00
      -5     1     1     2     0   503 -6.716632808E-01 -3.262595578E+01 -3.883092675E+02  3.897070102E+02  4.750000000E+00  0.00000E+00  9.000E+00
      21     1     1     2   503   511  2.185193116E+01 -5.157876866E+00 -1.095368495E+03  1.095598581E+03  1.525878906E-05  0.00000E+00  9.000E+00
#rwgt            1           9  -1.6452409292452110               10      472811           0
</event>
<event>
      6   9999  3.45752E-01  7.50795E+00 -1.00000E+00  2.01336E-01
      21    -1     0     0   501   502  0.000000000E+00  0.000000000E+00  1.179351351E+03  1.179351351E+03  0.000000000E+00  0.00000E+00  9.000E+00
      21    -1     0     0   512   503  0.000000000E+00  0.000000000E+00 -5.013506767E+01  5.013506767E+01  0.000000000E+00  0.00000E+00  9.000E+00
      25     1     1     2     0     0 -5.264125508E+01  5.365699881E+01  5.544201470E+02  5.732870452E+02  1.250046458E+02  0.00000E+00  9.000E+00
       5     1     1     2   501     0 -8.265844079E-01 -3.469855900E+00  5.520856315E+02  5.521175872E+02  4.750000000E+00  0.00000E+00  9.000E+00
      -5     1     1     2     0   503  6.036198395E+01 -4.721390484E+01  3.902017416E+01  8.612699001E+01  4.750000000E+00  0.00000E+00  9.000E+00
      21     1     1     2   512   502 -6.894144458E+00 -2.973238075E+00 -1.630966967E+01  1.795479594E+01  1.261592536E-06  0.00000E+00  9.000E+00
#rwgt            1           9   1.5073356561842645E-004          10      474452           0
</event>
<event>
      6   9999  3.45752E-01  1.18235E+02 -1.00000E+00  1.17423E-01
      21    -1     0     0   502   503  0.000000000E+00  0.000000000E+00  2.296776379E+01  2.296776379E+01  0.000000000E+00  0.00000E+00  9.000E+00
      21    -1     0     0   501   511  0.000000000E+00  0.000000000E+00 -2.266848609E+03  2.266848609E+03  0.000000000E+00  0.00000E+00  9.000E+00
      25     1     1     2     0     0  4.718405955E+01 -9.119823565E+01 -5.568781684E+02  5.798993229E+02  1.250059060E+02  0.00000E+00  9.000E+00
       5     1     1     2   501     0 -8.508747754E+01 -1.654175253E+01 -4.776750154E+02  4.854992186E+02  4.750000000E+00  0.00000E+00  9.000E+00
      -5     1     1     2     0   503 -1.090261871E+00 -3.880018752E+00  2.589934824E+00  6.746367827E+00  4.750000000E+00  0.00000E+00  9.000E+00
      21     1     1     2   502   511  3.899367986E+01  1.116200069E+02 -1.211917596E+03  1.217671463E+03  1.525878906E-05  0.00000E+00  9.000E+00
#rwgt            1           9  0.57132209337351803               10      478762           0
</event>
<event>
      6   9999  3.45752E-01  2.86321E+01 -1.00000E+00  1.49161E-01
      21    -1     0     0   501   502  0.000000000E+00  0.000000000E+00  3.195212352E+03  3.195212352E+03  0.000000000E+00  0.00000E+00  9.000E+00
      21    -1     0     0   502   512  0.000000000E+00  0.000000000E+00 -2.875296137E+01  2.875296137E+01  0.000000000E+00  0.00000E+00  9.000E+00
      25     1     1     2     0     0  3.013815751E+01 -2.094819612E+02  1.342499624E+03  1.364815875E+03  1.250045277E+02  0.00000E+00  9.000E+00
       5     1     1     2   501     0  1.191202130E+00  4.942000632E-01  1.052154291E+03  1.052165803E+03  4.750000000E+00  0.00000E+00  9.000E+00
      -5     1     1     2     0   503 -1.422793768E+01  1.860239003E+02  7.440797557E+02  7.671274803E+02  4.750000000E+00  0.00000E+00  9.000E+00
      21     1     1     2   503   512 -1.710142196E+01  2.296386085E+01  2.772572096E+01  3.985615562E+01  1.118282261E-06  0.00000E+00  9.000E+00
#rwgt            1           9   2.6756882989506779E-003          10      480226           0
</event>
<event>
      6   9999 -3.45752E-01  7.62160E+00 -1.00000E+00  2.00540E-01
      21    -1     0     0   501   502  0.000000000E+00  0.000000000E+00  1.380662991E+01  1.380662991E+01  0.000000000E+00  0.00000E+00  9.000E+00
      21    -1     0     0   511   503  0.000000000E+00  0.000000000E+00 -9.986104649E+02  9.986104649E+02  0.000000000E+00  0.00000E+00  9.000E+00
      25     1     1     2     0     0  2.230598888E+00  1.248754092E+01 -8.361265044E+02  8.455143482E+02  1.250042696E+02  0.00000E+00  9.000E+00
       5     1     1     2   501     0  1.815828837E+00 -3.391308610E+00  7.045352816E+00  9.327256014E+00  4.750000000E+00  0.00000E+00  9.000E+00
      -5     1     1     2     0   503  3.572418474E+00 -9.301244011E+00 -3.707452624E+01  3.868279088E+01  4.750000000E+00  0.00000E+00  9.000E+00
      21     1     1     2   511   502 -7.618846200E+00  2.050117056E-01 -1.186481571E+02  1.188926997E+02  1.348699152E-06  0.00000E+00  9.000E+00
#rwgt            1           9  -5.0941474699761667E-004          10      481838           0
</event>
<event>
      6   9999  3.45752E-01  2.58036E+01 -1.00000E+00  1.52200E-01
      21    -1     0     0   501   512  0.000000000E+00  0.000000000E+00  1.339369541E+02  1.339369541E+02  0.000000000E+00  0.00000E+00  9.000E+00
      21    -1     0     0   502   503  0.000000000E+00  0.000000000E+00 -3.341988115E+02  3.341988115E+02  0.000000000E+00  0.00000E+00  9.000E+00
      25     1     1     2     0     0 -1.898784414E+00  3.393452649E-01 -3.011588104E+02  3.260759423E+02  1.250006820E+02  0.00000E+00  9.000E+00
       5     1     1     2   501     0  3.466124912E+00  6.181455235E+00  5.888569617E+01  5.950052205E+01  4.750000000E+00  0.00000E+00  9.000E+00
      -5     1     1     2     0   503  5.631371557E+00  1.825832135E+01 -1.174861127E+01  2.292751646E+01  4.750000000E+00  0.00000E+00  9.000E+00
      21     1     1     2   502   512 -7.198712054E+00 -2.477912185E+01  5.375986811E+01  5.963178477E+01  1.168007728E-06  0.00000E+00  9.000E+00
#rwgt            1           9   15.042187720764563               10      485226           0
</event>
<event>
      6   9999  3.45752E-01  4.08603E+00 -1.00000E+00  2.45953E-01
      21    -1     0     0   501   502  0.000000000E+00  0.000000000E+00  2.793806422E+01  2.793806422E+01  0.000000000E+00  0.00000E+00  9.000E+00
       2    -1     0     0   502     0  0.000000000E+00  0.000000000E+00 -3.084337483E+03  3.084337483E+03  0.000000000E+00  0.00000E+00  9.000E+00
      25     1     1     2     0     0  2.669446612E+01  3.629943262E+01 -8.346057387E+02  8.451165113E+02  1.249997405E+02  0.00000E+00  9.000E+00
       5     1     1     2   501     0 -4.061311237E+00  1.346176849E+00  1.638399927E+01  1.758705129E+01  4.750000000E+00  0.00000E+00  9.000E+00
      -5     1     1     2     0   503 -2.657995682E+01 -3.658806202E+01 -8.507147348E+01  9.646190174E+01  4.750000000E+00  0.00000E+00  9.000E+00
       2     1     1     2   503     0  3.946801931E+00 -1.057547456E+00 -2.153106206E+03  2.153110083E+03  3.051757812E-05  0.00000E+00  9.000E+00
#rwgt            1           9   7.7313926305476160E-003          10      486880           0
</event>
<event>
      6   9999  3.45752E-01  2.83870E+00 -1.00000E+00  2.83343E-01
      21    -1     0     0   501   511  0.000000000E+00  0.000000000E+00  9.000222182E+00  9.000222182E+00  0.000000000E+00  0.00000E+00  9.000E+00
      21    -1     0     0   502   503  0.000000000E+00  0.000000000E+00 -7.419046929E+02  7.419046929E+02  0.000000000E+00  0.00000E+00  9.000E+00
      25     1     1     2     0     0 -8.279700082E-01 -1.574897798E+00 -5.951611803E+02  6.081490001E+02  1.250008398E+02  0.00000E+00  9.000E+00
       5     1     1     2   501     0 -3.350756171E-02  7.204511989E-01 -1.771255380E+00  5.120548634E+00  4.750000000E+00  0.00000E+00  9.000E+00
      -5     1     1     2     0   503 -1.943030953E+00  4.151602866E-01 -1.341791182E+02  1.342778686E+02  4.750000000E+00  0.00000E+00  9.000E+00
      21     1     1     2   502   511  2.804508523E+00  4.392863122E-01 -1.792916829E+00  3.357497770E+00  1.332800375E-07  0.00000E+00  9.000E+00
#rwgt            1           9   2.2791604651706265E-004          10      492446           0
</event>
<event>
      6   9999  3.45752E-01  5.98761E+01 -1.00000E+00  1.30728E-01
      21    -1     0     0   501   512  0.000000000E+00  0.000000000E+00  1.978252222E+02  1.978252222E+02  0.000000000E+00  0.00000E+00  9.000E+00
      21    -1     0     0   502   503  0.000000000E+00  0.000000000E+00 -2.187256449E+03  2.187256449E+03  0.000000000E+00  0.00000E+00  9.000E+00
      25     1     1     2     0     0  2.042017916E+02 -2.305817901E+02 -1.304022927E+03  1.345721541E+03  1.249973520E+02  0.00000E+00  9.000E+00
       5     1     1     2   501     0 -1.677539122E+01  1.945763312E+01  1.169628755E+02  1.198452752E+02  4.750000000E+00  0.00000E+00  9.000E+00
      -5     1     1     2     0   503 -1.733609313E+02  2.693247583E+02 -7.975137870E+02  8.594420521E+02  4.750000000E+00  0.00000E+00  9.000E+00
      21     1     1     2   502   512 -1.406546911E+01 -5.820060128E+01 -4.857387954E+00  6.007280273E+01  7.372687386E-07  0.00000E+00  9.000E+00
#rwgt            1           9   3.8117817840223491E-004          10      497882           0
</event>
<event>
      6   9999  3.45752E-01  9.73991E+00 -1.00000E+00  1.88407E-01
      21    -1     0     0   501   511  0.000000000E+00  0.000000000E+00  2.451140192E+02  2.451140192E+02  0.000000000E+00  0.00000E+00  9.000E+00
      21    -1     0     0   502   503  0.000000000E+00  0.000000000E+00 -2.756933386E+01  2.756933386E+01  0.000000000E+00  0.00000E+00  9.000E+00
      25     1     1     2     0     0 -7.395179474E+00  4.429903565E+00  1.284106079E+02  1.794127986E+02  1.250014214E+02  0.00000E+00  9.000E+00
       5     1     1     2   501     0 -1.100577036E+00 -7.524021436E-01  6.346603449E+01  6.365750084E+01  4.750000000E+00  0.00000E+00  9.000E+00
      -5     1     1     2     0   503 -6.826279607E-01 -4.182041658E-01  6.266584895E+00  7.904015555E+00  4.750000000E+00  0.00000E+00  9.000E+00
      21     1     1     2   502   511  9.178384471E+00 -3.259297256E+00  1.940145810E+01  2.170903813E+01  2.384185791E-07  0.00000E+00  9.000E+00
#rwgt            1           9   2.2182753103140222E-005          10      499613           0
</event>
<event>
      6   9999  3.45752E-01  2.71115E+01 -1.00000E+00  1.50739E-01
      21    -1     0     0   501   502  0.000000000E+00  0.000000000E+00  2.430281473E+02  2.430281473E+02  0.000000000E+00  0.00000E+00  9.000E+00
      21    -1     0     0   502   512  0.000000000E+00  0.000000000E+00 -7.037342826E+02  7.037342826E+02  0.000000000E+00  0.00000E+00  9.000E+00
      25     1     1     2     0     0 -6.175006669E+01  1.132217463E+02  3.700616668E+01  1.833756151E+02  1.249997011E+02  0.00000E+00  9.000E+00
       5     1     1     2   501     0 -1.334130954E+01 -1.643746787E+00  1.250994875E+02  1.259092400E+02  4.750000000E+00  0.00000E+00  9.000E+00
      -5     1     1     2     0   503  5.430941303E+01 -9.416691232E+01 -4.929886211E+02  5.048537043E+02  4.750000000E+00  0.00000E+00  9.000E+00
      21     1     1     2   503   512  2.078196320E+01 -1.741108721E+01 -1.298231684E+02  1.326238704E+02  2.697398305E-06  0.00000E+00  9.000E+00
#rwgt            1           9  0.11667725860481046               10      502170           0
</event>
<event>
      6   9999  3.45752E-01  5.73283E+00 -1.00000E+00  2.16851E-01
      21    -1     0     0   501   502  0.000000000E+00  0.000000000E+00  8.097915645E+00  8.097915645E+00  0.000000000E+00  0.00000E+00  9.000E+00
      21    -1     0     0   502   511  0.000000000E+00  0.000000000E+00 -9.239669368E+02  9.239669368E+02  0.000000000E+00  0.00000E+00  9.000E+00
      25     1     1     2     0     0  2.142633993E+00 -4.442110644E+00 -6.967914105E+02  7.079323609E+02  1.250025383E+02  0.00000E+00  9.000E+00
       5     1     1     2   501     0 -9.897925945E-01 -8.969070844E-01 -3.879266673E-01  4.949456414E+00  4.750000000E+00  0.00000E+00  9.000E+00
      -5     1     1     2     0   503  4.548812785E-01 -1.637577863E-01 -2.778130767E+01  2.818860212E+01  4.750000000E+00  0.00000E+00  9.000E+00
      21     1     1     2   503   511 -1.607722677E+00  5.502775515E+00 -1.909083762E+02  1.909944330E+02  2.697398305E-06  0.00000E+00  9.000E+00
#rwgt            1           9   1.0871686534961874E-004          10      504302           0
</event>
<event>
      6   9999 -3.45752E-01  1.84397E+01 -1.00000E+00  1.62951E-01
      21    -1     0     0   501   502  0.000000000E+00  0.000000000E+00  3.257101779E+01  3.257101779E+01  0.000000000E+00  0.00000E+00  9.000E+00
      21    -1     0     0   512   503  0.000000000E+00  0.000000000E+00 -1.113035722E+03  1.113035722E+03  0.000000000E+00  0.00000E+00  9.000E+00
      25     1     1     2     0     0 -8.371585265E+01 -9.151546046E+01 -4.234146235E+02  4.585726113E+02  1.250018919E+02  0.00000E+00  9.000E+00
       5     1     1     2   501     0  6.601717163E-01  1.243543236E+00  5.377051157E+00  7.311457147E+00  4.750000000E+00  0.00000E+00  9.000E+00
      -5     1     1     2     0   503  7.751658373E+01  1.078599686E+02 -6.041815080E+02  6.186278774E+02  4.750000000E+00  0.00000E+00  9.000E+00
      21     1     1     2   512   502  5.539097208E+00 -1.758805134E+01 -5.824562429E+01  6.109479435E+01  6.743495762E-07  0.00000E+00  9.000E+00
#rwgt            1           9  -1.0806942855385799E-004          10      507423           0
</event>
<event>
      6   9999  3.45752E-01  4.60189E+00 -1.00000E+00  2.35889E-01
      21    -1     0     0   501   511  0.000000000E+00  0.000000000E+00  1.080145783E+01  1.080145783E+01  0.000000000E+00  0.00000E+00  9.000E+00
      21    -1     0     0   502   503  0.000000000E+00  0.000000000E+00 -7.937809551E+02  7.937809551E+02  0.000000000E+00  0.00000E+00  9.000E+00
      25     1     1     2     0     0  7.423894046E+00 -1.020270969E+01 -7.571678919E+02  7.675189819E+02  1.249918462E+02  0.00000E+00  9.000E+00
       5     1     1     2   501     0 -5.844797258E-01 -1.442249428E-01  5.442182191E-01  4.818826709E+00  4.750000000E+00  0.00000E+00  9.000E+00
      -5     1     1     2     0   503 -2.384968442E+00  1.150248328E+01 -2.384423003E+01  2.700194441E+01  4.750000000E+00  0.00000E+00  9.000E+00
      21     1     1     2   502   511 -4.454445879E+00 -1.155548641E+00 -2.511593621E+00  5.242659942E+00  1.264405455E-07  0.00000E+00  9.000E+00
#rwgt            1           9   1.9558595459012835E-005          10      509713           0
</event>
<event>
      6   9999  3.45752E-01  8.48978E+00 -1.00000E+00  1.95008E-01
      21    -1     0     0   501   512  0.000000000E+00  0.000000000E+00  2.442845675E+00  2.442845675E+00  0.000000000E+00  0.00000E+00  9.000E+00
      21    -1     0     0   502   503  0.000000000E+00  0.000000000E+00 -3.319092811E+03  3.319092811E+03  0.000000000E+00  0.00000E+00  9.000E+00
      25     1     1     2     0     0 -3.652885544E+00  1.339251053E+01 -3.102227956E+03  3.104776900E+03  1.250144143E+02  0.00000E+00  9.000E+00
       5     1     1     2   501     0  5.087712347E-02 -4.968648319E-02 -5.616883815E+00  7.356421753E+00  4.750000000E+00  0.00000E+00  9.000E+00
      -5     1     1     2     0   503  5.848599927E-01 -5.407255152E+00 -8.476925843E+01  8.507626076E+01  4.750000000E+00  0.00000E+00  9.000E+00
      21     1     1     2   502   512  3.017148428E+00 -7.935568892E+00 -1.240358673E+02  1.243260746E+02  1.348699152E-06  0.00000E+00  9.000E+00
#rwgt            1           9   7.1672523221354154E-003          10      513546           0
</event>
<event>
      6   9999 -3.45752E-01  8.67889E+00 -1.00000E+00  1.93917E-01
      21    -1     0     0   501   511  0.000000000E+00  0.000000000E+00  1.910242395E+01  1.910242395E+01  0.000000000E+00  0.00000E+00  9.000E+00
      21    -1     0     0   502   503  0.000000000E+00  0.000000000E+00 -8.664251854E+02  8.664251854E+02  0.000000000E+00  0.00000E+00  9.000E+00
      25     1     1     2     0     0 -3.387652957E+01 -8.960537662E-03 -3.962742671E+02  4.168983470E+02  1.249932704E+02  0.00000E+00  9.000E+00
       5     1     1     2   501     0  2.141779080E+00  6.963796338E-02  1.767517172E+00  5.502607021E+00  4.750000000E+00  0.00000E+00  9.000E+00
      -5     1     1     2     0   503  4.039213194E+01 -6.712815927E-01 -4.526215373E+02  4.544455891E+02  4.750000000E+00  0.00000E+00  9.000E+00
      21     1     1     2   502   511 -8.657381444E+00  6.106041670E-01 -1.944742610E-01  8.681066245E+00  2.277764468E-07  0.00000E+00  9.000E+00
#rwgt            1           9  -1.5942378718082873E-003          10      516536           0
</event>
<event>
      6   9999  3.45752E-01  4.26853E+01 -1.00000E+00  1.38569E-01
      21    -1     0     0   501   512  0.000000000E+00  0.000000000E+00  1.221426650E+01  1.221426650E+01  0.000000000E+00  0.00000E+00  9.000E+00
      21    -1     0     0   502   503  0.000000000E+00  0.000000000E+00 -1.000251934E+03  1.000251934E+03  0.000000000E+00  0.00000E+00  9.000E+00
      25     1     1     2     0     0 -2.699062811E+01 -2.568039344E+01 -7.457232818E+02  7.570440271E+02  1.249978773E+02  0.00000E+00  9.000E+00
       5     1     1     2   501     0 -7.731535054E+00 -2.564126788E+00 -4.264701594E+00  1.034898836E+01  4.750000000E+00  0.00000E+00  9.000E+00
      -5     1     1     2     0   503 -5.334422901E+00  1.349656090E+01 -5.240761770E+01  5.458694090E+01  4.750000000E+00  0.00000E+00  9.000E+00
      21     1     1     2   502   512  4.005658606E+01  1.474795933E+01 -1.856420668E+02  1.904862445E+02  0.000000000E+00  0.00000E+00  9.000E+00
#rwgt            1           9   2.6958495054953077E-003          10      519340           0
</event>
<event>
      6   9999 -3.45752E-01  2.46563E+01 -1.00000E+00  1.53569E-01
       3    -1     0     0   501     0  0.000000000E+00  0.000000000E+00  1.068154111E+02  1.068154111E+02  0.000000000E+00  0.00000E+00  9.000E+00
      21    -1     0     0   502   503  0.000000000E+00  0.000000000E+00 -1.092442033E+03  1.092442033E+03  0.000000000E+00  0.00000E+00  9.000E+00
      25     1     1     2     0     0  3.978420266E+01 -6.069804509E+01 -3.905824365E+02  4.164718872E+02  1.250086304E+02  0.00000E+00  9.000E+00
       5     1     1     2   501     0  1.468030054E+01  8.251991750E+01 -1.512491212E+02  1.729852803E+02  4.750000000E+00  0.00000E+00  9.000E+00
      -5     1     1     2     0   503 -7.896600106E+01 -1.906290358E+01 -5.217405044E+02  5.280480472E+02  4.750000000E+00  0.00000E+00  9.000E+00
       3     1     1     2   502     0  2.450149787E+01 -2.758968823E+00  7.794544044E+01  8.175222928E+01  1.348699152E-06  0.00000E+00  9.000E+00
#rwgt            1           9  -6.9591171426546562E-003          10      520225           0
</event>
<event>
      6   9999 -3.45752E-01  1.80461E+00 -1.00000E+00  3.51174E-01
      21    -1     0     0   501   502  0.000000000E+00  0.000000000E+00  1.818271173E+01  1.818271173E+01  0.000000000E+00  0.00000E+00  9.000E+00
      21    -1     0     0   502   511  0.000000000E+00  0.000000000E+00 -1.347648681E+03  1.347648681E+03  0.000000000E+00  0.00000E+00  9.000E+00
      25     1     1     2     0     0 -2.678116594E+00 -3.959940590E+00 -6.176474491E+02  6.301881582E+02  1.250035596E+02  0.00000E+00  9.000E+00
       5     1     1     2   501     0  2.964816216E+00  4.336460047E-01  1.122528517E+01  1.255180112E+01  4.750000000E+00  0.00000E+00  9.000E+00
      -5     1     1     2     0   503  1.040468000E+00  2.303489559E+00 -3.331164791E+02  3.331599312E+02  4.750000000E+00  0.00000E+00  9.000E+00
      21     1     1     2   503   511 -1.327167622E+00  1.222805026E+00 -3.899273266E+02  3.899315025E+02  5.394796609E-06  0.00000E+00  9.000E+00
#rwgt            1           9  -2.6705978704606274E-002          10      522652           0
</event>
<event>
      6   9999  3.45752E-01  4.26499E+01 -1.00000E+00  1.38589E-01
      21    -1     0     0   501   512  0.000000000E+00  0.000000000E+00  9.427935207E+02  9.427935207E+02  0.000000000E+00  0.00000E+00  9.000E+00
      21    -1     0     0   502   503  0.000000000E+00  0.000000000E+00 -1.306944040E+03  1.306944040E+03  0.000000000E+00  0.00000E+00  9.000E+00
      25     1     1     2     0     0  1.383930510E+02 -1.061239449E+02 -4.169560378E+02  4.689263622E+02  1.249986698E+02  0.00000E+00  9.000E+00
       5     1     1     2   501     0 -7.853297232E+00  6.297642587E+00  1.525854759E+01  1.888704196E+01  4.750000000E+00  0.00000E+00  9.000E+00
      -5     1     1     2     0   503 -1.545494985E+02  1.350760638E+02 -8.494460659E+02  8.739063290E+02  4.750000000E+00  0.00000E+00  9.000E+00
      21     1     1     2   502   512  2.400974480E+01 -3.524976155E+01  8.869930372E+02  8.880178273E+02  1.078959322E-05  0.00000E+00  9.000E+00
#rwgt            1           9   7.1296984150932146E-004          10      532082           0
</event>
<event>
      6   9999  3.45752E-01  1.38212E+01 -1.00000E+00  1.73511E-01
      21    -1     0     0   501   511  0.000000000E+00  0.000000000E+00  1.177387822E+01  1.177387822E+01  0.000000000E+00  0.00000E+00  9.000E+00
      21    -1     0     0   502   503  0.000000000E+00  0.000000000E+00 -8.225568384E+02  8.225568384E+02  0.000000000E+00  0.00000E+00  9.000E+00
      25     1     1     2     0     0  1.211294980E+01 -3.500482031E+01 -7.300570213E+02  7.416062985E+02  1.249983468E+02  0.00000E+00  9.000E+00
       5     1     1     2   501     0  1.746963711E-01 -3.520122958E-01 -6.290700190E+00  7.892391295E+00  4.750000000E+00  0.00000E+00  9.000E+00
      -5     1     1     2     0   503 -1.423713950E+01  2.167381910E+01 -5.490177815E+01  6.090335229E+01  4.750000000E+00  0.00000E+00  9.000E+00
      21     1     1     2   502   511  1.949493323E+00  1.368301350E+01 -1.953346061E+01  2.392867456E+01  5.331201500E-07  0.00000E+00  9.000E+00
#rwgt            1           9   3.9735078826550205E-007          10      533593           0
</event>
<event>
      6   9999 -3.45752E-01  1.12792E+01 -1.00000E+00  1.81850E-01
      21    -1     0     0   512   502  0.000000000E+00  0.000000000E+00  3.960439227E+01  3.960439227E+01  0.000000000E+00  0.00000E+00  9.000E+00
      21    -1     0     0   502   503  0.000000000E+00  0.000000000E+00 -1.110307350E+03  1.110307350E+03  0.000000000E+00  0.00000E+00  9.000E+00
      25     1     1     2     0     0  1.230031691E+02  2.881872868E+00 -8.189367243E+02  8.375087943E+02  1.250021497E+02  0.00000E+00  9.000E+00
       5     1     1     2   501     0 -1.125464436E+00 -2.245015075E+00  8.793154075E+00  1.030479604E+01  4.750000000E+00  0.00000E+00  9.000E+00
      -5     1     1     2     0   503 -1.330219080E+02 -2.376797370E+00 -2.583085654E+02  2.905965496E+02  4.750000000E+00  0.00000E+00  9.000E+00
      21     1     1     2   512   501  1.114420330E+01  1.739939577E+00 -2.250822201E+00  1.150160239E+01  4.539354507E-07  0.00000E+00  9.000E+00
#rwgt            1           9  -1.9294657910062064E-004          10      535209           0
</event>
<event>
      6   9999  3.45752E-01  5.22670E+01 -1.00000E+00  1.33765E-01
      21    -1     0     0   502   511  0.000000000E+00  0.000000000E+00  9.304635913E+01  9.304635913E+01  0.000000000E+00  0.00000E+00  9.000E+00
      21    -1     0     0   501   502  0.000000000E+00  0.000000000E+00 -9.750411656E+02  9.750411656E+02  0.000000000E+00  0.00000E+00  9.000E+00
      25     1     1     2     0     0 -3.291636132E+00  5.367473461E+01 -3.314614520E+02  3.583119688E+02  1.250158424E+02  0.00000E+00  9.000E+00
       5     1     1     2   501     0  3.635782626E+01  3.524110939E+01 -3.161972419E+02  3.202609648E+02  4.750000000E+00  0.00000E+00  9.000E+00
      -5     1     1     2     0   503 -5.145304452E+01 -3.998979881E+01 -2.991782258E+02  3.062299350E+02  4.750000000E+00  0.00000E+00  9.000E+00
      21     1     1     2   503   511  1.838685439E+01 -4.892604519E+01  6.484211313E+01  8.328465613E+01  1.651812370E-06  0.00000E+00  9.000E+00
#rwgt            1           9  0.26891373447671901               10      538334           0
</event>
<event>
      6   9999  3.45752E-01  9.39013E+00 -1.00000E+00  1.90119E-01
      21    -1     0     0   501   502  0.000000000E+00  0.000000000E+00  4.755438378E+02  4.755438378E+02  0.000000000E+00  0.00000E+00  9.000E+00
      21    -1     0     0   502   512  0.000000000E+00  0.000000000E+00 -1.151933260E+02  1.151933260E+02  0.000000000E+00  0.00000E+00  9.000E+00
      25     1     1     2     0     0 -1.429311920E+01  5.901666368E+01  1.187597802E+02  1.828025815E+02  1.250025542E+02  0.00000E+00  9.000E+00
       5     1     1     2   501     0  1.098245305E-01 -1.682459318E+00  2.396945101E+02  2.397474993E+02  4.750000000E+00  0.00000E+00  9.000E+00
      -5     1     1     2     0   503  2.356158756E+01 -5.780546079E+01  7.317047117E+01  9.629693691E+01  4.750000000E+00  0.00000E+00  9.000E+00
      21     1     1     2   503   512 -9.378292897E+00  4.712564304E-01 -7.127424964E+01  7.189014621E+01  9.536743164E-07  0.00000E+00  9.000E+00
#rwgt            1           9   1.2259475144236638E-003          10      539260           0
</event>
<event>
      6   9999 -3.45752E-01  1.75793E+01 -1.00000E+00  1.64608E-01
      21    -1     0     0   501   502  0.000000000E+00  0.000000000E+00  6.116245724E+01  6.116245724E+01  0.000000000E+00  0.00000E+00  9.000E+00
      21    -1     0     0   511   503  0.000000000E+00  0.000000000E+00 -1.732593435E+03  1.732593435E+03  0.000000000E+00  0.00000E+00  9.000E+00
      25     1     1     2     0     0 -8.564991447E+01 -6.229132224E+01 -5.517467712E+02  5.755573732E+02  1.250026947E+02  0.00000E+00  9.000E+00
       5     1     1     2   501     0  9.567517714E+00  7.826671410E+00  4.458876189E+01  4.651359337E+01  4.750000000E+00  0.00000E+00  9.000E+00
      -5     1     1     2     0   503  9.295581601E+01  4.953325671E+01 -7.907302499E+02  7.977287871E+02  4.750000000E+00  0.00000E+00  9.000E+00
      21     1     1     2   511   502 -1.687341925E+01  4.931394122E+00 -3.735427189E+02  3.739561388E+02  0.000000000E+00  0.00000E+00  9.000E+00
#rwgt            1           9  -3.6571822979954529               10      542688           0
</event>
<event>
      6   9999  3.45752E-01  2.07179E+01 -1.00000E+00  1.59050E-01
      21    -1     0     0   512   502  0.000000000E+00  0.000000000E+00  3.617290639E+00  3.617290639E+00  0.000000000E+00  0.00000E+00  9.000E+00
      21    -1     0     0   502   503  0.000000000E+00  0.000000000E+00 -4.662363288E+03  4.662363288E+03  0.000000000E+00  0.00000E+00  9.000E+00
      25     1     1     2     0     0  6.158266273E+00 -1.500294390E+01 -4.067084021E+03  4.069036805E+03  1.250003210E+02  0.00000E+00  9.000E+00
       5     1     1     2   501     0  1.724987711E+00 -2.919652013E-01 -3.099176754E+00  5.935336792E+00  4.750000000E+00  0.00000E+00  9.000E+00
      -5     1     1     2     0   503  1.241420645E+01  1.944764980E+01 -4.741624888E+02  4.747472505E+02  4.750000000E+00  0.00000E+00  9.000E+00
      21     1     1     2   512   501 -2.029746043E+01 -4.152740694E+00 -1.144003117E+02  1.162611865E+02  3.303624740E-06  0.00000E+00  9.000E+00
#rwgt            1           9   3.8026592913898739E-002          10      545509           0
</event>
<event>
      6   9999  3.45752E-01  3.89660E+01 -1.00000E+00  1.40849E-01
      21    -1     0     0   501   502  0.000000000E+00  0.000000000E+00  2.286605820E+03  2.286605820E+03  0.000000000E+00  0.00000E+00  9.000E+00
      21    -1     0     0   511   503  0.000000000E+00  0.000000000E+00 -7.250217763E+01  7.250217763E+01  0.000000000E+00  0.00000E+00  9.000E+00
      25     1     1     2     0     0  2.694806523E+02  6.838452090E+01  4.017460095E+02  5.043067716E+02  1.250167951E+02  0.00000E+00  9.000E+00
       5     1     1     2   501     0  4.628159654E-01  3.092135921E+00  8.781306210E+02  8.781490338E+02  4.750000000E+00  0.00000E+00  9.000E+00
      -5     1     1     2     0   503 -2.309891676E+02 -7.243278911E+01  8.506497671E+02  8.844377272E+02  4.750000000E+00  0.00000E+00  9.000E+00
      21     1     1     2   511   502 -3.895430068E+01  9.561322896E-01  8.357724515E+01  9.221446545E+01  0.000000000E+00  0.00000E+00  9.000E+00
#rwgt            1           9   8.2628069521583714E-004          10      546605           0
</event>
<event>
      6   9999  3.45752E-01  1.48777E+01 -1.00000E+00  1.70680E-01
      21    -1     0     0   501   502  0.000000000E+00  0.000000000E+00  2.917237125E+01  2.917237125E+01  0.000000000E+00  0.00000E+00  9.000E+00
      21    -1     0     0   512   503  0.000000000E+00  0.000000000E+00 -1.835131080E+03  1.835131080E+03  0.000000000E+00  0.00000E+00  9.000E+00
      25     1     1     2     0     0  1.088985665E+02 -4.043994002E+01 -3.311593549E+02  3.725444641E+02  1.250142904E+02  0.00000E+00  9.000E+00
       5     1     1     2   501     0 -2.849812466E-01  1.362952175E+00  3.303054869E+00  5.950758305E+00  4.750000000E+00  0.00000E+00  9.000E+00
      -5     1     1     2     0   503 -9.612024796E+01  4.715553155E+01 -7.565939983E+02  7.641464434E+02  4.750000000E+00  0.00000E+00  9.000E+00
      21     1     1     2   512   502 -1.249333731E+01 -8.078543704E+00 -7.215084103E+02  7.216617853E+02  1.525878906E-05  0.00000E+00  9.000E+00
#rwgt            1           9   6.8585432530676033E-004          10      548611           0
</event>
<event>
      6   9999  3.45752E-01  3.92962E+00 -1.00000E+00  2.49457E-01
      21    -1     0     0   501   502  0.000000000E+00  0.000000000E+00  2.537164370E+01  2.537164370E+01  0.000000000E+00  0.00000E+00  9.000E+00
      21    -1     0     0   502   511  0.000000000E+00  0.000000000E+00 -1.779512830E+03  1.779512830E+03  0.000000000E+00  0.00000E+00  9.000E+00
      25     1     1     2     0     0 -1.090830482E+00  1.940643892E+00 -1.656271870E+03  1.660983683E+03  1.250013248E+02  0.00000E+00  9.000E+00
       5     1     1     2   501     0  1.126809250E+01  7.154935558E-01  2.099237509E+01  2.430481746E+01  4.750000000E+00  0.00000E+00  9.000E+00
      -5     1     1     2     0   503 -6.361746289E+00 -1.716072316E+00 -5.317235924E+01  5.378920902E+01  4.750000000E+00  0.00000E+00  9.000E+00
      21     1     1     2   503   511 -3.815515728E+00 -9.400651327E-01 -6.568933202E+01  6.580676427E+01  9.536743164E-07  0.00000E+00  9.000E+00
#rwgt            1           9   1.1035733924089096E-002          10      551089           0
</event>
<event>
      6   9999  3.45752E-01  3.52800E+00 -1.00000E+00  2.59706E-01
      21    -1     0     0   512   502  0.000000000E+00  0.000000000E+00  4.472371207E+01  4.472371207E+01  0.000000000E+00  0.00000E+00  9.000E+00
      21    -1     0     0   502   503  0.000000000E+00  0.000000000E+00 -8.717573326E+02  8.717573326E+02  0.000000000E+00  0.00000E+00  9.000E+00
      25     1     1     2     0     0 -8.883461106E-01 -2.340627535E+01 -4.559275730E+02  4.733307277E+02  1.249935319E+02  0.00000E+00  9.000E+00
       5     1     1     2   501     0  8.617421546E-01  2.158926423E+00  2.946562722E+00  6.053783504E+00  4.750000000E+00  0.00000E+00  9.000E+00
      -5     1     1     2     0   503 -5.709795506E-01  2.472436948E+01 -4.050836041E+02  4.058656296E+02  4.750000000E+00  0.00000E+00  9.000E+00
      21     1     1     2   512   501  5.975835066E-01 -3.477020558E+00  3.103099388E+01  3.123090391E+01  1.118282261E-06  0.00000E+00  9.000E+00
#rwgt            1           9   2.3098745657955887E-004          10      557785           0
</event>
<event>
      6   9999 -3.45752E-01  5.57614E+01 -1.00000E+00  1.32301E-01
      21    -1     0     0   501   502  0.000000000E+00  0.000000000E+00  2.136551982E+03  2.136551982E+03  0.000000000E+00  0.00000E+00  9.000E+00
      21    -1     0     0   511   503  0.000000000E+00  0.000000000E+00 -1.429523094E+01  1.429523094E+01  0.000000000E+00  0.00000E+00  9.000E+00
      25     1     1     2     0     0  8.877403694E+01 -3.100939894E+01  1.286089073E+03  1.295566415E+03  1.249992789E+02  0.00000E+00  9.000E+00
       5     1     1     2   501     0  2.304456324E+00  2.356915505E+00  1.922925236E+02  1.923794238E+02  4.750000000E+00  0.00000E+00  9.000E+00
      -5     1     1     2     0   503 -5.804365052E+01  7.357503212E+01  4.973535838E+02  5.061279488E+02  4.750000000E+00  0.00000E+00  9.000E+00
      21     1     1     2   511   502 -3.303484274E+01 -4.492254868E+01  1.465215711E+02  1.567734257E+02  1.907348633E-06  0.00000E+00  9.000E+00
#rwgt            1           9  -6.8920195777170401E-003          10      563462           0
</event>
<event>
      6   9999  3.45752E-01  1.42697E+01 -1.00000E+00  1.72272E-01
       2    -1     0     0   501     0  0.000000000E+00  0.000000000E+00  1.548940412E+03  1.548940412E+03  0.000000000E+00  0.00000E+00  9.000E+00
      21    -1     0     0   502   503  0.000000000E+00  0.000000000E+00 -1.842828470E+01  1.842828470E+01  0.000000000E+00  0.00000E+00  9.000E+00
      25     1     1     2     0     0 -3.370642735E+00  6.205795714E+00  2.255572485E+02  2.579748886E+02  1.250003908E+02  0.00000E+00  9.000E+00
       5     1     1     2   501     0 -1.334625346E+00  2.716528324E+00  1.238222839E+02  1.239503177E+02  4.750000000E+00  0.00000E+00  9.000E+00
      -5     1     1     2     0   503  1.202720653E+00  4.910801824E+00  3.583806212E+00  7.808244264E+00  4.750000000E+00  0.00000E+00  9.000E+00
       2     1     1     2   502     0  3.502547429E+00 -1.383312586E+01  1.177548789E+03  1.177635246E+03  1.525878906E-05  0.00000E+00  9.000E+00
#rwgt            1           9   150.28257556360731               10      564216           0
</event>
<event>
      6   9999  3.45752E-01  1.30474E+01 -1.00000E+00  1.75793E-01
      21    -1     0     0   501   502  0.000000000E+00  0.000000000E+00  3.134166276E+00  3.134166276E+00  0.000000000E+00  0.00000E+00  9.000E+00
       2    -1     0     0   502     0  0.000000000E+00  0.000000000E+00 -3.265034243E+03  3.265034243E+03  0.000000000E+00  0.00000E+00  9.000E+00
      25     1     1     2     0     0 -1.820405571E+01 -9.288054041E+00 -1.740424659E+03  1.745027425E+03  1.250002557E+02  0.00000E+00  9.000E+00
       5     1     1     2   501     0  1.043525714E+01 -4.186640297E+00 -5.609628409E+01  5.740886811E+01  4.750000000E+00  0.00000E+00  9.000E+00
      -5     1     1     2     0   503 -5.169206836E+00  1.516070301E+01 -5.332216193E+02  5.334832944E+02  4.750000000E+00  0.00000E+00  9.000E+00
       2     1     1     2   503     0  1.293800541E+01 -1.686008669E+00 -9.321575140E+02  9.322488217E+02  1.078959322E-05  0.00000E+00  9.000E+00
#rwgt            1           9   6.6527271561273749E-002          10      566076           0
</event>
<event>
      6   9999  3.45752E-01  1.27893E+01 -1.00000E+00  1.76599E-01
      21    -1     0     0   501   502  0.000000000E+00  0.000000000E+00  1.767089152E+01  1.767089152E+01  0.000000000E+00  0.00000E+00  9.000E+00
      21    -1     0     0   511   503  0.000000000E+00  0.000000000E+00 -1.082529312E+03  1.082529312E+03  0.000000000E+00  0.00000E+00  9.000E+00
      25     1     1     2     0     0  1.013636433E+01 -1.500146440E+01 -7.454918068E+02  7.561230203E+02  1.250447838E+02  0.00000E+00  9.000E+00
       5     1     1     2   501     0  9.965967555E-01 -1.554369846E+00  1.132179314E+01  1.241590796E+01  4.750000000E+00  0.00000E+00  9.000E+00
      -5     1     1     2     0   503 -1.054283504E+01  3.780121158E+00 -1.917221079E+02  1.921077037E+02  4.750000000E+00  0.00000E+00  9.000E+00
      21     1     1     2   511   502 -5.901260438E-01  1.277571309E+01 -1.389662990E+02  1.395535716E+02  2.697398305E-06  0.00000E+00  9.000E+00
#rwgt            1           9   1.9794565041718142E-004          10      567673           0
</event>
<event>
      6   9999  3.45752E-01  3.76390E+01 -1.00000E+00  1.41736E-01
      21    -1     0     0   501   502  0.000000000E+00  0.000000000E+00  2.404189807E+02  2.404189807E+02  0.000000000E+00  0.00000E+00  9.000E+00
      21    -1     0     0   512   503  0.000000000E+00  0.000000000E+00 -2.286659119E+02  2.286659119E+02  0.000000000E+00  0.00000E+00  9.000E+00
      25     1     1     2     0     0 -1.148812174E+02 -1.729726500E+01  7.707197132E+01  1.872503500E+02  1.250028612E+02  0.00000E+00  9.000E+00
       5     1     1     2   501     0  2.419100855E+01 -2.597988806E+01  3.694343677E+01  5.145424665E+01  4.750000000E+00  0.00000E+00  9.000E+00
      -5     1     1     2     0   503  7.084799633E+01  1.129304311E+01  4.064958330E+01  8.259493041E+01  4.750000000E+00  0.00000E+00  9.000E+00
      21     1     1     2   512   502  1.984221251E+01  3.198410995E+01 -1.429119225E+02  1.477853656E+02  0.000000000E+00  0.00000E+00  9.000E+00
#rwgt            1           9  0.75908233068934605               10      570024           0
</event>
<event>
      6   9999 -3.45752E-01  1.67302E+01 -1.00000E+00  1.66363E-01
      21    -1     0     0   501   511  0.000000000E+00  0.000000000E+00  5.199852142E+01  5.199852142E+01  0.000000000E+00  0.00000E+00  9.000E+00
      21    -1     0     0   502   503  0.000000000E+00  0.000000000E+00 -1.118211967E+03  1.118211967E+03  0.000000000E+00  0.00000E+00  9.000E+00
      25     1     1     2     0     0 -5.354518328E+01 -8.071273422E+01 -2.806440828E+02  3.221263824E+02  1.249906915E+02  0.00000E+00  9.000E+00
       5     1     1     2   501     0 -1.830352844E+00 -2.888389513E+00  4.691365702E+00  7.500959782E+00  4.750000000E+00  0.00000E+00  9.000E+00
      -5     1     1     2     0   503  5.317665881E+01  6.701607956E+01 -8.101072443E+02  8.146258170E+02  4.750000000E+00  0.00000E+00  9.000E+00
      21     1     1     2   502   511  2.198877320E+00  1.658504417E+01  1.984651576E+01  2.595732921E+01  1.390207266E-06  0.00000E+00  9.000E+00
#rwgt            1           9  -8.2731039956791773E-005          10      571129           0
</event>
<event>
      6   9999  3.45752E-01  7.97619E+00 -1.00000E+00  1.98169E-01
      21    -1     0     0   512   502  0.000000000E+00  0.000000000E+00  3.395234357E+02  3.395234357E+02  0.000000000E+00  0.00000E+00  9.000E+00
      21    -1     0     0   502   503  0.000000000E+00  0.000000000E+00 -8.528521740E+02  8.528521740E+02  0.000000000E+00  0.00000E+00  9.000E+00
      25     1     1     2     0     0  1.959485927E+00  3.630690808E+00 -7.896047272E+02  7.994490514E+02  1.250045559E+02  0.00000E+00  9.000E+00
       5     1     1     2   501     0 -3.636864786E+00  4.425995112E-01  8.413163578E+00  1.033278768E+01  4.750000000E+00  0.00000E+00  9.000E+00
      -5     1     1     2     0   503 -1.098235056E-01  3.700098762E+00 -5.715836511E+01  5.747472483E+01  4.750000000E+00  0.00000E+00  9.000E+00
      21     1     1     2   512   501  1.787202365E+00 -7.773389082E+00  3.250211905E+02  3.251190458E+02  3.814697266E-06  0.00000E+00  9.000E+00
#rwgt            1           9   3.9602857343841013E-003          10      573493           0
</event>
<event>
      6   9999  3.45752E-01  8.91110E+00 -1.00000E+00  1.92627E-01
      21    -1     0     0   511   502  0.000000000E+00  0.000000000E+00  1.307983361E+03  1.307983361E+03  0.000000000E+00  0.00000E+00  9.000E+00
      21    -1     0     0   502   503  0.000000000E+00  0.000000000E+00 -1.592228366E+01  1.592228366E+01  0.000000000E+00  0.00000E+00  9.000E+00
      25     1     1     2     0     0 -9.756057197E+00  1.617950412E+01  4.561064772E+02  4.733013575E+02  1.249963977E+02  0.00000E+00  9.000E+00
       5     1     1     2   501     0 -3.439330195E-01 -8.809290207E-01  4.596518563E+02  4.596773714E+02  4.750000000E+00  0.00000E+00  9.000E+00
      -5     1     1     2     0   503  1.495081603E+01 -7.823464353E+00  3.324600090E+00  1.784233618E+01  4.750000000E+00  0.00000E+00  9.000E+00
      21     1     1     2   511   501 -4.850825813E+00 -7.475110749E+00  3.729781436E+02  3.730845794E+02  5.394796609E-06  0.00000E+00  9.000E+00
#rwgt            1           9   9.6029524830531946E-004          10      577007           0
</event>
<event>
      6   9999 -3.45752E-01  1.21932E+01 -1.00000E+00  1.78557E-01
      21    -1     0     0   501   512  0.000000000E+00  0.000000000E+00  2.810378523E+02  2.810378523E+02  0.000000000E+00  0.00000E+00  9.000E+00
      21    -1     0     0   502   503  0.000000000E+00  0.000000000E+00 -8.407380857E+02  8.407380857E+02  0.000000000E+00  0.00000E+00  9.000E+00
      25     1     1     2     0     0  1.163517372E+01  2.273727775E+00 -7.808332421E+02  7.908646176E+02  1.250029776E+02  0.00000E+00  9.000E+00
       5     1     1     2   501     0  2.314272011E-01  1.830345295E+00  6.274655836E+00  8.083163261E+00  4.750000000E+00  0.00000E+00  9.000E+00
      -5     1     1     2     0   503 -8.005113549E-01  1.016062678E+00 -5.373406868E+01  5.395911265E+01  4.750000000E+00  0.00000E+00  9.000E+00
      21     1     1     2   502   512 -1.106608956E+01 -5.120135748E+00  2.685924215E+02  2.688690444E+02  3.814697266E-06  0.00000E+00  9.000E+00
#rwgt            1           9  -2.7837740391938254E-003          10      580279           0
</event>
<event>
      6   9999  3.45752E-01  1.68451E+01 -1.00000E+00  1.66118E-01
      21    -1     0     0   511   502  0.000000000E+00  0.000000000E+00  1.135852301E+01  1.135852301E+01  0.000000000E+00  0.00000E+00  9.000E+00
      21    -1     0     0   502   503  0.000000000E+00  0.000000000E+00 -7.892940435E+02  7.892940435E+02  0.000000000E+00  0.00000E+00  9.000E+00
      25     1     1     2     0     0  3.362025522E+00  1.656488959E+00 -6.210753427E+02  6.335407234E+02  1.250008788E+02  0.00000E+00  9.000E+00
       5     1     1     2   501     0 -1.329974614E+01  6.341798666E+00 -2.464573799E+01  2.910457969E+01  4.750000000E+00  0.00000E+00  9.000E+00
      -5     1     1     2     0   503 -6.538065782E+00 -1.150619300E+01 -1.054482216E+02  1.063815243E+02  4.750000000E+00  0.00000E+00  9.000E+00
      21     1     1     2   511   501  1.647578640E+01  3.507905379E+00 -2.676621821E+01  3.162573912E+01  4.768371582E-07  0.00000E+00  9.000E+00
#rwgt            1           9   5.3086170898155177E-003          10      582629           0
</event>
<event>
      6   9999  3.45752E-01  5.72034E+00 -1.00000E+00  2.16987E-01
      21    -1     0     0   512   502  0.000000000E+00  0.000000000E+00  1.102252428E+02  1.102252428E+02  0.000000000E+00  0.00000E+00  9.000E+00
      21    -1     0     0   502   503  0.000000000E+00  0.000000000E+00 -1.625543051E+03  1.625543051E+03  0.000000000E+00  0.00000E+00  9.000E+00
      25     1     1     2     0     0  1.673111237E+01 -1.779675531E+01 -1.431084252E+03  1.436740640E+03  1.249995029E+02  0.00000E+00  9.000E+00
       5     1     1     2   501     0  1.173101401E+01  1.417448721E+01  6.177001551E+01  6.462685273E+01  4.750000000E+00  0.00000E+00  9.000E+00
      -5     1     1     2     0   503 -2.452805967E+01  7.775029936E+00 -1.891124711E+02  1.909140278E+02  4.750000000E+00  0.00000E+00  9.000E+00
      21     1     1     2   512   501 -3.934066713E+00 -4.152761837E+00  4.310889900E+01  4.348677367E+01  8.259061849E-07  0.00000E+00  9.000E+00
#rwgt            1           9   8.9699873273411789E-003          10      584144           0
</event>
<event>
      6   9999 -3.45752E-01  1.34472E+01 -1.00000E+00  1.74590E-01
      21    -1     0     0   511   502  0.000000000E+00  0.000000000E+00  1.619165448E+02  1.619165448E+02  0.000000000E+00  0.00000E+00  9.000E+00
      21    -1     0     0   502   503  0.000000000E+00  0.000000000E+00 -3.065966149E+02  3.065966149E+02  0.000000000E+00  0.00000E+00  9.000E+00
      25     1     1     2     0     0  4.237572018E+00 -4.512551857E+01 -2.683276974E+02  2.994612617E+02  1.249920983E+02  0.00000E+00  9.000E+00
       5     1     1     2   501     0  9.367859783E+00  2.554012593E+00  5.583560449E+01  5.687228680E+01  4.750000000E+00  0.00000E+00  9.000E+00
      -5     1     1     2     0   503 -3.100110998E-01  4.458635967E+01  1.868158579E+00  4.487863737E+01  4.750000000E+00  0.00000E+00  9.000E+00
      21     1     1     2   511   501 -1.329542070E+01 -2.014853692E+00  6.594386428E+01  6.730097386E+01  9.536743164E-07  0.00000E+00  9.000E+00
#rwgt            1           9  -7.8013668144242786E-005          10      590447           0
</event>
<event>
      6   9999 -3.45752E-01  5.75202E+00 -1.00000E+00  2.16643E-01
      21    -1     0     0   501   502  0.000000000E+00  0.000000000E+00  2.280688626E+01  2.280688626E+01  0.000000000E+00  0.00000E+00  9.000E+00
      21    -1     0     0   512   503  0.000000000E+00  0.000000000E+00 -1.288348750E+03  1.288348750E+03  0.000000000E+00  0.00000E+00  9.000E+00
      25     1     1     2     0     0  5.965005428E+01  1.419708642E+01 -1.031622945E+03  1.040975444E+03  1.249971559E+02  0.00000E+00  9.000E+00
       5     1     1     2   501     0 -2.631444081E-01  3.597979222E+00  1.365336745E+01  1.489938395E+01  4.750000000E+00  0.00000E+00  9.000E+00
      -5     1     1     2     0   503 -5.370995451E+01 -1.686882246E+01 -2.260400398E+02  2.329935159E+02  4.750000000E+00  0.00000E+00  9.000E+00
      21     1     1     2   512   502 -5.676955366E+00 -9.262431816E-01 -2.153224724E+01  2.228729279E+01  2.384185791E-07  0.00000E+00  9.000E+00
#rwgt            1           9  -9.3158634270655170E-004          10      593212           0
</event>
<event>
      6   9999  3.45752E-01  1.22745E+01 -1.00000E+00  1.78281E-01
      21    -1     0     0   501   511  0.000000000E+00  0.000000000E+00  3.886230398E+01  3.886230398E+01  0.000000000E+00  0.00000E+00  9.000E+00
      21    -1     0     0   502   503  0.000000000E+00  0.000000000E+00 -4.734874585E+02  4.734874585E+02  0.000000000E+00  0.00000E+00  9.000E+00
      25     1     1     2     0     0  1.474649816E+01 -2.271598729E+01 -3.986834804E+02  4.186963160E+02  1.249984487E+02  0.00000E+00  9.000E+00
       5     1     1     2   501     0  2.189394983E+00 -5.862574046E-01  3.781868674E+00  6.480908795E+00  4.750000000E+00  0.00000E+00  9.000E+00
      -5     1     1     2     0   503 -6.598144333E+00  1.668447861E+01 -6.036690255E+01  6.315562333E+01  4.750000000E+00  0.00000E+00  9.000E+00
      21     1     1     2   502   511 -1.033774881E+01  6.617766086E+00  2.064335971E+01  2.401691442E+01  6.307962682E-07  0.00000E+00  9.000E+00
#rwgt            1           9   7.7875753532972113E-004          10      598325           0
</event>
<event>
      6   9999 -3.45752E-01  4.82567E+00 -1.00000E+00  2.32107E-01
      21    -1     0     0   512   502  0.000000000E+00  0.000000000E+00  1.439641176E+01  1.439641176E+01  0.000000000E+00  0.00000E+00  9.000E+00
      21    -1     0     0   502   503  0.000000000E+00  0.000000000E+00 -7.886878800E+02  7.886878800E+02  0.000000000E+00  0.00000E+00  9.000E+00
      25     1     1     2     0     0 -1.809424220E+01 -5.444102497E+00 -7.163728923E+02  7.274420079E+02  1.249988570E+02  0.00000E+00  9.000E+00
       5     1     1     2   501     0  1.463626521E+00 -1.690828446E+00  1.882288583E+00  5.577330341E+00  4.750000000E+00  0.00000E+00  9.000E+00
      -5     1     1     2     0   503  2.087780515E+01  4.843983793E+00 -6.121840389E+01  6.503539345E+01  4.750000000E+00  0.00000E+00  9.000E+00
      21     1     1     2   512   501 -4.247189469E+00  2.290947150E+00  1.417539278E+00  5.029560103E+00  1.548574097E-07  0.00000E+00  9.000E+00
#rwgt            1           9  -2.0396789037000011E-004          10      600387           0
</event>
<event>
      6   9999 -3.45752E-01  8.02132E+00 -1.00000E+00  1.97879E-01
      21    -1     0     0   501   511  0.000000000E+00  0.000000000E+00  1.079904149E+03  1.079904149E+03  0.000000000E+00  0.00000E+00  9.000E+00
      21    -1     0     0   502   503  0.000000000E+00  0.000000000E+00 -1.181263057E+03  1.181263057E+03  0.000000000E+00  0.00000E+00  9.000E+00
      25     1     1     2     0     0  6.209840003E+00 -6.480681102E-02 -1.173748277E+03  1.180402209E+03  1.250031673E+02  0.00000E+00  9.000E+00
       5     1     1     2   501     0 -3.139703110E+00  1.388139840E+00  2.480642341E+01  2.548932738E+01  4.750000000E+00  0.00000E+00  9.000E+00
      -5     1     1     2     0   503  1.673548001E-01 -8.662287690E+00  2.539853603E+00  1.020179357E+01  4.750000000E+00  0.00000E+00  9.000E+00
      21     1     1     2   502   511 -3.237491693E+00  7.338954661E+00  1.045043092E+03  1.045073875E+03  1.525878906E-05  0.00000E+00  9.000E+00
#rwgt            1           9  -5.3881973906340906E-004          10      605038           0
</event>
<event>
      6   9999  3.45752E-01  2.37189E+01 -1.00000E+00  1.54755E-01
      21    -1     0     0   501   502  0.000000000E+00  0.000000000E+00  6.653333605E+01  6.653333605E+01  0.000000000E+00  0.00000E+00  9.000E+00
      21    -1     0     0   502   512  0.000000000E+00  0.000000000E+00 -1.450687084E+03  1.450687084E+03  0.000000000E+00  0.00000E+00  9.000E+00
      25     1     1     2     0     0  2.602585521E+01 -1.656060092E+01 -1.293513413E+03  1.299904640E+03  1.249940916E+02  0.00000E+00  9.000E+00
       5     1     1     2   501     0 -3.317826965E+00  5.539484050E+00  6.047149858E+01  6.100047951E+01  4.750000000E+00  0.00000E+00  9.000E+00
      -5     1     1     2     0   503  6.305735206E-01  1.525157878E+01 -5.182812671E+01  5.423767598E+01  4.750000000E+00  0.00000E+00  9.000E+00
      21     1     1     2   503   512 -2.333860176E+01 -4.230461906E+00 -9.928370608E+01  1.020776245E+02  0.000000000E+00  0.00000E+00  9.000E+00
#rwgt            1           9   1.2559253758880301E-003          10      609072           0
</event>
<event>
      6   9999  3.45752E-01  2.24300E+01 -1.00000E+00  1.56500E-01
      21    -1     0     0   511   502  0.000000000E+00  0.000000000E+00  2.013448539E+01  2.013448539E+01  0.000000000E+00  0.00000E+00  9.000E+00
      21    -1     0     0   502   503  0.000000000E+00  0.000000000E+00 -7.813407142E+02  7.813407142E+02  0.000000000E+00  0.00000E+00  9.000E+00
      25     1     1     2     0     0  2.349654160E+01 -1.606150057E+00 -5.625564859E+02  5.767555359E+02  1.249899246E+02  0.00000E+00  9.000E+00
       5     1     1     2   501     0  1.475367541E+00 -2.935336152E-01 -3.705636889E+00  6.209437665E+00  4.750000000E+00  0.00000E+00  9.000E+00
      -5     1     1     2     0   503 -4.008285289E+00 -6.077291306E+00 -1.958683784E+02  1.960611741E+02  4.750000000E+00  0.00000E+00  9.000E+00
      21     1     1     2   511   501 -2.096362385E+01  7.976974978E+00  9.242723119E-01  2.244905196E+01  5.053229617E-07  0.00000E+00  9.000E+00
#rwgt            1           9   6.7594284038486295E-004          10      611744           0
</event>
<event>
      6   9999  3.45752E-01  7.30470E+00 -1.00000E+00  2.02808E-01
       2    -1     0     0   501     0  0.000000000E+00  0.000000000E+00  2.146373052E+02  2.146373052E+02  0.000000000E+00  0.00000E+00  9.000E+00
      21    -1     0     0   502   503  0.000000000E+00  0.000000000E+00 -2.831666265E+03  2.831666265E+03  0.000000000E+00  0.00000E+00  9.000E+00
      25     1     1     2     0     0 -3.254042133E+01  6.767309979E+01 -3.962124444E+02  4.221969339E+02  1.250096894E+02  0.00000E+00  9.000E+00
       5     1     1     2   501     0 -4.794641130E+00 -4.170197958E+00  6.861288176E+00  1.048898994E+01  4.750000000E+00  0.00000E+00  9.000E+00
      -5     1     1     2     0   503  3.414890218E+01 -7.007610893E+01 -2.419948420E+03  2.421208320E+03  4.750000000E+00  0.00000E+00  9.000E+00
       2     1     1     2   502     0  3.186160274E+00  6.573207105E+00  1.922706170E+02  1.924093263E+02  0.000000000E+00  0.00000E+00  9.000E+00
#rwgt            1           9   4.1658865462275928E-004          10      612837           0
</event>
<event>
      6   9999  3.45752E-01  1.56055E+01 -1.00000E+00  1.68895E-01
      21    -1     0     0   511   502  0.000000000E+00  0.000000000E+00  1.828680627E+01  1.828680627E+01  0.000000000E+00  0.00000E+00  9.000E+00
      21    -1     0     0   502   503  0.000000000E+00  0.000000000E+00 -1.267269050E+03  1.267269050E+03  0.000000000E+00  0.00000E+00  9.000E+00
      25     1     1     2     0     0  5.202446511E+00 -6.181556653E+00 -1.190278963E+03  1.196851812E+03  1.249998947E+02  0.00000E+00  9.000E+00
       5     1     1     2   501     0 -7.430598767E-01 -6.261738683E+00  1.584220040E+00  8.051941533E+00  4.750000000E+00  0.00000E+00  9.000E+00
      -5     1     1     2     0   503  1.138539168E+00 -2.123611702E+00 -6.431508290E+01  6.453524918E+01  4.750000000E+00  0.00000E+00  9.000E+00
      21     1     1     2   511   501 -5.597925802E+00  1.456690704E+01  4.027581839E+00  1.611685358E+01  1.199520337E-06  0.00000E+00  9.000E+00
#rwgt            1           9   2.4356794097676214E-003          10      617805           0
</event>
<event>
      6   9999 -3.45752E-01  3.10863E+01 -1.00000E+00  1.46846E-01
      21    -1     0     0   501   512  0.000000000E+00  0.000000000E+00  5.042998137E+01  5.042998137E+01  0.000000000E+00  0.00000E+00  9.000E+00
      21    -1     0     0   502   503  0.000000000E+00  0.000000000E+00 -1.106696162E+03  1.106696162E+03  0.000000000E+00  0.00000E+00  9.000E+00
      25     1     1     2     0     0  1.500668415E+01 -5.403279718E+00 -9.487273423E+02  9.570590077E+02  1.249959131E+02  0.00000E+00  9.000E+00
       5     1     1     2   501     0  1.119389444E+00 -5.651676751E-01 -1.379788122E+01  1.464638090E+01  4.750000000E+00  0.00000E+00  9.000E+00
      -5     1     1     2     0   503  1.121699922E+01 -8.820594265E+00 -1.338405207E+02  1.346828550E+02  4.750000000E+00  0.00000E+00  9.000E+00
      21     1     1     2   502   512 -2.734307282E+01  1.478904166E+01  4.009956403E+01  5.073789925E+01  1.261592536E-06  0.00000E+00  9.000E+00
#rwgt            1           9  -5.8323942086293587E-002          10      619491           0
</event>
<event>
      6   9999  3.45752E-01  2.33375E+00 -1.00000E+00  3.08943E-01
      21    -1     0     0   502   503  0.000000000E+00  0.000000000E+00  5.888114409E+00  5.888114409E+00  0.000000000E+00  0.00000E+00  9.000E+00
       1    -1     0     0   501     0  0.000000000E+00  0.000000000E+00 -1.030168385E+03  1.030168385E+03  0.000000000E+00  0.00000E+00  9.000E+00
      25     1     1     2     0     0  3.044756824E+00 -1.515549173E+00 -7.048879313E+02  7.158938558E+02  1.250017986E+02  0.00000E+00  9.000E+00
       5     1     1     2   501     0 -1.690681756E+00  1.029191045E+00 -4.274060382E+01  4.304926659E+01  4.750000000E+00  0.00000E+00  9.000E+00
      -5     1     1     2     0   503  1.581412346E-02 -1.403030370E+00 -2.698716106E+01  2.743789545E+01  4.750000000E+00  0.00000E+00  9.000E+00
       1     1     1     2   502     0 -1.369889192E+00  1.889388498E+00 -2.496645741E+02  2.496754813E+02  3.814697266E-06  0.00000E+00  9.000E+00
#rwgt            1           9   6.0463674448448586E-004          10      620218           0
</event>
<event>
      6   9999  3.45752E-01  1.15042E+01 -1.00000E+00  1.81003E-01
      21    -1     0     0   501   502  0.000000000E+00  0.000000000E+00  2.511924167E+02  2.511924167E+02  0.000000000E+00  0.00000E+00  9.000E+00
      21    -1     0     0   502   511  0.000000000E+00  0.000000000E+00 -1.261677231E+02  1.261677231E+02  0.000000000E+00  0.00000E+00  9.000E+00
      25     1     1     2     0     0  1.982259466E+01  4.351739651E+01  1.369765310E+02  1.915075338E+02  1.250034656E+02  0.00000E+00  9.000E+00
       5     1     1     2   501     0  4.261133816E-01  7.597035520E-01  7.228639427E+01  7.244752597E+01  4.750000000E+00  0.00000E+00  9.000E+00
      -5     1     1     2     0   503 -9.693251791E+00 -3.970234288E+01 -1.590598799E+01  4.411120169E+01  4.750000000E+00  0.00000E+00  9.000E+00
      21     1     1     2   503   511 -1.055545625E+01 -4.574757180E+00 -6.833224364E+01  6.929387838E+01  0.000000000E+00  0.00000E+00  9.000E+00
#rwgt            1           9   6.3645919754965977E-003          10      625959           0
</event>
<event>
      6   9999 -3.45752E-01  7.36548E+00 -1.00000E+00  2.02361E-01
      21    -1     0     0   501   502  0.000000000E+00  0.000000000E+00  6.108453471E+01  6.108453471E+01  0.000000000E+00  0.00000E+00  9.000E+00
      21    -1     0     0   512   503  0.000000000E+00  0.000000000E+00 -6.163897724E+02  6.163897724E+02  0.000000000E+00  0.00000E+00  9.000E+00
      25     1     1     2     0     0 -4.117711306E+01 -1.800638593E+01 -5.550414291E+02  5.707141584E+02  1.249955122E+02  0.00000E+00  9.000E+00
       5     1     1     2   501     0 -3.632399848E+00 -5.417529698E+00  3.697293953E+01  3.784315941E+01  4.750000000E+00  0.00000E+00  9.000E+00
      -5     1     1     2     0   503  4.515111486E+01  1.606636456E+01 -2.409175812E+01  5.384910912E+01  4.750000000E+00  0.00000E+00  9.000E+00
      21     1     1     2   512   502 -3.416019531E-01  7.357551066E+00 -1.314499001E+01  1.506788014E+01  1.685873940E-07  0.00000E+00  9.000E+00
#rwgt            1           9  -5.0604382254256432E-002          10      628625           0
</event>
<event>
      6   9999  3.45752E-01  1.33451E+01 -1.00000E+00  1.74892E-01
      21    -1     0     0   511   502  0.000000000E+00  0.000000000E+00  7.105383153E+01  7.105383153E+01  0.000000000E+00  0.00000E+00  9.000E+00
      21    -1     0     0   502   503  0.000000000E+00  0.000000000E+00 -7.934721703E+02  7.934721703E+02  0.000000000E+00  0.00000E+00  9.000E+00
      25     1     1     2     0     0  5.048724601E+00  8.343275870E+00 -7.441771906E+02  7.546649804E+02  1.249977664E+02  0.00000E+00  9.000E+00
       5     1     1     2   501     0  7.072032982E-01  6.522173685E-01 -1.667887692E+01  1.736873511E+01  4.750000000E+00  0.00000E+00  9.000E+00
      -5     1     1     2     0   503  2.236749437E-01  2.934919106E+00 -2.604775766E+01  2.664041966E+01  4.750000000E+00  0.00000E+00  9.000E+00
      21     1     1     2   511   501 -5.979602842E+00 -1.193041234E+01  6.448548645E+01  6.585186672E+01  3.015782986E-06  0.00000E+00  9.000E+00
#rwgt            1           9   4.7183886921912993E-005          10      632699           0
</event>
<event>
      6   9999  3.45752E-01  2.24505E+01 -1.00000E+00  1.56471E-01
      21    -1     0     0   512   502  0.000000000E+00  0.000000000E+00  1.351583059E+02  1.351583059E+02  0.000000000E+00  0.00000E+00  9.000E+00
      21    -1     0     0   502   503  0.000000000E+00  0.000000000E+00 -7.560655200E+02  7.560655200E+02  0.000000000E+00  0.00000E+00  9.000E+00
      25     1     1     2     0     0  2.271080024E+01 -1.324793332E+01 -7.266945678E+02  7.378353914E+02  1.249991270E+02  0.00000E+00  9.000E+00
       5     1     1     2   501     0 -8.546877422E+00 -4.010022828E+00  1.069675488E+02  1.074883639E+02  4.750000000E+00  0.00000E+00  9.000E+00
      -5     1     1     2     0   503 -5.486718704E+00 -3.447834128E+00 -1.675112556E+01  1.857833011E+01  4.750000000E+00  0.00000E+00  9.000E+00
      21     1     1     2   512   501 -8.677204116E+00  2.070579028E+01  1.557093052E+01  2.732174042E+01  2.920019320E-07  0.00000E+00  9.000E+00
#rwgt            1           9   1.8500612130388963E-004          10      634145           0
</event>
<event>
      6   9999  3.45752E-01  3.84990E+00 -1.00000E+00  2.51339E-01
      21    -1     0     0   501   502  0.000000000E+00  0.000000000E+00  1.011922433E+03  1.011922433E+03  0.000000000E+00  0.00000E+00  9.000E+00
      21    -1     0     0   502   511  0.000000000E+00  0.000000000E+00 -6.745712957E+00  6.745712957E+00  0.000000000E+00  0.00000E+00  9.000E+00
      25     1     1     2     0     0  9.809536819E+00  2.147522606E+00  6.653890324E+02  6.771074415E+02  1.250243338E+02  0.00000E+00  9.000E+00
       5     1     1     2   501     0  4.872626655E-01 -6.228781976E-01  1.398976285E+02  1.399804785E+02  4.750000000E+00  0.00000E+00  9.000E+00
      -5     1     1     2     0   503 -8.899489083E+00 -5.112021026E+00  1.951331528E+02  1.954605931E+02  4.750000000E+00  0.00000E+00  9.000E+00
      21     1     1     2   503   511 -1.397310402E+00  3.587376617E+00  4.756906426E+00  6.119632840E+00  1.192092896E-07  0.00000E+00  9.000E+00
#rwgt            1           9   2.7887464109160339E-004          10      636763           0
</event>
<event>
      6   9999  3.45752E-01  8.76912E+00 -1.00000E+00  1.93410E-01
      21    -1     0     0   501   502  0.000000000E+00  0.000000000E+00  3.309814005E+01  3.309814005E+01  0.000000000E+00  0.00000E+00  9.000E+00
       1    -1     0     0   502     0  0.000000000E+00  0.000000000E+00 -1.635924522E+03  1.635924522E+03  0.000000000E+00  0.00000E+00  9.000E+00
      25     1     1     2     0     0  1.597115118E+01  5.639211633E+00 -7.456940720E+02  7.562888364E+02  1.250051065E+02  0.00000E+00  9.000E+00
       5     1     1     2   501     0 -5.103332846E+00 -2.333769387E+00  2.723058483E+01  2.820563306E+01  4.750000000E+00  0.00000E+00  9.000E+00
      -5     1     1     2     0   503 -2.631159307E+00 -6.314582602E+00 -4.378313785E+02  4.379105793E+02  4.750000000E+00  0.00000E+00  9.000E+00
       1     1     1     2   503     0 -8.236659025E+00  3.009140355E+00 -4.465315158E+02  4.466176129E+02  0.000000000E+00  0.00000E+00  9.000E+00
#rwgt            1           9   8.2764470842336835E-004          10      641662           0
</event>
<event>
      6   9999  3.45752E-01  9.09396E+00 -1.00000E+00  1.91646E-01
      21    -1     0     0   511   502  0.000000000E+00  0.000000000E+00  2.174367209E+01  2.174367209E+01  0.000000000E+00  0.00000E+00  9.000E+00
      21    -1     0     0   502   503  0.000000000E+00  0.000000000E+00 -9.811921627E+02  9.811921627E+02  0.000000000E+00  0.00000E+00  9.000E+00
      25     1     1     2     0     0  2.529547983E+01 -5.723902301E+00 -6.906754729E+02  7.023747751E+02  1.250003656E+02  0.00000E+00  9.000E+00
       5     1     1     2   501     0 -6.655251437E-01  6.143292642E+00  1.152305366E+01  1.391137066E+01  4.750000000E+00  0.00000E+00  9.000E+00
      -5     1     1     2     0   503 -2.462116251E+01  8.674561930E+00 -2.746860106E+02  2.759645205E+02  4.750000000E+00  0.00000E+00  9.000E+00
      21     1     1     2   511   501 -8.792171306E-03 -9.093952271E+00 -5.610060752E+00  1.068516855E+01  8.429369702E-08  0.00000E+00  9.000E+00
#rwgt            1           9   6.5964756070321470E-002          10      645991           0
</event>
<event>
      6   9999  3.45752E-01  1.80240E+01 -1.00000E+00  1.63737E-01
      21    -1     0     0   501   502  0.000000000E+00  0.000000000E+00  9.437809951E+01  9.437809951E+01  0.000000000E+00  0.00000E+00  9.000E+00
       2    -1     0     0   502     0  0.000000000E+00  0.000000000E+00 -2.487632805E+03  2.487632805E+03  0.000000000E+00  0.00000E+00  9.000E+00
      25     1     1     2     0     0 -5.831027799E+01  1.051128419E+01 -6.113147004E+01  1.512355682E+02  1.249982594E+02  0.00000E+00  9.000E+00
       5     1     1     2   501     0  2.694891362E+00 -3.132744938E+00  4.827858631E+01  4.868737954E+01  4.750000000E+00  0.00000E+00  9.000E+00
      -5     1     1     2     0   503  6.429648313E+01  8.417135083E+00 -1.387515595E+03  1.389038148E+03  4.750000000E+00  0.00000E+00  9.000E+00
       2     1     1     2   503     0 -8.681096501E+00 -1.579567434E+01 -9.928862262E+02  9.930498089E+02  1.078959322E-05  0.00000E+00  9.000E+00
#rwgt            1           9   7.9299745172092661E-003          10      649198           0
</event>
<event>
      6   9999  3.45752E-01  1.39696E+01 -1.00000E+00  1.73094E-01
      21    -1     0     0   511   502  0.000000000E+00  0.000000000E+00  1.332105947E+01  1.332105947E+01  0.000000000E+00  0.00000E+00  9.000E+00
      21    -1     0     0   502   503  0.000000000E+00  0.000000000E+00 -7.507562520E+02  7.507562520E+02  0.000000000E+00  0.00000E+00  9.000E+00
      25     1     1     2     0     0 -7.547236628E-01 -2.615406801E+00 -6.589249999E+02  6.706817501E+02  1.249977779E+02  0.00000E+00  9.000E+00
       5     1     1     2   501     0  4.494270490E+00  5.386846953E+00 -8.894030834E+00  1.228343892E+01  4.750000000E+00  0.00000E+00  9.000E+00
      -5     1     1     2     0   503 -4.921858495E+00  1.114806178E+01 -6.514413784E+01  6.644415074E+01  4.750000000E+00  0.00000E+00  9.000E+00
      21     1     1     2   511   501  1.182311668E+00 -1.391950193E+01 -4.472023946E+00  1.466797167E+01  3.816559456E-07  0.00000E+00  9.000E+00
#rwgt            1           9   1.1112970022121480E-005          10      652659           0
</event>
<event>
      6   9999 -3.45752E-01  3.47373E+00 -1.00000E+00  2.61253E-01
      21    -1     0     0   501   512  0.000000000E+00  0.000000000E+00  3.371244062E+02  3.371244062E+02  0.000000000E+00  0.00000E+00  9.000E+00
      21    -1     0     0   502   503  0.000000000E+00  0.000000000E+00 -8.582857250E+02  8.582857250E+02  0.000000000E+00  0.00000E+00  9.000E+00
      25     1     1     2     0     0 -6.927687948E+00 -4.499728999E+00 -6.844238334E+02  6.957947197E+02  1.250042713E+02  0.00000E+00  9.000E+00
       5     1     1     2   501     0  2.296331096E+00  1.204912352E+00  2.066716614E+00  5.792992995E+00  4.750000000E+00  0.00000E+00  9.000E+00
      -5     1     1     2     0   503  7.621975470E+00  5.062008292E+00 -1.661443258E+02  1.664638638E+02  4.750000000E+00  0.00000E+00  9.000E+00
      21     1     1     2   502   512 -2.990618619E+00 -1.767191644E+00  3.273401238E+02  3.273585548E+02  5.394796609E-06  0.00000E+00  9.000E+00
#rwgt            1           9  -2.7151756322744525E-002          10      654514           0
</event>
<event>
      6   9999  3.45752E-01  5.16546E+01 -1.00000E+00  1.34035E-01
      21    -1     0     0   502   503  0.000000000E+00  0.000000000E+00  9.582077639E+01  9.582077639E+01  0.000000000E+00  0.00000E+00  9.000E+00
      21    -1     0     0   511   502  0.000000000E+00  0.000000000E+00 -1.944103717E+03  1.944103717E+03  0.000000000E+00  0.00000E+00  9.000E+00
      25     1     1     2     0     0  6.538914459E+01  2.186280915E+02 -1.437825886E+02  2.972797648E+02  1.250113721E+02  0.00000E+00  9.000E+00
       5     1     1     2   501     0 -1.325131287E+01 -2.092886947E+02 -1.375208613E+03  1.391114175E+03  4.750000000E+00  0.00000E+00  9.000E+00
      -5     1     1     2     0   503 -5.796387719E+00 -3.215747847E+01 -2.142624351E+01  3.936175737E+01  4.750000000E+00  0.00000E+00  9.000E+00
      21     1     1     2   511   501 -4.634144400E+01  2.281808169E+01 -3.078654957E+02  3.121687969E+02  0.000000000E+00  0.00000E+00  9.000E+00
#rwgt            1           9   8.7051435706250631E-003          10      659761           0
</event>
<event>
      6   9999 -3.45752E-01  6.87618E+01 -1.00000E+00  1.27778E-01
      21    -1     0     0   512   503  0.000000000E+00  0.000000000E+00  2.163283992E+01  2.163283992E+01  0.000000000E+00  0.00000E+00  9.000E+00
      21    -1     0     0   501   502  0.000000000E+00  0.000000000E+00 -1.003428700E+03  1.003428700E+03  0.000000000E+00  0.00000E+00  9.000E+00
      25     1     1     2     0     0 -6.664437985E+01  5.715587971E+01 -6.847532054E+02  7.015857958E+02  1.250096344E+02  0.00000E+00  9.000E+00
       5     1     1     2   501     0 -1.449318247E+01  3.911433726E+00 -9.995416511E+01  1.011867050E+02  4.750000000E+00  0.00000E+00  9.000E+00
      -5     1     1     2     0   503  2.835266313E+01 -1.699986323E+01 -7.651684332E+01  8.348807501E+01  4.750000000E+00  0.00000E+00  9.000E+00
      21     1     1     2   512   502  5.278489919E+01 -4.406745021E+01 -1.205716467E+02  1.388009645E+02  1.907348633E-06  0.00000E+00  9.000E+00
#rwgt            1           9 -0.38512387398733455               10      661499           0
</event>
<event>
      6   9999  3.45752E-01  1.06447E+01 -1.00000E+00  1.84380E-01
      21    -1     0     0   511   502  0.000000000E+00  0.000000000E+00  2.528472971E+01  2.528472971E+01  0.000000000E+00  0.00000E+00  9.000E+00
      21    -1     0     0   502   503  0.000000000E+00  0.000000000E+00 -6.244787093E+02  6.244787093E+02  0.000000000E+00  0.00000E+00  9.000E+00
      25     1     1     2     0     0 -4.771352739E+00  8.859208307E+00 -5.843501801E+02  5.976567538E+02  1.250088437E+02  0.00000E+00  9.000E+00
       5     1     1     2   501     0  8.770737328E-01  2.369855563E+00  1.536985918E+00  5.595560690E+00  4.750000000E+00  0.00000E+00  9.000E+00
      -5     1     1     2     0   503  1.580575157E+00 -8.388459039E-01 -2.931994885E+01  2.975607133E+01  4.750000000E+00  0.00000E+00  9.000E+00
      21     1     1     2   511   501  2.313703849E+00 -1.039021797E+01  1.293916348E+01  1.675505316E+01  6.078504936E-07  0.00000E+00  9.000E+00
#rwgt            1           9   9.6946064784408734E-003          10      662019           0
</event>
<event>
      6   9999  3.45752E-01  7.03674E+00 -1.00000E+00  2.04849E-01
      21    -1     0     0   501   502  0.000000000E+00  0.000000000E+00  2.350289316E+02  2.350289316E+02  0.000000000E+00  0.00000E+00  9.000E+00
      21    -1     0     0   502   512  0.000000000E+00  0.000000000E+00 -9.282322188E+01  9.282322188E+01  0.000000000E+00  0.00000E+00  9.000E+00
      25     1     1     2     0     0  7.277882719E+00  7.221134426E+00  8.186678673E+01  1.497742849E+02  1.250002132E+02  0.00000E+00  9.000E+00
       5     1     1     2   501     0 -7.587923163E-01  2.021424437E+00  1.181125000E+02  1.182276917E+02  4.750000000E+00  0.00000E+00  9.000E+00
      -5     1     1     2     0   503 -3.207303770E+00 -3.033869004E+00 -1.300721106E+01  1.453413906E+01  4.750000000E+00  0.00000E+00  9.000E+00
      21     1     1     2   503   512 -3.311786632E+00 -6.208689859E+00 -4.476636598E+01  4.531603782E+01  6.743495762E-07  0.00000E+00  9.000E+00
#rwgt            1           9   213.76768024939537               10      664576           0
</event>
<event>
      6   9999  3.45752E-01  1.32802E+01 -1.00000E+00  1.75086E-01
      21    -1     0     0   501   502  0.000000000E+00  0.000000000E+00  8.944017530E+00  8.944017530E+00  0.000000000E+00  0.00000E+00  9.000E+00
      21    -1     0     0   502   511  0.000000000E+00  0.000000000E+00 -1.087502663E+03  1.087502663E+03  0.000000000E+00  0.00000E+00  9.000E+00
      25     1     1     2     0     0 -1.195611482E+01 -3.374714410E+00 -6.112704002E+02  6.240450514E+02  1.250055465E+02  0.00000E+00  9.000E+00
       5     1     1     2   501     0 -1.200220514E+00  6.425090905E-01 -6.963512135E-01  4.990065353E+00  4.750000000E+00  0.00000E+00  9.000E+00
      -5     1     1     2     0   503  9.609327142E-01  7.989267304E+00 -7.298999687E+01  7.358569104E+01  4.750000000E+00  0.00000E+00  9.000E+00
      21     1     1     2   503   511  1.219540262E+01 -5.257061985E+00 -3.936018971E+02  3.938258726E+02  5.394796609E-06  0.00000E+00  9.000E+00
#rwgt            1           9   2.3527516721637086E-004          10      667891           0
</event>
<event>
      6   9999  3.45752E-01  2.69625E+01 -1.00000E+00  1.50901E-01
      21    -1     0     0   501   502  0.000000000E+00  0.000000000E+00  1.084710646E+01  1.084710646E+01  0.000000000E+00  0.00000E+00  9.000E+00
      21    -1     0     0   502   512  0.000000000E+00  0.000000000E+00 -4.801425993E+03  4.801425993E+03  0.000000000E+00  0.00000E+00  9.000E+00
      25     1     1     2     0     0 -1.239189326E+02  5.229187350E+01 -1.279348072E+03  1.292457052E+03  1.249936100E+02  0.00000E+00  9.000E+00
       5     1     1     2   501     0 -9.450293457E-02  5.238526341E+00 -2.820348049E+00  7.613668770E+00  4.750000000E+00  0.00000E+00  9.000E+00
      -5     1     1     2     0   503  1.312958016E+02 -3.156996198E+01 -2.758558189E+03  2.761865510E+03  4.750000000E+00  0.00000E+00  9.000E+00
      21     1     1     2   503   512 -7.282366125E+00 -2.596043786E+01 -7.498522776E+02  7.503368679E+02  1.078959322E-05  0.00000E+00  9.000E+00
#rwgt            1           9   4.6542911858806057E-003          10      669726           0
</event>
<event>
      6   9999  3.45752E-01  1.35698E+01 -1.00000E+00  1.74231E-01
      21    -1     0     0   511   502  0.000000000E+00  0.000000000E+00  1.785401273E+01  1.785401273E+01  0.000000000E+00  0.00000E+00  9.000E+00
      21    -1     0     0   502   503  0.000000000E+00  0.000000000E+00 -8.756621193E+02  8.756621193E+02  0.000000000E+00  0.00000E+00  9.000E+00
      25     1     1     2     0     0  7.335850262E+00 -1.049550250E+01 -3.039082872E+02  3.288612488E+02  1.250020145E+02  0.00000E+00  9.000E+00
       5     1     1     2   501     0  1.112704237E-01 -7.920043374E-01 -5.920705608E+00  7.632621233E+00  4.750000000E+00  0.00000E+00  9.000E+00
      -5     1     1     2     0   503 -4.718038906E+00 -2.005055425E+00 -5.422460191E+02  5.422910545E+02  4.750000000E+00  0.00000E+00  9.000E+00
      21     1     1     2   511   501 -2.729081779E+00  1.329256226E+01 -5.733094643E+00  1.473120745E+01  4.298152060E-07  0.00000E+00  9.000E+00
#rwgt            1           9   6.0463511318173241E-005          10      671125           0
</event>
<event>
      6   9999  3.45752E-01  2.01430E+01 -1.00000E+00  1.59975E-01
      21    -1     0     0   512   503  0.000000000E+00  0.000000000E+00  1.084735004E+01  1.084735004E+01  0.000000000E+00  0.00000E+00  9.000E+00
      21    -1     0     0   501   502  0.000000000E+00  0.000000000E+00 -4.583886720E+03  4.583886720E+03  0.000000000E+00  0.00000E+00  9.000E+00
      25     1     1     2     0     0 -3.288096495E+01 -3.095837617E+00 -2.881659296E+03  2.884558290E+03  1.250019564E+02  0.00000E+00  9.000E+00
       5     1     1     2   501     0  4.972915743E+00 -6.066274759E+00 -1.097990164E+03  1.098028457E+03  4.750000000E+00  0.00000E+00  9.000E+00
      -5     1     1     2     0   503  1.168106450E+01 -2.772066270E+00 -5.918009486E+02  5.919417682E+02  4.750000000E+00  0.00000E+00  9.000E+00
      21     1     1     2   512   502  1.622698471E+01  1.193417865E+01 -1.588961587E+00  2.020555497E+01  2.411871589E-06  0.00000E+00  9.000E+00
#rwgt            1           9   8.1119871506974972E-003          10      672858           0
</event>
<event>
      6   9999 -3.45752E-01  5.21709E+00 -1.00000E+00  2.22881E-01
      21    -1     0     0   501   502  0.000000000E+00  0.000000000E+00  6.535701941E+01  6.535701941E+01  0.000000000E+00  0.00000E+00  9.000E+00
      21    -1     0     0   502   511  0.000000000E+00  0.000000000E+00 -1.368404697E+03  1.368404697E+03  0.000000000E+00  0.00000E+00  9.000E+00
      25     1     1     2     0     0  2.184790903E+02  4.847489407E+00 -4.834089388E+02  5.450410701E+02  1.250158184E+02  0.00000E+00  9.000E+00
       5     1     1     2   501     0 -8.978871586E-01 -3.899917497E+00  1.909578060E+01  2.008051032E+01  4.750000000E+00  0.00000E+00  9.000E+00
      -5     1     1     2     0   503 -2.204978821E+02  3.378046590E+00 -8.136013364E+02  8.429711883E+02  4.750000000E+00  0.00000E+00  9.000E+00
      21     1     1     2   503   511  2.916678896E+00 -4.325618500E+00 -2.513318258E+01  2.566894735E+01  3.371747881E-07  0.00000E+00  9.000E+00
#rwgt            1           9  -4.8192620304744939E-004          10      674320           0
</event>
<event>
      6   9999  3.45752E-01  6.95928E+00 -1.00000E+00  2.05462E-01
      21    -1     0     0   501   502  0.000000000E+00  0.000000000E+00  6.183169913E+02  6.183169913E+02  0.000000000E+00  0.00000E+00  9.000E+00
      21    -1     0     0   512   503  0.000000000E+00  0.000000000E+00 -2.742659611E+02  2.742659611E+02  0.000000000E+00  0.00000E+00  9.000E+00
      25     1     1     2     0     0 -6.456526742E+01 -8.917192146E+01 -1.769187446E+02  2.429856145E+02  1.249858446E+02  0.00000E+00  9.000E+00
       5     1     1     2   501     0 -1.357116967E+00  1.408344637E+00  5.305127150E+02  5.305375844E+02  4.750000000E+00  0.00000E+00  9.000E+00
      -5     1     1     2     0   503  6.032211792E+01  9.189500019E+01 -3.893718433E+00  1.100961966E+02  4.750000000E+00  0.00000E+00  9.000E+00
      21     1     1     2   512   502  5.600266462E+00 -4.131423363E+00 -5.649221815E+00  8.963556803E+00  2.064765462E-07  0.00000E+00  9.000E+00
#rwgt            1           9   5.8281030393589968E-004          10      680468           0
</event>
<event>
      6   9999  3.45752E-01  1.61292E+01 -1.00000E+00  1.67684E-01
      21    -1     0     0   511   502  0.000000000E+00  0.000000000E+00  9.468088819E+02  9.468088819E+02  0.000000000E+00  0.00000E+00  9.000E+00
      21    -1     0     0   502   503  0.000000000E+00  0.000000000E+00 -2.947249468E+01  2.947249468E+01  0.000000000E+00  0.00000E+00  9.000E+00
      25     1     1     2     0     0  3.747636793E+01  1.109893289E+01  6.115182719E+02  6.253778868E+02  1.249609540E+02  0.00000E+00  9.000E+00
       5     1     1     2   501     0  1.757781128E+00  6.358193164E-01  1.119505659E+02  1.120668808E+02  4.750000000E+00  0.00000E+00  9.000E+00
      -5     1     1     2     0   503 -3.025332063E+01  1.662886031E+00 -1.156108821E+01  3.277575109E+01  4.750000000E+00  0.00000E+00  9.000E+00
      21     1     1     2   511   501 -8.980828429E+00 -1.339763824E+01  2.054286376E+02  2.060608579E+02  2.697398305E-06  0.00000E+00  9.000E+00
#rwgt            1           9   1.2647536015040142               10      686649           0
</event>
<event>
      6   9999  3.45752E-01  6.10828E+00 -1.00000E+00  2.12982E-01
      21    -1     0     0   501   502  0.000000000E+00  0.000000000E+00  1.922703409E+01  1.922703409E+01  0.000000000E+00  0.00000E+00  9.000E+00
      21    -1     0     0   502   512  0.000000000E+00  0.000000000E+00 -1.051308531E+03  1.051308531E+03  0.000000000E+00  0.00000E+00  9.000E+00
      25     1     1     2     0     0  2.546983136E+01 -5.864417205E+01 -8.681471162E+02  8.794278196E+02  1.250040929E+02  0.00000E+00  9.000E+00
       5     1     1     2   501     0 -7.524958316E+00  5.585029071E+01 -5.301116833E+01  7.751533034E+01  4.750000000E+00  0.00000E+00  9.000E+00
      -5     1     1     2     0   503 -1.197875526E+01  4.104024304E+00 -3.660074117E+01  3.901935862E+01  4.750000000E+00  0.00000E+00  9.000E+00
      21     1     1     2   503   512 -5.966117782E+00 -1.310142959E+00 -7.432247143E+01  7.457305677E+01  1.348699152E-06  0.00000E+00  9.000E+00
#rwgt            1           9   1.4069138856062845E-005          10      688812           0
</event>
<event>
      6   9999 -3.45752E-01  6.72768E+01 -1.00000E+00  1.28234E-01
      21    -1     0     0   511   503  0.000000000E+00  0.000000000E+00  1.367319084E+02  1.367319084E+02  0.000000000E+00  0.00000E+00  9.000E+00
      21    -1     0     0   501   502  0.000000000E+00  0.000000000E+00 -3.721182015E+02  3.721182015E+02  0.000000000E+00  0.00000E+00  9.000E+00
      25     1     1     2     0     0  1.415744592E+02  4.521483298E+01 -1.473444219E+02  2.437686274E+02  1.250002257E+02  0.00000E+00  9.000E+00
       5     1     1     2   501     0  1.501141079E+01  2.241534766E+01 -2.931253002E+01  4.011953615E+01  4.750000000E+00  0.00000E+00  9.000E+00
      -5     1     1     2     0   503 -1.185036484E+02 -1.216922110E+01 -9.134865258E+01  1.501943523E+02  4.750000000E+00  0.00000E+00  9.000E+00
      21     1     1     2   511   502 -3.808222157E+01 -5.546095955E+01  3.261931134E+01  7.476759396E+01  1.168007728E-06  0.00000E+00  9.000E+00
#rwgt            1           9  -9.9482570169070916E-002          10      693100           0
</event>
<event>
      6   9999  3.45752E-01  6.27599E+00 -1.00000E+00  2.11373E-01
      21    -1     0     0   512   502  0.000000000E+00  0.000000000E+00  5.977414085E+02  5.977414085E+02  0.000000000E+00  0.00000E+00  9.000E+00
      21    -1     0     0   502   503  0.000000000E+00  0.000000000E+00 -7.403877831E+01  7.403877831E+01  0.000000000E+00  0.00000E+00  9.000E+00
      25     1     1     2     0     0  5.402711634E+01  4.480796198E+01  2.105466655E+02  2.547179000E+02  1.249985100E+02  0.00000E+00  9.000E+00
       5     1     1     2   501     0 -1.244514872E+00 -1.631098623E+00  8.673206550E+01  8.688626466E+01  4.750000000E+00  0.00000E+00  9.000E+00
      -5     1     1     2     0   503 -5.655246464E+01 -4.819445467E+01 -2.510187418E+01  7.857196259E+01  4.750000000E+00  0.00000E+00  9.000E+00
      21     1     1     2   512   501  3.769863171E+00  5.017591312E+00  2.515257734E+02  2.516040596E+02  3.814697266E-06  0.00000E+00  9.000E+00
#rwgt            1           9   12.325884060972982               10      694104           0
</event>
<event>
      6   9999 -3.45752E-01  3.94664E+00 -1.00000E+00  2.49063E-01
      21    -1     0     0   501   502  0.000000000E+00  0.000000000E+00  8.795671052E+00  8.795671052E+00  0.000000000E+00  0.00000E+00  9.000E+00
      21    -1     0     0   502   511  0.000000000E+00  0.000000000E+00 -8.716736367E+02  8.716736367E+02  0.000000000E+00  0.00000E+00  9.000E+00
      25     1     1     2     0     0 -3.411995811E+00 -4.675032250E+00 -7.254790999E+02  7.361913479E+02  1.249971149E+02  0.00000E+00  9.000E+00
       5     1     1     2   501     0 -1.232360647E+00 -8.704674418E-01  1.342221029E+00  5.161442010E+00  4.750000000E+00  0.00000E+00  9.000E+00
      -5     1     1     2     0   503  3.246790506E+00  1.854593617E+00 -9.742263721E+01  9.761000925E+01  4.750000000E+00  0.00000E+00  9.000E+00
      21     1     1     2   503   511  1.397565953E+00  3.690906075E+00 -4.131844961E+01  4.150650860E+01  4.768371582E-07  0.00000E+00  9.000E+00
#rwgt            1           9 -0.35041259753508186               10      698214           0
</event>
<event>
      6   9999  3.45752E-01  8.10770E+00 -1.00000E+00  1.97330E-01
       2    -1     0     0   501     0  0.000000000E+00  0.000000000E+00  1.565731972E+03  1.565731972E+03  0.000000000E+00  0.00000E+00  9.000E+00
      21    -1     0     0   502   503  0.000000000E+00  0.000000000E+00 -2.382859458E+01  2.382859458E+01  0.000000000E+00  0.00000E+00  9.000E+00
      25     1     1     2     0     0  1.968414997E+00  3.555245221E+01  1.650036319E+02  2.100469519E+02  1.250026878E+02  0.00000E+00  9.000E+00
       5     1     1     2   501     0  4.411807800E+00 -1.378884711E+00  7.508571288E+02  7.508863801E+02  4.750000000E+00  0.00000E+00  9.000E+00
      -5     1     1     2     0   503 -7.600113139E+00 -2.615816574E+01  1.507162602E+02  1.532317361E+02  4.750000000E+00  0.00000E+00  9.000E+00
       2     1     1     2   502     0  1.219890342E+00 -8.015401762E+00  4.753263564E+02  4.753954984E+02  7.629394531E-06  0.00000E+00  9.000E+00
#rwgt            1           9   9.2285122089479186E-004          10      703014           0
</event>
<event>
      6   9999  3.45752E-01  9.42222E+00 -1.00000E+00  1.89958E-01
      21    -1     0     0   501   502  0.000000000E+00  0.000000000E+00  2.123972179E+02  2.123972179E+02  0.000000000E+00  0.00000E+00  9.000E+00
      21    -1     0     0   502   511  0.000000000E+00  0.000000000E+00 -1.182476067E+02  1.182476067E+02  0.000000000E+00  0.00000E+00  9.000E+00
      25     1     1     2     0     0 -5.096014910E+01  3.560576749E+01  1.710502269E+01  1.406479657E+02  1.249982439E+02  0.00000E+00  9.000E+00
       5     1     1     2   501     0  1.568451300E+00  3.493634940E+00  1.155006583E+02  1.156617054E+02  4.750000000E+00  0.00000E+00  9.000E+00
      -5     1     1     2     0   503  4.113716389E+01 -3.455616683E+01 -3.501605270E+01  6.430459832E+01  4.750000000E+00  0.00000E+00  9.000E+00
      21     1     1     2   503   511  8.254533910E+00 -4.543235607E+00 -3.440017089E+00  1.003055519E+01  7.300048300E-08  0.00000E+00  9.000E+00
#rwgt            1           9   24.495412082366830               10      706305           0
</event>
<event>
      6   9999 -3.45752E-01  7.30957E+00 -1.00000E+00  2.02772E-01
      21    -1     0     0   501   502  0.000000000E+00  0.000000000E+00  1.435918846E+01  1.435918846E+01  0.000000000E+00  0.00000E+00  9.000E+00
      21    -1     0     0   512   503  0.000000000E+00  0.000000000E+00 -9.396728729E+02  9.396728729E+02  0.000000000E+00  0.00000E+00  9.000E+00
      25     1     1     2     0     0  3.796026416E+01 -1.451121138E+01 -7.059393617E+02  7.180715109E+02  1.249990218E+02  0.00000E+00  9.000E+00
       5     1     1     2   501     0 -4.404314882E-01 -5.482244865E-01  3.482056526E+00  5.931420372E+00  4.750000000E+00  0.00000E+00  9.000E+00
      -5     1     1     2     0   503 -3.656620461E+01  2.230653007E+01 -1.315184335E+02  1.383991671E+02  4.750000000E+00  0.00000E+00  9.000E+00
      21     1     1     2   512   502 -9.536280607E-01 -7.247094207E+00 -9.133794575E+01  9.162996298E+01  1.348699152E-06  0.00000E+00  9.000E+00
#rwgt            1           9  -7.5638428950376517E-004          10      709423           0
</event>
<event>
      6   9999  3.45752E-01  7.72783E+00 -1.00000E+00  1.99812E-01
      21    -1     0     0   501   502  0.000000000E+00  0.000000000E+00  7.727961600E+00  7.727961600E+00  0.000000000E+00  0.00000E+00  9.000E+00
      21    -1     0     0   502   511  0.000000000E+00  0.000000000E+00 -8.163550931E+02  8.163550931E+02  0.000000000E+00  0.00000E+00  9.000E+00
      25     1     1     2     0     0 -5.641305544E-01  4.280724320E+00 -6.327536955E+02  6.449981159E+02  1.250067496E+02  0.00000E+00  9.000E+00
       5     1     1     2   501     0 -2.691885124E-02  8.098480966E-02 -3.605669223E+00  5.964112147E+00  4.750000000E+00  0.00000E+00  9.000E+00
      -5     1     1     2     0   503 -9.297283349E-01  3.215001052E+00 -2.566596382E+01  2.631548642E+01  4.750000000E+00  0.00000E+00  9.000E+00
      21     1     1     2   503   511  1.520777741E+00 -7.576710181E+00 -1.466018029E+02  1.468053402E+02  1.907348633E-06  0.00000E+00  9.000E+00
#rwgt            1           9   3.1228976643793636E-005          10      712555           0
</event>
<event>
      6   9999  3.45752E-01  3.61117E+01 -1.00000E+00  1.42811E-01
      -2    -1     0     0     0   502  0.000000000E+00  0.000000000E+00  6.527884367E+02  6.527884367E+02  0.000000000E+00  0.00000E+00  9.000E+00
      21    -1     0     0   502   503  0.000000000E+00  0.000000000E+00 -8.508748890E+02  8.508748890E+02  0.000000000E+00  0.00000E+00  9.000E+00
      25     1     1     2     0     0  2.372416217E+01 -2.265738128E+01 -5.945540414E+02  6.084374201E+02  1.250015732E+02  0.00000E+00  9.000E+00
       5     1     1     2   501     0  1.277416161E+01  6.325330688E+00 -1.477913193E+02  1.485531069E+02  4.750000000E+00  0.00000E+00  9.000E+00
      -5     1     1     2     0   503 -1.001152560E+00  9.698527366E+00 -1.004096178E+02  1.009936512E+02  4.750000000E+00  0.00000E+00  9.000E+00
      -2     1     1     2     0   501 -3.549717122E+01  6.633523225E+00  6.446685261E+02  6.456791474E+02  1.078959322E-05  0.00000E+00  9.000E+00
#rwgt            1           9   9.4605311514834138E-003          10      715197           0
</event>
<event>
      6   9999  3.45752E-01  5.81498E+00 -1.00000E+00  2.15970E-01
      21    -1     0     0   501   511  0.000000000E+00  0.000000000E+00  3.109717892E+01  3.109717892E+01  0.000000000E+00  0.00000E+00  9.000E+00
      21    -1     0     0   502   503  0.000000000E+00  0.000000000E+00 -9.235464063E+02  9.235464063E+02  0.000000000E+00  0.00000E+00  9.000E+00
      25     1     1     2     0     0  1.793012580E+01 -5.439626463E+00 -3.516079621E+02  3.736351833E+02  1.249960489E+02  0.00000E+00  9.000E+00
       5     1     1     2   501     0  9.952732155E-01  2.145137178E+00  2.800084279E+00  5.999596174E+00  4.750000000E+00  0.00000E+00  9.000E+00
      -5     1     1     2     0   503 -1.552950353E+01  8.014853772E+00 -5.586342573E+02  5.589277227E+02  4.750000000E+00  0.00000E+00  9.000E+00
      21     1     1     2   502   511 -3.395895485E+00 -4.720364487E+00  1.499290773E+01  1.608108297E+01  1.180111758E-06  0.00000E+00  9.000E+00
#rwgt            1           9  0.10945340448421773               10      716031           0
</event>
<event>
      6   9999  3.45752E-01  3.77010E+01 -1.00000E+00  1.41693E-01
      21    -1     0     0   501   512  0.000000000E+00  0.000000000E+00  2.427168437E+03  2.427168437E+03  0.000000000E+00  0.00000E+00  9.000E+00
      21    -1     0     0   502   503  0.000000000E+00  0.000000000E+00 -1.689403929E+03  1.689403929E+03  0.000000000E+00  0.00000E+00  9.000E+00
      25     1     1     2     0     0  1.669292308E+01 -9.587862939E+01 -1.006787027E+03  1.019174983E+03  1.250046496E+02  0.00000E+00  9.000E+00
       5     1     1     2   501     0 -1.063133125E+01 -1.308553341E+01  9.459570966E+01  9.620377942E+01  4.750000000E+00  0.00000E+00  9.000E+00
      -5     1     1     2     0   503  3.518540652E+00  7.250070658E+01 -6.735075761E+02  6.774243501E+02  4.750000000E+00  0.00000E+00  9.000E+00
      21     1     1     2   502   512 -9.580132474E+00  3.646345621E+01  2.323463402E+03  2.323769253E+03  4.315837288E-05  0.00000E+00  9.000E+00
#rwgt            1           9   4.3566831836229216E-003          10      720460           0
</event>
<event>
      6   9999  3.45752E-01  2.24809E+02 -1.00000E+00  1.07165E-01
      21    -1     0     0   511   502  0.000000000E+00  0.000000000E+00  4.833718826E+01  4.833718826E+01  0.000000000E+00  0.00000E+00  9.000E+00
       2    -1     0     0   501     0  0.000000000E+00  0.000000000E+00 -2.347509846E+03  2.347509846E+03  0.000000000E+00  0.00000E+00  9.000E+00
      25     1     1     2     0     0 -1.057563068E+02 -1.599411177E+02 -1.299356635E+03  1.319362918E+03  1.250011548E+02  0.00000E+00  9.000E+00
       5     1     1     2   501     0 -1.446737521E+01 -1.849635175E+01 -1.218481091E+01  2.687846890E+01  4.750000000E+00  0.00000E+00  9.000E+00
      -5     1     1     2     0   502 -6.391185633E+00 -7.325713358E+00  1.698746595E+01  2.014075047E+01  4.750000000E+00  0.00000E+00  9.000E+00
       2     1     1     2   511     0  1.266148676E+02  1.857631828E+02 -1.004618678E+03  1.029464897E+03  1.078959322E-05  0.00000E+00  9.000E+00
#rwgt            1           3   5.6973027218624020E-005          10      722492           0
</event>
<event>
      6   9999 -3.45752E-01  1.31220E+01 -1.00000E+00  1.75565E-01
      21    -1     0     0   512   502  0.000000000E+00  0.000000000E+00  2.108115194E+02  2.108115194E+02  0.000000000E+00  0.00000E+00  9.000E+00
      21    -1     0     0   502   503  0.000000000E+00  0.000000000E+00 -8.241826754E+02  8.241826754E+02  0.000000000E+00  0.00000E+00  9.000E+00
      25     1     1     2     0     0 -3.316247931E+01 -3.647961289E+01 -6.167084261E+02  6.311761038E+02  1.249939158E+02  0.00000E+00  9.000E+00
       5     1     1     2   501     0  3.684292045E+01  2.942879765E+01 -1.436587773E+02  1.512741277E+02  4.750000000E+00  0.00000E+00  9.000E+00
      -5     1     1     2     0   503 -4.055074617E+00 -6.065815883E+00 -5.219753286E+01  5.291864217E+01  4.750000000E+00  0.00000E+00  9.000E+00
      21     1     1     2   512   501  3.746334725E-01  1.311663112E+01  1.991935804E+02  1.996253211E+02  2.697398305E-06  0.00000E+00  9.000E+00
#rwgt            1           9  -3.9686087386272911E-002          10      723068           0
</event>
<event>
      6   9999 -3.45752E-01  1.45833E+01 -1.00000E+00  1.71439E-01
      21    -1     0     0   501   511  0.000000000E+00  0.000000000E+00  3.350361404E+01  3.350361404E+01  0.000000000E+00  0.00000E+00  9.000E+00
      21    -1     0     0   502   503  0.000000000E+00  0.000000000E+00 -7.194434097E+02  7.194434097E+02  0.000000000E+00  0.00000E+00  9.000E+00
      25     1     1     2     0     0 -1.042474717E+00  3.564113079E+01 -5.596263116E+02  5.745276980E+02  1.250163597E+02  0.00000E+00  9.000E+00
       5     1     1     2   501     0 -1.312667982E+01 -1.543372420E-02 -3.171226621E+01  3.464881368E+01  4.750000000E+00  0.00000E+00  9.000E+00
      -5     1     1     2     0   503  2.929559684E+00 -2.633354813E+01 -1.153277809E+02  1.184276050E+02  4.750000000E+00  0.00000E+00  9.000E+00
      21     1     1     2   502   511  1.123959485E+01 -9.292148940E+00  2.072656303E+01  2.534290708E+01  1.143415337E-06  0.00000E+00  9.000E+00
#rwgt            1           9  -10.951226256785217               10      725398           0
</event>
<event>
      6   9999  3.45752E-01  6.11842E+01 -1.00000E+00  1.30258E-01
      21    -1     0     0   512   502  0.000000000E+00  0.000000000E+00  2.296681362E+01  2.296681362E+01  0.000000000E+00  0.00000E+00  9.000E+00
      21    -1     0     0   502   503  0.000000000E+00  0.000000000E+00 -2.579216058E+03  2.579216058E+03  0.000000000E+00  0.00000E+00  9.000E+00
      25     1     1     2     0     0 -2.776512876E+01  8.097704897E+01 -1.626898882E+03  1.633937943E+03  1.250001777E+02  0.00000E+00  9.000E+00
       5     1     1     2   501     0 -2.022407459E+01 -3.169470686E+00  1.399797221E+00  2.106135489E+01  4.750000000E+00  0.00000E+00  9.000E+00
      -5     1     1     2     0   503 -6.370106356E+00 -1.058891550E+02 -7.180218200E+02  7.258312393E+02  4.750000000E+00  0.00000E+00  9.000E+00
      21     1     1     2   512   501  5.435930971E+01  2.808157669E+01 -2.127283389E+02  2.213523338E+02  2.697398305E-06  0.00000E+00  9.000E+00
#rwgt            1           9   6.3012893328166092E-003          10      727202           0
</event>
<event>
      6   9999  3.45752E-01  4.61809E+00 -1.00000E+00  2.35604E-01
      21    -1     0     0   501   502  0.000000000E+00  0.000000000E+00  6.440818596E+01  6.440818596E+01  0.000000000E+00  0.00000E+00  9.000E+00
      21    -1     0     0   511   503  0.000000000E+00  0.000000000E+00 -1.482453393E+03  1.482453393E+03  0.000000000E+00  0.00000E+00  9.000E+00
      25     1     1     2     0     0 -1.003968405E+02  2.140253426E+01 -2.719460666E+02  3.164078803E+02  1.249867573E+02  0.00000E+00  9.000E+00
       5     1     1     2   501     0 -1.163113501E+00 -9.674310193E+00  3.923662557E+01  4.070651541E+01  4.750000000E+00  0.00000E+00  9.000E+00
      -5     1     1     2     0   503  9.700442722E+01 -1.097065868E+01 -1.129876726E+03  1.134096201E+03  4.750000000E+00  0.00000E+00  9.000E+00
      21     1     1     2   511   502  4.555526743E+00 -7.575653933E-01 -5.545904021E+01  5.565098266E+01  6.743495762E-07  0.00000E+00  9.000E+00
#rwgt            1           9   1.3481053490102939E-004          10      728400           0
</event>
<event>
      6   9999  3.45752E-01  1.98939E+01 -1.00000E+00  1.60387E-01
      21    -1     0     0   501   502  0.000000000E+00  0.000000000E+00  1.182083976E+01  1.182083976E+01  0.000000000E+00  0.00000E+00  9.000E+00
      21    -1     0     0   512   503  0.000000000E+00  0.000000000E+00 -1.163670821E+03  1.163670821E+03  0.000000000E+00  0.00000E+00  9.000E+00
      25     1     1     2     0     0 -1.782288692E+00 -1.784062681E+01 -4.717302822E+02  4.883327569E+02  1.249718281E+02  0.00000E+00  9.000E+00
       5     1     1     2   501     0  2.569092600E+01  1.021358934E+01 -1.067858413E+02  1.104088742E+02  4.750000000E+00  0.00000E+00  9.000E+00
      -5     1     1     2     0   503 -4.004603180E+01 -4.007052216E+00 -3.051328456E+02  3.078122108E+02  4.750000000E+00  0.00000E+00  9.000E+00
      21     1     1     2   512   502  1.613739449E+01  1.163408968E+01 -2.682010126E+02  2.689378194E+02  3.814697266E-06  0.00000E+00  9.000E+00
#rwgt            1           9   29.157783808273898               10      735612           0
</event>
<event>
      6   9999  3.45752E-01  1.98660E+01 -1.00000E+00  1.60434E-01
      21    -1     0     0   501   502  0.000000000E+00  0.000000000E+00  7.701194277E+01  7.701194277E+01  0.000000000E+00  0.00000E+00  9.000E+00
      21    -1     0     0   502   511  0.000000000E+00  0.000000000E+00 -2.319981326E+03  2.319981326E+03  0.000000000E+00  0.00000E+00  9.000E+00
      25     1     1     2     0     0  3.591412453E+01  3.423679946E+01 -9.737547608E+02  9.829981868E+02  1.250004728E+02  0.00000E+00  9.000E+00
       5     1     1     2   501     0 -1.288338843E+01 -2.356328853E-01  7.129154116E+01  7.260222835E+01  4.750000000E+00  0.00000E+00  9.000E+00
      -5     1     1     2     0   503 -2.194509868E+01 -1.416485845E+01 -5.538706499E+02  5.545065283E+02  4.750000000E+00  0.00000E+00  9.000E+00
      21     1     1     2   503   511 -1.085637425E+00 -1.983630813E+01 -7.866355140E+02  7.868863257E+02  1.525878906E-05  0.00000E+00  9.000E+00
#rwgt            1           9   9.1407773920748817E-005          10      737384           0
</event>
<event>
      6   9999 -3.45752E-01  6.53535E+00 -1.00000E+00  2.09015E-01
      21    -1     0     0   501   502  0.000000000E+00  0.000000000E+00  8.388869578E+01  8.388869578E+01  0.000000000E+00  0.00000E+00  9.000E+00
      21    -1     0     0   512   503  0.000000000E+00  0.000000000E+00 -1.040678358E+03  1.040678358E+03  0.000000000E+00  0.00000E+00  9.000E+00
      25     1     1     2     0     0 -6.782646851E+00 -2.148908674E+01 -8.192645756E+02  8.290516836E+02  1.249978563E+02  0.00000E+00  9.000E+00
       5     1     1     2   501     0  4.039342976E+00 -3.686408922E+00  7.766875573E+01  7.800579477E+01  4.750000000E+00  0.00000E+00  9.000E+00
      -5     1     1     2     0   503 -4.301272209E-01  1.946233790E+01 -9.267670998E+01  9.481826132E+01  4.750000000E+00  0.00000E+00  9.000E+00
      21     1     1     2   512   502  3.173431096E+00  5.713157764E+00 -1.225171322E+02  1.226913140E+02  1.348699152E-06  0.00000E+00  9.000E+00
#rwgt            1           9  -6398.4226154925045               10      740250           0
</event>
<event>
      6   9999  3.45752E-01  5.20244E+00 -1.00000E+00  2.23066E-01
      21    -1     0     0   501   511  0.000000000E+00  0.000000000E+00  1.308070180E+01  1.308070180E+01  0.000000000E+00  0.00000E+00  9.000E+00
      21    -1     0     0   502   503  0.000000000E+00  0.000000000E+00 -7.814251126E+02  7.814251126E+02  0.000000000E+00  0.00000E+00  9.000E+00
      25     1     1     2     0     0 -5.438923859E+00 -2.280541128E+01 -6.887828080E+02  7.004262291E+02  1.250019087E+02  0.00000E+00  9.000E+00
       5     1     1     2   501     0 -2.180308317E-01 -2.286505072E+00  3.452997127E+00  6.305658732E+00  4.750000000E+00  0.00000E+00  9.000E+00
      -5     1     1     2     0   503  1.016949309E+00  2.273910839E+01 -6.985663204E+01  7.362481087E+01  4.750000000E+00  0.00000E+00  9.000E+00
      21     1     1     2   502   511  4.640005382E+00  2.352807964E+00 -1.315796787E+01  1.414911565E+01  3.371747881E-07  0.00000E+00  9.000E+00
#rwgt            1           9   1.1094297412074718E-002          10      745599           0
</event>
<event>
      6   9999  3.45752E-01  1.59127E+01 -1.00000E+00  1.68178E-01
      21    -1     0     0   501   502  0.000000000E+00  0.000000000E+00  4.221135575E+01  4.221135575E+01  0.000000000E+00  0.00000E+00  9.000E+00
      21    -1     0     0   512   503  0.000000000E+00  0.000000000E+00 -2.431933332E+03  2.431933332E+03  0.000000000E+00  0.00000E+00  9.000E+00
      25     1     1     2     0     0  2.006361091E+01  1.435379547E+00 -2.104084089E+03  2.107889923E+03  1.250018723E+02  0.00000E+00  9.000E+00
       5     1     1     2   501     0  7.938008873E-01  5.220385581E+00  3.950126550E+01  4.013471093E+01  4.750000000E+00  0.00000E+00  9.000E+00
      -5     1     1     2     0   503 -5.022213175E+00 -5.087132613E+00 -7.842206891E+01  7.889033486E+01  4.750000000E+00  0.00000E+00  9.000E+00
      21     1     1     2   512   502 -1.583519862E+01 -1.568632515E+00 -2.467170840E+02  2.472297184E+02  3.814697266E-06  0.00000E+00  9.000E+00
#rwgt            1           9   1.2982971385864625E-004          10      749759           0
</event>
<event>
      6   9999  3.45752E-01  1.68006E+01 -1.00000E+00  1.66212E-01
      21    -1     0     0   501   511  0.000000000E+00  0.000000000E+00  1.216390761E+03  1.216390761E+03  0.000000000E+00  0.00000E+00  9.000E+00
      21    -1     0     0   502   503  0.000000000E+00  0.000000000E+00 -6.965477310E+00  6.965477310E+00  0.000000000E+00  0.00000E+00  9.000E+00
      25     1     1     2     0     0 -1.811552585E+01 -1.686949032E+01  6.245399647E+02  6.374068031E+02  1.249980527E+02  0.00000E+00  9.000E+00
       5     1     1     2   501     0 -1.297558315E+00 -5.546536022E-01  1.104161320E+02  1.105272636E+02  4.750000000E+00  0.00000E+00  9.000E+00
      -5     1     1     2     0   503  6.962591104E+00  6.143859844E+00  9.297144626E+01  9.355467390E+01  4.750000000E+00  0.00000E+00  9.000E+00
      21     1     1     2   502   511  1.245049306E+01  1.128028408E+01  3.814977406E+02  3.818674976E+02  5.394796609E-06  0.00000E+00  9.000E+00
#rwgt            1           9   1.1282435678350567E-003          10      752852           0
</event>
<event>
      6   9999  3.45752E-01  2.36536E+02 -1.00000E+00  1.06431E-01
      21    -1     0     0   512   502  0.000000000E+00  0.000000000E+00  2.973548838E+01  2.973548838E+01  0.000000000E+00  0.00000E+00  9.000E+00
       2    -1     0     0   501     0  0.000000000E+00  0.000000000E+00 -2.610856745E+03  2.610856745E+03  0.000000000E+00  0.00000E+00  9.000E+00
      25     1     1     2     0     0 -3.955720791E+01  6.591600878E+01 -5.607052884E+02  5.795904505E+02  1.249999078E+02  0.00000E+00  9.000E+00
       5     1     1     2   501     0 -3.002544188E+00  9.971988916E-01 -4.531133728E+01  4.566934928E+01  4.750000000E+00  0.00000E+00  9.000E+00
      -5     1     1     2     0   502 -1.271021293E+02  9.790167026E+01 -6.692272501E+02  6.882059017E+02  4.750000000E+00  0.00000E+00  9.000E+00
       2     1     1     2   512     0  1.696618814E+02 -1.648148779E+02 -1.305877381E+03  1.327126532E+03  2.157918644E-05  0.00000E+00  9.000E+00
#rwgt            1           3  0.29326883530549602               10      754128           0
</event>
<event>
      6   9999  3.45752E-01  1.00834E+01 -1.00000E+00  1.86815E-01
      -1    -1     0     0     0   502  0.000000000E+00  0.000000000E+00  1.406774156E+02  1.406774156E+02  0.000000000E+00  0.00000E+00  9.000E+00
      21    -1     0     0   502   503  0.000000000E+00  0.000000000E+00 -1.863339246E+02  1.863339246E+02  0.000000000E+00  0.00000E+00  9.000E+00
      25     1     1     2     0     0  9.569158591E+00 -3.472685328E+00 -1.311316781E+02  1.814475467E+02  1.249962674E+02  0.00000E+00  9.000E+00
       5     1     1     2   501     0  3.090592518E-01 -1.972724825E-01 -4.354963112E+00  6.454660159E+00  4.750000000E+00  0.00000E+00  9.000E+00
      -5     1     1     2     0   503 -1.894286912E+00 -2.488886978E+00 -2.408562105E+01  2.474798018E+01  4.750000000E+00  0.00000E+00  9.000E+00
      -1     1     1     2     0   501 -7.983930930E+00  6.158844788E+00  1.139157532E+02  1.143611531E+02  2.697398305E-06  0.00000E+00  9.000E+00
#rwgt            1           9   7.5075249914959875E-004          10      754381           0
</event>
<event>
      6   9999  3.45752E-01  3.38895E+00 -1.00000E+00  2.63759E-01
      21    -1     0     0   502   503  0.000000000E+00  0.000000000E+00  7.937962866E+00  7.937962866E+00  0.000000000E+00  0.00000E+00  9.000E+00
      21    -1     0     0   501   511  0.000000000E+00  0.000000000E+00 -1.015340067E+03  1.015340067E+03  0.000000000E+00  0.00000E+00  9.000E+00
      25     1     1     2     0     0 -4.572771701E+00 -5.112517150E+00 -5.135494552E+02  5.285782433E+02  1.249594663E+02  0.00000E+00  9.000E+00
       5     1     1     2   501     0  7.516373614E+00  5.600833160E+00 -1.879399116E+02  1.882334669E+02  4.750000000E+00  0.00000E+00  9.000E+00
      -5     1     1     2     0   503  4.071301754E-01  1.923321940E-02 -2.103770831E+01  2.157113339E+01  4.750000000E+00  0.00000E+00  9.000E+00
      21     1     1     2   502   511 -3.350732088E+00 -5.075492289E-01 -2.848750286E+02  2.848951858E+02  0.000000000E+00  0.00000E+00  9.000E+00
#rwgt            1           9   1.9547265395399796E-006          10      756316           0
</event>
<event>
      6   9999  3.45752E-01  1.81066E+01 -1.00000E+00  1.63579E-01
      21    -1     0     0   501   512  0.000000000E+00  0.000000000E+00  7.896914066E+02  7.896914066E+02  0.000000000E+00  0.00000E+00  9.000E+00
      21    -1     0     0   502   503  0.000000000E+00  0.000000000E+00 -1.637289565E+02  1.637289565E+02  0.000000000E+00  0.00000E+00  9.000E+00
      25     1     1     2     0     0 -1.978996178E+01 -1.906142834E+01 -1.244761611E+02  1.785326665E+02  1.249984707E+02  0.00000E+00  9.000E+00
       5     1     1     2   501     0 -1.876377638E+01 -4.185859864E+00  6.675448630E+02  6.678385339E+02  4.750000000E+00  0.00000E+00  9.000E+00
      -5     1     1     2     0   503  2.546164362E+01  3.575519393E+01  3.662771339E+01  5.736620152E+01  4.750000000E+00  0.00000E+00  9.000E+00
      21     1     1     2   502   512  1.309209453E+01 -1.250790572E+01  4.626603490E+01  4.968296117E+01  0.000000000E+00  0.00000E+00  9.000E+00
#rwgt            1           9   1.2899985897018226E-004          10      761370           0
</event>
<event>
      6   9999  3.45752E-01  7.66928E+00 -1.00000E+00  2.00211E-01
      21    -1     0     0   501   502  0.000000000E+00  0.000000000E+00  1.479492216E+02  1.479492216E+02  0.000000000E+00  0.00000E+00  9.000E+00
      21    -1     0     0   511   503  0.000000000E+00  0.000000000E+00 -7.400469708E+01  7.400469708E+01  0.000000000E+00  0.00000E+00  9.000E+00
      25     1     1     2     0     0 -5.001010646E+00  3.444804927E+01  3.470689194E+01  1.343170389E+02  1.249992816E+02  0.00000E+00  9.000E+00
       5     1     1     2   501     0 -1.723253172E+00 -1.181075843E+00  3.595235895E+01  3.632491095E+01  4.750000000E+00  0.00000E+00  9.000E+00
      -5     1     1     2     0   503  2.272355052E+00 -3.951183787E+01  1.002458696E+01  4.110235727E+01  4.750000000E+00  0.00000E+00  9.000E+00
      21     1     1     2   511   502  4.451908766E+00  6.244864446E+00 -6.739313318E+00  1.020961153E+01  8.429369702E-08  0.00000E+00  9.000E+00
#rwgt            1           9   4.8960257162148169E-005          10      764442           0
</event>
<event>
      6   9999  3.45752E-01  6.58456E+00 -1.00000E+00  2.08584E-01
      21    -1     0     0   501   502  0.000000000E+00  0.000000000E+00  1.886711957E+01  1.886711957E+01  0.000000000E+00  0.00000E+00  9.000E+00
      21    -1     0     0   512   503  0.000000000E+00  0.000000000E+00 -1.001771460E+03  1.001771460E+03  0.000000000E+00  0.00000E+00  9.000E+00
      25     1     1     2     0     0  3.212218653E+01  4.904839870E-01 -8.720510339E+02  8.815503802E+02  1.250039668E+02  0.00000E+00  9.000E+00
       5     1     1     2   501     0 -2.788494731E+00  1.612519421E+00  8.450136270E+00  1.021485314E+01  4.750000000E+00  0.00000E+00  9.000E+00
      -5     1     1     2     0   503 -3.287247368E+01 -7.655787259E+00 -5.843092571E+01  6.764574032E+01  4.750000000E+00  0.00000E+00  9.000E+00
      21     1     1     2   512   502  3.538781885E+00  5.552783851E+00 -6.087251705E+01  6.122760585E+01  0.000000000E+00  0.00000E+00  9.000E+00
#rwgt            1           9   6.0191736455235323E-005          10      767602           0
</event>
<event>
      6   9999  3.45752E-01  5.69049E+00 -1.00000E+00  2.17313E-01
      21    -1     0     0   501   502  0.000000000E+00  0.000000000E+00  1.676568020E+01  1.676568020E+01  0.000000000E+00  0.00000E+00  9.000E+00
      21    -1     0     0   511   503  0.000000000E+00  0.000000000E+00 -8.857683079E+02  8.857683079E+02  0.000000000E+00  0.00000E+00  9.000E+00
      25     1     1     2     0     0 -2.883132988E+01  1.281866561E+01 -3.701178933E+02  3.919282939E+02  1.249998756E+02  0.00000E+00  9.000E+00
       5     1     1     2   501     0 -6.067968167E+00 -1.137532300E+01 -4.279324155E+00  1.439073752E+01  4.750000000E+00  0.00000E+00  9.000E+00
      -5     1     1     2     0   503  3.132940483E+01  2.988082354E+00 -4.636284261E+02  4.647196362E+02  4.750000000E+00  0.00000E+00  9.000E+00
      21     1     1     2   511   502  3.569893210E+00 -4.431424968E+00 -3.097698408E+01  3.149532040E+01  4.768371582E-07  0.00000E+00  9.000E+00
#rwgt            1           9   1.6963915338334490               10      771402           0
</event>
<event>
      6   9999 -3.45752E-01  1.06233E+01 -1.00000E+00  1.84470E-01
      21    -1     0     0   501   502  0.000000000E+00  0.000000000E+00  1.961145891E+01  1.961145891E+01  0.000000000E+00  0.00000E+00  9.000E+00
      21    -1     0     0   512   503  0.000000000E+00  0.000000000E+00 -3.020902849E+02  3.020902849E+02  0.000000000E+00  0.00000E+00  9.000E+00
      25     1     1     2     0     0  1.159991472E+01  5.188067643E+00 -2.259370131E+02  2.585228207E+02  1.250001635E+02  0.00000E+00  9.000E+00
       5     1     1     2   501     0  6.622947827E-01  7.024873684E-01 -6.148468349E-01  4.885965566E+00  4.750000000E+00  0.00000E+00  9.000E+00
      -5     1     1     2     0   503 -3.167774374E+00 -4.000685982E-01 -2.262098296E+01  2.333379994E+01  4.750000000E+00  0.00000E+00  9.000E+00
      21     1     1     2   512   502 -9.094435133E+00 -5.490486414E+00 -3.330598314E+01  3.495915766E+01  0.000000000E+00  0.00000E+00  9.000E+00
#rwgt            1           9  -6.2088271379792108E-002          10      775523           0
</event>
<event>
      6   9999  3.45752E-01  1.48206E+01 -1.00000E+00  1.70825E-01
       3    -1     0     0   502     0  0.000000000E+00  0.000000000E+00  1.462754146E+01  1.462754146E+01  0.000000000E+00  0.00000E+00  9.000E+00
      21    -1     0     0   501   502  0.000000000E+00  0.000000000E+00 -2.926101461E+03  2.926101461E+03  0.000000000E+00  0.00000E+00  9.000E+00
      25     1     1     2     0     0  7.113501652E+00 -2.717611787E+01 -2.413947283E+03  2.417344645E+03  1.249980031E+02  0.00000E+00  9.000E+00
       5     1     1     2   501     0 -5.383272931E+00  1.691307124E+01 -2.040048820E+02  2.048306276E+02  4.750000000E+00  0.00000E+00  9.000E+00
      -5     1     1     2     0   503 -1.652194942E+01  1.118789533E+01 -3.011757504E+02  3.018733823E+02  4.750000000E+00  0.00000E+00  9.000E+00
       3     1     1     2   503     0  1.479172070E+01 -9.248487050E-01  7.653996299E+00  1.668034789E+01  2.525999558E-06  0.00000E+00  9.000E+00
#rwgt            1           9   5.9948772043472009E-005          10      777341           0
</event>
<event>
      5   9999  3.45752E-01  8.94427E-01 -1.00000E+00  1.20288E-01
       4    -1     0     0   501     0  0.000000000E+00  0.000000000E+00  1.116812980E+01  1.116812980E+01  1.105501472E-06  0.00000E+00  9.000E+00
      -4    -1     0     0     0   502  0.000000000E+00  0.000000000E+00 -8.223047041E+02  8.223047041E+02  1.525878906E-05  0.00000E+00  9.000E+00
      25     1     1     2     0     0  5.902737380E-01  8.769152756E-01 -7.994983250E+02  8.092125814E+02  1.250052509E+02  0.00000E+00  9.000E+00
       5     1     1     2   501     0  1.256777598E+00 -4.205689941E+00  3.913603831E+00  7.559504796E+00  4.750000000E+00  0.00000E+00  9.000E+00
      -5     1     1     2     0   502 -1.847051336E+00  3.328774666E+00 -1.555185314E+01  1.670074776E+01  4.750000000E+00  0.00000E+00  9.000E+00
#rwgt            1           6   1.7433344260871001E-005          10      778894           0
</event>
<event>
      6   9999  3.45752E-01  2.43909E+01 -1.00000E+00  1.53898E-01
      21    -1     0     0   511   502  0.000000000E+00  0.000000000E+00  1.318529664E+01  1.318529664E+01  0.000000000E+00  0.00000E+00  9.000E+00
      21    -1     0     0   502   503  0.000000000E+00  0.000000000E+00 -8.257709413E+02  8.257709413E+02  0.000000000E+00  0.00000E+00  9.000E+00
      25     1     1     2     0     0  4.466102000E+01  2.876863498E+01 -5.936884170E+02  6.090271274E+02  1.250034573E+02  0.00000E+00  9.000E+00
       5     1     1     2   501     0  1.759841065E+00 -3.203451551E-01 -1.737078977E+01  1.809714063E+01  4.750000000E+00  0.00000E+00  9.000E+00
      -5     1     1     2     0   503 -2.265419033E+01 -2.296530303E+01 -1.630322527E+02  1.662609257E+02  4.750000000E+00  0.00000E+00  9.000E+00
      21     1     1     2   511   501 -2.376667074E+01 -5.482986801E+00 -3.849418517E+01  4.557104425E+01  6.743495762E-07  0.00000E+00  9.000E+00
#rwgt            1           9  0.16180300397839120               10      779379           0
</event>
<event>
      6   9999  3.45752E-01  3.59035E+01 -1.00000E+00  1.42963E-01
      21    -1     0     0   502   503  0.000000000E+00  0.000000000E+00  4.007197271E+01  4.007197271E+01  0.000000000E+00  0.00000E+00  9.000E+00
      21    -1     0     0   501   512  0.000000000E+00  0.000000000E+00 -1.364033371E+03  1.364033371E+03  0.000000000E+00  0.00000E+00  9.000E+00
      25     1     1     2     0     0  1.530072994E+02 -9.474167991E+00 -5.968849491E+02  6.288063515E+02  1.249991670E+02  0.00000E+00  9.000E+00
       5     1     1     2   501     0  4.346668292E+01 -3.618897962E+01 -8.496072209E+01  1.021757386E+02  4.750000000E+00  0.00000E+00  9.000E+00
      -5     1     1     2     0   503 -1.617007366E+02  3.672549618E+01 -5.174276071E+02  5.433689183E+02  4.750000000E+00  0.00000E+00  9.000E+00
      21     1     1     2   502   512 -3.477324578E+01  8.937651432E+00 -1.246881199E+02  1.297543351E+02  1.348699152E-06  0.00000E+00  9.000E+00
#rwgt            1           9  0.72842916676872971               10      780844           0
</event>
<event>
      6   9999  3.45752E-01  6.51160E+00 -1.00000E+00  2.09225E-01
      -1    -1     0     0     0   502  0.000000000E+00  0.000000000E+00  7.143004500E+00  7.143004500E+00  0.000000000E+00  0.00000E+00  9.000E+00
       1    -1     0     0   511     0  0.000000000E+00  0.000000000E+00 -4.140309024E+03  4.140309024E+03  0.000000000E+00  0.00000E+00  9.000E+00
      25     1     1     2     0     0 -2.588416897E+01  1.084848288E+02 -2.849666619E+03  2.854586408E+03  1.249990967E+02  0.00000E+00  9.000E+00
       5     1     1     2   501     0 -1.215650779E+01 -3.767769473E+01 -3.392483039E+02  3.415836114E+02  4.750000000E+00  0.00000E+00  9.000E+00
      -5     1     1     2     0   502  3.175311356E+01 -7.250051516E+01 -4.463373714E+02  4.533257069E+02  4.750000000E+00  0.00000E+00  9.000E+00
      21     1     1     2   511   501  6.287563201E+00  1.693381120E+00 -4.979137257E+02  4.979563025E+02  5.394796609E-06  0.00000E+00  9.000E+00
#rwgt            1           1   3.0757053561728746E-005          10      782530           0
</event>
<event>
      6   9999  3.45752E-01  8.86059E+00 -1.00000E+00  1.92903E-01
      21    -1     0     0   512   502  0.000000000E+00  0.000000000E+00  7.407032560E+00  7.407032560E+00  0.000000000E+00  0.00000E+00  9.000E+00
      21    -1     0     0   502   503  0.000000000E+00  0.000000000E+00 -7.281367965E+02  7.281367965E+02  0.000000000E+00  0.00000E+00  9.000E+00
      25     1     1     2     0     0 -5.883599385E+00 -3.452879711E+00 -6.154292112E+02  6.280318337E+02  1.249973241E+02  0.00000E+00  9.000E+00
       5     1     1     2   501     0 -3.861972617E-01 -4.674138899E-04 -3.046877412E+01  3.083922575E+01  4.750000000E+00  0.00000E+00  9.000E+00
      -5     1     1     2     0   503  3.173258301E+00 -4.848554456E+00 -4.216932573E+01  4.282980949E+01  4.750000000E+00  0.00000E+00  9.000E+00
      21     1     1     2   512   501  3.096538346E+00  8.301901580E+00 -3.266245289E+01  3.384296010E+01  4.768371582E-07  0.00000E+00  9.000E+00
#rwgt            1           9   2.3386040762056606E-002          10      783106           0
</event>
<event>
      6   9999  3.45752E-01  4.24385E+01 -1.00000E+00  1.38711E-01
      -3    -1     0     0     0   502  0.000000000E+00  0.000000000E+00  3.058419015E+02  3.058419015E+02  0.000000000E+00  0.00000E+00  9.000E+00
      21    -1     0     0   502   503  0.000000000E+00  0.000000000E+00 -1.595912198E+03  1.595912198E+03  0.000000000E+00  0.00000E+00  9.000E+00
      25     1     1     2     0     0 -3.655984926E+00 -1.329644427E+01 -1.532335614E+03  1.537488319E+03  1.250109404E+02  0.00000E+00  9.000E+00
       5     1     1     2   501     0 -1.982605686E+01  3.535739311E+01  1.009199191E+02  1.088605087E+02  4.750000000E+00  0.00000E+00  9.000E+00
      -5     1     1     2     0   503 -3.304526500E+00  1.085576188E+01 -5.406130246E+01  5.544325373E+01  4.750000000E+00  0.00000E+00  9.000E+00
      -3     1     1     2     0   501  2.678656828E+01 -3.291671072E+01  1.954067007E+02  1.999620183E+02  4.672030912E-06  0.00000E+00  9.000E+00
#rwgt            1           9   2.0214423615418721E-004          10      785666           0
</event>
<event>
      6   9999  3.45752E-01  1.89025E+00 -1.00000E+00  3.42667E-01
      21    -1     0     0   501   502  0.000000000E+00  0.000000000E+00  2.696920836E+01  2.696920836E+01  0.000000000E+00  0.00000E+00  9.000E+00
      21    -1     0     0   511   503  0.000000000E+00  0.000000000E+00 -1.097571216E+03  1.097571216E+03  0.000000000E+00  0.00000E+00  9.000E+00
      25     1     1     2     0     0  1.564459099E+00  7.868516625E+00 -1.028190495E+03  1.035791950E+03  1.249996391E+02  0.00000E+00  9.000E+00
       5     1     1     2   501     0 -1.335582987E+00 -8.138761825E+00  2.198582210E+01  2.395750612E+01  4.750000000E+00  0.00000E+00  9.000E+00
      -5     1     1     2     0   503  4.091095961E-01 -1.509081266E+00 -5.327169986E+01  5.350589876E+01  4.750000000E+00  0.00000E+00  9.000E+00
      21     1     1     2   511   502 -6.379857086E-01  1.779326465E+00 -1.112563520E+01  1.128506921E+01  1.685873940E-07  0.00000E+00  9.000E+00
#rwgt            1           9   3.4012453879581901E-005          10      787648           0
</event>
<event>
      6   9999  3.45752E-01  2.71586E+01 -1.00000E+00  1.50689E-01
      21    -1     0     0   512   502  0.000000000E+00  0.000000000E+00  4.824001965E+01  4.824001965E+01  0.000000000E+00  0.00000E+00  9.000E+00
      21    -1     0     0   502   503  0.000000000E+00  0.000000000E+00 -1.340820524E+03  1.340820524E+03  0.000000000E+00  0.00000E+00  9.000E+00
      25     1     1     2     0     0  3.045957580E+01  4.162051883E+01 -6.099265215E+02  6.247389671E+02  1.250134475E+02  0.00000E+00  9.000E+00
       5     1     1     2   501     0  3.766015607E-01  8.311470295E-01  3.706980067E+01  3.738402407E+01  4.750000000E+00  0.00000E+00  9.000E+00
      -5     1     1     2     0   503 -2.172673028E+01 -1.686639985E+01 -6.674169941E+02  6.680003988E+02  4.750000000E+00  0.00000E+00  9.000E+00
      21     1     1     2   512   501 -9.109447079E+00 -2.558526601E+01 -5.230678921E+01  5.893715348E+01  6.743495762E-07  0.00000E+00  9.000E+00
#rwgt            1           9   9.2402924712913610E-005          10      797994           0
</event>
<event>
      6   9999  3.45752E-01  3.02187E+01 -1.00000E+00  1.47634E-01
      21    -1     0     0   501   502  0.000000000E+00  0.000000000E+00  1.080994622E+01  1.080994622E+01  0.000000000E+00  0.00000E+00  9.000E+00
       2    -1     0     0   502     0  0.000000000E+00  0.000000000E+00 -3.058851758E+03  3.058851758E+03  0.000000000E+00  0.00000E+00  9.000E+00
      25     1     1     2     0     0  5.194154419E+01 -8.735553552E+00 -6.761679037E+02  6.896397943E+02  1.250031119E+02  0.00000E+00  9.000E+00
       5     1     1     2   501     0  7.598692605E-01 -2.873409431E+00 -3.315560570E+00  6.510708483E+00  4.750000000E+00  0.00000E+00  9.000E+00
      -5     1     1     2     0   503 -4.156512315E+01 -1.648294421E+01 -2.108544138E+02  2.155956707E+02  4.750000000E+00  0.00000E+00  9.000E+00
       2     1     1     2   503     0 -1.113629030E+01  2.809190719E+01 -2.157703933E+03  2.157915530E+03  3.051757812E-05  0.00000E+00  9.000E+00
#rwgt            1           9   2.9091579425805951E-003          10      799964           0
</event>
<event>
      6   9999  3.45752E-01  1.81940E+01 -1.00000E+00  1.63412E-01
      21    -1     0     0   501   511  0.000000000E+00  0.000000000E+00  1.748767983E+02  1.748767983E+02  0.000000000E+00  0.00000E+00  9.000E+00
      21    -1     0     0   502   503  0.000000000E+00  0.000000000E+00 -1.266789011E+03  1.266789011E+03  0.000000000E+00  0.00000E+00  9.000E+00
      25     1     1     2     0     0  2.906539901E+00 -7.191423156E-02 -1.215724004E+03  1.222136973E+03  1.250018903E+02  0.00000E+00  9.000E+00
       5     1     1     2   501     0 -1.294538429E+01 -8.665239358E+00  3.664694871E+01  4.010275174E+01  4.750000000E+00  0.00000E+00  9.000E+00
      -5     1     1     2     0   503 -1.894205391E-01 -6.309580205E+00 -4.516533165E+01  4.585102360E+01  4.750000000E+00  0.00000E+00  9.000E+00
      21     1     1     2   502   511  1.022826493E+01  1.504673379E+01  1.323301750E+02  1.335750606E+02  5.722045898E-06  0.00000E+00  9.000E+00
#rwgt            1           9   2.6878558890616793E-004          10      801017           0
</event>
<event>
      6   9999  3.45752E-01  8.72026E+00 -1.00000E+00  1.93684E-01
      21    -1     0     0   502   512  0.000000000E+00  0.000000000E+00  7.957913498E+01  7.957913498E+01  0.000000000E+00  0.00000E+00  9.000E+00
      21    -1     0     0   501   502  0.000000000E+00  0.000000000E+00 -7.049003332E+02  7.049003332E+02  0.000000000E+00  0.00000E+00  9.000E+00
      25     1     1     2     0     0  3.344813741E+00  3.288301659E+00 -5.654140376E+02  5.790845710E+02  1.249956231E+02  0.00000E+00  9.000E+00
       5     1     1     2   501     0  1.012490141E+00  1.436962492E+00 -6.333052760E+01  6.353273348E+01  4.750000000E+00  0.00000E+00  9.000E+00
      -5     1     1     2     0   503 -3.199488923E+00  3.917792487E+00 -6.878250713E+01  6.913162529E+01  4.750000000E+00  0.00000E+00  9.000E+00
      21     1     1     2   503   512 -1.157814959E+00 -8.643056638E+00  7.220587409E+01  7.273053840E+01  2.132480600E-06  0.00000E+00  9.000E+00
#rwgt            1           9   4.7411002454667808E-004          10      803551           0
</event>
<event>
      6   9999  3.45752E-01  1.54973E+01 -1.00000E+00  1.69153E-01
      21    -1     0     0   511   503  0.000000000E+00  0.000000000E+00  2.517391243E+03  2.517391243E+03  0.000000000E+00  0.00000E+00  9.000E+00
      21    -1     0     0   501   502  0.000000000E+00  0.000000000E+00 -2.379465365E+03  2.379465365E+03  0.000000000E+00  0.00000E+00  9.000E+00
      25     1     1     2     0     0  4.093324506E+01  3.691923469E+01 -1.798322633E+03  1.803504393E+03  1.250009745E+02  0.00000E+00  9.000E+00
       5     1     1     2   501     0 -5.925801542E+00 -1.780945109E+01 -4.849387179E+02  4.853250604E+02  4.750000000E+00  0.00000E+00  9.000E+00
      -5     1     1     2     0   503 -3.042150927E+01 -3.391304068E+01 -8.777982715E+01  9.901223717E+01  4.750000000E+00  0.00000E+00  9.000E+00
      21     1     1     2   511   502 -4.585934247E+00  1.480325708E+01  2.508967056E+03  2.509014917E+03  3.051757812E-05  0.00000E+00  9.000E+00
#rwgt            1           9   2877.6433273856665               10      806451           0
</event>
<event>
      6   9999  3.45752E-01  7.63598E+01 -1.00000E+00  1.25632E-01
      21    -1     0     0   502   512  0.000000000E+00  0.000000000E+00  3.662368019E+01  3.662368019E+01  0.000000000E+00  0.00000E+00  9.000E+00
      21    -1     0     0   501   502  0.000000000E+00  0.000000000E+00 -1.113638450E+03  1.113638450E+03  0.000000000E+00  0.00000E+00  9.000E+00
      25     1     1     2     0     0  5.793291076E+01 -6.148158837E+00 -2.479281897E+02  2.837021016E+02  1.249978928E+02  0.00000E+00  9.000E+00
       5     1     1     2   501     0 -3.378026579E+00 -1.913780957E+01 -6.496847553E+02  6.499927005E+02  4.750000000E+00  0.00000E+00  9.000E+00
      -5     1     1     2     0   503  2.180225570E+01  2.465064843E+01 -1.042699358E+02  1.094430210E+02  4.750000000E+00  0.00000E+00  9.000E+00
      21     1     1     2   503   512 -7.635713987E+01  6.353199826E-01 -7.513188882E+01  1.071243070E+02  2.336015456E-06  0.00000E+00  9.000E+00
#rwgt            1           9   5.8515101615489796E-004          10      808574           0
</event>
<event>
      6   9999  3.45752E-01  3.52050E+00 -1.00000E+00  2.59917E-01
      21    -1     0     0   501   511  0.000000000E+00  0.000000000E+00  1.364833179E+01  1.364833179E+01  0.000000000E+00  0.00000E+00  9.000E+00
      21    -1     0     0   502   503  0.000000000E+00  0.000000000E+00 -8.657018128E+02  8.657018128E+02  0.000000000E+00  0.00000E+00  9.000E+00
      25     1     1     2     0     0  8.249705393E-01  4.313341409E+01 -4.475791162E+02  4.667063186E+02  1.250062022E+02  0.00000E+00  9.000E+00
       5     1     1     2   501     0  8.946309709E-01 -1.737714916E-01 -4.175948132E-01  4.854631452E+00  4.750000000E+00  0.00000E+00  9.000E+00
      -5     1     1     2     0   503 -1.435516286E+00 -4.646866472E+01 -3.983640161E+02  4.010958107E+02  4.750000000E+00  0.00000E+00  9.000E+00
      21     1     1     2   502   511 -2.840852242E-01  3.509022126E+00 -5.692753944E+00  6.693383909E+00  8.429369702E-08  0.00000E+00  9.000E+00
#rwgt            1           9   5.2201987036329077E-005          10      809616           0
</event>
<event>
      6   9999  3.45752E-01  8.37946E+00 -1.00000E+00  1.95662E-01
      -4    -1     0     0     0   502  0.000000000E+00  0.000000000E+00  1.951196346E+02  1.951196346E+02  0.000000000E+00  0.00000E+00  9.000E+00
      21    -1     0     0   502   503  0.000000000E+00  0.000000000E+00 -8.277937468E+02  8.277937468E+02  0.000000000E+00  0.00000E+00  9.000E+00
      25     1     1     2     0     0  1.552344123E+01  1.758424011E-01 -4.853073704E+02  5.013854871E+02  1.249926188E+02  0.00000E+00  9.000E+00
       5     1     1     2   501     0  1.673281976E+00 -8.895783498E-01 -1.844614330E-01  5.117396626E+00  4.750000000E+00  0.00000E+00  9.000E+00
      -5     1     1     2     0   503 -1.229672527E+01 -6.083711411E+00 -3.315423578E+02  3.318600888E+02  4.750000000E+00  0.00000E+00  9.000E+00
      -4     1     1     2     0   501 -4.899997940E+00  6.797447359E+00  1.843600774E+02  1.845504089E+02  3.814697266E-06  0.00000E+00  9.000E+00
#rwgt            1           9   6.8898108368203490E-004          10      816071           0
</event>
<event>
      6   9999 -3.45752E-01  1.03345E+01 -1.00000E+00  1.85701E-01
      21    -1     0     0   501   511  0.000000000E+00  0.000000000E+00  1.733151182E+02  1.733151182E+02  0.000000000E+00  0.00000E+00  9.000E+00
      21    -1     0     0   502   503  0.000000000E+00  0.000000000E+00 -1.088999424E+03  1.088999424E+03  0.000000000E+00  0.00000E+00  9.000E+00
      25     1     1     2     0     0 -6.874272288E+00  5.353179149E-01 -9.783004599E+02  9.862778778E+02  1.249988804E+02  0.00000E+00  9.000E+00
       5     1     1     2   501     0  1.422104219E+00 -8.207908745E+00  2.201021548E+01  2.400842002E+01  4.750000000E+00  0.00000E+00  9.000E+00
      -5     1     1     2     0   503 -2.597740885E+00  1.191774811E+00 -1.054557754E+02  1.056013809E+02  4.750000000E+00  0.00000E+00  9.000E+00
      21     1     1     2   502   511  8.049908954E+00  6.480816019E+00  1.460617141E+02  1.464268634E+02  3.303624740E-06  0.00000E+00  9.000E+00
#rwgt            1           9  -9.5410763513455147E-005          10      819113           0
</event>
<event>
      6   9999  3.45752E-01  1.66577E+01 -1.00000E+00  1.66518E-01
      21    -1     0     0   501   502  0.000000000E+00  0.000000000E+00  9.067060106E+01  9.067060106E+01  0.000000000E+00  0.00000E+00  9.000E+00
      21    -1     0     0   502   512  0.000000000E+00  0.000000000E+00 -1.794361795E+03  1.794361795E+03  0.000000000E+00  0.00000E+00  9.000E+00
      25     1     1     2     0     0 -1.940359031E+01  1.794550674E+01 -1.090688600E+03  1.098146767E+03  1.250046366E+02  0.00000E+00  9.000E+00
       5     1     1     2   501     0 -1.950160484E+01  1.107136018E+01  8.451774024E+01  8.757110553E+01  4.750000000E+00  0.00000E+00  9.000E+00
      -5     1     1     2     0   503  2.406582715E+01 -2.144912439E+01 -5.176216349E+02  5.186462652E+02  4.750000000E+00  0.00000E+00  9.000E+00
      21     1     1     2   503   512  1.483936800E+01 -7.567742532E+00 -1.798986996E+02  1.806682586E+02  2.697398305E-06  0.00000E+00  9.000E+00
#rwgt            1           9   4.2846762664017446E-004          10      823150           0
</event>
<event>
      6   9999  3.45752E-01  2.84557E+01 -1.00000E+00  1.49338E-01
      21    -1     0     0   501   502  0.000000000E+00  0.000000000E+00  1.412884963E+02  1.412884963E+02  0.000000000E+00  0.00000E+00  9.000E+00
      21    -1     0     0   511   503  0.000000000E+00  0.000000000E+00 -8.692503156E+01  8.692503156E+01  0.000000000E+00  0.00000E+00  9.000E+00
      25     1     1     2     0     0 -3.906127811E+01 -8.657833499E+00  6.368100934E+01  1.458781076E+02  1.249976392E+02  0.00000E+00  9.000E+00
       5     1     1     2   501     0 -1.482359798E+00 -7.641305647E-01  1.747656750E+01  1.818719873E+01  4.750000000E+00  0.00000E+00  9.000E+00
      -5     1     1     2     0   503  1.500723799E+01 -3.132579498E+00  9.016116002E+00  1.840877764E+01  4.750000000E+00  0.00000E+00  9.000E+00
      21     1     1     2   511   502  2.553639991E+01  1.255454356E+01 -3.581022814E+01  4.573944386E+01  0.000000000E+00  0.00000E+00  9.000E+00
#rwgt            1           9   7.8041587443987356E-002          10      826682           0
</event>
<event>
      6   9999 -3.45752E-01  7.42346E+00 -1.00000E+00  2.01941E-01
      21    -1     0     0   501   502  0.000000000E+00  0.000000000E+00  3.018635900E+01  3.018635900E+01  0.000000000E+00  0.00000E+00  9.000E+00
      21    -1     0     0   512   503  0.000000000E+00  0.000000000E+00 -5.083458961E+02  5.083458961E+02  0.000000000E+00  0.00000E+00  9.000E+00
      25     1     1     2     0     0  2.566148682E+00  3.841355665E+00 -1.930360486E+02  2.300093090E+02  1.249800985E+02  0.00000E+00  9.000E+00
       5     1     1     2   501     0  3.724379981E-01  2.784991949E+00  1.009775985E+01  1.150748210E+01  4.750000000E+00  0.00000E+00  9.000E+00
      -5     1     1     2     0   503 -8.575660173E-01  4.994566624E-01 -6.080569998E+00  7.779505635E+00  4.750000000E+00  0.00000E+00  9.000E+00
      21     1     1     2   512   502 -2.081020663E+00 -7.125804277E+00 -2.891406784E+02  2.892359584E+02  0.000000000E+00  0.00000E+00  9.000E+00
#rwgt            1           9  -2.1475584410112155E-002          10      827755           0
</event>
<event>
      6   9999  3.45752E-01  2.52504E+01 -1.00000E+00  1.52849E-01
      21    -1     0     0   501   511  0.000000000E+00  0.000000000E+00  1.673140149E+01  1.673140149E+01  0.000000000E+00  0.00000E+00  9.000E+00
      21    -1     0     0   502   503  0.000000000E+00  0.000000000E+00 -8.592403521E+02  8.592403521E+02  0.000000000E+00  0.00000E+00  9.000E+00
      25     1     1     2     0     0  3.927979545E+00  1.846315995E+00 -5.337260041E+02  5.481871399E+02  1.250074199E+02  0.00000E+00  9.000E+00
       5     1     1     2   501     0  5.736392012E+00  1.222077101E+01 -1.328221942E+01  1.952519629E+01  4.750000000E+00  0.00000E+00  9.000E+00
      -5     1     1     2     0   503  3.436642379E+00 -3.565284284E+01 -2.698772780E+02  2.722852244E+02  4.750000000E+00  0.00000E+00  9.000E+00
      21     1     1     2   502   511 -1.310101394E+01  2.158575583E+01 -2.562344911E+01  3.597419305E+01  0.000000000E+00  0.00000E+00  9.000E+00
#rwgt            1           9  0.28729018955784486               10      830831           0
</event>
<event>
      6   9999  3.45752E-01  4.29571E+00 -1.00000E+00  2.41609E-01
      21    -1     0     0   501   502  0.000000000E+00  0.000000000E+00  4.002238857E+00  4.002238857E+00  0.000000000E+00  0.00000E+00  9.000E+00
       2    -1     0     0   502     0  0.000000000E+00  0.000000000E+00 -2.527705623E+03  2.527705623E+03  0.000000000E+00  0.00000E+00  9.000E+00
      25     1     1     2     0     0  5.062611781E-01  4.771954482E+00 -1.805787469E+03  1.810114282E+03  1.249892066E+02  0.00000E+00  9.000E+00
       5     1     1     2   501     0  1.615842112E+00 -9.002669272E-01 -2.107960137E+00  5.516105710E+00  4.750000000E+00  0.00000E+00  9.000E+00
      -5     1     1     2     0   503  6.709919944E-01 -6.079810699E-01 -4.558489576E+01  4.584064891E+01  4.750000000E+00  0.00000E+00  9.000E+00
       2     1     1     2   503     0 -2.793095284E+00 -3.263706485E+00 -6.702230590E+02  6.702368252E+02  7.629394531E-06  0.00000E+00  9.000E+00
#rwgt            1           9   1.3368128172278383E-003          10      832088           0
</event>
<event>
      6   9999  3.45752E-01  9.08279E+00 -1.00000E+00  1.91705E-01
      21    -1     0     0   501   511  0.000000000E+00  0.000000000E+00  1.017573837E+01  1.017573837E+01  0.000000000E+00  0.00000E+00  9.000E+00
      21    -1     0     0   502   503  0.000000000E+00  0.000000000E+00 -7.868335234E+02  7.868335234E+02  0.000000000E+00  0.00000E+00  9.000E+00
      25     1     1     2     0     0  8.149531752E+00 -3.072848409E+00 -6.564316737E+02  6.682851391E+02  1.250065105E+02  0.00000E+00  9.000E+00
       5     1     1     2   501     0  8.873899784E-01 -1.680360167E+00  7.150629429E-01  5.165741600E+00  4.750000000E+00  0.00000E+00  9.000E+00
      -5     1     1     2     0   503 -8.386669342E+00 -4.306280012E+00 -1.020774921E+02  1.026219136E+02  4.750000000E+00  0.00000E+00  9.000E+00
      21     1     1     2   502   511 -6.502523883E-01  9.059488588E+00 -1.886368229E+01  2.093646750E+01  3.371747881E-07  0.00000E+00  9.000E+00
#rwgt            1           9   7.1333876455239480E-004          10      836225           0
</event>
<event>
      6   9999 -3.45752E-01  4.73943E+00 -1.00000E+00  2.33528E-01
      -1    -1     0     0     0   502  0.000000000E+00  0.000000000E+00  3.946317525E+02  3.946317525E+02  0.000000000E+00  0.00000E+00  9.000E+00
      21    -1     0     0   502   503  0.000000000E+00  0.000000000E+00 -1.212616708E+03  1.212616708E+03  0.000000000E+00  0.00000E+00  9.000E+00
      25     1     1     2     0     0  4.236142925E+01  9.283773751E+01 -7.745738332E+02  7.912064230E+02  1.250185769E+02  0.00000E+00  9.000E+00
       5     1     1     2   501     0 -1.680540844E+00  2.466698305E+00  2.283520920E+01  2.351421054E+01  4.750000000E+00  0.00000E+00  9.000E+00
      -5     1     1     2     0   503 -4.482509884E+01 -9.300492334E+01 -4.231519234E+02  4.355907690E+02  4.750000000E+00  0.00000E+00  9.000E+00
      -1     1     1     2     0   501  4.144210434E+00 -2.299512473E+00  3.569055916E+02  3.569370582E+02  7.629394531E-06  0.00000E+00  9.000E+00
#rwgt            1           9 -0.68126389999418946               10      838634           0
</event>
<event>
      6   9999  3.45752E-01  3.51382E+00 -1.00000E+00  2.60106E-01
      21    -1     0     0   501   502  0.000000000E+00  0.000000000E+00  2.035264095E+01  2.035264095E+01  0.000000000E+00  0.00000E+00  9.000E+00
      21    -1     0     0   502   511  0.000000000E+00  0.000000000E+00 -1.174518190E+03  1.174518190E+03  0.000000000E+00  0.00000E+00  9.000E+00
      25     1     1     2     0     0 -1.821247067E+00 -3.524967631E+00 -9.280006285E+02  9.363900200E+02  1.250014425E+02  0.00000E+00  9.000E+00
       5     1     1     2   501     0  6.314773062E+00  1.691280364E+00  1.501299308E+01  1.704961141E+01  4.750000000E+00  0.00000E+00  9.000E+00
      -5     1     1     2     0   503 -1.643801329E+00 -2.220354991E-01 -5.750613581E+01  5.772581344E+01  4.750000000E+00  0.00000E+00  9.000E+00
      21     1     1     2   503   511 -2.849724666E+00  2.055722766E+00 -1.836717781E+02  1.837053864E+02  2.697398305E-06  0.00000E+00  9.000E+00
#rwgt            1           9   3.7289031758253994E-005          10      844690           0
</event>
<event>
      6   9999  3.45752E-01  3.27995E+02 -1.00000E+00  1.01944E-01
      21    -1     0     0   512   502  0.000000000E+00  0.000000000E+00  9.410118984E+01  9.410118984E+01  0.000000000E+00  0.00000E+00  9.000E+00
      21    -1     0     0   502   503  0.000000000E+00  0.000000000E+00 -4.472340147E+03  4.472340147E+03  0.000000000E+00  0.00000E+00  9.000E+00
      25     1     1     2     0     0  1.101128366E+02 -1.288119152E+02 -2.412991610E+03  2.422162443E+03  1.250001733E+02  0.00000E+00  9.000E+00
       5     1     1     2   501     0  8.119166410E+01 -1.368323209E+02 -1.052731909E+02  1.908407126E+02  4.750000000E+00  0.00000E+00  9.000E+00
      -5     1     1     2     0   503  8.466909783E+00  5.505991237E+00 -1.330876111E+03  1.330922909E+03  4.750000000E+00  0.00000E+00  9.000E+00
      21     1     1     2   512   501 -1.997714104E+02  2.601382449E+02 -5.290980458E+02  6.225152728E+02  0.000000000E+00  0.00000E+00  9.000E+00
#rwgt            1           9   1.3250833469775985E-003          10      850645           0
</event>
<event>
      6   9999  3.45752E-01  1.42869E+01 -1.00000E+00  1.72225E-01
      21    -1     0     0   501   511  0.000000000E+00  0.000000000E+00  5.958970187E+01  5.958970187E+01  0.000000000E+00  0.00000E+00  9.000E+00
      21    -1     0     0   502   503  0.000000000E+00  0.000000000E+00 -1.110075334E+03  1.110075334E+03  0.000000000E+00  0.00000E+00  9.000E+00
      25     1     1     2     0     0 -3.021235151E+01  2.380989842E+01 -1.038587709E+03  1.046789842E+03  1.249993835E+02  0.00000E+00  9.000E+00
       5     1     1     2   501     0 -2.407819174E+00 -2.389513565E-01  2.522636707E+00  5.897532270E+00  4.750000000E+00  0.00000E+00  9.000E+00
      -5     1     1     2     0   503  2.011847122E+01 -3.048639756E+01 -5.933913850E+01  6.984174381E+01  4.750000000E+00  0.00000E+00  9.000E+00
      21     1     1     2   502   511  1.250169946E+01  6.915450501E+00  4.491857933E+01  4.713591746E+01  1.348699152E-06  0.00000E+00  9.000E+00
#rwgt            1           9   9.5022091664352784E-005          10      850849           0
</event>
<event>
      6   9999  3.45752E-01  8.10214E+00 -1.00000E+00  1.97365E-01
      21    -1     0     0   501   502  0.000000000E+00  0.000000000E+00  1.040143281E+01  1.040143281E+01  0.000000000E+00  0.00000E+00  9.000E+00
       2    -1     0     0   502     0  0.000000000E+00  0.000000000E+00 -1.251516987E+03  1.251516987E+03  0.000000000E+00  0.00000E+00  9.000E+00
      25     1     1     2     0     0  2.819957940E+01  1.308861243E+00 -6.740740738E+02  6.861461326E+02  1.249949158E+02  0.00000E+00  9.000E+00
       5     1     1     2   501     0 -6.254454142E-01 -1.227929078E+00 -1.713639404E+00  5.234314835E+00  4.750000000E+00  0.00000E+00  9.000E+00
      -5     1     1     2     0   503 -3.239432906E+01 -6.593263747E+00 -1.059629106E+02  1.111015959E+02  4.750000000E+00  0.00000E+00  9.000E+00
       2     1     1     2   503     0  4.820195068E+00  6.512331582E+00 -4.593649306E+02  4.594363766E+02  5.394796609E-06  0.00000E+00  9.000E+00
#rwgt            1           9   7.6193593979419078E-003          10      852894           0
</event>
<event>
      6   9999 -3.45752E-01  1.03142E+02 -1.00000E+00  1.19867E-01
      21    -1     0     0   502   503  0.000000000E+00  0.000000000E+00  5.420484917E+01  5.420484917E+01  0.000000000E+00  0.00000E+00  9.000E+00
       1    -1     0     0   501     0  0.000000000E+00  0.000000000E+00 -2.744602273E+03  2.744602273E+03  0.000000000E+00  0.00000E+00  9.000E+00
      25     1     1     2     0     0  8.384663931E+01 -8.771314148E+01 -9.331132035E+02  9.492074988E+02  1.247828955E+02  0.00000E+00  9.000E+00
       5     1     1     2   501     0 -1.078478046E+02  1.352313625E+02 -2.335942308E+02  2.907017330E+02  4.750000000E+00  0.00000E+00  9.000E+00
      -5     1     1     2     0   503 -7.313628644E+01 -1.283973241E+01 -7.196906538E+01  1.035175540E+02  4.750000000E+00  0.00000E+00  9.000E+00
       1     1     1     2   502     0  9.713745175E+01 -3.467848865E+01 -1.451720924E+03  1.455380336E+03  2.157918644E-05  0.00000E+00  9.000E+00
#rwgt            1           9  -2.4411682556675448E-004          10      855635           0
</event>
<event>
      6   9999  3.45752E-01  1.18800E+01 -1.00000E+00  1.79643E-01
      21    -1     0     0   501   502  0.000000000E+00  0.000000000E+00  1.424997929E+02  1.424997929E+02  0.000000000E+00  0.00000E+00  9.000E+00
       3    -1     0     0   502     0  0.000000000E+00  0.000000000E+00 -2.682858291E+02  2.682858291E+02  0.000000000E+00  0.00000E+00  9.000E+00
      25     1     1     2     0     0 -6.108884259E+00 -4.128276410E+00  7.458142614E+01  1.457372630E+02  1.249903979E+02  0.00000E+00  9.000E+00
       5     1     1     2   501     0 -6.970628785E-01 -1.228319162E+00  2.309728306E+01  2.362290518E+01  4.750000000E+00  0.00000E+00  9.000E+00
      -5     1     1     2     0   503 -2.298822076E+00 -2.274720567E+00  7.892809391E+00  9.763087456E+00  4.750000000E+00  0.00000E+00  9.000E+00
       3     1     1     2   503     0  9.104769214E+00  7.631316139E+00 -2.313575548E+02  2.316623663E+02  0.000000000E+00  0.00000E+00  9.000E+00
#rwgt            1           9   3.4204291851354209E-003          10      856402           0
</event>
<event>
      6   9999  3.45752E-01  8.68033E+00 -1.00000E+00  1.93909E-01
      21    -1     0     0   502   503  0.000000000E+00  0.000000000E+00  8.119567843E+00  8.119567843E+00  0.000000000E+00  0.00000E+00  9.000E+00
      21    -1     0     0   501   511  0.000000000E+00  0.000000000E+00 -8.348066268E+02  8.348066268E+02  0.000000000E+00  0.00000E+00  9.000E+00
      25     1     1     2     0     0  2.943501893E+00  9.012495749E+00 -5.048848679E+02  5.202149035E+02  1.249997068E+02  0.00000E+00  9.000E+00
       5     1     1     2   501     0  2.105558547E+00 -3.877436637E+00 -8.347876595E+01  8.373013051E+01  4.750000000E+00  0.00000E+00  9.000E+00
      -5     1     1     2     0   503  3.499294029E+00 -6.642946798E+00 -1.362130607E+02  1.365025062E+02  4.750000000E+00  0.00000E+00  9.000E+00
      21     1     1     2   502   511 -8.548354469E+00  1.507887686E+00 -1.021103645E+02  1.024786545E+02  1.348699152E-06  0.00000E+00  9.000E+00
#rwgt            1           9   7.7145525903056153E-004          10      858534           0
</event>
<event>
      6   9999  3.45752E-01  2.00070E+01 -1.00000E+00  1.60199E-01
      21    -1     0     0   501   502  0.000000000E+00  0.000000000E+00  6.352000512E+01  6.352000512E+01  0.000000000E+00  0.00000E+00  9.000E+00
      21    -1     0     0   502   512  0.000000000E+00  0.000000000E+00 -6.258544436E+02  6.258544436E+02  0.000000000E+00  0.00000E+00  9.000E+00
      25     1     1     2     0     0 -9.068204753E+00  2.044179917E+01 -4.500544358E+02  4.676255596E+02  1.249982773E+02  0.00000E+00  9.000E+00
       5     1     1     2   501     0  5.002965002E-02 -2.804845050E-01  5.292682882E+01  5.314031317E+01  4.750000000E+00  0.00000E+00  9.000E+00
      -5     1     1     2     0   503  6.790085886E+00 -2.787449333E-01 -1.556871613E+01  1.763888849E+01  4.750000000E+00  0.00000E+00  9.000E+00
      21     1     1     2   503   512  2.228089217E+00 -1.988256973E+01 -1.496381153E+02  1.509696874E+02  1.907348633E-06  0.00000E+00  9.000E+00
#rwgt            1           9   4.7467175358838678E-003          10      860883           0
</event>
<event>
      6   9999  3.45752E-01  5.05534E+00 -1.00000E+00  2.24975E-01
      21    -1     0     0   501   502  0.000000000E+00  0.000000000E+00  2.764372677E+02  2.764372677E+02  0.000000000E+00  0.00000E+00  9.000E+00
      21    -1     0     0   502   511  0.000000000E+00  0.000000000E+00 -1.427470054E+02  1.427470054E+02  0.000000000E+00  0.00000E+00  9.000E+00
      25     1     1     2     0     0  2.564795158E+00  1.358548630E+01 -6.191654321E+01  1.401859127E+02  1.250091524E+02  0.00000E+00  9.000E+00
       5     1     1     2   501     0 -4.675452374E+00 -3.737645269E+00  2.358420405E+02  2.359658035E+02  4.750000000E+00  0.00000E+00  9.000E+00
      -5     1     1     2     0   503  4.949126036E+00 -5.664588667E+00 -1.630422864E+01  1.857341608E+01  4.750000000E+00  0.00000E+00  9.000E+00
      21     1     1     2   503   511 -2.838468820E+00 -4.183252360E+00 -2.393100639E+01  2.445914087E+01  3.371747881E-07  0.00000E+00  9.000E+00
#rwgt            1           9   2.6908719902209125E-005          10      863525           0
</event>
<event>
      6   9999  3.45752E-01  1.30294E+01 -1.00000E+00  1.75849E-01
      21    -1     0     0   512   503  0.000000000E+00  0.000000000E+00  4.586805810E+01  4.586805810E+01  0.000000000E+00  0.00000E+00  9.000E+00
      21    -1     0     0   501   502  0.000000000E+00  0.000000000E+00 -7.297767092E+02  7.297767092E+02  0.000000000E+00  0.00000E+00  9.000E+00
      25     1     1     2     0     0 -3.399092556E+00  1.553661851E+01 -5.994341059E+02  6.125347802E+02  1.249986774E+02  0.00000E+00  9.000E+00
       5     1     1     2   501     0 -3.270139054E-01  1.632225020E+00 -7.746803261E+01  7.763137042E+01  4.750000000E+00  0.00000E+00  9.000E+00
      -5     1     1     2     0   503  1.211025959E+01 -7.195362993E+00 -4.390172272E+01  4.635035484E+01  4.750000000E+00  0.00000E+00  9.000E+00
      21     1     1     2   512   502 -8.384153127E+00 -9.973480537E+00  3.689521015E+01  3.912826178E+01  9.536743164E-07  0.00000E+00  9.000E+00
#rwgt            1           9   7.3603379661887555E-002          10      869152           0
</event>
<event>
      6   9999  3.45752E-01  5.37345E+01 -1.00000E+00  1.33135E-01
      21    -1     0     0   501   511  0.000000000E+00  0.000000000E+00  8.878792342E+01  8.878792342E+01  0.000000000E+00  0.00000E+00  9.000E+00
      21    -1     0     0   502   503  0.000000000E+00  0.000000000E+00 -9.013735683E+02  9.013735683E+02  0.000000000E+00  0.00000E+00  9.000E+00
      25     1     1     2     0     0 -4.794580042E+01 -4.498833838E+01 -8.456190932E+02  8.573322183E+02  1.249965252E+02  0.00000E+00  9.000E+00
       5     1     1     2   501     0 -4.361023976E+00 -1.139141649E+00 -4.293074738E+00  7.830016892E+00  4.750000000E+00  0.00000E+00  9.000E+00
      -5     1     1     2     0   503 -6.182895463E-01  3.683615398E+01 -2.340778401E+01  4.390639332E+01  4.750000000E+00  0.00000E+00  9.000E+00
      21     1     1     2   502   511  5.292511394E+01  9.291326049E+00  6.073430703E+01  8.109286329E+01  1.784161275E-06  0.00000E+00  9.000E+00
#rwgt            1           9   5.9137891666167077E-006          10      870869           0
</event>
<event>
      6   9999  3.45752E-01  5.28116E+00 -1.00000E+00  2.22081E-01
      21    -1     0     0   501   512  0.000000000E+00  0.000000000E+00  8.708086286E+00  8.708086286E+00  0.000000000E+00  0.00000E+00  9.000E+00
      21    -1     0     0   502   503  0.000000000E+00  0.000000000E+00 -7.417831307E+02  7.417831307E+02  0.000000000E+00  0.00000E+00  9.000E+00
      25     1     1     2     0     0 -2.417219474E+00  3.068278993E+00 -6.631524495E+02  6.748419749E+02  1.250010500E+02  0.00000E+00  9.000E+00
       5     1     1     2   501     0 -2.541762232E-01 -4.462775127E-01 -1.566406881E+00  5.027912061E+00  4.750000000E+00  0.00000E+00  9.000E+00
      -5     1     1     2     0   503  6.245137773E+00 -6.510321091E+00 -5.902703593E+01  5.990108093E+01  4.750000000E+00  0.00000E+00  9.000E+00
      21     1     1     2   502   512 -3.573742076E+00  3.888319611E+00 -9.329152090E+00  1.072024909E+01  1.685873940E-07  0.00000E+00  9.000E+00
#rwgt            1           9   9.2454014561685197E-005          10      871652           0
</event>
<event>
      6   9999  3.45752E-01  2.13577E+01 -1.00000E+00  1.58063E-01
      21    -1     0     0   511   502  0.000000000E+00  0.000000000E+00  8.950629883E+01  8.950629883E+01  0.000000000E+00  0.00000E+00  9.000E+00
      21    -1     0     0   502   503  0.000000000E+00  0.000000000E+00 -1.625612857E+03  1.625612857E+03  0.000000000E+00  0.00000E+00  9.000E+00
      25     1     1     2     0     0 -9.615475803E+00  4.798219885E+00 -1.308838564E+03  1.314837389E+03  1.249939717E+02  0.00000E+00  9.000E+00
       5     1     1     2   501     0  9.843776730E+00 -2.176120771E+00  8.260169847E+01  8.335009617E+01  4.750000000E+00  0.00000E+00  9.000E+00
      -5     1     1     2     0   503 -2.123333638E+01  1.242866504E+00 -2.762060515E+02  2.770645135E+02  4.750000000E+00  0.00000E+00  9.000E+00
      21     1     1     2   511   501  2.100503545E+01 -3.864965618E+00 -3.366364144E+01  3.986715727E+01  6.743495762E-07  0.00000E+00  9.000E+00
#rwgt            1           9   1.3976612252987911E-004          10      875687           0
</event>
<event>
      6   9999  3.45752E-01  1.05686E+01 -1.00000E+00  1.84699E-01
      21    -1     0     0   501   502  0.000000000E+00  0.000000000E+00  3.890142650E+02  3.890142650E+02  0.000000000E+00  0.00000E+00  9.000E+00
      21    -1     0     0   502   512  0.000000000E+00  0.000000000E+00 -6.005422749E+01  6.005422749E+01  0.000000000E+00  0.00000E+00  9.000E+00
      25     1     1     2     0     0 -4.812944870E+00  6.212162927E-01  7.706467873E+01  1.469259897E+02  1.249989256E+02  0.00000E+00  9.000E+00
       5     1     1     2   501     0 -6.745187820E+00  2.537743862E+00  2.661691371E+02  2.663090494E+02  4.750000000E+00  0.00000E+00  9.000E+00
      -5     1     1     2     0   503  1.030308152E+00 -4.085992559E+00  8.568448093E+00  1.066478658E+01  4.750000000E+00  0.00000E+00  9.000E+00
      21     1     1     2   503   512  1.052782454E+01  9.270324044E-01 -2.284222646E+01  2.516866679E+01  8.259061849E-07  0.00000E+00  9.000E+00
#rwgt            1           9  0.50943186325700340               10      878658           0
</event>
<event>
      6   9999 -3.45752E-01  1.23344E+01 -1.00000E+00  1.78080E-01
      21    -1     0     0   501   502  0.000000000E+00  0.000000000E+00  8.012673883E+01  8.012673883E+01  0.000000000E+00  0.00000E+00  9.000E+00
      21    -1     0     0   511   503  0.000000000E+00  0.000000000E+00 -1.291238368E+03  1.291238368E+03  0.000000000E+00  0.00000E+00  9.000E+00
      25     1     1     2     0     0 -2.720180829E+01 -1.476798689E+02 -3.672649983E+02  4.159628905E+02  1.248689922E+02  0.00000E+00  9.000E+00
       5     1     1     2   501     0  9.472738906E+00 -3.103412072E+00  4.836522085E+01  4.960968692E+01  4.750000000E+00  0.00000E+00  9.000E+00
      -5     1     1     2     0   503  2.078750897E+01  1.388341319E+02 -7.494708684E+02  7.625196272E+02  4.750000000E+00  0.00000E+00  9.000E+00
      21     1     1     2   511   502 -3.058439583E+00  1.194914905E+01 -1.427409828E+02  1.432729018E+02  1.907348633E-06  0.00000E+00  9.000E+00
#rwgt            1           9  -1.9779317593392348E-003          10      881897           0
</event>
<event>
      6   9999  3.45752E-01  5.15967E+00 -1.00000E+00  2.23612E-01
      21    -1     0     0   512   503  0.000000000E+00  0.000000000E+00  4.223320970E+02  4.223320970E+02  0.000000000E+00  0.00000E+00  9.000E+00
      21    -1     0     0   501   502  0.000000000E+00  0.000000000E+00 -8.406062074E+02  8.406062074E+02  0.000000000E+00  0.00000E+00  9.000E+00
      25     1     1     2     0     0  3.521875590E+01  2.361189609E+01 -6.139301076E+02  6.279599960E+02  1.250027885E+02  0.00000E+00  9.000E+00
       5     1     1     2   501     0  1.083177170E+01 -1.094535219E+01 -7.922962081E+01  8.085186038E+01  4.750000000E+00  0.00000E+00  9.000E+00
      -5     1     1     2     0   503 -4.550465174E+01 -1.779725185E+01 -1.352884559E+02  1.439199232E+02  4.750000000E+00  0.00000E+00  9.000E+00
      21     1     1     2   512   502 -5.458758602E-01  5.130707941E+00  4.101740739E+02  4.102065249E+02  7.629394531E-06  0.00000E+00  9.000E+00
#rwgt            1           9  0.41330072816439450               10      885472           0
</event>
<event>
      6   9999  3.45752E-01  4.05551E+00 -1.00000E+00  2.46618E-01
      21    -1     0     0   501   502  0.000000000E+00  0.000000000E+00  2.200247077E+01  2.200247077E+01  0.000000000E+00  0.00000E+00  9.000E+00
      21    -1     0     0   502   511  0.000000000E+00  0.000000000E+00 -1.124941297E+03  1.124941297E+03  0.000000000E+00  0.00000E+00  9.000E+00
      25     1     1     2     0     0  3.686750638E+01  5.179563708E+00 -6.888263197E+02  7.010652538E+02  1.249990023E+02  0.00000E+00  9.000E+00
       5     1     1     2   501     0  1.408704310E+00 -2.287884902E-01  1.447971297E+01  1.530559962E+01  4.750000000E+00  0.00000E+00  9.000E+00
      -5     1     1     2     0   503 -3.429540406E+01 -5.725565604E+00 -3.225980848E+02  3.245012229E+02  4.750000000E+00  0.00000E+00  9.000E+00
      21     1     1     2   503   511 -3.980806634E+00  7.747903859E-01 -1.059941351E+02  1.060716917E+02  1.348699152E-06  0.00000E+00  9.000E+00
#rwgt            1           9   2.5351601654527964E-002          10      890390           0
</event>
<event>
      6   9999  3.45752E-01  1.14044E+01 -1.00000E+00  1.81376E-01
       2    -1     0     0   501     0  0.000000000E+00  0.000000000E+00  6.601714611E+02  6.601714611E+02  0.000000000E+00  0.00000E+00  9.000E+00
      21    -1     0     0   502   503  0.000000000E+00  0.000000000E+00 -8.065739823E+02  8.065739823E+02  0.000000000E+00  0.00000E+00  9.000E+00
      25     1     1     2     0     0 -7.356818124E+00  5.480736655E+00 -4.687044870E+02  4.851749068E+02  1.250065310E+02  0.00000E+00  9.000E+00
       5     1     1     2   501     0  2.102837205E+00 -1.548123734E-01 -9.109362463E-01  5.276191432E+00  4.750000000E+00  0.00000E+00  9.000E+00
      -5     1     1     2     0   503  1.663867015E+01 -4.655893729E+00 -3.262447997E+02  3.267365215E+02  4.750000000E+00  0.00000E+00  9.000E+00
       2     1     1     2   502     0 -1.138468923E+01 -6.700305530E-01  6.494577017E+02  6.495578237E+02  0.000000000E+00  0.00000E+00  9.000E+00
#rwgt            1           9   7.0768457567620807E-004          10      896016           0
</event>
<event>
      6   9999  3.45752E-01  7.28996E+01 -1.00000E+00  1.26572E-01
      -2    -1     0     0     0   511  0.000000000E+00  0.000000000E+00  6.088884956E+01  6.088884956E+01  0.000000000E+00  0.00000E+00  9.000E+00
       2    -1     0     0   501     0  0.000000000E+00  0.000000000E+00 -1.024400252E+03  1.024400252E+03  0.000000000E+00  0.00000E+00  9.000E+00
      25     1     1     2     0     0  5.098471345E+01  3.267957539E+01 -6.175168693E+02  6.329531336E+02  1.250407530E+02  0.00000E+00  9.000E+00
       5     1     1     2   501     0 -1.415809111E+01 -2.566830422E+01 -4.912307766E+01  5.740167806E+01  4.750000000E+00  0.00000E+00  9.000E+00
      -5     1     1     2     0   502 -5.310844385E+01 -7.806939470E+01 -3.070980206E+02  3.213208583E+02  4.750000000E+00  0.00000E+00  9.000E+00
      21     1     1     2   502   511  1.628182151E+01  7.105812353E+01  1.022656536E+01  7.361343132E+01  1.842930893E-06  0.00000E+00  9.000E+00
#rwgt            1           3   1.8590844630412748E-004          10      898049           0
</event>
<event>
      6   9999  3.45752E-01  1.61438E+01 -1.00000E+00  1.67651E-01
      21    -1     0     0   501   502  0.000000000E+00  0.000000000E+00  1.143699541E+01  1.143699541E+01  0.000000000E+00  0.00000E+00  9.000E+00
      21    -1     0     0   512   503  0.000000000E+00  0.000000000E+00 -8.887359335E+02  8.887359335E+02  0.000000000E+00  0.00000E+00  9.000E+00
      25     1     1     2     0     0 -4.930798989E+01 -9.393382949E+00 -5.136665308E+02  5.310331660E+02  1.249936200E+02  0.00000E+00  9.000E+00
       5     1     1     2   501     0  1.076522780E+00 -8.564380674E+00 -3.635097884E+01  3.766249700E+01  4.750000000E+00  0.00000E+00  9.000E+00
      -5     1     1     2     0   503  3.343658073E+01  1.149758573E+01 -1.975857020E+02  2.007806553E+02  4.750000000E+00  0.00000E+00  9.000E+00
      21     1     1     2   512   502  1.479488639E+01  6.460177896E+00 -1.296957264E+02  1.306966105E+02  0.000000000E+00  0.00000E+00  9.000E+00
#rwgt            1           9   1.4961607603456098E-002          10      899261           0
</event>
<event>
      6   9999  3.45752E-01  1.70326E+01 -1.00000E+00  1.65723E-01
      21    -1     0     0   501   511  0.000000000E+00  0.000000000E+00  1.069558490E+01  1.069558490E+01  0.000000000E+00  0.00000E+00  9.000E+00
      21    -1     0     0   502   503  0.000000000E+00  0.000000000E+00 -8.047032211E+02  8.047032211E+02  0.000000000E+00  0.00000E+00  9.000E+00
      25     1     1     2     0     0  1.696861886E+01  7.870608437E+00 -7.377564376E+02  7.485041077E+02  1.249958305E+02  0.00000E+00  9.000E+00
       5     1     1     2   501     0  3.368162756E+00 -2.198277912E-02 -1.614261814E+00  6.042627309E+00  4.750000000E+00  0.00000E+00  9.000E+00
      -5     1     1     2     0   503 -3.305728145E+00 -7.619423262E+00 -2.324287119E+01  2.513517477E+01  4.750000000E+00  0.00000E+00  9.000E+00
      21     1     1     2   502   511 -1.703105347E+01 -2.292023958E-01 -3.139406560E+01  3.571689616E+01  4.768371582E-07  0.00000E+00  9.000E+00
#rwgt            1           9   2.2311265595518124E-003          10      901793           0
</event>
<event>
      6   9999  3.45752E-01  3.34353E+00 -1.00000E+00  2.65150E-01
      21    -1     0     0   502   512  0.000000000E+00  0.000000000E+00  4.368111734E+00  4.368111734E+00  0.000000000E+00  0.00000E+00  9.000E+00
      21    -1     0     0   501   502  0.000000000E+00  0.000000000E+00 -3.487764923E+03  3.487764923E+03  0.000000000E+00  0.00000E+00  9.000E+00
      25     1     1     2     0     0 -4.864141624E+00 -1.039291697E+00 -3.456221919E+03  3.458485208E+03  1.250009620E+02  0.00000E+00  9.000E+00
       5     1     1     2   501     0 -2.799599684E-01  3.609905870E-01 -2.098996888E+01  2.152556585E+01  4.750000000E+00  0.00000E+00  9.000E+00
      -5     1     1     2     0   503  2.605487387E+00 -1.497612310E+00 -6.693225356E+00  8.740318805E+00  4.750000000E+00  0.00000E+00  9.000E+00
      21     1     1     2   503   512  2.538614206E+00  2.175913420E+00  5.083019792E-01  3.381942076E+00  6.169152720E-07  0.00000E+00  9.000E+00
#rwgt            1           9   1.4124034771226398E-002          10      903448           0
</event>
<event>
      6   9999 -3.45752E-01  2.17573E+01 -1.00000E+00  1.57468E-01
      21    -1     0     0   501   511  0.000000000E+00  0.000000000E+00  5.125761276E+00  5.125761276E+00  0.000000000E+00  0.00000E+00  9.000E+00
      21    -1     0     0   502   503  0.000000000E+00  0.000000000E+00 -2.309259695E+03  2.309259695E+03  0.000000000E+00  0.00000E+00  9.000E+00
      25     1     1     2     0     0  9.266176372E+00  8.199641262E+00 -1.550097013E+03  1.555178497E+03  1.250052584E+02  0.00000E+00  9.000E+00
       5     1     1     2   501     0  2.355292522E+00 -1.607521848E+00 -5.473146929E+00  7.787770327E+00  4.750000000E+00  0.00000E+00  9.000E+00
      -5     1     1     2     0   503  9.208203167E+00 -1.287742877E+01 -6.605257144E+02  6.607324732E+02  4.750000000E+00  0.00000E+00  9.000E+00
      21     1     1     2   502   511 -2.082967206E+01  6.285309353E+00 -8.803805970E+01  9.068671517E+01  1.907348633E-06  0.00000E+00  9.000E+00
#rwgt            1           9  -3.5912742783165475E-004          10      908602           0
</event>
<event>
      6   9999  3.45752E-01  5.18883E+00 -1.00000E+00  2.23239E-01
      21    -1     0     0   501   502  0.000000000E+00  0.000000000E+00  1.391703609E+01  1.391703609E+01  0.000000000E+00  0.00000E+00  9.000E+00
      21    -1     0     0   502   512  0.000000000E+00  0.000000000E+00 -1.223613534E+03  1.223613534E+03  0.000000000E+00  0.00000E+00  9.000E+00
      25     1     1     2     0     0 -7.545886704E-01 -3.768552811E+01 -9.021173899E+02  9.115162651E+02  1.250013916E+02  0.00000E+00  9.000E+00
       5     1     1     2   501     0 -1.532631902E+00 -1.072369180E+00  1.917562869E+00  5.453300245E+00  4.750000000E+00  0.00000E+00  9.000E+00
      -5     1     1     2     0   503 -1.615631626E+00  3.533858855E+01 -5.233952611E+01  6.335151616E+01  4.750000000E+00  0.00000E+00  9.000E+00
      21     1     1     2   503   512  3.902852199E+00  3.419308738E+00 -2.571571451E+02  2.572094889E+02  0.000000000E+00  0.00000E+00  9.000E+00
#rwgt            1           9   2.0309568221555832E-003          10      910171           0
</event>
<event>
      6   9999  3.45752E-01  2.03419E+01 -1.00000E+00  1.59650E-01
       2    -1     0     0   501     0  0.000000000E+00  0.000000000E+00  1.501252440E+02  1.501252440E+02  0.000000000E+00  0.00000E+00  9.000E+00
      21    -1     0     0   502   503  0.000000000E+00  0.000000000E+00 -9.513192297E+02  9.513192297E+02  0.000000000E+00  0.00000E+00  9.000E+00
      25     1     1     2     0     0 -1.802593705E+01 -6.878765042E+00 -7.791110230E+02  7.893104863E+02  1.249992236E+02  0.00000E+00  9.000E+00
       5     1     1     2   501     0 -2.369264816E+00  3.632018124E+00  1.152899721E+01  1.320171383E+01  4.750000000E+00  0.00000E+00  9.000E+00
      -5     1     1     2     0   503  1.070959278E+00  9.600352531E+00 -1.653162356E+02  1.656663332E+02  4.750000000E+00  0.00000E+00  9.000E+00
       2     1     1     2   502     0  1.932424258E+01 -6.353605613E+00  1.317042756E+02  1.332659404E+02  3.814697266E-06  0.00000E+00  9.000E+00
#rwgt            1           9   1.8851347904782624E-004          10      914304           0
</event>
<event>
      6   9999  3.45752E-01  3.34713E+00 -1.00000E+00  2.65039E-01
      21    -1     0     0   511   502  0.000000000E+00  0.000000000E+00  1.221982066E+01  1.221982066E+01  0.000000000E+00  0.00000E+00  9.000E+00
      21    -1     0     0   502   503  0.000000000E+00  0.000000000E+00 -7.946798988E+02  7.946798988E+02  0.000000000E+00  0.00000E+00  9.000E+00
      25     1     1     2     0     0  1.312864316E+01 -2.140111155E+01 -5.885278007E+02  6.021784341E+02  1.249941016E+02  0.00000E+00  9.000E+00
       5     1     1     2   501     0 -1.629596233E+00 -6.093680674E-02  1.898311186E+00  5.368927503E+00  4.750000000E+00  0.00000E+00  9.000E+00
      -5     1     1     2     0   503 -1.274624329E+01  2.456813069E+01 -1.928082601E+02  1.948426222E+02  4.750000000E+00  0.00000E+00  9.000E+00
      21     1     1     2   511   501  1.247196363E+00 -3.106082337E+00 -3.022328582E+00  4.509735725E+00  1.264405455E-07  0.00000E+00  9.000E+00
#rwgt            1           9   1.3567355660979751E-004          10      916094           0
</event>
<event>
      6   9999  3.45752E-01  3.47211E+01 -1.00000E+00  1.43846E-01
      21    -1     0     0   502   512  0.000000000E+00  0.000000000E+00  6.397848820E+01  6.397848820E+01  0.000000000E+00  0.00000E+00  9.000E+00
      21    -1     0     0   501   502  0.000000000E+00  0.000000000E+00 -1.409331123E+03  1.409331123E+03  0.000000000E+00  0.00000E+00  9.000E+00
      25     1     1     2     0     0 -1.714616743E+02 -1.234740061E+02 -3.086393768E+02  3.943706254E+02  1.249999574E+02  0.00000E+00  9.000E+00
       5     1     1     2   501     0  1.383635226E+02  1.182931151E+02 -1.017399765E+03  1.033567884E+03  4.750000000E+00  0.00000E+00  9.000E+00
      -5     1     1     2     0   503 -3.383031779E-01 -4.176415028E+00 -3.006964871E+00  7.011506918E+00  4.750000000E+00  0.00000E+00  9.000E+00
      21     1     1     2   503   512  3.343645489E+01  9.357305980E+00 -1.630652796E+01  3.835959521E+01  5.840038640E-07  0.00000E+00  9.000E+00
#rwgt            1           9   16.163750601431559               10      921754           0
</event>
<event>
      6   9999  3.45752E-01  3.69534E+01 -1.00000E+00  1.42211E-01
      21    -1     0     0   501   502  0.000000000E+00  0.000000000E+00  6.714800313E+02  6.714800313E+02  0.000000000E+00  0.00000E+00  9.000E+00
      21    -1     0     0   511   503  0.000000000E+00  0.000000000E+00 -5.212886929E+01  5.212886929E+01  0.000000000E+00  0.00000E+00  9.000E+00
      25     1     1     2     0     0  2.046331292E+01  1.739357050E+01  4.253634824E+02  4.441552171E+02  1.249739225E+02  0.00000E+00  9.000E+00
       5     1     1     2   501     0  3.255769273E+00  5.068718508E+00  2.109310747E+02  2.110705396E+02  4.750000000E+00  0.00000E+00  9.000E+00
      -5     1     1     2     0   503  2.553126661E+00  3.524722804E+00  1.701649903E+01  1.819521547E+01  4.750000000E+00  0.00000E+00  9.000E+00
      21     1     1     2   511   502 -2.627220886E+01 -2.598701181E+01 -3.395989410E+01  5.018792831E+01  2.384185791E-06  0.00000E+00  9.000E+00
#rwgt            1           9  0.28756561547337567               10      923394           0
</event>
<event>
      6   9999  3.45752E-01  4.68805E+00 -1.00000E+00  2.34396E-01
      21    -1     0     0   501   512  0.000000000E+00  0.000000000E+00  4.446038935E+02  4.446038935E+02  0.000000000E+00  0.00000E+00  9.000E+00
      21    -1     0     0   502   503  0.000000000E+00  0.000000000E+00 -3.563376712E+02  3.563376712E+02  0.000000000E+00  0.00000E+00  9.000E+00
      25     1     1     2     0     0  6.257422316E+01 -6.280749837E+01 -2.672592447E+02  3.080788496E+02  1.249990337E+02  0.00000E+00  9.000E+00
       5     1     1     2   501     0  1.488472333E+00 -7.370479727E+00  8.533797523E+01  8.580018670E+01  4.750000000E+00  0.00000E+00  9.000E+00
      -5     1     1     2     0   503 -5.946256096E+01  6.927431885E+01 -3.788282195E+01  9.895654656E+01  4.750000000E+00  0.00000E+00  9.000E+00
      21     1     1     2   502   512 -4.600134537E+00  9.036592478E-01  3.080703137E+02  3.081059818E+02  3.814697266E-06  0.00000E+00  9.000E+00
#rwgt            1           9   9.4588683269083637E-003          10      924264           0
</event>
<event>
      6   9999  3.45752E-01  2.33548E+01 -1.00000E+00  1.55235E-01
      21    -1     0     0   501   502  0.000000000E+00  0.000000000E+00  5.250992480E+01  5.250992480E+01  0.000000000E+00  0.00000E+00  9.000E+00
      21    -1     0     0   502   511  0.000000000E+00  0.000000000E+00 -1.399523347E+03  1.399523347E+03  0.000000000E+00  0.00000E+00  9.000E+00
      25     1     1     2     0     0 -1.252941653E+02  1.033832362E+02 -9.286351576E+02  9.509863983E+02  1.250006100E+02  0.00000E+00  9.000E+00
       5     1     1     2   501     0 -5.484910230E-01  4.392303240E+00  2.597474931E+01  2.677392895E+01  4.750000000E+00  0.00000E+00  9.000E+00
      -5     1     1     2     0   503  1.075215550E+02 -9.329166433E+01 -3.814757417E+02  4.071983834E+02  4.750000000E+00  0.00000E+00  9.000E+00
      21     1     1     2   503   511  1.832110129E+01 -1.448387507E+01 -6.287727217E+01  6.707456108E+01  9.536743164E-07  0.00000E+00  9.000E+00
#rwgt            1           9   3.9272678473544734E-005          10      931113           0
</event>
<event>
      6   9999  3.45752E-01  1.26730E+01 -1.00000E+00  1.76971E-01
      21    -1     0     0   501   512  0.000000000E+00  0.000000000E+00  1.419164589E+01  1.419164589E+01  0.000000000E+00  0.00000E+00  9.000E+00
      21    -1     0     0   502   503  0.000000000E+00  0.000000000E+00 -7.870794633E+02  7.870794633E+02  0.000000000E+00  0.00000E+00  9.000E+00
      25     1     1     2     0     0  7.103630027E+00  1.683086613E+01 -7.141280784E+02  7.252137364E+02  1.249892457E+02  0.00000E+00  9.000E+00
       5     1     1     2   501     0  4.071327834E+00 -8.098542504E-01  3.682744019E+00  7.304565542E+00  4.750000000E+00  0.00000E+00  9.000E+00
      -5     1     1     2     0   503  9.843424988E-01 -1.244941754E+01 -4.653058724E+01  4.841089728E+01  4.750000000E+00  0.00000E+00  9.000E+00
      21     1     1     2   502   512 -1.215930036E+01 -3.571594342E+00 -1.591189581E+01  2.034190993E+01  3.769728732E-07  0.00000E+00  9.000E+00
#rwgt            1           9   1.1967938584563704E-002          10      933357           0
</event>
<event>
      6   9999  3.45752E-01  1.63466E+01 -1.00000E+00  1.67198E-01
      21    -1     0     0   501   511  0.000000000E+00  0.000000000E+00  1.932391821E+01  1.932391821E+01  0.000000000E+00  0.00000E+00  9.000E+00
      21    -1     0     0   502   503  0.000000000E+00  0.000000000E+00 -9.519721887E+02  9.519721887E+02  0.000000000E+00  0.00000E+00  9.000E+00
      25     1     1     2     0     0  6.382272764E+00  1.136937177E+01 -7.569623936E+02  7.673248663E+02  1.250015565E+02  0.00000E+00  9.000E+00
       5     1     1     2   501     0  2.518972950E+00 -1.075980962E+00  1.161586954E+01  1.284499454E+01  4.750000000E+00  0.00000E+00  9.000E+00
      -5     1     1     2     0   503  5.413683664E+00 -2.400791962E+00 -1.523692418E+02  1.525582516E+02  4.750000000E+00  0.00000E+00  9.000E+00
      21     1     1     2   502   511 -1.431492938E+01 -7.892598848E+00 -3.493250462E+01  3.856799449E+01  0.000000000E+00  0.00000E+00  9.000E+00
#rwgt            1           9   5.3297211435780161E-005          10      935769           0
</event>
<event>
      6   9999  3.45752E-01  6.23511E+00 -1.00000E+00  2.11759E-01
      21    -1     0     0   501   502  0.000000000E+00  0.000000000E+00  1.098923607E+03  1.098923607E+03  0.000000000E+00  0.00000E+00  9.000E+00
      21    -1     0     0   512   503  0.000000000E+00  0.000000000E+00 -1.022184750E+01  1.022184750E+01  0.000000000E+00  0.00000E+00  9.000E+00
      25     1     1     2     0     0  6.462211853E-01 -2.612960383E+01  6.305009669E+02  6.433087760E+02  1.250261505E+02  0.00000E+00  9.000E+00
       5     1     1     2   501     0 -5.800683343E-01 -2.790544005E-01  1.458650583E+02  1.459437977E+02  4.750000000E+00  0.00000E+00  9.000E+00
      -5     1     1     2     0   503 -5.715174392E+00  2.376949299E+01  3.126591168E+02  3.136493868E+02  4.750000000E+00  0.00000E+00  9.000E+00
      21     1     1     2   512   502  5.649021541E+00  2.639165249E+00 -3.233827337E-01  6.243493731E+00  5.188728972E-07  0.00000E+00  9.000E+00
#rwgt            1           9   1.3680786463802634               10      937953           0
</event>
<event>
      6   9999  3.45752E-01  1.24573E+01 -1.00000E+00  1.77672E-01
      21    -1     0     0   501   502  0.000000000E+00  0.000000000E+00  4.408339587E+01  4.408339587E+01  0.000000000E+00  0.00000E+00  9.000E+00
      21    -1     0     0   511   503  0.000000000E+00  0.000000000E+00 -1.544951578E+03  1.544951578E+03  0.000000000E+00  0.00000E+00  9.000E+00
      25     1     1     2     0     0 -1.182308299E+02 -8.651896674E+01 -5.096356580E+02  5.448084348E+02  1.249946641E+02  0.00000E+00  9.000E+00
       5     1     1     2   501     0 -2.676419586E+00  3.550638474E+00  2.040538469E+01  2.141757408E+01  4.750000000E+00  0.00000E+00  9.000E+00
      -5     1     1     2     0   503  1.139683837E+02  7.262251699E+01 -8.497011694E+02  8.603937832E+02  4.750000000E+00  0.00000E+00  9.000E+00
      21     1     1     2   511   502  6.938865780E+00  1.034581128E+01 -1.619367395E+02  1.624151818E+02  1.907348633E-06  0.00000E+00  9.000E+00
#rwgt            1           9   2.8704617438653499E-003          10      941860           0
</event>
<event>
      6   9999 -3.45752E-01  6.72624E+01 -1.00000E+00  1.28239E-01
      21    -1     0     0   501   502  0.000000000E+00  0.000000000E+00  5.872586315E+03  5.872586315E+03  0.000000000E+00  0.00000E+00  9.000E+00
      21    -1     0     0   512   503  0.000000000E+00  0.000000000E+00 -2.583247842E+01  2.583247842E+01  0.000000000E+00  0.00000E+00  9.000E+00
      25     1     1     2     0     0 -2.148606110E+01 -3.798696166E+01  2.320061815E+03  2.323836755E+03  1.250031273E+02  0.00000E+00  9.000E+00
       5     1     1     2   501     0 -3.323357342E+01  9.356802128E+01  1.884682724E+03  1.887302566E+03  4.750000000E+00  0.00000E+00  9.000E+00
      -5     1     1     2     0   503  1.133883501E+02 -2.268398104E+01  1.607537483E+03  1.611698111E+03  4.750000000E+00  0.00000E+00  9.000E+00
      21     1     1     2   512   502 -5.866871561E+01 -3.289707859E+01  3.447181521E+01  7.558136023E+01  5.722045898E-06  0.00000E+00  9.000E+00
#rwgt            1           9  -1.3737005706576151               10      945229           0
</event>
<event>
      6   9999  3.45752E-01  1.47252E+01 -1.00000E+00  1.71070E-01
       2    -1     0     0   501     0  0.000000000E+00  0.000000000E+00  2.263752568E+01  2.263752568E+01  0.000000000E+00  0.00000E+00  9.000E+00
      21    -1     0     0   502   503  0.000000000E+00  0.000000000E+00 -7.670935676E+02  7.670935676E+02  0.000000000E+00  0.00000E+00  9.000E+00
      25     1     1     2     0     0 -9.831340802E+00  2.008336302E-01 -6.990803256E+02  7.102356816E+02  1.249989047E+02  0.00000E+00  9.000E+00
       5     1     1     2   501     0  1.445635118E+01  1.407957502E+01 -2.958597664E+01  3.612634822E+01  4.750000000E+00  0.00000E+00  9.000E+00
      -5     1     1     2     0   503  5.627425934E-01 -4.993071976E-01 -2.535682896E+01  2.580886014E+01  4.750000000E+00  0.00000E+00  9.000E+00
       2     1     1     2   502     0 -5.187752976E+00 -1.378110145E+01  9.567089373E+00  1.756020322E+01  8.596304120E-07  0.00000E+00  9.000E+00
#rwgt            1           9   5.2730213276593460E-003          10      945709           0
</event>
<event>
      6   9999  3.45752E-01  1.84911E+01 -1.00000E+00  1.62855E-01
      21    -1     0     0   501   502  0.000000000E+00  0.000000000E+00  1.846655050E+03  1.846655050E+03  0.000000000E+00  0.00000E+00  9.000E+00
      21    -1     0     0   511   503  0.000000000E+00  0.000000000E+00 -5.517691418E+01  5.517691418E+01  0.000000000E+00  0.00000E+00  9.000E+00
      25     1     1     2     0     0  9.758915469E+01  1.445273863E+02  1.133608087E+03  1.153734591E+03  1.249976079E+02  0.00000E+00  9.000E+00
       5     1     1     2   501     0 -4.747443105E-01  2.876987328E-01  5.034965399E+02  5.035192512E+02  4.750000000E+00  0.00000E+00  9.000E+00
      -5     1     1     2     0   503 -7.936580929E+01 -1.500025462E+02  1.291956734E+02  2.133395886E+02  4.750000000E+00  0.00000E+00  9.000E+00
      21     1     1     2   511   502 -1.774860109E+01  5.187461217E+00  2.517783559E+01  3.123853389E+01  3.371747881E-07  0.00000E+00  9.000E+00
#rwgt            1           9   1.9363834083111948E-002          10      948811           0
</event>
<event>
      6   9999  3.45752E-01  4.42277E+01 -1.00000E+00  1.37701E-01
       2    -1     0     0   502     0  0.000000000E+00  0.000000000E+00  7.975131884E+02  7.975131884E+02  0.000000000E+00  0.00000E+00  9.000E+00
      21    -1     0     0   501   502  0.000000000E+00  0.000000000E+00 -1.614819241E+03  1.614819241E+03  0.000000000E+00  0.00000E+00  9.000E+00
      25     1     1     2     0     0  8.087249816E+01  1.932001299E+01 -1.701449849E+02  2.268967988E+02  1.249768682E+02  0.00000E+00  9.000E+00
       5     1     1     2   501     0 -3.880464275E+01  6.527541460E+01 -1.335182068E+03  1.337348271E+03  4.750000000E+00  0.00000E+00  9.000E+00
      -5     1     1     2     0   503 -6.697466073E+01 -1.211432332E+02 -1.889544393E+01  1.397887279E+02  4.750000000E+00  0.00000E+00  9.000E+00
       2     1     1     2   503     0  2.490680532E+01  3.654780563E+01  7.069164449E+02  7.082986313E+02  7.629394531E-06  0.00000E+00  9.000E+00
#rwgt            1           9   1.7163423250850587E-002          10      951363           0
</event>
<event>
      6   9999 -3.45752E-01  1.44371E+02 -1.00000E+00  1.14026E-01
      21    -1     0     0   501   502  0.000000000E+00  0.000000000E+00  9.552631827E+01  9.552631827E+01  0.000000000E+00  0.00000E+00  9.000E+00
      21    -1     0     0   502   511  0.000000000E+00  0.000000000E+00 -1.505286092E+03  1.505286092E+03  0.000000000E+00  0.00000E+00  9.000E+00
      25     1     1     2     0     0  1.699510439E+02 -9.656334956E+01 -4.982941739E+02  5.496626759E+02  1.249965427E+02  0.00000E+00  9.000E+00
       5     1     1     2   501     0  1.074663595E+01 -4.799896565E+00  1.451612888E+01  1.928236731E+01  4.750000000E+00  0.00000E+00  9.000E+00
      -5     1     1     2     0   503 -5.375006985E+01  3.260720039E+01  2.658490599E+01  6.842235930E+01  4.750000000E+00  0.00000E+00  9.000E+00
      21     1     1     2   503   511 -1.269476100E+02  6.875604573E+01 -9.525666345E+02  9.634450076E+02  1.078959322E-05  0.00000E+00  9.000E+00
#rwgt            1           9  -2.4774683253489618E-003          10      953028           0
</event>
<event>
      6   9999  3.45752E-01  3.62543E+00 -1.00000E+00  2.57033E-01
      21    -1     0     0   501   502  0.000000000E+00  0.000000000E+00  1.570625414E+01  1.570625414E+01  0.000000000E+00  0.00000E+00  9.000E+00
       1    -1     0     0   502     0  0.000000000E+00  0.000000000E+00 -9.434288908E+02  9.434288908E+02  0.000000000E+00  0.00000E+00  9.000E+00
      25     1     1     2     0     0 -1.532009242E+00  1.323625966E+00 -7.894883053E+02  7.993259713E+02  1.250045007E+02  0.00000E+00  9.000E+00
       5     1     1     2   501     0  4.859178122E+00  1.612737163E+00  9.424947135E+00  1.173050134E+01  4.750000000E+00  0.00000E+00  9.000E+00
      -5     1     1     2     0   503  2.907109395E-01 -2.702467170E+00 -4.172457338E+01  4.208194822E+01  4.750000000E+00  0.00000E+00  9.000E+00
       1     1     1     2   503     0 -3.617879820E+00 -2.338959592E-01 -1.059347051E+02  1.059967241E+02  1.907348633E-06  0.00000E+00  9.000E+00
#rwgt            1           9   1.7625040890719719E-004          10      953386           0
</event>
<event>
      6   9999 -3.45752E-01  1.78378E+01 -1.00000E+00  1.64098E-01
      21    -1     0     0   502   503  0.000000000E+00  0.000000000E+00  8.252770824E+00  8.252770824E+00  0.000000000E+00  0.00000E+00  9.000E+00
      21    -1     0     0   501   511  0.000000000E+00  0.000000000E+00 -8.747007443E+02  8.747007443E+02  0.000000000E+00  0.00000E+00  9.000E+00
      25     1     1     2     0     0  1.683747797E+01 -2.000501724E+01 -5.701901480E+02  5.843168167E+02  1.250025445E+02  0.00000E+00  9.000E+00
       5     1     1     2   501     0 -7.148134607E-01  1.385175396E+01 -1.235212774E+02  1.243883053E+02  4.750000000E+00  0.00000E+00  9.000E+00
      -5     1     1     2     0   503  4.957384538E-01 -3.286452327E-01 -2.661373511E+01  2.704084246E+01  4.750000000E+00  0.00000E+00  9.000E+00
      21     1     1     2   502   511 -1.661840296E+01  6.481908508E+00 -1.461228131E+02  1.472075506E+02  0.000000000E+00  0.00000E+00  9.000E+00
#rwgt            1           9  -5.2962457364859837E-004          10      959106           0
</event>
<event>
      6   9999  3.45752E-01  1.04001E+01 -1.00000E+00  1.85417E-01
      21    -1     0     0   512   502  0.000000000E+00  0.000000000E+00  8.184426216E+01  8.184426216E+01  0.000000000E+00  0.00000E+00  9.000E+00
      21    -1     0     0   502   503  0.000000000E+00  0.000000000E+00 -5.427353787E+02  5.427353787E+02  0.000000000E+00  0.00000E+00  9.000E+00
      25     1     1     2     0     0  1.021901429E+02 -1.325083092E+02 -1.881433078E+02  2.811158216E+02  1.250076941E+02  0.00000E+00  9.000E+00
       5     1     1     2   501     0  2.253111750E-01  8.866035167E-01  3.807109678E+00  6.155762749E+00  4.750000000E+00  0.00000E+00  9.000E+00
      -5     1     1     2     0   503 -1.061088292E+02  1.413439010E+02 -2.747952850E+02  3.267601462E+02  4.750000000E+00  0.00000E+00  9.000E+00
      21     1     1     2   512   501  3.693375074E+00 -9.722195381E+00 -1.759633442E+00  1.054791033E+01  2.149076030E-07  0.00000E+00  9.000E+00
#rwgt            1           9   2.7041795433549662E-003          10      960410           0
</event>
<event>
      6   9999  3.45752E-01  6.79334E+00 -1.00000E+00  2.06811E-01
      21    -1     0     0   501   502  0.000000000E+00  0.000000000E+00  8.270888378E+00  8.270888378E+00  0.000000000E+00  0.00000E+00  9.000E+00
      21    -1     0     0   502   511  0.000000000E+00  0.000000000E+00 -9.147023209E+02  9.147023209E+02  0.000000000E+00  0.00000E+00  9.000E+00
      25     1     1     2     0     0  1.154984369E+01 -6.943111023E+00 -6.492117031E+02  6.612740050E+02  1.250034742E+02  0.00000E+00  9.000E+00
       5     1     1     2   501     0 -1.423460674E-01  2.447218280E-02 -8.381361207E-01  4.825539705E+00  4.750000000E+00  0.00000E+00  9.000E+00
      -5     1     1     2     0   503 -6.178984323E+00  2.581341967E+00 -9.680166957E+01  9.714920949E+01  4.750000000E+00  0.00000E+00  9.000E+00
      21     1     1     2   503   511 -5.228513299E+00  4.337296873E+00 -1.595799238E+02  1.597244551E+02  0.000000000E+00  0.00000E+00  9.000E+00
#rwgt            1           9   1.5724319000521513E-003          10      963797           0
</event>
<event>
      6   9999  3.45752E-01  1.95444E+01 -1.00000E+00  1.60978E-01
      21    -1     0     0   501   502  0.000000000E+00  0.000000000E+00  2.930198203E+01  2.930198203E+01  0.000000000E+00  0.00000E+00  9.000E+00
       2    -1     0     0   502     0  0.000000000E+00  0.000000000E+00 -1.862683162E+03  1.862683162E+03  0.000000000E+00  0.00000E+00  9.000E+00
      25     1     1     2     0     0 -7.388606392E+01  3.674730983E+01 -8.352781418E+02  8.486001154E+02  1.249922660E+02  0.00000E+00  9.000E+00
       5     1     1     2   501     0  8.747964362E+01 -1.929514622E+01 -6.814697316E+01  1.126568381E+02  4.750000000E+00  0.00000E+00  9.000E+00
      -5     1     1     2     0   503 -8.730120178E+00  1.477460739E+00 -9.250662598E+01  9.305071863E+01  4.750000000E+00  0.00000E+00  9.000E+00
       2     1     1     2   503     0 -4.863459521E+00 -1.892962435E+01 -8.374494393E+02  8.376774721E+02  1.078959322E-05  0.00000E+00  9.000E+00
#rwgt            1           9   10.661192116724619               10      966548           0
</event>
<event>
      6   9999  3.45752E-01  7.49864E+00 -1.00000E+00  2.01402E-01
      21    -1     0     0   501   511  0.000000000E+00  0.000000000E+00  3.688428767E+01  3.688428767E+01  0.000000000E+00  0.00000E+00  9.000E+00
      21    -1     0     0   502   503  0.000000000E+00  0.000000000E+00 -9.433872656E+02  9.433872656E+02  0.000000000E+00  0.00000E+00  9.000E+00
      25     1     1     2     0     0 -2.208909614E+01 -1.886915776E+01 -5.765969524E+02  5.907049316E+02  1.249971897E+02  0.00000E+00  9.000E+00
       5     1     1     2   501     0  1.979773856E+00  3.264577696E-01  1.153936505E+01  1.263904763E+01  4.750000000E+00  0.00000E+00  9.000E+00
      -5     1     1     2     0   503  1.558939656E+01  1.255939752E+01 -3.580853978E+02  3.586760131E+02  4.750000000E+00  0.00000E+00  9.000E+00
      21     1     1     2   502   511  4.519925724E+00  5.983302471E+00  1.664000720E+01  1.825156094E+01  1.305872339E-06  0.00000E+00  9.000E+00
#rwgt            1           9  0.94148286591563846               10      968834           0
</event>
<event>
      6   9999  3.45752E-01  3.06223E+01 -1.00000E+00  1.47264E-01
      21    -1     0     0   501   502  0.000000000E+00  0.000000000E+00  9.723842768E+01  9.723842768E+01  0.000000000E+00  0.00000E+00  9.000E+00
      21    -1     0     0   502   512  0.000000000E+00  0.000000000E+00 -1.113591210E+02  1.113591210E+02  0.000000000E+00  0.00000E+00  9.000E+00
      25     1     1     2     0     0  1.804690148E+00  2.508851880E+01 -1.865183588E+01  1.288654723E+02  1.250029131E+02  0.00000E+00  9.000E+00
       5     1     1     2   501     0 -6.956206756E+00  6.072004666E+00  2.274713980E+01  2.500505793E+01  4.750000000E+00  0.00000E+00  9.000E+00
      -5     1     1     2     0   503 -1.496296473E+01 -8.070913508E+00  2.396099385E+00  1.781386400E+01  4.750000000E+00  0.00000E+00  9.000E+00
      21     1     1     2   503   512  2.011448134E+01 -2.308960995E+01 -2.061209661E+01  3.691315449E+01  7.539457465E-07  0.00000E+00  9.000E+00
#rwgt            1           9   3.7386161848680324               10      972841           0
</event>
<event>
      6   9999 -3.45752E-01  1.08002E+01 -1.00000E+00  1.83740E-01
      21    -1     0     0   501   502  0.000000000E+00  0.000000000E+00  1.405759504E+01  1.405759504E+01  0.000000000E+00  0.00000E+00  9.000E+00
      21    -1     0     0   502   511  0.000000000E+00  0.000000000E+00 -1.006125345E+03  1.006125345E+03  0.000000000E+00  0.00000E+00  9.000E+00
      25     1     1     2     0     0 -8.683368316E+00  2.797581669E-01 -8.101002112E+02  8.197335375E+02  1.250009650E+02  0.00000E+00  9.000E+00
       5     1     1     2   501     0 -1.390062883E+00  1.641958434E+00  8.063423112E+00  9.602582705E+00  4.750000000E+00  0.00000E+00  9.000E+00
      -5     1     1     2     0   503 -3.798440869E-01 -4.637159041E+00 -5.969902099E+01  6.006815406E+01  4.750000000E+00  0.00000E+00  9.000E+00
      21     1     1     2   503   511  1.045327529E+01  2.715442439E+00 -1.303319413E+02  1.307786661E+02  0.000000000E+00  0.00000E+00  9.000E+00
#rwgt            1           9  -1.6303939733480265E-003          10      974630           0
</event>
<event>
      6   9999 -3.45752E-01  5.92114E+00 -1.00000E+00  2.14861E-01
      21    -1     0     0   512   502  0.000000000E+00  0.000000000E+00  1.589390181E+01  1.589390181E+01  0.000000000E+00  0.00000E+00  9.000E+00
      21    -1     0     0   502   503  0.000000000E+00  0.000000000E+00 -9.236165627E+02  9.236165627E+02  0.000000000E+00  0.00000E+00  9.000E+00
      25     1     1     2     0     0  3.008390435E+00 -6.453174199E+00 -8.364985963E+02  8.458165982E+02  1.250004893E+02  0.00000E+00  9.000E+00
       5     1     1     2   501     0 -1.454776602E+00  2.865410282E+00  9.741989320E+00  1.130468075E+01  4.750000000E+00  0.00000E+00  9.000E+00
      -5     1     1     2     0   503 -5.786932121E+00 -5.521587653E-01 -6.359833444E+01  6.403986342E+01  4.750000000E+00  0.00000E+00  9.000E+00
      21     1     1     2   512   501  4.233318289E+00  4.139922682E+00 -1.736771945E+01  1.834932212E+01  0.000000000E+00  0.00000E+00  9.000E+00
#rwgt            1           9  -3.0487991618918521E-004          10      977680           0
</event>
<event>
      6   9999  3.45752E-01  6.72858E+00 -1.00000E+00  2.07352E-01
      21    -1     0     0   501   511  0.000000000E+00  0.000000000E+00  2.652177398E+02  2.652177398E+02  0.000000000E+00  0.00000E+00  9.000E+00
      21    -1     0     0   502   503  0.000000000E+00  0.000000000E+00 -1.514266859E+02  1.514266859E+02  0.000000000E+00  0.00000E+00  9.000E+00
      25     1     1     2     0     0  1.021461058E+01 -5.673337749E+00 -1.125428631E+02  1.686042365E+02  1.249998701E+02  0.00000E+00  9.000E+00
       5     1     1     2   501     0 -4.197810033E-01  3.441289917E+00 -3.077303484E+00  6.637091917E+00  4.750000000E+00  0.00000E+00  9.000E+00
      -5     1     1     2     0   503 -3.100039187E+00  2.905517019E+00 -4.240288422E+00  7.654725208E+00  4.750000000E+00  0.00000E+00  9.000E+00
      21     1     1     2   502   511 -6.694790386E+00 -6.734691876E-01  2.336515090E+02  2.337483720E+02  0.000000000E+00  0.00000E+00  9.000E+00
#rwgt            1           9   14.055861679066256               10      981649           0
</event>
<event>
      6   9999  3.45752E-01  1.34405E+01 -1.00000E+00  1.74610E-01
      21    -1     0     0   501   502  0.000000000E+00  0.000000000E+00  2.734438064E+03  2.734438064E+03  0.000000000E+00  0.00000E+00  9.000E+00
      21    -1     0     0   512   503  0.000000000E+00  0.000000000E+00 -5.277306946E+01  5.277306946E+01  0.000000000E+00  0.00000E+00  9.000E+00
      25     1     1     2     0     0 -1.524959205E+01  2.033722414E+01  1.317884027E+03  1.324042996E+03  1.250015743E+02  0.00000E+00  9.000E+00
       5     1     1     2   501     0 -7.873881403E-01 -1.693034119E+00  1.245773688E+03  1.245784143E+03  4.750000000E+00  0.00000E+00  9.000E+00
      -5     1     1     2     0   503  6.031084395E+00 -2.761795169E+01  1.655318205E+02  1.679954503E+02  4.750000000E+00  0.00000E+00  9.000E+00
      21     1     1     2   512   502  1.000589579E+01  8.973761668E+00 -4.752454083E+01  4.938854452E+01  4.672030912E-06  0.00000E+00  9.000E+00
#rwgt            1           9   8.8409897360495061E-004          10      984628           0
</event>
<event>
      6   9999  3.45752E-01  2.20101E+01 -1.00000E+00  1.57099E-01
      21    -1     0     0   511   502  0.000000000E+00  0.000000000E+00  8.215178156E+01  8.215178156E+01  0.000000000E+00  0.00000E+00  9.000E+00
      21    -1     0     0   502   503  0.000000000E+00  0.000000000E+00 -1.668240613E+02  1.668240613E+02  0.000000000E+00  0.00000E+00  9.000E+00
      25     1     1     2     0     0  6.432875650E+00  1.269610741E+01 -1.325346553E+02  1.827374985E+02  1.249999420E+02  0.00000E+00  9.000E+00
       5     1     1     2   501     0 -8.280010801E-02  2.880908092E+00  5.830060341E+00  8.053483151E+00  4.750000000E+00  0.00000E+00  9.000E+00
      -5     1     1     2     0   503 -5.047151049E+00  6.394513690E+00 -1.361866299E+00  9.527891627E+00  4.750000000E+00  0.00000E+00  9.000E+00
      21     1     1     2   511   501 -1.302924494E+00 -2.197152919E+01  4.339418144E+01  4.865696959E+01  4.768371582E-07  0.00000E+00  9.000E+00
#rwgt            1           9   8.9702557429408945E-003          10      986481           0
</event>
<event>
      6   9999  3.45752E-01  1.63173E+01 -1.00000E+00  1.67263E-01
      21    -1     0     0   512   502  0.000000000E+00  0.000000000E+00  9.921642687E+02  9.921642687E+02  0.000000000E+00  0.00000E+00  9.000E+00
      21    -1     0     0   502   503  0.000000000E+00  0.000000000E+00 -2.088650653E+01  2.088650653E+01  0.000000000E+00  0.00000E+00  9.000E+00
      25     1     1     2     0     0 -2.094722853E+01 -1.419819225E+01  2.670275964E+02  2.959207181E+02  1.249998365E+02  0.00000E+00  9.000E+00
       5     1     1     2   501     0 -7.633617012E-02 -7.606879682E+00  5.440328431E+02  5.441067610E+02  4.750000000E+00  0.00000E+00  9.000E+00
      -5     1     1     2     0   503  1.178956622E+01  8.351942079E+00  3.693145486E+00  1.565089875E+01  4.750000000E+00  0.00000E+00  9.000E+00
      21     1     1     2   512   501  9.233998481E+00  1.345312985E+01  1.565241772E+02  1.573723975E+02  0.000000000E+00  0.00000E+00  9.000E+00
#rwgt            1           9   6.8629193205424448               10      987607           0
</event>
<event>
      6   9999  3.45752E-01  8.11028E+01 -1.00000E+00  1.24432E-01
      21    -1     0     0   501   502  0.000000000E+00  0.000000000E+00  8.081279247E+01  8.081279247E+01  0.000000000E+00  0.00000E+00  9.000E+00
      21    -1     0     0   502   511  0.000000000E+00  0.000000000E+00 -1.972884878E+03  1.972884878E+03  0.000000000E+00  0.00000E+00  9.000E+00
      25     1     1     2     0     0  6.884427569E-01  2.879981464E+02 -5.122902995E+02  6.008441573E+02  1.250157754E+02  0.00000E+00  9.000E+00
       5     1     1     2   501     0  4.507000492E+00  1.148573845E+01  1.849069305E+01  2.273111240E+01  4.750000000E+00  0.00000E+00  9.000E+00
      -5     1     1     2     0   503 -6.963688857E+00 -2.184004035E+02 -9.830977975E+02  1.007100328E+03  4.750000000E+00  0.00000E+00  9.000E+00
      21     1     1     2   503   511  1.768245608E+00 -8.108348129E+01 -4.151746818E+02  4.230220728E+02  5.394796609E-06  0.00000E+00  9.000E+00
#rwgt            1           9   1.1918697743921599E-003          10      990575           0
</event>
<event>
      6   9999  3.45752E-01  2.89130E+00 -1.00000E+00  2.81172E-01
      21    -1     0     0   501   502  0.000000000E+00  0.000000000E+00  7.527591895E+00  7.527591895E+00  0.000000000E+00  0.00000E+00  9.000E+00
      21    -1     0     0   502   512  0.000000000E+00  0.000000000E+00 -1.159549975E+03  1.159549975E+03  0.000000000E+00  0.00000E+00  9.000E+00
      25     1     1     2     0     0  5.248043697E+00  4.397658566E+00 -6.940127770E+02  7.052089530E+02  1.249762035E+02  0.00000E+00  9.000E+00
       5     1     1     2   501     0  8.451296905E-01  1.645068132E-01 -2.330210253E+00  5.360381190E+00  4.750000000E+00  0.00000E+00  9.000E+00
      -5     1     1     2     0   503 -3.211662210E+00 -4.799918460E+00 -3.373046476E+01  3.454939572E+01  4.750000000E+00  0.00000E+00  9.000E+00
      21     1     1     2   503   512 -2.881511178E+00  2.377530810E-01 -4.219489310E+02  4.219588369E+02  0.000000000E+00  0.00000E+00  9.000E+00
#rwgt            1           9   3.1052991558098384E-004          10      991926           0
</event>
<event>
      6   9999  3.45752E-01  4.16055E+01 -1.00000E+00  1.39202E-01
      21    -1     0     0   502   511  0.000000000E+00  0.000000000E+00  1.383837528E+01  1.383837528E+01  0.000000000E+00  0.00000E+00  9.000E+00
      21    -1     0     0   501   502  0.000000000E+00  0.000000000E+00 -9.596165017E+02  9.596165017E+02  0.000000000E+00  0.00000E+00  9.000E+00
      25     1     1     2     0     0  4.921996949E+01 -3.048736168E+01 -4.454387383E+02  4.662524829E+02  1.249944941E+02  0.00000E+00  9.000E+00
       5     1     1     2   501     0 -4.782088493E+00  1.345152657E+01 -2.475702024E+02  2.480269735E+02  4.750000000E+00  0.00000E+00  9.000E+00
      -5     1     1     2     0   503 -8.522365832E+00 -3.966477636E+00 -1.089846696E+02  1.094923941E+02  4.750000000E+00  0.00000E+00  9.000E+00
      21     1     1     2   503   511 -3.591551517E+01  2.100231275E+01 -1.437845161E+02  1.496830266E+02  2.697398305E-06  0.00000E+00  9.000E+00
#rwgt            1           9   6.0347463950582107E-003          10      997100           0
</event>
<event>
      6   9999  3.45752E-01  8.64159E+00 -1.00000E+00  1.94130E-01
      21    -1     0     0   512   502  0.000000000E+00  0.000000000E+00  2.593929406E+01  2.593929406E+01  0.000000000E+00  0.00000E+00  9.000E+00
      21    -1     0     0   502   503  0.000000000E+00  0.000000000E+00 -1.090314513E+03  1.090314513E+03  0.000000000E+00  0.00000E+00  9.000E+00
      25     1     1     2     0     0  9.199988075E+00 -1.358702218E-01 -9.959675522E+02  1.003822842E+03  1.249970957E+02  0.00000E+00  9.000E+00
       5     1     1     2   501     0 -2.747074603E+00  6.973794416E+00  1.667255626E+01  1.888694946E+01  4.750000000E+00  0.00000E+00  9.000E+00
      -5     1     1     2     0   503 -1.224385576E+00  4.245431240E-02 -8.475444410E+01  8.489628506E+01  4.750000000E+00  0.00000E+00  9.000E+00
      21     1     1     2   512   501 -5.228527896E+00 -6.880378506E+00 -3.257784732E-01  8.647730567E+00  3.112791584E-07  0.00000E+00  9.000E+00
#rwgt            1           9   1.7339176385234363E-002          10      998046           0
</event>
<event>
      6   9999 -3.45752E-01  8.47138E+00 -1.00000E+00  1.95116E-01
      21    -1     0     0   501   502  0.000000000E+00  0.000000000E+00  1.535049977E+01  1.535049977E+01  0.000000000E+00  0.00000E+00  9.000E+00
      21    -1     0     0   502   511  0.000000000E+00  0.000000000E+00 -9.706634925E+02  9.706634925E+02  0.000000000E+00  0.00000E+00  9.000E+00
      25     1     1     2     0     0  1.679767843E+01  1.378798615E+01 -8.379730373E+02  8.475232791E+02  1.249985070E+02  0.00000E+00  9.000E+00
       5     1     1     2   501     0  1.727688280E+00 -1.426874497E+00  7.456467182E+00  9.120432032E+00  4.750000000E+00  0.00000E+00  9.000E+00
      -5     1     1     2     0   503 -1.192554662E+01 -1.767210408E+01 -5.691493731E+01  6.096223842E+01  4.750000000E+00  0.00000E+00  9.000E+00
      21     1     1     2   503   511 -6.599820093E+00  5.310992428E+00 -6.788148530E+01  6.840804274E+01  1.348699152E-06  0.00000E+00  9.000E+00
#rwgt            1           9  -1.6807293970661305E-004          10     1001433           0
</event>
<event>
      6   9999  3.45752E-01  4.44736E+01 -1.00000E+00  1.37567E-01
      21    -1     0     0   501   512  0.000000000E+00  0.000000000E+00  6.991505413E+01  6.991505413E+01  0.000000000E+00  0.00000E+00  9.000E+00
      21    -1     0     0   502   503  0.000000000E+00  0.000000000E+00 -5.647810398E+02  5.647810398E+02  0.000000000E+00  0.00000E+00  9.000E+00
      25     1     1     2     0     0 -3.218911299E+01 -2.055167434E+01 -4.798197105E+02  4.973036023E+02  1.250016318E+02  0.00000E+00  9.000E+00
       5     1     1     2   501     0  4.578188273E-01  1.085444735E+01  4.068941166E+01  4.238182802E+01  4.750000000E+00  0.00000E+00  9.000E+00
      -5     1     1     2     0   503 -6.091653971E+00 -1.369770537E+01 -4.716661213E+01  4.971908266E+01  4.750000000E+00  0.00000E+00  9.000E+00
      21     1     1     2   502   512  3.782294813E+01  2.339493235E+01 -8.569074711E+00  4.529158097E+01  7.348554138E-07  0.00000E+00  9.000E+00
#rwgt            1           9   122592.27478346083               10     1004427           0
</event>
<event>
      6   9999  3.45752E-01  2.29227E+01 -1.00000E+00  1.55817E-01
      21    -1     0     0   502   511  0.000000000E+00  0.000000000E+00  3.586081765E+01  3.586081765E+01  0.000000000E+00  0.00000E+00  9.000E+00
      21    -1     0     0   501   502  0.000000000E+00  0.000000000E+00 -5.889277901E+03  5.889277901E+03  0.000000000E+00  0.00000E+00  9.000E+00
      25     1     1     2     0     0 -1.198454712E+02 -1.097675232E+01 -1.071397669E+03  1.085358349E+03  1.250054199E+02  0.00000E+00  9.000E+00
       5     1     1     2   501     0  1.240237256E+00 -2.347002893E-01 -4.265366541E+03  4.265369373E+03  4.750000000E+00  0.00000E+00  9.000E+00
      -5     1     1     2     0   503  1.240457799E+02  3.347919835E+01 -5.316779081E+02  5.470029001E+02  4.750000000E+00  0.00000E+00  9.000E+00
      21     1     1     2   503   511 -5.440545943E+00 -2.226774574E+01  1.502503543E+01  2.740809607E+01  2.132480600E-06  0.00000E+00  9.000E+00
#rwgt            1           9   8.8289937871153818E-004          10     1005290           0
</event>
<event>
      6   9999 -3.45752E-01  8.63150E+00 -1.00000E+00  1.94187E-01
      21    -1     0     0   501   502  0.000000000E+00  0.000000000E+00  4.804408756E+01  4.804408756E+01  0.000000000E+00  0.00000E+00  9.000E+00
      21    -1     0     0   502   512  0.000000000E+00  0.000000000E+00 -6.609299932E+02  6.609299932E+02  0.000000000E+00  0.00000E+00  9.000E+00
      25     1     1     2     0     0  3.710323741E+00  5.024516738E+01 -5.140384744E+02  5.314128797E+02  1.250030089E+02  0.00000E+00  9.000E+00
       5     1     1     2   501     0  2.776366330E-01  2.958325552E+00  2.965808151E+01  3.018266176E+01  4.750000000E+00  0.00000E+00  9.000E+00
      -5     1     1     2     0   503 -1.499307726E+00 -6.146843919E+01 -9.900484415E+01  1.166410674E+02  4.750000000E+00  0.00000E+00  9.000E+00
      21     1     1     2   503   512 -2.488652649E+00  8.264946259E+00 -2.950066867E+01  3.073747193E+01  0.000000000E+00  0.00000E+00  9.000E+00
#rwgt            1           9 -0.66902545368344013               10     1007115           0
</event>
<event>
      6   9999  3.45752E-01  1.64356E+02 -1.00000E+00  1.11927E-01
      21    -1     0     0   511   502  0.000000000E+00  0.000000000E+00  5.225454187E+01  5.225454187E+01  0.000000000E+00  0.00000E+00  9.000E+00
       2    -1     0     0   501     0  0.000000000E+00  0.000000000E+00 -1.958020747E+03  1.958020747E+03  0.000000000E+00  0.00000E+00  9.000E+00
      25     1     1     2     0     0 -2.123451039E+02 -5.530288492E+01 -8.056998397E+02  8.443491250E+02  1.249974442E+02  0.00000E+00  9.000E+00
       5     1     1     2   501     0  4.785028646E-01 -8.221416969E+00 -1.258051201E+01  1.576871728E+01  4.750000000E+00  0.00000E+00  9.000E+00
      -5     1     1     2     0   502  1.764946839E+02 -9.697995542E+01 -4.738020225E+02  5.148460005E+02  4.750000000E+00  0.00000E+00  9.000E+00
       2     1     1     2   511     0  3.537191712E+01  1.605042573E+02 -6.136838309E+02  6.353114460E+02  1.321449896E-05  0.00000E+00  9.000E+00
#rwgt            1           3   1.2253945253706135E-005          10     1010966           0
</event>
<event>
      6   9999 -3.45752E-01  1.42427E+01 -1.00000E+00  1.72345E-01
      21    -1     0     0   512   503  0.000000000E+00  0.000000000E+00  1.226116805E+02  1.226116805E+02  0.000000000E+00  0.00000E+00  9.000E+00
      21    -1     0     0   501   502  0.000000000E+00  0.000000000E+00 -1.281838754E+03  1.281838754E+03  0.000000000E+00  0.00000E+00  9.000E+00
      25     1     1     2     0     0 -1.615281945E+02  1.516965449E+02 -6.039829331E+02  6.553800154E+02  1.249975269E+02  0.00000E+00  9.000E+00
       5     1     1     2   501     0  1.638990448E+02 -1.382276378E+02 -6.089522024E+02  6.456122087E+02  4.750000000E+00  0.00000E+00  9.000E+00
      -5     1     1     2     0   503  6.005181988E+00 -1.949519457E+00 -2.358014974E+01  2.486863082E+01  4.750000000E+00  0.00000E+00  9.000E+00
      21     1     1     2   512   502 -8.376032302E+00 -1.151938768E+01  7.728821218E+01  7.858957916E+01  2.861022949E-06  0.00000E+00  9.000E+00
#rwgt            1           9  -1.9128525907910511E-003          10     1011860           0
</event>
<event>
      6   9999  3.45752E-01  6.23739E+00 -1.00000E+00  2.11737E-01
      21    -1     0     0   511   502  0.000000000E+00  0.000000000E+00  2.903113874E+02  2.903113874E+02  0.000000000E+00  0.00000E+00  9.000E+00
      21    -1     0     0   502   503  0.000000000E+00  0.000000000E+00 -3.402467924E+02  3.402467924E+02  0.000000000E+00  0.00000E+00  9.000E+00
      25     1     1     2     0     0 -9.081636405E+01 -1.511473066E+02 -1.767374315E+02  2.792037025E+02  1.250018699E+02  0.00000E+00  9.000E+00
       5     1     1     2   501     0  3.188308058E+00 -1.741059203E+00  5.705532497E+01  5.736784119E+01  4.750000000E+00  0.00000E+00  9.000E+00
      -5     1     1     2     0   503  8.300451849E+01  1.487017288E+02 -4.727138392E+01  1.768024334E+02  4.750000000E+00  0.00000E+00  9.000E+00
      21     1     1     2   511   501  4.623537503E+00  4.186637071E+00  1.170180855E+02  1.171842027E+02  1.907348633E-06  0.00000E+00  9.000E+00
#rwgt            1           9   1.2748841100198419E-004          10     1014900           0
</event>
<event>
      6   9999  3.45752E-01  6.15344E+00 -1.00000E+00  2.12542E-01
      21    -1     0     0   501   502  0.000000000E+00  0.000000000E+00  2.925393709E+01  2.925393709E+01  0.000000000E+00  0.00000E+00  9.000E+00
      21    -1     0     0   512   503  0.000000000E+00  0.000000000E+00 -1.184507868E+03  1.184507868E+03  0.000000000E+00  0.00000E+00  9.000E+00
      25     1     1     2     0     0  1.212867724E+01 -5.443204386E+00 -7.000613233E+02  7.112580989E+02  1.250019745E+02  0.00000E+00  9.000E+00
       5     1     1     2   501     0 -5.610000457E+00 -1.058337789E+00  2.275040406E+01  2.393189438E+01  4.750000000E+00  0.00000E+00  9.000E+00
      -5     1     1     2     0   503 -3.450104561E+00  1.183527268E+01 -4.338927704E+02  4.340938558E+02  4.750000000E+00  0.00000E+00  9.000E+00
      21     1     1     2   512   502 -3.068572219E+00 -5.333730506E+00 -4.405024163E+01  4.447795639E+01  0.000000000E+00  0.00000E+00  9.000E+00
#rwgt            1           9   6.4946156501627158E-003          10     1020520           0
</event>
<event>
      6   9999  3.45752E-01  3.76916E+01 -1.00000E+00  1.41700E-01
      21    -1     0     0   511   502  0.000000000E+00  0.000000000E+00  2.190143578E+01  2.190143578E+01  0.000000000E+00  0.00000E+00  9.000E+00
      21    -1     0     0   502   503  0.000000000E+00  0.000000000E+00 -1.086974744E+03  1.086974744E+03  0.000000000E+00  0.00000E+00  9.000E+00
      25     1     1     2     0     0  2.884078464E+01  3.427398095E+01 -6.930004815E+02  7.056077113E+02  1.250043128E+02  0.00000E+00  9.000E+00
       5     1     1     2   501     0  7.442701222E+00 -1.641435284E+00  9.899561253E+00  1.336607363E+01  4.750000000E+00  0.00000E+00  9.000E+00
      -5     1     1     2     0   503  1.386022195E+00 -3.392366038E+01 -2.596830756E+02  2.619362480E+02  4.750000000E+00  0.00000E+00  9.000E+00
      21     1     1     2   511   501 -3.766950806E+01  1.291114710E+00 -1.222893124E+02  1.279661469E+02  1.348699152E-06  0.00000E+00  9.000E+00
#rwgt            1           9   3.5612980224884686E-003          10     1025776           0
</event>
<event>
      6   9999  3.45752E-01  1.01294E+01 -1.00000E+00  1.86608E-01
      21    -1     0     0   501   502  0.000000000E+00  0.000000000E+00  1.346400171E+01  1.346400171E+01  0.000000000E+00  0.00000E+00  9.000E+00
      21    -1     0     0   502   512  0.000000000E+00  0.000000000E+00 -1.097251373E+03  1.097251373E+03  0.000000000E+00  0.00000E+00  9.000E+00
      25     1     1     2     0     0  6.276174934E+00  9.632270327E+00 -5.503307698E+02  5.644660236E+02  1.250030585E+02  0.00000E+00  9.000E+00
       5     1     1     2   501     0 -4.737723947E+00  1.088476322E+00  4.216117273E+00  7.998059374E+00  4.750000000E+00  0.00000E+00  9.000E+00
      -5     1     1     2     0   503 -1.135973787E+01 -8.241516521E+00 -3.145505334E+02  3.148992962E+02  4.750000000E+00  0.00000E+00  9.000E+00
      21     1     1     2   503   512  9.821286887E+00 -2.479230127E+00 -2.231221856E+02  2.233519957E+02  0.000000000E+00  0.00000E+00  9.000E+00
#rwgt            1           9  0.62953403759128967               10     1026700           0
</event>
<event>
      6   9999  3.45752E-01  4.06240E+00 -1.00000E+00  2.46467E-01
      21    -1     0     0   501   502  0.000000000E+00  0.000000000E+00  1.163287050E+01  1.163287050E+01  0.000000000E+00  0.00000E+00  9.000E+00
      21    -1     0     0   511   503  0.000000000E+00  0.000000000E+00 -9.307258507E+02  9.307258507E+02  0.000000000E+00  0.00000E+00  9.000E+00
      25     1     1     2     0     0 -6.535389778E-01 -7.300681518E+00 -6.521172078E+02  6.640295580E+02  1.249986967E+02  0.00000E+00  9.000E+00
       5     1     1     2   501     0 -2.434487515E+00 -1.798060205E+00  4.081826463E+00  6.955829011E+00  4.750000000E+00  0.00000E+00  9.000E+00
      -5     1     1     2     0   503  1.803687085E+00  5.244714099E+00 -9.947905962E+01  9.974670980E+01  4.750000000E+00  0.00000E+00  9.000E+00
      21     1     1     2   511   502  1.284339407E+00  3.854027623E+00 -1.715785393E+02  1.716266244E+02  0.000000000E+00  0.00000E+00  9.000E+00
#rwgt            1           9   1.5455603226866295E-002          10     1029570           0
</event>
<event>
      6   9999  3.45752E-01  1.06069E+01 -1.00000E+00  1.84538E-01
      21    -1     0     0   512   502  0.000000000E+00  0.000000000E+00  8.955217169E+02  8.955217169E+02  0.000000000E+00  0.00000E+00  9.000E+00
      21    -1     0     0   502   503  0.000000000E+00  0.000000000E+00 -1.144613249E+01  1.144613249E+01  0.000000000E+00  0.00000E+00  9.000E+00
      25     1     1     2     0     0  1.941301257E+01 -1.491176887E+01  4.769032062E+02  4.936202089E+02  1.250000664E+02  0.00000E+00  9.000E+00
       5     1     1     2   501     0  1.842280630E+00  2.684243296E-01  2.965995727E+02  2.966434477E+02  4.750000000E+00  0.00000E+00  9.000E+00
      -5     1     1     2     0   503 -1.406776543E+01  6.842979144E+00  2.154039080E+01  2.704217675E+01  4.750000000E+00  0.00000E+00  9.000E+00
      21     1     1     2   512   501 -7.187527773E+00  7.800365396E+00  8.903241469E+01  8.966201605E+01  1.651812370E-06  0.00000E+00  9.000E+00
#rwgt            1           9   1.2987902436585182E-004          10     1034044           0
</event>
<event>
      6   9999 -3.45752E-01  1.95495E+01 -1.00000E+00  1.60969E-01
      21    -1     0     0   511   503  0.000000000E+00  0.000000000E+00  3.479317307E+02  3.479317307E+02  0.000000000E+00  0.00000E+00  9.000E+00
      21    -1     0     0   501   502  0.000000000E+00  0.000000000E+00 -7.655091316E+02  7.655091316E+02  0.000000000E+00  0.00000E+00  9.000E+00
      25     1     1     2     0     0 -2.194018172E+01  1.365142342E+01 -6.942433186E+02  7.058801303E+02  1.250009598E+02  0.00000E+00  9.000E+00
       5     1     1     2   501     0  3.501469080E+00  3.743530416E+00 -5.181214228E+00  8.699527951E+00  4.750000000E+00  0.00000E+00  9.000E+00
      -5     1     1     2     0   503  3.392973500E+01 -5.469797009E+00 -5.305336903E+01  6.339059916E+01  4.750000000E+00  0.00000E+00  9.000E+00
      21     1     1     2   511   502 -1.549102236E+01 -1.192515683E+01  3.349005010E+02  3.354706048E+02  3.814697266E-06  0.00000E+00  9.000E+00
#rwgt            1           9  -2.0006702570377856E-003          10     1036548           0
</event>
<event>
      6   9999  3.45752E-01  8.97742E+00 -1.00000E+00  1.92267E-01
      21    -1     0     0   501   502  0.000000000E+00  0.000000000E+00  3.229571791E+01  3.229571791E+01  0.000000000E+00  0.00000E+00  9.000E+00
      21    -1     0     0   512   503  0.000000000E+00  0.000000000E+00 -1.772913600E+03  1.772913600E+03  0.000000000E+00  0.00000E+00  9.000E+00
      25     1     1     2     0     0  2.823443609E+01 -2.554817678E+01 -2.398056988E+02  2.730950484E+02  1.249969581E+02  0.00000E+00  9.000E+00
       5     1     1     2   501     0  5.596705440E-01 -2.301462772E+00  1.457133197E+01  1.550793917E+01  4.750000000E+00  0.00000E+00  9.000E+00
      -5     1     1     2     0   503 -3.656516918E+01  2.335467753E+01 -8.169345378E+02  8.180996603E+02  4.750000000E+00  0.00000E+00  9.000E+00
      21     1     1     2   512   502  7.771062545E+00  4.494962020E+00 -6.984489773E+02  6.985066699E+02  7.629394531E-06  0.00000E+00  9.000E+00
#rwgt            1           9   8.6777159880696064E-002          10     1037962           0
</event>
<event>
      6   9999  3.45752E-01  3.09103E+01 -1.00000E+00  1.47003E-01
      21    -1     0     0   511   502  0.000000000E+00  0.000000000E+00  8.379013775E+01  8.379013775E+01  0.000000000E+00  0.00000E+00  9.000E+00
      21    -1     0     0   502   503  0.000000000E+00  0.000000000E+00 -1.452524322E+03  1.452524322E+03  0.000000000E+00  0.00000E+00  9.000E+00
      25     1     1     2     0     0 -2.360635622E+02  6.882582206E+01 -1.098216845E+03  1.132328683E+03  1.250000337E+02  0.00000E+00  9.000E+00
       5     1     1     2   501     0  1.882604870E+02 -3.990671865E+01 -1.078843697E+02  2.206720573E+02  4.750000000E+00  0.00000E+00  9.000E+00
      -5     1     1     2     0   503  1.696968427E+01 -2.674063022E+01 -1.433460319E+02  1.468798109E+02  4.750000000E+00  0.00000E+00  9.000E+00
      21     1     1     2   511   501  3.083339093E+01 -2.178473193E+00 -1.928693786E+01  3.643390885E+01  4.768371582E-07  0.00000E+00  9.000E+00
#rwgt            1           9   6.5237507350789407E-004          10     1041568           0
</event>
<event>
      6   9999  3.45752E-01  7.65513E+01 -1.00000E+00  1.25582E-01
      21    -1     0     0   501   512  0.000000000E+00  0.000000000E+00  6.925964680E+01  6.925964680E+01  0.000000000E+00  0.00000E+00  9.000E+00
      21    -1     0     0   502   503  0.000000000E+00  0.000000000E+00 -1.218256790E+03  1.218256790E+03  0.000000000E+00  0.00000E+00  9.000E+00
      25     1     1     2     0     0 -2.862893903E+01  3.802999922E+01 -6.317019107E+02  6.457068733E+02  1.249966610E+02  0.00000E+00  9.000E+00
       5     1     1     2   501     0 -9.214724279E-02  2.767225012E+00 -1.013398273E+02  1.014888621E+02  4.750000000E+00  0.00000E+00  9.000E+00
      -5     1     1     2     0   503 -2.075853588E+01  1.761398489E+01 -4.539975649E+02  4.548379060E+02  4.750000000E+00  0.00000E+00  9.000E+00
      21     1     1     2   502   512  4.947962216E+01 -5.841120912E+01  3.804215989E+01  8.548279528E+01  4.017901312E-06  0.00000E+00  9.000E+00
#rwgt            1           9   7.9656037634651566E-002          10     1043418           0
</event>
<event>
      6   9999  3.45752E-01  7.84785E+00 -1.00000E+00  1.99008E-01
      21    -1     0     0   501   502  0.000000000E+00  0.000000000E+00  5.306875591E+01  5.306875591E+01  0.000000000E+00  0.00000E+00  9.000E+00
      21    -1     0     0   502   511  0.000000000E+00  0.000000000E+00 -1.630362463E+02  1.630362463E+02  0.000000000E+00  0.00000E+00  9.000E+00
      25     1     1     2     0     0 -3.242702071E+00  1.033369055E+01 -6.703501018E+01  1.422567941E+02  1.250040103E+02  0.00000E+00  9.000E+00
       5     1     1     2   501     0 -2.164107423E+00  1.492017112E-01  1.349173272E+01  1.446703059E+01  4.750000000E+00  0.00000E+00  9.000E+00
      -5     1     1     2     0   503 -2.342054872E+00 -9.240370906E+00 -3.169808247E+01  3.343950669E+01  4.750000000E+00  0.00000E+00  9.000E+00
      21     1     1     2   503   511  7.748864365E+00 -1.242521357E+00 -2.472613045E+01  2.594167083E+01  0.000000000E+00  0.00000E+00  9.000E+00
#rwgt            1           9   9.2993469907160023E-003          10     1043948           0
</event>
<event>
      6   9999  3.45752E-01  1.37513E+01 -1.00000E+00  1.73709E-01
      21    -1     0     0   501   502  0.000000000E+00  0.000000000E+00  1.706501633E+02  1.706501633E+02  0.000000000E+00  0.00000E+00  9.000E+00
      21    -1     0     0   512   503  0.000000000E+00  0.000000000E+00 -1.116202730E+02  1.116202730E+02  0.000000000E+00  0.00000E+00  9.000E+00
      25     1     1     2     0     0  8.052376842E+00  7.346297280E-01 -5.336774034E+01  1.360875162E+02  1.249252412E+02  0.00000E+00  9.000E+00
       5     1     1     2   501     0  4.086182758E+00 -2.090571298E+00  1.215193975E+02  1.216987832E+02  4.750000000E+00  0.00000E+00  9.000E+00
      -5     1     1     2     0   503  1.333088323E+00 -1.402990439E+00  3.178698596E+00  6.034246549E+00  4.750000000E+00  0.00000E+00  9.000E+00
      21     1     1     2   512   502 -1.347164792E+01  2.758932010E+00 -1.230046540E+01  1.844989031E+01  1.685873940E-07  0.00000E+00  9.000E+00
#rwgt            1           9   6.1982484366506895E-003          10     1046798           0
</event>
<event>
      6   9999 -3.45752E-01  2.37705E+00 -1.00000E+00  3.06332E-01
      21    -1     0     0   501   502  0.000000000E+00  0.000000000E+00  8.174199839E+00  8.174199839E+00  0.000000000E+00  0.00000E+00  9.000E+00
      21    -1     0     0   511   503  0.000000000E+00  0.000000000E+00 -1.549552876E+03  1.549552876E+03  0.000000000E+00  0.00000E+00  9.000E+00
      25     1     1     2     0     0 -5.948367219E+00 -6.952327558E-01 -6.635261109E+02  6.752241346E+02  1.249994628E+02  0.00000E+00  9.000E+00
       5     1     1     2   501     0  1.319703334E+01  2.889518133E+00 -2.765648032E+01  3.114409106E+01  4.750000000E+00  0.00000E+00  9.000E+00
      -5     1     1     2     0   503 -6.569767779E+00 -4.472323976E+00 -3.639374216E+01  3.755303581E+01  4.750000000E+00  0.00000E+00  9.000E+00
      21     1     1     2   511   502 -6.788983422E-01  2.278038598E+00 -8.138023424E+02  8.138058139E+02  1.078959322E-05  0.00000E+00  9.000E+00
#rwgt            1           9 -0.33010618286433779               10     1049386           0
</event>
<event>
      6   9999  3.45752E-01  9.87105E+00 -1.00000E+00  1.87789E-01
      21    -1     0     0   501   512  0.000000000E+00  0.000000000E+00  1.272806198E+01  1.272806198E+01  0.000000000E+00  0.00000E+00  9.000E+00
      21    -1     0     0   502   503  0.000000000E+00  0.000000000E+00 -8.245359523E+02  8.245359523E+02  0.000000000E+00  0.00000E+00  9.000E+00
      25     1     1     2     0     0 -7.881550601E+00 -1.617361649E+01 -6.376555872E+02  6.500414704E+02  1.250022427E+02  0.00000E+00  9.000E+00
       5     1     1     2   501     0  7.803513790E-03  1.263609981E+00  2.663078401E+00  5.590282430E+00  4.750000000E+00  0.00000E+00  9.000E+00
      -5     1     1     2     0   503 -1.356033414E+00  1.840984003E+01 -1.655927815E+02  1.666862106E+02  4.750000000E+00  0.00000E+00  9.000E+00
      21     1     1     2   502   512  9.229780502E+00 -3.499833519E+00 -1.122260008E+01  1.494605083E+01  3.371747881E-07  0.00000E+00  9.000E+00
#rwgt            1           9   1.1916750846499161E-003          10     1056447           0
</event>
<event>
      6   9999  3.45752E-01  1.15355E+01 -1.00000E+00  1.80888E-01
      21    -1     0     0   511   502  0.000000000E+00  0.000000000E+00  8.154506308E+01  8.154506308E+01  0.000000000E+00  0.00000E+00  9.000E+00
      21    -1     0     0   502   503  0.000000000E+00  0.000000000E+00 -1.353843571E+03  1.353843571E+03  0.000000000E+00  0.00000E+00  9.000E+00
      25     1     1     2     0     0  6.813779704E+00  2.516566540E+01 -2.872231503E+02  3.143282664E+02  1.250015307E+02  0.00000E+00  9.000E+00
       5     1     1     2   501     0  4.752061639E+00 -1.600172524E+00  3.878553847E+01  3.939572484E+01  4.750000000E+00  0.00000E+00  9.000E+00
      -5     1     1     2     0   503 -9.398615522E+00 -1.223545404E+01 -1.051547322E+03  1.051671229E+03  4.750000000E+00  0.00000E+00  9.000E+00
      21     1     1     2   511   501 -2.167225822E+00 -1.133003884E+01  2.768642648E+01  2.999341359E+01  5.840038640E-07  0.00000E+00  9.000E+00
#rwgt            1           9   5.0849240935619947E-002          10     1058863           0
</event>
<event>
      6   9999  3.45752E-01  3.16775E+01 -1.00000E+00  1.46326E-01
      21    -1     0     0   501   512  0.000000000E+00  0.000000000E+00  3.223560724E+01  3.223560724E+01  0.000000000E+00  0.00000E+00  9.000E+00
      21    -1     0     0   502   503  0.000000000E+00  0.000000000E+00 -7.510435511E+02  7.510435511E+02  0.000000000E+00  0.00000E+00  9.000E+00
      25     1     1     2     0     0 -2.561233083E+01  2.025413488E+01 -5.184416103E+02  5.342974602E+02  1.250034047E+02  0.00000E+00  9.000E+00
       5     1     1     2   501     0  1.572945249E+00 -4.058398204E+01 -1.854291353E+02  1.898843345E+02  4.750000000E+00  0.00000E+00  9.000E+00
      -5     1     1     2     0   503 -3.960703970E-01  1.710970307E-01 -2.531718017E+01  2.576253593E+01  4.750000000E+00  0.00000E+00  9.000E+00
      21     1     1     2   502   512  2.443545597E+01  2.015875013E+01  1.037998194E+01  3.333482774E+01  1.488923549E-06  0.00000E+00  9.000E+00
#rwgt            1           9   4.0517389158066630E-002          10     1062561           0
</event>
<event>
      6   9999  3.45752E-01  1.84170E+01 -1.00000E+00  1.62993E-01
      21    -1     0     0   501   502  0.000000000E+00  0.000000000E+00  9.569241879E+00  9.569241879E+00  0.000000000E+00  0.00000E+00  9.000E+00
      21    -1     0     0   511   503  0.000000000E+00  0.000000000E+00 -7.805829587E+02  7.805829587E+02  0.000000000E+00  0.00000E+00  9.000E+00
      25     1     1     2     0     0 -4.547496130E+00  1.299062581E+01 -6.510905061E+02  6.631234047E+02  1.249974662E+02  0.00000E+00  9.000E+00
       5     1     1     2   501     0 -6.024994093E-01  3.157945407E+00 -1.604446604E+00  5.955868840E+00  4.750000000E+00  0.00000E+00  9.000E+00
      -5     1     1     2     0   503  4.959170758E+00  2.267402489E+00 -3.084334066E+01  3.167978301E+01  4.750000000E+00  0.00000E+00  9.000E+00
      21     1     1     2   511   502  1.908247817E-01 -1.841597371E+01 -8.747542345E+01  8.939314408E+01  1.348699152E-06  0.00000E+00  9.000E+00
#rwgt            1           9   2.9242469619083153E-003          10     1063453           0
</event>
<event>
      6   9999  3.45752E-01  1.41029E+02 -1.00000E+00  1.14414E-01
      21    -1     0     0   501   502  0.000000000E+00  0.000000000E+00  1.242710899E+03  1.242710899E+03  0.000000000E+00  0.00000E+00  9.000E+00
      21    -1     0     0   512   503  0.000000000E+00  0.000000000E+00 -1.764411739E+02  1.764411739E+02  0.000000000E+00  0.00000E+00  9.000E+00
      25     1     1     2     0     0 -7.830327392E+01 -2.877161948E+02  2.187724848E+02  3.903824684E+02  1.250002403E+02  0.00000E+00  9.000E+00
       5     1     1     2   501     0  1.568365702E+01  8.646361019E+01  7.160697536E+02  7.214571279E+02  4.750000000E+00  0.00000E+00  9.000E+00
      -5     1     1     2     0   503  6.977986708E+01  6.040511308E+01  1.380501543E+02  1.661277073E+02  4.750000000E+00  0.00000E+00  9.000E+00
      21     1     1     2   512   502 -7.160250181E+00  1.408474715E+02 -6.622667419E+00  1.411847695E+02  1.134055709E-06  0.00000E+00  9.000E+00
#rwgt            1           9   4.5893346423771042E-003          10     1064773           0
</event>
<event>
      6   9999  3.45752E-01  7.31999E+00 -1.00000E+00  2.02695E-01
      21    -1     0     0   501   502  0.000000000E+00  0.000000000E+00  9.063332362E+00  9.063332362E+00  0.000000000E+00  0.00000E+00  9.000E+00
      21    -1     0     0   502   511  0.000000000E+00  0.000000000E+00 -1.404744343E+03  1.404744343E+03  0.000000000E+00  0.00000E+00  9.000E+00
      25     1     1     2     0     0 -3.269246651E+00  1.085612419E+01 -7.036300848E+02  7.147367107E+02  1.249989044E+02  0.00000E+00  9.000E+00
       5     1     1     2   501     0 -6.308848058E-01 -1.486857726E+00 -3.329417156E-01  5.028132031E+00  4.750000000E+00  0.00000E+00  9.000E+00
      -5     1     1     2     0   503  5.420167331E+00 -1.652969889E+01 -7.011401152E+01  7.239576142E+01  4.750000000E+00  0.00000E+00  9.000E+00
      21     1     1     2   503   511 -1.520035875E+00  7.160432433E+00 -6.216039722E+02  6.216470708E+02  7.629394531E-06  0.00000E+00  9.000E+00
#rwgt            1           9   5.3262829613667036E-004          10     1065483           0
</event>
<event>
      6   9999  3.45752E-01  8.19814E+00 -1.00000E+00  1.96766E-01
      21    -1     0     0   501   502  0.000000000E+00  0.000000000E+00  2.327510829E+01  2.327510829E+01  0.000000000E+00  0.00000E+00  9.000E+00
      21    -1     0     0   512   503  0.000000000E+00  0.000000000E+00 -1.282593851E+03  1.282593851E+03  0.000000000E+00  0.00000E+00  9.000E+00
      25     1     1     2     0     0  1.915725315E+01 -2.591234735E+01 -7.995058555E+02  8.098592297E+02  1.249956350E+02  0.00000E+00  9.000E+00
       5     1     1     2   501     0  1.045840623E+00 -4.417554746E+00  1.542944334E+01  1.677017574E+01  4.750000000E+00  0.00000E+00  9.000E+00
      -5     1     1     2     0   503 -2.838047672E+01  3.091295228E+01 -2.290638664E+02  2.329246218E+02  4.750000000E+00  0.00000E+00  9.000E+00
      21     1     1     2   512   502  8.177382956E+00 -5.830501804E-01 -2.461784640E+02  2.463149319E+02  2.697398305E-06  0.00000E+00  9.000E+00
#rwgt            1           9   2.7013041515417712E-003          10     1068371           0
</event>
<event>
      6   9999  3.45752E-01  9.61043E+00 -1.00000E+00  1.89030E-01
      21    -1     0     0   511   503  0.000000000E+00  0.000000000E+00  2.416428930E+02  2.416428930E+02  0.000000000E+00  0.00000E+00  9.000E+00
      21    -1     0     0   501   502  0.000000000E+00  0.000000000E+00 -7.584993225E+02  7.584993225E+02  0.000000000E+00  0.00000E+00  9.000E+00
      25     1     1     2     0     0  1.611017278E+01  1.365039312E+01 -4.731842443E+02  4.898723348E+02  1.250028179E+02  0.00000E+00  9.000E+00
       5     1     1     2   501     0 -1.093008431E+01 -1.501035614E+00 -1.826684381E+02  1.830629418E+02  4.750000000E+00  0.00000E+00  9.000E+00
      -5     1     1     2     0   503  4.032177799E+00 -9.411758220E+00 -9.366732962E+01  9.434495635E+01  4.750000000E+00  0.00000E+00  9.000E+00
      21     1     1     2   511   502 -9.212266274E+00 -2.737599282E+00  2.326635825E+02  2.328619826E+02  5.394796609E-06  0.00000E+00  9.000E+00
#rwgt            1           9   7.8447343240348577E-002          10     1072249           0
</event>
<event>
      6   9999  3.45752E-01  6.23398E+01 -1.00000E+00  1.29854E-01
      21    -1     0     0   501   502  0.000000000E+00  0.000000000E+00  1.092530757E+02  1.092530757E+02  0.000000000E+00  0.00000E+00  9.000E+00
       1    -1     0     0   502     0  0.000000000E+00  0.000000000E+00 -2.396679992E+03  2.396679992E+03  0.000000000E+00  0.00000E+00  9.000E+00
      25     1     1     2     0     0  4.124948967E+01 -1.250713446E+02 -1.578278893E+02  2.405534704E+02  1.249478603E+02  0.00000E+00  9.000E+00
       5     1     1     2   501     0 -7.218506691E+00 -1.197575032E+01  4.813216824E+01  5.034673330E+01  4.750000000E+00  0.00000E+00  9.000E+00
      -5     1     1     2     0   503 -4.847345068E+01  7.640338162E+01 -9.468224311E+01  1.310512946E+02  4.750000000E+00  0.00000E+00  9.000E+00
       1     1     1     2   503     0  1.444246770E+01  6.064371334E+01 -2.083048952E+03  2.083981570E+03  4.315837288E-05  0.00000E+00  9.000E+00
#rwgt            1           9   1.4139205745427913E-003          10     1074753           0
</event>
<event>
      6   9999  3.45752E-01  2.31749E+01 -1.00000E+00  1.55475E-01
      21    -1     0     0   502   511  0.000000000E+00  0.000000000E+00  1.013337001E+01  1.013337001E+01  0.000000000E+00  0.00000E+00  9.000E+00
      21    -1     0     0   501   502  0.000000000E+00  0.000000000E+00 -7.951059849E+02  7.951059849E+02  0.000000000E+00  0.00000E+00  9.000E+00
      25     1     1     2     0     0 -3.974019698E+01 -3.430723289E+00 -6.209623436E+02  6.346736719E+02  1.250015382E+02  0.00000E+00  9.000E+00
       5     1     1     2   501     0  2.825770318E+00 -6.074657859E-01 -1.838607974E+01  1.920844660E+01  4.750000000E+00  0.00000E+00  9.000E+00
      -5     1     1     2     0   503  1.432458423E+01 -1.136261106E+00 -8.721676170E+01  8.852011536E+01  4.750000000E+00  0.00000E+00  9.000E+00
      21     1     1     2   503   511  2.258984243E+01  5.174450181E+00 -5.840742980E+01  6.283712097E+01  1.168007728E-06  0.00000E+00  9.000E+00
#rwgt            1           9   4.7414927922811203E-004          10     1075595           0
</event>
<event>
      6   9999  3.45752E-01  7.13587E+00 -1.00000E+00  2.04080E-01
      21    -1     0     0   501   512  0.000000000E+00  0.000000000E+00  1.651467087E+02  1.651467087E+02  0.000000000E+00  0.00000E+00  9.000E+00
      21    -1     0     0   502   503  0.000000000E+00  0.000000000E+00 -1.151147713E+03  1.151147713E+03  0.000000000E+00  0.00000E+00  9.000E+00
      25     1     1     2     0     0 -3.260085417E+01 -2.428168197E+01 -6.724239082E+02  6.851500299E+02  1.249969417E+02  0.00000E+00  9.000E+00
       5     1     1     2   501     0 -1.541607107E+00 -2.543851958E+00  2.427886642E+01  2.491733513E+01  4.750000000E+00  0.00000E+00  9.000E+00
      -5     1     1     2     0   503  2.825466360E+01  3.085721960E+01 -4.710067451E+02  4.728851979E+02  4.750000000E+00  0.00000E+00  9.000E+00
      21     1     1     2   502   512  5.887797672E+00 -4.031685679E+00  1.331507820E+02  1.333418592E+02  1.907348633E-06  0.00000E+00  9.000E+00
#rwgt            1           9   1.1457460841169853E-003          10     1076545           0
</event>
<event>
      6   9999  3.45752E-01  2.15845E+01 -1.00000E+00  1.57723E-01
      21    -1     0     0   501   511  0.000000000E+00  0.000000000E+00  2.792096356E+01  2.792096356E+01  0.000000000E+00  0.00000E+00  9.000E+00
      21    -1     0     0   502   503  0.000000000E+00  0.000000000E+00 -1.111146568E+03  1.111146568E+03  0.000000000E+00  0.00000E+00  9.000E+00
      25     1     1     2     0     0  5.129649524E+01 -4.648869907E+01 -1.017769173E+03  1.027750447E+03  1.249974473E+02  0.00000E+00  9.000E+00
       5     1     1     2   501     0 -9.065473700E-02 -7.887996020E+00  1.271735954E+00  9.295617883E+00  4.750000000E+00  0.00000E+00  9.000E+00
      -5     1     1     2     0   503 -4.028923584E+01  3.575633845E+01 -3.802180963E+01  6.610566368E+01  4.750000000E+00  0.00000E+00  9.000E+00
      21     1     1     2   502   511 -1.091660467E+01  1.862035665E+01 -2.870635757E+01  3.591580298E+01  3.371747881E-07  0.00000E+00  9.000E+00
#rwgt            1           9   3.0082372544861186E-005          10     1081204           0
</event>
<event>
      6   9999  3.45752E-01  2.35072E+01 -1.00000E+00  1.55033E-01
      21    -1     0     0   501   502  0.000000000E+00  0.000000000E+00  7.921872452E+01  7.921872452E+01  0.000000000E+00  0.00000E+00  9.000E+00
      21    -1     0     0   502   512  0.000000000E+00  0.000000000E+00 -6.445909120E+02  6.445909120E+02  0.000000000E+00  0.00000E+00  9.000E+00
      25     1     1     2     0     0  2.692650379E+01 -1.595947220E+01 -4.273033688E+02  4.463100315E+02  1.249989356E+02  0.00000E+00  9.000E+00
       5     1     1     2   501     0 -3.303950179E+00 -1.081372886E+00  6.624653230E+01  6.650752586E+01  4.750000000E+00  0.00000E+00  9.000E+00
      -5     1     1     2     0   503 -2.501061607E+01 -6.425303745E+00 -1.416485112E+02  1.440613712E+02  4.750000000E+00  0.00000E+00  9.000E+00
      21     1     1     2   503   512  1.388062461E+00  2.346614883E+01 -6.266683986E+01  6.693070802E+01  1.168007728E-06  0.00000E+00  9.000E+00
#rwgt            1           9   9.3105088526675703E-004          10     1082841           0
</event>
<event>
      6   9999  3.45752E-01  2.53646E+01 -1.00000E+00  1.52713E-01
      21    -1     0     0   501   502  0.000000000E+00  0.000000000E+00  9.894772499E+02  9.894772499E+02  0.000000000E+00  0.00000E+00  9.000E+00
      21    -1     0     0   511   503  0.000000000E+00  0.000000000E+00 -5.090511540E+01  5.090511540E+01  0.000000000E+00  0.00000E+00  9.000E+00
      25     1     1     2     0     0 -4.165924667E+01 -1.911552901E+00  2.394642498E+02  2.733191294E+02  1.249842898E+02  0.00000E+00  9.000E+00
       5     1     1     2   501     0  5.488790797E+00 -1.469341463E+01  6.911016637E+02  6.912959535E+02  4.750000000E+00  0.00000E+00  9.000E+00
      -5     1     1     2     0   503  4.848459739E+01 -5.569949989E+00  1.092147100E+01  5.023566020E+01  4.750000000E+00  0.00000E+00  9.000E+00
      21     1     1     2   511   502 -1.231414151E+01  2.217491752E+01 -2.915250010E+00  2.553162218E+01  3.976125736E-07  0.00000E+00  9.000E+00
#rwgt            1           9   2.4370033435474998E-004          10     1084848           0
</event>
<event>
      6   9999  3.45752E-01  2.75080E+01 -1.00000E+00  1.50316E-01
      21    -1     0     0   501   502  0.000000000E+00  0.000000000E+00  3.715912305E+02  3.715912305E+02  0.000000000E+00  0.00000E+00  9.000E+00
      21    -1     0     0   502   512  0.000000000E+00  0.000000000E+00 -2.672801297E+02  2.672801297E+02  0.000000000E+00  0.00000E+00  9.000E+00
      25     1     1     2     0     0 -1.066273234E+01  2.307291038E+01 -1.722048485E+02  2.143008050E+02  1.249970884E+02  0.00000E+00  9.000E+00
       5     1     1     2   501     0 -2.197049020E+01 -1.119922155E+01  3.413201572E+02  3.422428044E+02  4.750000000E+00  0.00000E+00  9.000E+00
      -5     1     1     2     0   503  6.934189948E+00 -2.168426225E+01 -2.877938883E+01  3.700143161E+01  4.750000000E+00  0.00000E+00  9.000E+00
      21     1     1     2   503   512  2.569903258E+01  9.810573415E+00 -3.602481896E+01  4.532631915E+01  6.743495762E-07  0.00000E+00  9.000E+00
#rwgt            1           9   4.8415281119602985E-004          10     1086967           0
</event>
<event>
      6   9999  3.45752E-01  2.51789E+01 -1.00000E+00  1.52934E-01
      21    -1     0     0   501   502  0.000000000E+00  0.000000000E+00  3.400103939E+01  3.400103939E+01  0.000000000E+00  0.00000E+00  9.000E+00
      21    -1     0     0   502   511  0.000000000E+00  0.000000000E+00 -2.529668041E+03  2.529668041E+03  0.000000000E+00  0.00000E+00  9.000E+00
      25     1     1     2     0     0 -3.248566090E+01  9.945648122E+00 -6.511348568E+02  6.638947544E+02  1.250016364E+02  0.00000E+00  9.000E+00
       5     1     1     2   501     0  1.677007839E-01  1.954293606E+00  2.690619550E+01  2.739257642E+01  4.750000000E+00  0.00000E+00  9.000E+00
      -5     1     1     2     0   503  2.441480595E+01  1.200644139E+01 -5.404294303E+02  5.411347051E+02  4.750000000E+00  0.00000E+00  9.000E+00
      21     1     1     2   503   511  7.903154167E+00 -2.390638312E+01 -1.331008910E+03  1.331247044E+03  2.642899792E-05  0.00000E+00  9.000E+00
#rwgt            1           9   7.7939751687630321E-003          10     1089018           0
</event>
<event>
      6   9999  3.45752E-01  1.11073E+01 -1.00000E+00  1.82514E-01
      21    -1     0     0   502   503  0.000000000E+00  0.000000000E+00  2.361671944E+02  2.361671944E+02  0.000000000E+00  0.00000E+00  9.000E+00
      21    -1     0     0   501   512  0.000000000E+00  0.000000000E+00 -4.191343539E+01  4.191343539E+01  0.000000000E+00  0.00000E+00  9.000E+00
      25     1     1     2     0     0 -1.117074345E+01  1.043404869E+01  2.105966225E+02  2.453751064E+02  1.249974021E+02  0.00000E+00  9.000E+00
       5     1     1     2   501     0 -2.913618058E+00 -1.239188066E+00 -2.931525309E+00  6.417250025E+00  4.750000000E+00  0.00000E+00  9.000E+00
      -5     1     1     2     0   503  3.900848693E+00 -4.760064744E+00  1.271549064E+00  7.877447170E+00  4.750000000E+00  0.00000E+00  9.000E+00
      21     1     1     2   502   512  1.018351282E+01 -4.434795880E+00 -1.468288719E+01  1.841082627E+01  4.460403188E-07  0.00000E+00  9.000E+00
#rwgt            1           9   5.2058677859113207E-003          10     1091119           0
</event>
<event>
      6   9999  3.45752E-01  2.34504E+01 -1.00000E+00  1.55108E-01
       3    -1     0     0   501     0  0.000000000E+00  0.000000000E+00  2.986023744E+01  2.986023744E+01  0.000000000E+00  0.00000E+00  9.000E+00
      21    -1     0     0   502   503  0.000000000E+00  0.000000000E+00 -7.223665251E+02  7.223665251E+02  0.000000000E+00  0.00000E+00  9.000E+00
      25     1     1     2     0     0 -4.561799886E-01 -1.894470459E+01 -6.830316895E+02  6.946341251E+02  1.250006759E+02  0.00000E+00  9.000E+00
       5     1     1     2   501     0 -1.435712644E+01 -7.338609886E-01 -1.790178733E+01  2.344572714E+01  4.750000000E+00  0.00000E+00  9.000E+00
      -5     1     1     2     0   503  1.401680438E+00  4.419417929E-01 -5.060478608E+00  7.094431925E+00  4.750000000E+00  0.00000E+00  9.000E+00
       3     1     1     2   502     0  1.341162599E+01  1.923662379E+01  1.348766775E+01  2.705247840E+01  7.725644944E-07  0.00000E+00  9.000E+00
#rwgt            1           9   2.1788136694895705E-003          10     1093064           0
</event>
<event>
      6   9999 -3.45752E-01  1.78117E+01 -1.00000E+00  1.64149E-01
      21    -1     0     0   501   502  0.000000000E+00  0.000000000E+00  1.056597376E+01  1.056597376E+01  0.000000000E+00  0.00000E+00  9.000E+00
      21    -1     0     0   502   511  0.000000000E+00  0.000000000E+00 -1.076885212E+03  1.076885212E+03  0.000000000E+00  0.00000E+00  9.000E+00
      25     1     1     2     0     0  7.788073692E+00  7.049334237E+00 -6.988040964E+02  7.099689415E+02  1.249735393E+02  0.00000E+00  9.000E+00
       5     1     1     2   501     0 -2.742292983E+00  4.130328392E+00  7.357525484E-01  6.905332377E+00  4.750000000E+00  0.00000E+00  9.000E+00
      -5     1     1     2     0   503 -1.711470391E+01  1.919935472E+00 -8.996982592E+01  9.172639379E+01  4.750000000E+00  0.00000E+00  9.000E+00
      21     1     1     2   503   511  1.206892320E+01 -1.309959810E+01 -2.782810683E+02  2.788505179E+02  5.394796609E-06  0.00000E+00  9.000E+00
#rwgt            1           9  -5.7302314181184007E-005          10     1094373           0
</event>
<event>
      6   9999  3.45752E-01  5.97658E+00 -1.00000E+00  2.14295E-01
      21    -1     0     0   512   502  0.000000000E+00  0.000000000E+00  2.781387748E+01  2.781387748E+01  0.000000000E+00  0.00000E+00  9.000E+00
      21    -1     0     0   502   503  0.000000000E+00  0.000000000E+00 -1.073776040E+03  1.073776040E+03  0.000000000E+00  0.00000E+00  9.000E+00
      25     1     1     2     0     0  1.420793052E+01  2.922646623E+01 -8.315046199E+02  8.414745807E+02  1.249939417E+02  0.00000E+00  9.000E+00
       5     1     1     2   501     0  7.375419435E-01 -1.945655070E+00  1.940128096E+01  2.008237398E+01  4.750000000E+00  0.00000E+00  9.000E+00
      -5     1     1     2     0   503 -1.728146183E+01 -2.177966251E+01 -2.320935194E+02  2.338011268E+02  4.750000000E+00  0.00000E+00  9.000E+00
      21     1     1     2   512   501  2.335989370E+00 -5.501148651E+00 -1.765304326E+00  6.231836180E+00  9.424321831E-08  0.00000E+00  9.000E+00
#rwgt            1           9   6.7070240366846065E-003          10     1095768           0
</event>
<event>
      6   9999  3.45752E-01  1.15290E+01 -1.00000E+00  1.80911E-01
      21    -1     0     0   511   502  0.000000000E+00  0.000000000E+00  5.366364956E+02  5.366364956E+02  0.000000000E+00  0.00000E+00  9.000E+00
      21    -1     0     0   502   503  0.000000000E+00  0.000000000E+00 -3.281905652E+02  3.281905652E+02  0.000000000E+00  0.00000E+00  9.000E+00
      25     1     1     2     0     0 -9.099962821E+01  5.237862310E+01  3.683880916E+01  1.673517311E+02  1.250002062E+02  0.00000E+00  9.000E+00
       5     1     1     2   501     0  1.246178404E+00 -1.961814094E+01  3.651386068E+02  3.656982214E+02  4.750000000E+00  0.00000E+00  9.000E+00
      -5     1     1     2     0   503  9.420067350E+01 -4.339723522E+01 -2.518071458E+02  2.723719664E+02  4.750000000E+00  0.00000E+00  9.000E+00
      21     1     1     2   511   501 -4.447223702E+00  1.063675306E+01  5.827566017E+01  5.940514189E+01  1.168007728E-06  0.00000E+00  9.000E+00
#rwgt            1           9  0.40184171109593242               10     1100346           0
</event>
<event>
      6   9999  3.45752E-01  2.07929E+01 -1.00000E+00  1.58932E-01
      21    -1     0     0   501   512  0.000000000E+00  0.000000000E+00  2.164049292E+01  2.164049292E+01  0.000000000E+00  0.00000E+00  9.000E+00
      21    -1     0     0   502   503  0.000000000E+00  0.000000000E+00 -9.776211391E+02  9.776211391E+02  0.000000000E+00  0.00000E+00  9.000E+00
      25     1     1     2     0     0  1.541230797E+01  8.727617921E+00 -9.200456083E+02  9.286653675E+02  1.249869310E+02  0.00000E+00  9.000E+00
       5     1     1     2   501     0  5.810730040E+00 -1.838875084E+00  1.199905683E+01  1.427185728E+01  4.750000000E+00  0.00000E+00  9.000E+00
      -5     1     1     2     0   503 -1.107796772E+00 -1.623527472E+00 -2.433426543E+01  2.487130936E+01  4.750000000E+00  0.00000E+00  9.000E+00
      21     1     1     2   502   512 -2.011524124E+01 -5.265215365E+00 -2.359982925E+01  3.145309784E+01  4.768371582E-07  0.00000E+00  9.000E+00
#rwgt            1           9   6.9550548203429206E-004          10     1104871           0
</event>
<event>
      6   9999  3.45752E-01  8.45135E+00 -1.00000E+00  1.95234E-01
      21    -1     0     0   501   502  0.000000000E+00  0.000000000E+00  1.912254950E+01  1.912254950E+01  0.000000000E+00  0.00000E+00  9.000E+00
      21    -1     0     0   502   511  0.000000000E+00  0.000000000E+00 -1.807850354E+03  1.807850354E+03  0.000000000E+00  0.00000E+00  9.000E+00
      25     1     1     2     0     0  5.643112376E+01  1.879624070E+01 -6.756294893E+02  6.896648207E+02  1.249983507E+02  0.00000E+00  9.000E+00
       5     1     1     2   501     0  8.313624821E-01 -1.548400894E+00  8.075512227E+00  9.532319059E+00  4.750000000E+00  0.00000E+00  9.000E+00
      -5     1     1     2     0   503 -5.195950222E+01 -1.066728052E+01 -2.128017721E+02  2.193643942E+02  4.750000000E+00  0.00000E+00  9.000E+00
      21     1     1     2   503   511 -5.302984013E+00 -6.580559293E+00 -9.083720552E+02  9.084113694E+02  1.525878906E-05  0.00000E+00  9.000E+00
#rwgt            1           9   3.2790998699387609E-005          10     1107032           0
</event>
<event>
      6   9999  3.45752E-01  1.44012E+01 -1.00000E+00  1.71919E-01
      21    -1     0     0   501   502  0.000000000E+00  0.000000000E+00  2.036213318E+02  2.036213318E+02  0.000000000E+00  0.00000E+00  9.000E+00
      21    -1     0     0   502   512  0.000000000E+00  0.000000000E+00 -2.060440688E+02  2.060440688E+02  0.000000000E+00  0.00000E+00  9.000E+00
      25     1     1     2     0     0  2.625531931E+01  2.047526598E+01 -1.019632090E+02  1.647139586E+02  1.250024555E+02  0.00000E+00  9.000E+00
       5     1     1     2   501     0 -4.379686153E+00  9.557845863E+00  1.652156047E+02  1.656179115E+02  4.750000000E+00  0.00000E+00  9.000E+00
      -5     1     1     2     0   503 -1.673373753E+01 -1.658110352E+01 -1.944770881E+01  3.091483210E+01  4.750000000E+00  0.00000E+00  9.000E+00
      21     1     1     2   503   512 -5.141895629E+00 -1.345200832E+01 -4.622742399E+01  4.841869832E+01  0.000000000E+00  0.00000E+00  9.000E+00
#rwgt            1           9   2.2877304715250026E-004          10     1110106           0
</event>
<event>
      6   9999  3.45752E-01  2.08772E+00 -1.00000E+00  3.25837E-01
      21    -1     0     0   501   502  0.000000000E+00  0.000000000E+00  1.401242101E+01  1.401242101E+01  0.000000000E+00  0.00000E+00  9.000E+00
      21    -1     0     0   502   511  0.000000000E+00  0.000000000E+00 -9.172010120E+02  9.172010120E+02  0.000000000E+00  0.00000E+00  9.000E+00
      25     1     1     2     0     0 -2.488549871E+00 -1.983922194E+00 -8.575860826E+02  8.666548987E+02  1.250067822E+02  0.00000E+00  9.000E+00
       5     1     1     2   501     0  2.720309705E+00  1.314652382E-01  8.362154849E+00  9.995273969E+00  4.750000000E+00  0.00000E+00  9.000E+00
      -5     1     1     2     0   503  1.266991015E+00  3.305836373E+00 -3.713102422E+01  3.760065532E+01  4.750000000E+00  0.00000E+00  9.000E+00
      21     1     1     2   503   511 -1.498750849E+00 -1.453379417E+00 -1.683363903E+01  1.696260502E+01  2.384185791E-07  0.00000E+00  9.000E+00
#rwgt            1           9   1.6352888756769073E-004          10     1112915           0
</event>
<event>
      6   9999  3.45752E-01  9.75045E+00 -1.00000E+00  1.88357E-01
      21    -1     0     0   501   512  0.000000000E+00  0.000000000E+00  1.119604494E+02  1.119604494E+02  0.000000000E+00  0.00000E+00  9.000E+00
      21    -1     0     0   502   503  0.000000000E+00  0.000000000E+00 -1.419255353E+03  1.419255353E+03  0.000000000E+00  0.00000E+00  9.000E+00
      25     1     1     2     0     0  4.160152043E+00 -6.109834423E-01 -1.214161844E+03  1.220586612E+03  1.250000565E+02  0.00000E+00  9.000E+00
       5     1     1     2   501     0 -1.033043359E+01 -1.524584744E+01  5.370846464E+01  5.697644598E+01  4.750000000E+00  0.00000E+00  9.000E+00
      -5     1     1     2     0   503  2.912918338E+00  6.666576641E+00 -1.997068449E+02  1.998957597E+02  4.750000000E+00  0.00000E+00  9.000E+00
      21     1     1     2   502   512  3.257363206E+00  9.190254246E+00  5.286532104E+01  5.375698426E+01  6.743495762E-07  0.00000E+00  9.000E+00
#rwgt            1           9   3.4807040586683899E-003          10     1120863           0
</event>
<event>
      6   9999  3.45752E-01  8.51250E+00 -1.00000E+00  1.94875E-01
      21    -1     0     0   501   511  0.000000000E+00  0.000000000E+00  2.718131366E+01  2.718131366E+01  0.000000000E+00  0.00000E+00  9.000E+00
      21    -1     0     0   502   503  0.000000000E+00  0.000000000E+00 -1.234538120E+03  1.234538120E+03  0.000000000E+00  0.00000E+00  9.000E+00
      25     1     1     2     0     0 -6.713838395E+01  2.166515123E+01 -2.702154693E+02  3.059707208E+02  1.249989631E+02  0.00000E+00  9.000E+00
       5     1     1     2   501     0  8.838769962E-01  1.414753744E+00  5.839649829E+00  7.710173592E+00  4.750000000E+00  0.00000E+00  9.000E+00
      -5     1     1     2     0   503  7.090221534E+01 -3.021162586E+01 -9.241805559E+02  9.274007380E+02  4.750000000E+00  0.00000E+00  9.000E+00
      21     1     1     2   502   511 -4.647708382E+00  7.131720883E+00 -1.880043129E+01  2.063780155E+01  3.371747881E-07  0.00000E+00  9.000E+00
#rwgt            1           9   1.3602896161488491E-002          10     1125310           0
</event>
<event>
      6   9999  3.45752E-01  9.83659E+00 -1.00000E+00  1.87951E-01
      21    -1     0     0   501   502  0.000000000E+00  0.000000000E+00  2.543790846E+01  2.543790846E+01  0.000000000E+00  0.00000E+00  9.000E+00
      21    -1     0     0   502   512  0.000000000E+00  0.000000000E+00 -1.067743074E+03  1.067743074E+03  0.000000000E+00  0.00000E+00  9.000E+00
      25     1     1     2     0     0  6.391326681E+01  8.478452681E+00 -6.207169790E+02  6.364533330E+02  1.250059488E+02  0.00000E+00  9.000E+00
       5     1     1     2   501     0 -2.427887746E-01  3.949569502E+00  1.444256729E+01  1.571013353E+01  4.750000000E+00  0.00000E+00  9.000E+00
      -5     1     1     2     0   503 -5.389854064E+01 -1.130209625E+01 -3.374417502E+02  3.419390111E+02  4.750000000E+00  0.00000E+00  9.000E+00
      21     1     1     2   503   512 -9.771937392E+00 -1.125925929E+00 -9.858900327E+01  9.907850441E+01  1.907348633E-06  0.00000E+00  9.000E+00
#rwgt            1           9   1.4195736552997692E-003          10     1129367           0
</event>
<event>
      6   9999  3.45752E-01  3.61421E+01 -1.00000E+00  1.42789E-01
      21    -1     0     0   501   502  0.000000000E+00  0.000000000E+00  4.140587934E+01  4.140587934E+01  0.000000000E+00  0.00000E+00  9.000E+00
      21    -1     0     0   511   503  0.000000000E+00  0.000000000E+00 -2.269718036E+03  2.269718036E+03  0.000000000E+00  0.00000E+00  9.000E+00
      25     1     1     2     0     0 -2.202359140E+01 -4.819931729E+01 -8.015120924E+02  8.129377491E+02  1.250517369E+02  0.00000E+00  9.000E+00
       5     1     1     2   501     0 -1.145495445E+00 -4.857406440E+00  3.475819902E+01  3.543446706E+01  4.750000000E+00  0.00000E+00  9.000E+00
      -5     1     1     2     0   503  1.276235003E+01  1.844527906E+01 -5.567953962E+02  5.572672443E+02  4.750000000E+00  0.00000E+00  9.000E+00
      21     1     1     2   511   502  1.040673682E+01  3.461144466E+01 -9.047628674E+02  9.054844551E+02  1.525878906E-05  0.00000E+00  9.000E+00
#rwgt            1           9  0.46048594465333098               10     1132561           0
</event>
<event>
      6   9999  3.45752E-01  1.02885E+01 -1.00000E+00  1.85902E-01
      21    -1     0     0   501   502  0.000000000E+00  0.000000000E+00  1.018543131E+01  1.018543131E+01  0.000000000E+00  0.00000E+00  9.000E+00
      21    -1     0     0   502   512  0.000000000E+00  0.000000000E+00 -1.887181964E+03  1.887181964E+03  0.000000000E+00  0.00000E+00  9.000E+00
      25     1     1     2     0     0 -2.007014256E+01  2.514916989E+01 -1.032613117E+03  1.040651158E+03  1.250187624E+02  0.00000E+00  9.000E+00
       5     1     1     2   501     0  1.246126459E+00 -2.538551541E+00  4.065712396E+00  6.862185684E+00  4.750000000E+00  0.00000E+00  9.000E+00
      -5     1     1     2     0   503  2.893924318E+01 -2.073028037E+01 -5.173099284E+02  5.185550586E+02  4.750000000E+00  0.00000E+00  9.000E+00
      21     1     1     2   503   512 -1.011522707E+01 -1.880337973E+00 -3.311391994E+02  3.312989932E+02  3.814697266E-06  0.00000E+00  9.000E+00
#rwgt            1           9   3.7034298743477594E-004          10     1134516           0
</event>
<event>
      6   9999  3.45752E-01  1.33339E+01 -1.00000E+00  1.74926E-01
      21    -1     0     0   501   502  0.000000000E+00  0.000000000E+00  1.359095362E+01  1.359095362E+01  0.000000000E+00  0.00000E+00  9.000E+00
      21    -1     0     0   502   511  0.000000000E+00  0.000000000E+00 -9.679749818E+02  9.679749818E+02  0.000000000E+00  0.00000E+00  9.000E+00
      25     1     1     2     0     0 -2.171967177E+00  2.115178131E+00 -8.394127162E+02  8.486745437E+02  1.250023266E+02  0.00000E+00  9.000E+00
       5     1     1     2   501     0 -3.554821040E-01  6.407974630E-01  4.770007228E+00  6.771444297E+00  4.750000000E+00  0.00000E+00  9.000E+00
      -5     1     1     2     0   503 -9.588892149E+00  2.810519386E+00 -8.166879317E+00  1.375159226E+01  4.750000000E+00  0.00000E+00  9.000E+00
      21     1     1     2   503   511  1.211634143E+01 -5.566494980E+00 -1.115744399E+02  1.123683551E+02  1.348699152E-06  0.00000E+00  9.000E+00
#rwgt            1           9   4.3039498679735841E-004          10     1137178           0
</event>
<event>
      6   9999 -3.45752E-01  7.68374E+00 -1.00000E+00  2.00112E-01
      21    -1     0     0   512   502  0.000000000E+00  0.000000000E+00  5.631534730E+00  5.631534730E+00  0.000000000E+00  0.00000E+00  9.000E+00
      21    -1     0     0   502   503  0.000000000E+00  0.000000000E+00 -3.792625017E+03  3.792625017E+03  0.000000000E+00  0.00000E+00  9.000E+00
      25     1     1     2     0     0 -1.566997414E+00  6.966915344E+00 -3.769503982E+03  3.771582526E+03  1.249939513E+02  0.00000E+00  9.000E+00
       5     1     1     2   501     0  3.792379220E+00  1.514462197E-01 -3.067369882E+00  6.810017188E+00  4.750000000E+00  0.00000E+00  9.000E+00
      -5     1     1     2     0   503  1.486855730E+00 -3.908740390E-01 -9.519941180E+00  1.074966523E+01  4.750000000E+00  0.00000E+00  9.000E+00
      21     1     1     2   512   501 -3.712237536E+00 -6.727487525E+00 -4.902189643E+00  9.114343598E+00  5.364418030E-07  0.00000E+00  9.000E+00
#rwgt            1           9  -1.2024625889617089E-003          10     1139270           0
</event>
<event>
      6   9999  3.45752E-01  7.95271E+00 -1.00000E+00  1.98321E-01
      21    -1     0     0   511   502  0.000000000E+00  0.000000000E+00  2.588033586E+01  2.588033586E+01  0.000000000E+00  0.00000E+00  9.000E+00
      21    -1     0     0   502   503  0.000000000E+00  0.000000000E+00 -1.081838398E+03  1.081838398E+03  0.000000000E+00  0.00000E+00  9.000E+00
      25     1     1     2     0     0  2.588685173E+01 -1.130602878E+01 -4.598681524E+02  4.773904979E+02  1.250000581E+02  0.00000E+00  9.000E+00
       5     1     1     2   501     0  3.180739476E+00 -6.604174925E-01  1.540435180E+01  1.644414210E+01  4.750000000E+00  0.00000E+00  9.000E+00
      -5     1     1     2     0   503 -2.773485729E+01  4.126198991E+00 -5.938476740E+02  5.945282754E+02  4.750000000E+00  0.00000E+00  9.000E+00
      21     1     1     2   511   501 -1.332733921E+00  7.840247282E+00 -1.764658773E+01  1.935581865E+01  3.371747881E-07  0.00000E+00  9.000E+00
#rwgt            1           9   7.3299743823955783E-003          10     1142301           0
</event>
<event>
      6   9999  3.45752E-01  2.07394E+01 -1.00000E+00  1.59016E-01
      21    -1     0     0   501   502  0.000000000E+00  0.000000000E+00  3.144835961E+02  3.144835961E+02  0.000000000E+00  0.00000E+00  9.000E+00
      21    -1     0     0   512   503  0.000000000E+00  0.000000000E+00 -1.599621119E+02  1.599621119E+02  0.000000000E+00  0.00000E+00  9.000E+00
      25     1     1     2     0     0  1.438859696E+02 -6.993429960E+01  1.122406769E+01  2.033369793E+02  1.250038758E+02  0.00000E+00  9.000E+00
       5     1     1     2   501     0  3.755562408E+00  1.900128800E+00  1.033632825E+02  1.035579326E+02  4.750000000E+00  0.00000E+00  9.000E+00
      -5     1     1     2     0   503 -1.294857609E+02  5.800971043E+01  3.565356861E+01  1.463742745E+02  4.750000000E+00  0.00000E+00  9.000E+00
      21     1     1     2   512   502 -1.815577107E+01  1.002446037E+01  4.280565405E+00  2.117652165E+01  3.953724850E-07  0.00000E+00  9.000E+00
#rwgt            1           9   1.4443738644564407E-004          10     1146463           0
</event>
<event>
      6   9999  3.45752E-01  7.49215E+00 -1.00000E+00  2.01448E-01
      21    -1     0     0   501   502  0.000000000E+00  0.000000000E+00  1.693304251E+03  1.693304251E+03  0.000000000E+00  0.00000E+00  9.000E+00
      21    -1     0     0   502   511  0.000000000E+00  0.000000000E+00 -1.184413175E+01  1.184413175E+01  0.000000000E+00  0.00000E+00  9.000E+00
      25     1     1     2     0     0 -4.399051304E+01  2.050087618E+01  6.675071295E+02  6.808440929E+02  1.250098388E+02  0.00000E+00  9.000E+00
       5     1     1     2   501     0  1.464791179E+00 -3.203717700E+00  8.429432926E+02  8.429640363E+02  4.750000000E+00  0.00000E+00  9.000E+00
      -5     1     1     2     0   503  4.989859795E+01 -1.596561975E+01  1.544960665E+02  1.632065200E+02  4.750000000E+00  0.00000E+00  9.000E+00
      21     1     1     2   503   511 -7.372876094E+00 -1.331538723E+00  1.651363090E+01  1.813373383E+01  3.371747881E-07  0.00000E+00  9.000E+00
#rwgt            1           9   8.2877402570610310E-005          10     1148520           0
</event>
<event>
      6   9999 -3.45752E-01  2.71175E+01 -1.00000E+00  1.50733E-01
      21    -1     0     0   512   502  0.000000000E+00  0.000000000E+00  3.149344018E+01  3.149344018E+01  0.000000000E+00  0.00000E+00  9.000E+00
      21    -1     0     0   502   503  0.000000000E+00  0.000000000E+00 -8.369803343E+02  8.369803343E+02  0.000000000E+00  0.00000E+00  9.000E+00
      25     1     1     2     0     0  2.645946419E+01 -3.902707816E+01 -7.658197509E+02  7.773853943E+02  1.249997775E+02  0.00000E+00  9.000E+00
       5     1     1     2   501     0 -2.288064463E+01  1.292082902E+01 -1.920074559E+01  3.288925132E+01  4.750000000E+00  0.00000E+00  9.000E+00
      -5     1     1     2     0   503  6.236499591E-01 -6.836330883E-01 -2.928624222E+01  2.968337543E+01  4.750000000E+00  0.00000E+00  9.000E+00
      21     1     1     2   512   501 -4.202469525E+00  2.678988223E+01  8.819844503E+00  2.851575349E+01  4.915124924E-07  0.00000E+00  9.000E+00
#rwgt            1           9 -0.10899675687656112               10     1152533           0
</event>
<event>
      6   9999 -3.45752E-01  5.17412E+00 -1.00000E+00  2.23427E-01
      21    -1     0     0   501   502  0.000000000E+00  0.000000000E+00  8.451157341E+01  8.451157341E+01  0.000000000E+00  0.00000E+00  9.000E+00
      21    -1     0     0   511   503  0.000000000E+00  0.000000000E+00 -1.011739864E+03  1.011739864E+03  0.000000000E+00  0.00000E+00  9.000E+00
      25     1     1     2     0     0 -2.393240138E+02 -6.613362971E+01 -3.218089040E+02  4.252472320E+02  1.249983883E+02  0.00000E+00  9.000E+00
       5     1     1     2   501     0  1.265001961E+00 -6.169885702E-01  5.893012071E+00  7.698765883E+00  4.750000000E+00  0.00000E+00  9.000E+00
      -5     1     1     2     0   503  2.431510107E+02  6.583244679E+01 -5.936937938E+02  6.449427946E+02  4.750000000E+00  0.00000E+00  9.000E+00
      21     1     1     2   511   502 -5.091998769E+00  9.181714908E-01 -1.761860514E+01  1.836264516E+01  3.371747881E-07  0.00000E+00  9.000E+00
#rwgt            1           9  -1.7014980979744943E-003          10     1153794           0
</event>
<event>
      6   9999  3.45752E-01  6.44502E+00 -1.00000E+00  2.09819E-01
      21    -1     0     0   501   502  0.000000000E+00  0.000000000E+00  2.711141912E+01  2.711141912E+01  0.000000000E+00  0.00000E+00  9.000E+00
      21    -1     0     0   502   512  0.000000000E+00  0.000000000E+00 -1.129291455E+03  1.129291455E+03  0.000000000E+00  0.00000E+00  9.000E+00
      25     1     1     2     0     0 -6.572930607E+01 -3.313243128E+01 -4.766617218E+02  4.982456562E+02  1.249969489E+02  0.00000E+00  9.000E+00
       5     1     1     2   501     0  1.036837368E+00  2.873516080E+00  1.369782732E+01  1.481637944E+01  4.750000000E+00  0.00000E+00  9.000E+00
      -5     1     1     2     0   503  6.068400398E+01  2.521208453E+01 -5.988608517E+02  6.024741320E+02  4.750000000E+00  0.00000E+00  9.000E+00
      21     1     1     2   503   512  4.008464723E+00  5.046830666E+00 -4.035529010E+01  4.086670685E+01  6.743495762E-07  0.00000E+00  9.000E+00
#rwgt            1           9   3.2292140153371298E-003          10     1160047           0
</event>
<event>
      6   9999  3.45752E-01  1.94649E+01 -1.00000E+00  1.61115E-01
      21    -1     0     0   501   502  0.000000000E+00  0.000000000E+00  9.209427527E+01  9.209427527E+01  0.000000000E+00  0.00000E+00  9.000E+00
      21    -1     0     0   511   503  0.000000000E+00  0.000000000E+00 -1.897775008E+03  1.897775008E+03  0.000000000E+00  0.00000E+00  9.000E+00
      25     1     1     2     0     0  1.859618482E+02  3.423466073E-01 -1.101398960E+03  1.123960246E+03  1.250001568E+02  0.00000E+00  9.000E+00
       5     1     1     2   501     0  1.298861475E+01 -2.886032928E+00  6.201653852E+01  6.360539952E+01  4.750000000E+00  0.00000E+00  9.000E+00
      -5     1     1     2     0   503 -1.883129520E+02 -1.375738930E+01 -4.872376274E+02  5.225649258E+02  4.750000000E+00  0.00000E+00  9.000E+00
      21     1     1     2   511   502 -1.063751094E+01  1.630107562E+01 -2.790606836E+02  2.797387117E+02  5.394796609E-06  0.00000E+00  9.000E+00
#rwgt            1           9   7.8651728721204316E-003          10     1164661           0
</event>
<event>
      6   9999  3.45752E-01  1.53965E+02 -1.00000E+00  1.12974E-01
      21    -1     0     0   512   503  0.000000000E+00  0.000000000E+00  2.188654974E+02  2.188654974E+02  0.000000000E+00  0.00000E+00  9.000E+00
      21    -1     0     0   501   502  0.000000000E+00  0.000000000E+00 -1.459686099E+03  1.459686099E+03  0.000000000E+00  0.00000E+00  9.000E+00
      25     1     1     2     0     0  6.462830268E+01 -3.595607931E+00 -2.767413681E+01  1.434589897E+02  1.249995118E+02  0.00000E+00  9.000E+00
       5     1     1     2   501     0  1.180804957E+01  3.405110909E+01 -7.384252735E+02  7.393195216E+02  4.750000000E+00  0.00000E+00  9.000E+00
      -5     1     1     2     0   503  7.230792471E+01 -7.020966436E+01 -5.930615516E+02  6.015832440E+02  4.750000000E+00  0.00000E+00  9.000E+00
      21     1     1     2   512   502 -1.487442770E+02  3.975416320E+01  1.183403604E+02  1.941898409E+02  3.303624740E-06  0.00000E+00  9.000E+00
#rwgt            1           9   1.0449120755262860E-003          10     1168057           0
</event>
<event>
      6   9999  3.45752E-01  9.66230E+00 -1.00000E+00  1.88779E-01
      21    -1     0     0   501   502  0.000000000E+00  0.000000000E+00  7.656141859E+01  7.656141859E+01  0.000000000E+00  0.00000E+00  9.000E+00
      21    -1     0     0   511   503  0.000000000E+00  0.000000000E+00 -2.050835572E+02  2.050835572E+02  0.000000000E+00  0.00000E+00  9.000E+00
      25     1     1     2     0     0  2.566716444E+01 -5.591097526E+01 -3.008404590E+01  1.425392112E+02  1.250101452E+02  0.00000E+00  9.000E+00
       5     1     1     2   501     0  5.500043821E-01 -1.561297264E+00  1.056572492E+01  1.170201679E+01  4.750000000E+00  0.00000E+00  9.000E+00
      -5     1     1     2     0   503 -2.301918138E+01  4.835454722E+01 -7.656461935E+01  9.355612425E+01  4.750000000E+00  0.00000E+00  9.000E+00
      21     1     1     2   511   502 -3.197987440E+00  9.117725299E+00 -3.243919831E+01  3.384762363E+01  4.768371582E-07  0.00000E+00  9.000E+00
#rwgt            1           9   14.769774797338654               10     1169310           0
</event>
<event>
      6   9999  3.45752E-01  3.51633E+01 -1.00000E+00  1.43511E-01
      21    -1     0     0   501   502  0.000000000E+00  0.000000000E+00  1.569109713E+03  1.569109713E+03  0.000000000E+00  0.00000E+00  9.000E+00
      -2    -1     0     0     0   503  0.000000000E+00  0.000000000E+00 -1.681031090E+02  1.681031090E+02  0.000000000E+00  0.00000E+00  9.000E+00
      25     1     1     2     0     0 -1.022880024E+02  3.211456629E+01  4.482673471E+02  4.775589537E+02  1.249990362E+02  0.00000E+00  9.000E+00
       5     1     1     2   501     0  2.622071076E+00 -1.355199975E+01  1.044480671E+03  1.044582676E+03  4.750000000E+00  0.00000E+00  9.000E+00
      -5     1     1     2     0   503  8.034496215E+01 -4.794206198E+01  2.182069815E+01  9.618970640E+01  4.750000000E+00  0.00000E+00  9.000E+00
      -2     1     1     2     0   502  1.932096917E+01  2.937949543E+01 -1.135621117E+02  1.188814865E+02  3.568322551E-06  0.00000E+00  9.000E+00
#rwgt            1           9  0.32521128074269468               10     1172002           0
</event>
<event>
      6   9999  3.45752E-01  2.98686E+01 -1.00000E+00  1.47961E-01
      21    -1     0     0   501   502  0.000000000E+00  0.000000000E+00  6.188871126E+01  6.188871126E+01  0.000000000E+00  0.00000E+00  9.000E+00
      21    -1     0     0   511   503  0.000000000E+00  0.000000000E+00 -1.770974821E+02  1.770974821E+02  0.000000000E+00  0.00000E+00  9.000E+00
      25     1     1     2     0     0 -2.067935213E+01  6.847066447E+00 -9.938189926E+01  1.611708814E+02  1.249990927E+02  0.00000E+00  9.000E+00
       5     1     1     2   501     0 -7.938430947E+00  7.218190175E-01  2.347501442E+01  2.524239510E+01  4.750000000E+00  0.00000E+00  9.000E+00
      -5     1     1     2     0   503 -6.122867682E-01 -1.426076049E+00 -4.664353545E+00  6.835735657E+00  4.750000000E+00  0.00000E+00  9.000E+00
      21     1     1     2   511   502  2.923006984E+01 -6.142809415E+00 -3.463753243E+01  4.573718119E+01  8.259061849E-07  0.00000E+00  9.000E+00
#rwgt            1           9   1.1475188984221719E-003          10     1173772           0
</event>
<event>
      6   9999  3.45752E-01  7.21960E+00 -1.00000E+00  2.03444E-01
      21    -1     0     0   501   502  0.000000000E+00  0.000000000E+00  3.352250764E+01  3.352250764E+01  0.000000000E+00  0.00000E+00  9.000E+00
      21    -1     0     0   502   512  0.000000000E+00  0.000000000E+00 -1.199337388E+03  1.199337388E+03  0.000000000E+00  0.00000E+00  9.000E+00
      25     1     1     2     0     0 -1.465720779E+01  4.783577851E+00 -2.895154342E+02  3.157253020E+02  1.250022533E+02  0.00000E+00  9.000E+00
       5     1     1     2   501     0  2.038377359E+00  3.914802791E+00  1.945757026E+01  2.050951495E+01  4.750000000E+00  0.00000E+00  9.000E+00
      -5     1     1     2     0   503  5.752727343E+00 -1.092980795E+01 -8.621402415E+02  8.622417950E+02  4.750000000E+00  0.00000E+00  9.000E+00
      21     1     1     2   503   512  6.866103083E+00  2.231427312E+00 -3.361677447E+01  3.438328323E+01  0.000000000E+00  0.00000E+00  9.000E+00
#rwgt            1           9   5.7882624144142740E-006          10     1174548           0
</event>
<event>
      6   9999  3.45752E-01  7.01036E+00 -1.00000E+00  2.05057E-01
      21    -1     0     0   501   511  0.000000000E+00  0.000000000E+00  1.309741922E+01  1.309741922E+01  0.000000000E+00  0.00000E+00  9.000E+00
      21    -1     0     0   502   503  0.000000000E+00  0.000000000E+00 -8.774736896E+02  8.774736896E+02  0.000000000E+00  0.00000E+00  9.000E+00
      25     1     1     2     0     0  3.257260815E+01  2.237418764E+01 -6.993481964E+02  7.115303361E+02  1.250037610E+02  0.00000E+00  9.000E+00
       5     1     1     2   501     0 -5.434559243E-01 -4.824238043E-01  3.472708311E+00  5.928767164E+00  4.750000000E+00  0.00000E+00  9.000E+00
      -5     1     1     2     0   503 -2.527152133E+01 -2.002641755E+01 -1.428058119E+02  1.464778810E+02  4.750000000E+00  0.00000E+00  9.000E+00
      21     1     1     2   502   511 -6.757630895E+00 -1.865346281E+00 -2.569497032E+01  2.663412458E+01  3.371747881E-07  0.00000E+00  9.000E+00
#rwgt            1           9   5.5246790190269519E-005          10     1180172           0
</event>
<event>
      6   9999  3.45752E-01  1.18814E+01 -1.00000E+00  1.79638E-01
      21    -1     0     0   501   502  0.000000000E+00  0.000000000E+00  3.120765536E+02  3.120765536E+02  0.000000000E+00  0.00000E+00  9.000E+00
      21    -1     0     0   512   503  0.000000000E+00  0.000000000E+00 -1.192913873E+02  1.192913873E+02  0.000000000E+00  0.00000E+00  9.000E+00
      25     1     1     2     0     0  1.336400793E+01  3.139549754E+00 -1.524213078E+01  1.266751823E+02  1.250033031E+02  0.00000E+00  9.000E+00
       5     1     1     2   501     0  3.287080993E+00 -5.695666405E+00  2.471833812E+02  2.473164612E+02  4.750000000E+00  0.00000E+00  9.000E+00
      -5     1     1     2     0   503 -4.772296245E+00  2.803498441E+00  6.762014171E+00  9.945941414E+00  4.750000000E+00  0.00000E+00  9.000E+00
      21     1     1     2   512   502 -1.187879268E+01 -2.473817894E-01 -4.591809829E+01  4.743035594E+01  6.743495762E-07  0.00000E+00  9.000E+00
#rwgt            1           9   2.6304775369436486               10     1183321           0
</event>
<event>
      6   9999  3.45752E-01  1.07757E+01 -1.00000E+00  1.83840E-01
      21    -1     0     0   501   502  0.000000000E+00  0.000000000E+00  4.279615389E+01  4.279615389E+01  0.000000000E+00  0.00000E+00  9.000E+00
      21    -1     0     0   511   503  0.000000000E+00  0.000000000E+00 -1.785300604E+03  1.785300604E+03  0.000000000E+00  0.00000E+00  9.000E+00
      25     1     1     2     0     0  1.240245638E+00  9.257326004E-01 -1.001937826E+03  1.009706201E+03  1.249992377E+02  0.00000E+00  9.000E+00
       5     1     1     2   501     0  3.585621589E+00 -5.411106842E-01  3.842748665E+01  3.888937790E+01  4.750000000E+00  0.00000E+00  9.000E+00
      -5     1     1     2     0   503 -9.975109905E+00  9.081154664E+00 -2.583290411E+02  2.587246146E+02  4.750000000E+00  0.00000E+00  9.000E+00
      21     1     1     2   511   502  5.149242678E+00 -9.465776580E+00 -5.206650696E+02  5.207765647E+02  1.078959322E-05  0.00000E+00  9.000E+00
#rwgt            1           9   1.5535935883384289E-004          10     1186417           0
</event>
<event>
      6   9999  3.45752E-01  1.78883E+01 -1.00000E+00  1.64000E-01
      21    -1     0     0   501   512  0.000000000E+00  0.000000000E+00  5.735461256E+02  5.735461256E+02  0.000000000E+00  0.00000E+00  9.000E+00
      21    -1     0     0   502   503  0.000000000E+00  0.000000000E+00 -7.374638270E+02  7.374638270E+02  0.000000000E+00  0.00000E+00  9.000E+00
      25     1     1     2     0     0 -9.563274753E+00 -2.686875621E+00 -6.002217546E+02  6.131795417E+02  1.249972806E+02  0.00000E+00  9.000E+00
       5     1     1     2   501     0 -1.554983716E+00  2.772143818E+00  4.029678343E-01  5.729540888E+00  4.750000000E+00  0.00000E+00  9.000E+00
      -5     1     1     2     0   503 -3.470736676E+00  1.026616188E+01 -1.276844515E+02  1.282315162E+02  4.750000000E+00  0.00000E+00  9.000E+00
      21     1     1     2   502   512  1.458899515E+01 -1.035143008E+01  5.635855368E+02  5.638693538E+02  7.629394531E-06  0.00000E+00  9.000E+00
#rwgt            1           9   4.3206470571416355E-004          10     1189980           0
</event>
<event>
      6   9999  3.45752E-01  1.02604E+01 -1.00000E+00  1.86025E-01
      21    -1     0     0   501   502  0.000000000E+00  0.000000000E+00  5.131222016E+01  5.131222016E+01  0.000000000E+00  0.00000E+00  9.000E+00
      21    -1     0     0   511   503  0.000000000E+00  0.000000000E+00 -1.374581286E+03  1.374581286E+03  0.000000000E+00  0.00000E+00  9.000E+00
      25     1     1     2     0     0 -8.502796528E+01  1.141697029E+01 -7.470075822E+02  7.622376898E+02  1.250034630E+02  0.00000E+00  9.000E+00
       5     1     1     2   501     0 -2.019200540E+00 -7.457239893E+00  4.011104990E+01  4.112355070E+01  4.750000000E+00  0.00000E+00  9.000E+00
      -5     1     1     2     0   503  7.680996480E+01 -4.648948797E+00 -5.442321556E+02  5.496658850E+02  4.750000000E+00  0.00000E+00  9.000E+00
      21     1     1     2   511   502  1.023720102E+01  6.892184052E-01 -7.214037769E+01  7.286638045E+01  0.000000000E+00  0.00000E+00  9.000E+00
#rwgt            1           9   6.6567227526592290E-002          10     1191694           0
</event>
<event>
      6   9999  3.45752E-01  3.24828E+01 -1.00000E+00  1.45638E-01
      21    -1     0     0   501   502  0.000000000E+00  0.000000000E+00  1.623398644E+01  1.623398644E+01  0.000000000E+00  0.00000E+00  9.000E+00
      21    -1     0     0   502   512  0.000000000E+00  0.000000000E+00 -1.471850936E+03  1.471850936E+03  0.000000000E+00  0.00000E+00  9.000E+00
      25     1     1     2     0     0 -2.756627056E+01 -6.465608691E+01 -3.676008752E+02  3.945903218E+02  1.250232370E+02  0.00000E+00  9.000E+00
       5     1     1     2   501     0 -8.090256030E-01 -2.050984659E+00 -3.095323440E+00  6.083139625E+00  4.750000000E+00  0.00000E+00  9.000E+00
      -5     1     1     2     0   503  1.795932906E+01  3.593960764E+01 -5.308828521E+02  5.324221615E+02  4.750000000E+00  0.00000E+00  9.000E+00
      21     1     1     2   503   512  1.041596710E+01  3.076746392E+01 -5.540378989E+02  5.549892996E+02  0.000000000E+00  0.00000E+00  9.000E+00
#rwgt            1           9   5.3296459927107095E-004          10     1195498           0
</event>
<event>
      6   9999  3.45752E-01  6.42540E+01 -1.00000E+00  1.29206E-01
      21    -1     0     0   501   511  0.000000000E+00  0.000000000E+00  4.414135781E+01  4.414135781E+01  0.000000000E+00  0.00000E+00  9.000E+00
      21    -1     0     0   502   503  0.000000000E+00  0.000000000E+00 -1.281280086E+03  1.281280086E+03  0.000000000E+00  0.00000E+00  9.000E+00
      25     1     1     2     0     0  1.637835324E+02 -1.251707435E+02 -8.585545415E+02  8.917592772E+02  1.250037891E+02  0.00000E+00  9.000E+00
       5     1     1     2   501     0 -2.136331456E+00  1.435271227E+01 -2.333326294E+01  2.788490489E+01  4.750000000E+00  0.00000E+00  9.000E+00
      -5     1     1     2     0   503 -1.083244700E+02  7.496754466E+01 -2.412849289E+02  2.749460001E+02  4.750000000E+00  0.00000E+00  9.000E+00
      21     1     1     2   502   511 -5.332273097E+01  3.585048652E+01 -1.139659947E+02  1.308312615E+02  1.907348633E-06  0.00000E+00  9.000E+00
#rwgt            1           9   2.7399868719691516E-003          10     1196782           0
</event>
<event>
      6   9999 -3.45752E-01  2.70038E+01 -1.00000E+00  1.50856E-01
      21    -1     0     0   502   512  0.000000000E+00  0.000000000E+00  2.615592539E+01  2.615592539E+01  0.000000000E+00  0.00000E+00  9.000E+00
      21    -1     0     0   501   502  0.000000000E+00  0.000000000E+00 -1.049189357E+03  1.049189357E+03  0.000000000E+00  0.00000E+00  9.000E+00
      25     1     1     2     0     0  1.034698005E+02 -7.600337387E+01 -4.451363349E+02  4.798477679E+02  1.250000451E+02  0.00000E+00  9.000E+00
       5     1     1     2   501     0 -1.643610679E+01  6.976827107E+00 -1.524413971E+02  1.535570375E+02  4.750000000E+00  0.00000E+00  9.000E+00
      -5     1     1     2     0   503 -6.002993835E+01  6.901550810E+01 -3.504591750E+02  3.622304925E+02  4.750000000E+00  0.00000E+00  9.000E+00
      21     1     1     2   503   512 -2.700375533E+01  1.103866322E-02 -7.499652504E+01  7.970998490E+01  9.536743164E-07  0.00000E+00  9.000E+00
#rwgt            1           9  -2.5822256731985050E-006          10     1197729           0
</event>
<event>
      6   9999  3.45752E-01  7.81667E+00 -1.00000E+00  1.99215E-01
      21    -1     0     0   502   503  0.000000000E+00  0.000000000E+00  1.117729042E+01  1.117729042E+01  0.000000000E+00  0.00000E+00  9.000E+00
      21    -1     0     0   511   502  0.000000000E+00  0.000000000E+00 -8.543502979E+02  8.543502979E+02  0.000000000E+00  0.00000E+00  9.000E+00
      25     1     1     2     0     0 -3.042542783E+01 -3.004641542E+00 -3.878282067E+02  4.086210739E+02  1.250029183E+02  0.00000E+00  9.000E+00
       5     1     1     2   501     0  9.132587275E-01 -2.676085870E+00 -7.967111352E+01  7.986265903E+01  4.750000000E+00  0.00000E+00  9.000E+00
      -5     1     1     2     0   503  2.217193515E+01  8.367980010E+00 -2.686244633E+02  2.697096264E+02  4.750000000E+00  0.00000E+00  9.000E+00
      21     1     1     2   511   501  7.340233955E+00 -2.687252598E+00 -1.070492240E+02  1.073342290E+02  0.000000000E+00  0.00000E+00  9.000E+00
#rwgt            1           9   7.3356376498104694E-004          10     1199381           0
</event>
<event>
      6   9999 -3.45752E-01  2.29483E+01 -1.00000E+00  1.55782E-01
      21    -1     0     0   501   512  0.000000000E+00  0.000000000E+00  2.528269599E+03  2.528269599E+03  0.000000000E+00  0.00000E+00  9.000E+00
      21    -1     0     0   502   503  0.000000000E+00  0.000000000E+00 -3.347097569E+00  3.347097569E+00  0.000000000E+00  0.00000E+00  9.000E+00
      25     1     1     2     0     0 -1.561755034E+01 -1.232440389E+01  1.388247049E+03  1.394004974E+03  1.249967954E+02  0.00000E+00  9.000E+00
       5     1     1     2   501     0 -1.872557312E+00 -5.188212635E-01  2.219288586E+02  2.219881898E+02  4.750000000E+00  0.00000E+00  9.000E+00
      -5     1     1     2     0   503 -2.903576359E+00  2.320799849E+00  3.112633727E+01  3.170533456E+01  4.750000000E+00  0.00000E+00  9.000E+00
      21     1     1     2   502   512  2.039368401E+01  1.052242530E+01  8.836202558E+02  8.839181977E+02  1.868812365E-05  0.00000E+00  9.000E+00
#rwgt            1           9  -7.6218122027604399E-003          10     1202016           0
</event>
<event>
      6   9999  3.45752E-01  2.89402E+01 -1.00000E+00  1.48855E-01
      21    -1     0     0   502   511  0.000000000E+00  0.000000000E+00  2.153306065E+01  2.153306065E+01  0.000000000E+00  0.00000E+00  9.000E+00
      21    -1     0     0   501   502  0.000000000E+00  0.000000000E+00 -1.019764052E+03  1.019764052E+03  0.000000000E+00  0.00000E+00  9.000E+00
      25     1     1     2     0     0  3.672939013E+01  2.165015283E+01 -2.431849242E+02  2.767343578E+02  1.250008808E+02  0.00000E+00  9.000E+00
       5     1     1     2   501     0 -1.648393572E+01 -2.050006904E+00 -6.947417396E+02  6.949565237E+02  4.750000000E+00  0.00000E+00  9.000E+00
      -5     1     1     2     0   503 -7.905615891E-01  1.825179683E+00 -1.488264651E+01  1.574839470E+01  4.750000000E+00  0.00000E+00  9.000E+00
      21     1     1     2   503   511 -1.945489282E+01 -2.142532561E+01 -4.542168094E+01  5.385783630E+01  9.536743164E-07  0.00000E+00  9.000E+00
#rwgt            1           9   3.2727774132378768E-004          10     1202967           0
</event>
<event>
      6   9999  3.45752E-01  1.71021E+01 -1.00000E+00  1.65579E-01
      21    -1     0     0   501   502  0.000000000E+00  0.000000000E+00  1.043354489E+02  1.043354489E+02  0.000000000E+00  0.00000E+00  9.000E+00
      21    -1     0     0   512   503  0.000000000E+00  0.000000000E+00 -2.611964161E+03  2.611964161E+03  0.000000000E+00  0.00000E+00  9.000E+00
      25     1     1     2     0     0 -4.013703888E+01  9.363214379E+01 -4.847224523E+01  1.683761027E+02  1.249919723E+02  0.00000E+00  9.000E+00
       5     1     1     2   501     0 -2.086441546E+00  2.735362218E+00  4.176420575E+01  4.217400653E+01  4.750000000E+00  0.00000E+00  9.000E+00
      -5     1     1     2     0   503  4.339340932E+01 -1.134295499E+02 -1.579166306E+03  1.583836492E+03  4.750000000E+00  0.00000E+00  9.000E+00
      21     1     1     2   512   502 -1.169928902E+00  1.706204385E+01 -9.217543666E+02  9.219130081E+02  1.078959322E-05  0.00000E+00  9.000E+00
#rwgt            1           9   3.8013662564202581E-004          10     1204344           0
</event>
<event>
      6   9999  3.45752E-01  1.22905E+01 -1.00000E+00  1.78227E-01
      21    -1     0     0   511   502  0.000000000E+00  0.000000000E+00  5.838628618E+01  5.838628618E+01  0.000000000E+00  0.00000E+00  9.000E+00
      21    -1     0     0   502   503  0.000000000E+00  0.000000000E+00 -1.419619437E+03  1.419619437E+03  0.000000000E+00  0.00000E+00  9.000E+00
      25     1     1     2     0     0  1.057476105E+02  3.768930842E+01 -1.064044030E+03  1.077226747E+03  1.249989026E+02  0.00000E+00  9.000E+00
       5     1     1     2   501     0 -9.828542564E-01 -2.353303333E+00  4.124502137E+01  4.159589315E+01  4.750000000E+00  0.00000E+00  9.000E+00
      -5     1     1     2     0   503 -9.768047668E+01 -4.537941081E+01 -3.097703673E+02  3.279954412E+02  4.750000000E+00  0.00000E+00  9.000E+00
      21     1     1     2   511   501 -7.084279526E+00  1.004340572E+01 -2.866377510E+01  3.118764207E+01  0.000000000E+00  0.00000E+00  9.000E+00
#rwgt            1           9   1.5762789382728907E-004          10     1207587           0
</event>
<event>
      6   9999  3.45752E-01  1.72104E+01 -1.00000E+00  1.65355E-01
      21    -1     0     0   512   502  0.000000000E+00  0.000000000E+00  9.495603034E+01  9.495603034E+01  0.000000000E+00  0.00000E+00  9.000E+00
      21    -1     0     0   502   503  0.000000000E+00  0.000000000E+00 -9.550096041E+02  9.550096041E+02  0.000000000E+00  0.00000E+00  9.000E+00
      25     1     1     2     0     0  5.336203048E+00 -1.560433992E+01 -8.394529066E+02  8.488659638E+02  1.249810851E+02  0.00000E+00  9.000E+00
       5     1     1     2   501     0  9.242827787E+00 -9.086091768E-01  1.113063281E+01  1.525480000E+01  4.750000000E+00  0.00000E+00  9.000E+00
      -5     1     1     2     0   503 -6.179941669E-01  6.448848384E+00 -1.076756250E+02  1.079748688E+02  4.750000000E+00  0.00000E+00  9.000E+00
      21     1     1     2   512   501 -1.396103667E+01  1.006410071E+01  7.594432510E+01  7.787000181E+01  2.336015456E-06  0.00000E+00  9.000E+00
#rwgt            1           9   6.4552777442699967E-005          10     1211245           0
</event>
<event>
      6   9999  3.45752E-01  3.18840E+01 -1.00000E+00  1.46147E-01
      21    -1     0     0   501   511  0.000000000E+00  0.000000000E+00  1.382661774E+02  1.382661774E+02  0.000000000E+00  0.00000E+00  9.000E+00
      21    -1     0     0   502   503  0.000000000E+00  0.000000000E+00 -1.041979015E+03  1.041979015E+03  0.000000000E+00  0.00000E+00  9.000E+00
      25     1     1     2     0     0 -1.298191809E+01 -2.429042596E+01 -5.241862099E+02  5.395882951E+02  1.250031619E+02  0.00000E+00  9.000E+00
       5     1     1     2   501     0  1.637390486E+01  3.659814977E+00  1.580351647E+01  2.353322415E+01  4.750000000E+00  0.00000E+00  9.000E+00
      -5     1     1     2     0   503  2.847962502E+01  2.151814826E+01 -5.032784991E+02  5.045650899E+02  4.750000000E+00  0.00000E+00  9.000E+00
      21     1     1     2   502   511 -3.187161179E+01 -8.875372781E-01  1.079483549E+02  1.125585833E+02  1.907348633E-06  0.00000E+00  9.000E+00
#rwgt            1           9   3.5425111048022172E-002          10     1213158           0
</event>
<event>
      6   9999  3.45752E-01  8.55338E+00 -1.00000E+00  1.94637E-01
      21    -1     0     0   501   512  0.000000000E+00  0.000000000E+00  1.159023127E+02  1.159023127E+02  0.000000000E+00  0.00000E+00  9.000E+00
      21    -1     0     0   502   503  0.000000000E+00  0.000000000E+00 -3.737814868E+02  3.737814868E+02  0.000000000E+00  0.00000E+00  9.000E+00
      25     1     1     2     0     0  1.192064034E+01 -9.779656688E+00 -3.387861910E+02  3.614395275E+02  1.249988218E+02  0.00000E+00  9.000E+00
       5     1     1     2   501     0  4.381248349E+00  4.015006648E+00  6.929829668E+01  6.971464723E+01  4.750000000E+00  0.00000E+00  9.000E+00
      -5     1     1     2     0   503 -8.069003959E+00  3.445186757E+00 -2.183661486E+01  2.400788173E+01  4.750000000E+00  0.00000E+00  9.000E+00
      21     1     1     2   502   512 -8.232884726E+00  2.319463283E+00  3.344533515E+01  3.452174306E+01  6.743495762E-07  0.00000E+00  9.000E+00
#rwgt            1           9   2.4005881100731659E-002          10     1214389           0
</event>
<event>
      6   9999  3.45752E-01  3.50745E+00 -1.00000E+00  2.60286E-01
      21    -1     0     0   511   502  0.000000000E+00  0.000000000E+00  1.581705868E+02  1.581705868E+02  0.000000000E+00  0.00000E+00  9.000E+00
      21    -1     0     0   502   503  0.000000000E+00  0.000000000E+00 -8.083144252E+02  8.083144252E+02  0.000000000E+00  0.00000E+00  9.000E+00
      25     1     1     2     0     0 -6.191568695E-02 -3.101985450E+00 -7.581439017E+02  7.683858307E+02  1.249999317E+02  0.00000E+00  9.000E+00
       5     1     1     2   501     0 -1.642818762E+00  1.399639685E+00  6.236913020E+00  8.131385414E+00  4.750000000E+00  0.00000E+00  9.000E+00
      -5     1     1     2     0   503 -1.689669303E+00  8.190541168E-01 -4.393326055E+01  4.422917267E+01  4.750000000E+00  0.00000E+00  9.000E+00
      21     1     1     2   511   501  3.394403752E+00  8.832916482E-01  1.456964108E+02  1.457386232E+02  0.000000000E+00  0.00000E+00  9.000E+00
#rwgt            1           9   1.3885657780821853E-003          10     1218367           0
</event>
<event>
      6   9999  3.45752E-01  3.95841E+00 -1.00000E+00  2.48793E-01
      21    -1     0     0   512   502  0.000000000E+00  0.000000000E+00  1.176533208E+03  1.176533208E+03  0.000000000E+00  0.00000E+00  9.000E+00
      21    -1     0     0   502   503  0.000000000E+00  0.000000000E+00 -1.147885201E+03  1.147885201E+03  0.000000000E+00  0.00000E+00  9.000E+00
      25     1     1     2     0     0 -8.419298129E+00 -8.962945077E+01 -7.063339824E+02  7.229475332E+02  1.250644557E+02  0.00000E+00  9.000E+00
       5     1     1     2   501     0  2.280517618E+00 -5.806338196E+00  2.459130518E+01  2.581102700E+01  4.750000000E+00  0.00000E+00  9.000E+00
      -5     1     1     2     0   503  6.317141591E+00  9.148139804E+01 -4.277590255E+02  4.375032558E+02  4.750000000E+00  0.00000E+00  9.000E+00
      21     1     1     2   512   501 -1.783610803E-01  3.954390923E+00  1.138149709E+03  1.138156593E+03  0.000000000E+00  0.00000E+00  9.000E+00
#rwgt            1           9  0.44986748365658180               10     1223794           0
</event>
<event>
      6   9999 -3.45752E-01  3.56851E+00 -1.00000E+00  2.58578E-01
      21    -1     0     0   511   502  0.000000000E+00  0.000000000E+00  6.406531023E+00  6.406531023E+00  0.000000000E+00  0.00000E+00  9.000E+00
      21    -1     0     0   502   503  0.000000000E+00  0.000000000E+00 -2.707440163E+03  2.707440163E+03  0.000000000E+00  0.00000E+00  9.000E+00
      25     1     1     2     0     0 -4.494146673E+00 -2.703423193E+01 -8.506242455E+02  8.601956827E+02  1.249958343E+02  0.00000E+00  9.000E+00
       5     1     1     2   501     0  1.418051119E+00 -4.869839620E-01 -2.960469530E+00  5.794385402E+00  4.750000000E+00  0.00000E+00  9.000E+00
      -5     1     1     2     0   503  2.326766541E+00  2.403226216E+01 -1.821201706E+03  1.821367942E+03  4.750000000E+00  0.00000E+00  9.000E+00
      21     1     1     2   511   501  7.493290129E-01  3.488953725E+00 -2.624721039E+01  2.648868334E+01  3.371747881E-07  0.00000E+00  9.000E+00
#rwgt            1           9  -8.1062110312218969E-003          10     1230721           0
</event>
<event>
      6   9999  3.45752E-01  6.68517E+00 -1.00000E+00  2.07719E-01
      21    -1     0     0   501   512  0.000000000E+00  0.000000000E+00  4.051188079E+01  4.051188079E+01  0.000000000E+00  0.00000E+00  9.000E+00
      21    -1     0     0   502   503  0.000000000E+00  0.000000000E+00 -4.869347869E+02  4.869347869E+02  0.000000000E+00  0.00000E+00  9.000E+00
      25     1     1     2     0     0  2.407437404E+01  1.518673772E+01 -3.492620520E+02  3.720482354E+02  1.250027841E+02  0.00000E+00  9.000E+00
       5     1     1     2   501     0 -1.858252795E+01 -1.587091849E+01 -1.045480112E+02  1.074711382E+02  4.750000000E+00  0.00000E+00  9.000E+00
      -5     1     1     2     0   503  3.594509327E-01 -2.549050880E+00 -1.949322602E+01  2.022808014E+01  4.750000000E+00  0.00000E+00  9.000E+00
      21     1     1     2   502   512 -5.851297021E+00  3.233231652E+00  2.688038304E+01  2.769921400E+01  1.348699152E-06  0.00000E+00  9.000E+00
#rwgt            1           9   8.2843481546670764E-003          10     1236545           0
</event>
<event>
      6   9999  3.45752E-01  1.14198E+01 -1.00000E+00  1.81318E-01
      21    -1     0     0   501   511  0.000000000E+00  0.000000000E+00  1.364064898E+02  1.364064898E+02  0.000000000E+00  0.00000E+00  9.000E+00
      21    -1     0     0   502   503  0.000000000E+00  0.000000000E+00 -1.076566030E+03  1.076566030E+03  0.000000000E+00  0.00000E+00  9.000E+00
      25     1     1     2     0     0 -6.998207189E+01  2.150230542E+01 -5.012841746E+02  5.217938982E+02  1.249928355E+02  0.00000E+00  9.000E+00
       5     1     1     2   501     0  4.699256451E-01  5.198407600E+00  1.096801091E+01  1.304239376E+01  4.750000000E+00  0.00000E+00  9.000E+00
      -5     1     1     2     0   503  7.893711622E+01 -2.025226292E+01 -5.607411890E+02  5.666519796E+02  4.750000000E+00  0.00000E+00  9.000E+00
      21     1     1     2   502   511 -9.424969974E+00 -6.448450098E+00  1.108978130E+02  1.114842477E+02  4.046097457E-06  0.00000E+00  9.000E+00
#rwgt            1           9   8.8614822584444138E-003          10     1239669           0
</event>
<event>
      6   9999 -3.45752E-01  1.24137E+02 -1.00000E+00  1.16576E-01
       2    -1     0     0   501     0  0.000000000E+00  0.000000000E+00  3.754811023E+03  3.754811023E+03  0.000000000E+00  0.00000E+00  9.000E+00
      21    -1     0     0   512   502  0.000000000E+00  0.000000000E+00 -1.033323475E+02  1.033323475E+02  0.000000000E+00  0.00000E+00  9.000E+00
      25     1     1     2     0     0 -2.058997244E+02  1.430162327E+02  5.355301055E+02  6.043722957E+02  1.250001540E+02  0.00000E+00  9.000E+00
       5     1     1     2   501     0  1.934541521E+02 -3.874037711E+01  1.289371919E+03  1.304387915E+03  4.750000000E+00  0.00000E+00  9.000E+00
      -5     1     1     2     0   502 -9.050609989E+01 -3.491469970E+01  1.822596330E+03  1.825182275E+03  4.750000000E+00  0.00000E+00  9.000E+00
       2     1     1     2   512     0  1.029516721E+02 -6.936115592E+01  3.980320420E+00  1.242008845E+02  9.902267293E-07  0.00000E+00  9.000E+00
#rwgt            1           4  -1.6625546744797071               10     1242447           0
</event>
<event>
      6   9999 -3.45752E-01  1.57018E+01 -1.00000E+00  1.68668E-01
      21    -1     0     0   501   502  0.000000000E+00  0.000000000E+00  3.252091259E+01  3.252091259E+01  0.000000000E+00  0.00000E+00  9.000E+00
      21    -1     0     0   511   503  0.000000000E+00  0.000000000E+00 -1.828868980E+03  1.828868980E+03  0.000000000E+00  0.00000E+00  9.000E+00
      25     1     1     2     0     0  5.694309918E+01  9.138039993E+01 -6.797708784E+02  6.995047040E+02  1.250019592E+02  0.00000E+00  9.000E+00
       5     1     1     2   501     0 -5.171816053E+00 -3.243010370E-01  1.600135922E+01  1.747738108E+01  4.750000000E+00  0.00000E+00  9.000E+00
      -5     1     1     2     0   503 -5.957433124E+01 -7.743044967E+01 -4.044252148E+02  4.160851985E+02  4.750000000E+00  0.00000E+00  9.000E+00
      21     1     1     2   511   502  7.803048114E+00 -1.362564922E+01 -7.281533336E+02  7.283226092E+02  1.078959322E-05  0.00000E+00  9.000E+00
#rwgt            1           9  -4.1881429246006354E-003          10     1242743           0
</event>
<event>
      6   9999 -3.45752E-01  5.70510E+00 -1.00000E+00  2.17153E-01
      21    -1     0     0   501   502  0.000000000E+00  0.000000000E+00  1.000629262E+01  1.000629262E+01  0.000000000E+00  0.00000E+00  9.000E+00
      21    -1     0     0   502   512  0.000000000E+00  0.000000000E+00 -1.358471509E+03  1.358471509E+03  0.000000000E+00  0.00000E+00  9.000E+00
      25     1     1     2     0     0 -1.467449928E+01 -1.137635446E+01 -7.252529383E+02  7.361819322E+02  1.250090010E+02  0.00000E+00  9.000E+00
       5     1     1     2   501     0 -1.470628967E+00  7.694714977E-01 -1.432867269E-01  5.033673314E+00  4.750000000E+00  0.00000E+00  9.000E+00
      -5     1     1     2     0   503  1.332006210E+01  1.556341365E+01 -5.100671610E+01  5.517147348E+01  4.750000000E+00  0.00000E+00  9.000E+00
      21     1     1     2   503   512  2.825066147E+00 -4.956530684E+00 -5.720622751E+02  5.720907225E+02  0.000000000E+00  0.00000E+00  9.000E+00
#rwgt            1           9  -8.7314834350487623E-005          10     1245334           0
</event>
<event>
      6   9999  3.45752E-01  1.05454E+01 -1.00000E+00  1.84797E-01
      21    -1     0     0   501   502  0.000000000E+00  0.000000000E+00  1.184847553E+03  1.184847553E+03  0.000000000E+00  0.00000E+00  9.000E+00
      21    -1     0     0   511   503  0.000000000E+00  0.000000000E+00 -7.163965966E+01  7.163965966E+01  0.000000000E+00  0.00000E+00  9.000E+00
      25     1     1     2     0     0  3.645899260E+00 -1.627283222E+01  1.130884765E+01  1.266086784E+02  1.249950789E+02  0.00000E+00  9.000E+00
       5     1     1     2   501     0  1.991893212E+00  1.605255985E+01  1.098900858E+03  1.099030168E+03  4.750000000E+00  0.00000E+00  9.000E+00
      -5     1     1     2     0   503 -1.320257225E+01  7.567305248E+00 -5.952371322E+00  1.701661679E+01  4.750000000E+00  0.00000E+00  9.000E+00
      21     1     1     2   511   502  7.564779776E+00 -7.347032880E+00  8.950559176E+00  1.383174952E+01  2.064765462E-07  0.00000E+00  9.000E+00
#rwgt            1           9   1.7157690080678425E-002          10     1248733           0
</event>
<event>
      6   9999  3.45752E-01  3.17215E+01 -1.00000E+00  1.46287E-01
      21    -1     0     0   502   512  0.000000000E+00  0.000000000E+00  5.510250949E+01  5.510250949E+01  0.000000000E+00  0.00000E+00  9.000E+00
      21    -1     0     0   501   502  0.000000000E+00  0.000000000E+00 -1.092494576E+03  1.092494576E+03  0.000000000E+00  0.00000E+00  9.000E+00
      25     1     1     2     0     0 -6.089893028E+01  1.089428914E+01 -7.746803387E+02  7.871375007E+02  1.250138096E+02  0.00000E+00  9.000E+00
       5     1     1     2   501     0 -9.857723918E+00  4.838925688E+01 -7.822206694E+01  9.262801498E+01  4.750000000E+00  0.00000E+00  9.000E+00
      -5     1     1     2     0   503  5.793874890E+01 -8.829998662E+01 -2.045816214E+02  2.302824105E+02  4.750000000E+00  0.00000E+00  9.000E+00
      21     1     1     2   503   512  1.281790530E+01  2.901644061E+01  2.009196025E+01  3.754915963E+01  1.668930054E-06  0.00000E+00  9.000E+00
#rwgt            1           9   4.6899775063479086E-003          10     1252930           0
</event>
<event>
      6   9999  3.45752E-01  2.80835E+01 -1.00000E+00  1.49717E-01
      21    -1     0     0   511   502  0.000000000E+00  0.000000000E+00  3.718161584E+01  3.718161584E+01  0.000000000E+00  0.00000E+00  9.000E+00
      21    -1     0     0   502   503  0.000000000E+00  0.000000000E+00 -8.822176986E+02  8.822176986E+02  0.000000000E+00  0.00000E+00  9.000E+00
      25     1     1     2     0     0  2.431510056E+01  5.315012442E+00 -7.888005096E+02  7.990347694E+02  1.250233793E+02  0.00000E+00  9.000E+00
       5     1     1     2   501     0 -1.833912965E+01 -3.321817268E+01 -2.604845352E+01  4.626937544E+01  4.750000000E+00  0.00000E+00  9.000E+00
      -5     1     1     2     0   503  1.527832566E+00  8.407373292E-01 -4.295039678E+01  4.324742992E+01  4.750000000E+00  0.00000E+00  9.000E+00
      21     1     1     2   511   501 -7.503803475E+00  2.706242291E+01  1.276327711E+01  3.084773967E+01  1.430511475E-06  0.00000E+00  9.000E+00
#rwgt            1           9   1.4891979450199198               10     1254474           0
</event>
<event>
      6   9999  3.45752E-01  9.55331E+00 -1.00000E+00  1.89309E-01
      21    -1     0     0   501   502  0.000000000E+00  0.000000000E+00  2.250794604E+01  2.250794604E+01  0.000000000E+00  0.00000E+00  9.000E+00
      21    -1     0     0   502   512  0.000000000E+00  0.000000000E+00 -1.120935737E+03  1.120935737E+03  0.000000000E+00  0.00000E+00  9.000E+00
      25     1     1     2     0     0  2.604303616E+01 -3.579760283E+00 -7.894916231E+02  7.997579970E+02  1.249991055E+02  0.00000E+00  9.000E+00
       5     1     1     2   501     0  7.064447386E-01  1.829463880E+00  1.636699805E+01  1.715479896E+01  4.750000000E+00  0.00000E+00  9.000E+00
      -5     1     1     2     0   503 -1.790450466E+01 -1.859696968E+00 -2.287021037E+02  2.294585899E+02  4.750000000E+00  0.00000E+00  9.000E+00
      21     1     1     2   503   512 -8.844976236E+00  3.609993370E+00 -9.660106244E+01  9.707229739E+01  1.348699152E-06  0.00000E+00  9.000E+00
#rwgt            1           9   1.4449963555910369E-003          10     1255496           0
</event>
<event>
      6   9999 -3.45752E-01  3.82858E+01 -1.00000E+00  1.41298E-01
      21    -1     0     0   501   511  0.000000000E+00  0.000000000E+00  4.929838808E+01  4.929838808E+01  0.000000000E+00  0.00000E+00  9.000E+00
      21    -1     0     0   502   503  0.000000000E+00  0.000000000E+00 -1.284588015E+03  1.284588015E+03  0.000000000E+00  0.00000E+00  9.000E+00
      25     1     1     2     0     0  2.764527203E+01 -1.314494618E+02 -9.629706434E+02  9.802961060E+02  1.249990931E+02  0.00000E+00  9.000E+00
       5     1     1     2   501     0 -1.218261996E+00  1.660576564E+02 -1.619823813E+02  2.320290580E+02  4.750000000E+00  0.00000E+00  9.000E+00
      -5     1     1     2     0   503 -9.788139145E+00 -1.270746676E-01 -4.030208496E+01  4.174499213E+01  4.750000000E+00  0.00000E+00  9.000E+00
      21     1     1     2   502   511 -1.663887089E+01 -3.448111998E+01 -7.003451685E+01  7.981624653E+01  1.651812370E-06  0.00000E+00  9.000E+00
#rwgt            1           9  -1.7526487762033745E-003          10     1258515           0
</event>
<event>
      6   9999  3.45752E-01  8.60705E+00 -1.00000E+00  1.94328E-01
      21    -1     0     0   502   512  0.000000000E+00  0.000000000E+00  1.234900317E+01  1.234900317E+01  0.000000000E+00  0.00000E+00  9.000E+00
      21    -1     0     0   501   502  0.000000000E+00  0.000000000E+00 -8.609190075E+02  8.609190075E+02  0.000000000E+00  0.00000E+00  9.000E+00
      25     1     1     2     0     0 -3.573755274E+01 -2.077128121E+01 -7.427886544E+02  7.543662343E+02  1.249992464E+02  0.00000E+00  9.000E+00
       5     1     1     2   501     0  2.251687347E+01  2.273069668E+01 -5.681702817E+01  6.537913545E+01  4.750000000E+00  0.00000E+00  9.000E+00
      -5     1     1     2     0   503  7.017461317E+00 -7.926110626E+00 -1.825904955E+01  2.163384809E+01  4.750000000E+00  0.00000E+00  9.000E+00
      21     1     1     2   503   512  6.203217953E+00  5.966695153E+00 -3.070527226E+01  3.188879284E+01  3.371747881E-07  0.00000E+00  9.000E+00
#rwgt            1           9   2.7168822486662968E-004          10     1260397           0
</event>
<event>
      6   9999  3.45752E-01  6.31978E+01 -1.00000E+00  1.29560E-01
      21    -1     0     0   501   511  0.000000000E+00  0.000000000E+00  6.313497978E+01  6.313497978E+01  0.000000000E+00  0.00000E+00  9.000E+00
      21    -1     0     0   502   503  0.000000000E+00  0.000000000E+00 -1.379369335E+03  1.379369335E+03  0.000000000E+00  0.00000E+00  9.000E+00
      25     1     1     2     0     0  8.999122968E+01 -9.810862918E+01 -2.944062451E+02  3.464432481E+02  1.249966496E+02  0.00000E+00  9.000E+00
       5     1     1     2   501     0  7.997801371E+00 -1.415590223E+00  2.102012567E+01  2.302991328E+01  4.750000000E+00  0.00000E+00  9.000E+00
      -5     1     1     2     0   503 -3.533208782E+01  9.127380913E+01 -9.764891271E+02  9.813933169E+02  4.750000000E+00  0.00000E+00  9.000E+00
      21     1     1     2   502   511 -6.265694323E+01  8.250410278E+00 -6.635910916E+01  9.163783702E+01  0.000000000E+00  0.00000E+00  9.000E+00
#rwgt            1           9   3.4010539795547939E-004          10     1263404           0
</event>
<event>
      6   9999  3.45752E-01  5.42634E+01 -1.00000E+00  1.32913E-01
      21    -1     0     0   501   512  0.000000000E+00  0.000000000E+00  1.873096067E+01  1.873096067E+01  0.000000000E+00  0.00000E+00  9.000E+00
      21    -1     0     0   502   503  0.000000000E+00  0.000000000E+00 -1.143511187E+03  1.143511187E+03  0.000000000E+00  0.00000E+00  9.000E+00
      25     1     1     2     0     0  4.258799558E+01  2.144975442E+01 -1.045669125E+03  1.054192720E+03  1.249981692E+02  0.00000E+00  9.000E+00
       5     1     1     2   501     0  3.816795329E+00  1.971420634E+00 -1.310205855E+01  1.458358201E+01  4.750000000E+00  0.00000E+00  9.000E+00
      -5     1     1     2     0   503  3.445282828E+00 -1.985473459E+00 -2.415428434E+01  2.493599869E+01  4.750000000E+00  0.00000E+00  9.000E+00
      21     1     1     2   502   512 -4.985007373E+01 -2.143570159E+01 -4.185475866E+01  6.852984734E+01  1.066240300E-06  0.00000E+00  9.000E+00
#rwgt            1           9   6.0097581071158904E-003          10     1264343           0
</event>
<event>
      6   9999  3.45752E-01  9.46273E+00 -1.00000E+00  1.89756E-01
      21    -1     0     0   511   503  0.000000000E+00  0.000000000E+00  1.730813785E+01  1.730813785E+01  0.000000000E+00  0.00000E+00  9.000E+00
      21    -1     0     0   501   502  0.000000000E+00  0.000000000E+00 -9.617939792E+02  9.617939792E+02  0.000000000E+00  0.00000E+00  9.000E+00
      25     1     1     2     0     0  3.317128438E+01 -6.067496898E+01 -6.607280050E+02  6.759938169E+02  1.249974319E+02  0.00000E+00  9.000E+00
       5     1     1     2   501     0  1.921172214E+01  9.569087590E+00 -1.393432890E+02  1.410665531E+02  4.750000000E+00  0.00000E+00  9.000E+00
      -5     1     1     2     0   503 -4.476063651E+01  4.549849540E+01 -1.274117582E+02  1.425831206E+02  4.750000000E+00  0.00000E+00  9.000E+00
      21     1     1     2   511   502 -7.622370014E+00  5.607385994E+00 -1.700278914E+01  1.945862639E+01  2.384185791E-07  0.00000E+00  9.000E+00
#rwgt            1           9   4.6371340709444322               10     1265064           0
</event>
<event>
      6   9999  3.45752E-01  6.49959E+00 -1.00000E+00  2.09331E-01
      21    -1     0     0   501   512  0.000000000E+00  0.000000000E+00  5.412550056E+01  5.412550056E+01  0.000000000E+00  0.00000E+00  9.000E+00
      21    -1     0     0   502   503  0.000000000E+00  0.000000000E+00 -1.605453085E+03  1.605453085E+03  0.000000000E+00  0.00000E+00  9.000E+00
      25     1     1     2     0     0 -5.743445830E+00  2.206867077E+01 -1.555296398E+03  1.560472745E+03  1.249331364E+02  0.00000E+00  9.000E+00
       5     1     1     2   501     0 -5.686798685E-01  2.038933934E+00  4.617299121E+01  4.646491435E+01  4.750000000E+00  0.00000E+00  9.000E+00
      -5     1     1     2     0   503  7.522650198E+00 -1.772173745E+01 -4.163556047E+01  4.611651157E+01  4.750000000E+00  0.00000E+00  9.000E+00
      21     1     1     2   502   512 -1.210524499E+00 -6.385867245E+00 -5.686178579E-01  6.524415399E+00  1.066760798E-07  0.00000E+00  9.000E+00
#rwgt            1           9   4.7094643351139738E-004          10     1268032           0
</event>
<event>
      6   9999  3.45752E-01  1.35275E+01 -1.00000E+00  1.74354E-01
      21    -1     0     0   501   502  0.000000000E+00  0.000000000E+00  1.484121983E+03  1.484121983E+03  0.000000000E+00  0.00000E+00  9.000E+00
      21    -1     0     0   511   503  0.000000000E+00  0.000000000E+00 -4.939866309E+01  4.939866309E+01  0.000000000E+00  0.00000E+00  9.000E+00
      25     1     1     2     0     0 -2.974598978E+01  2.750708273E+00  3.556367734E+02  3.781467439E+02  1.250002201E+02  0.00000E+00  9.000E+00
       5     1     1     2   501     0 -3.117737305E+00 -1.551390550E+00  6.537411239E+02  6.537676549E+02  4.750000000E+00  0.00000E+00  9.000E+00
      -5     1     1     2     0   503  3.082911630E+01 -1.457293372E+01  4.616144545E+02  4.628966104E+02  4.750000000E+00  0.00000E+00  9.000E+00
      21     1     1     2   511   502  2.034610791E+00  1.337361599E+01 -3.626903231E+01  3.870963641E+01  2.132480600E-06  0.00000E+00  9.000E+00
#rwgt            1           9   2.0278265036122738E-003          10     1273431           0
</event>
<event>
      6   9999  3.45752E-01  4.75162E+00 -1.00000E+00  2.33324E-01
      21    -1     0     0   501   512  0.000000000E+00  0.000000000E+00  3.688121075E+01  3.688121075E+01  0.000000000E+00  0.00000E+00  9.000E+00
      21    -1     0     0   502   503  0.000000000E+00  0.000000000E+00 -3.254263546E+02  3.254263546E+02  0.000000000E+00  0.00000E+00  9.000E+00
      25     1     1     2     0     0  8.680436603E+00 -4.176367289E+01 -1.950763985E+02  2.355818114E+02  1.249977371E+02  0.00000E+00  9.000E+00
       5     1     1     2   501     0  1.015400188E+00  1.306796492E+00  9.920989200E+00  1.112327656E+01  4.750000000E+00  0.00000E+00  9.000E+00
      -5     1     1     2     0   503 -1.366817573E+01  4.306425912E+01 -9.977883634E+01  1.096345207E+02  4.750000000E+00  0.00000E+00  9.000E+00
      21     1     1     2   502   512  3.972338939E+00 -2.607382718E+00 -3.610898250E+00  5.967956723E+00  7.300048300E-08  0.00000E+00  9.000E+00
#rwgt            1           9   2.8221542184699282E-003          10     1275693           0
</event>
<event>
      6   9999  3.45752E-01  7.43149E+00 -1.00000E+00  2.01883E-01
      21    -1     0     0   501   502  0.000000000E+00  0.000000000E+00  1.500841548E+03  1.500841548E+03  0.000000000E+00  0.00000E+00  9.000E+00
      21    -1     0     0   511   503  0.000000000E+00  0.000000000E+00 -5.461377459E+00  5.461377459E+00  0.000000000E+00  0.00000E+00  9.000E+00
      25     1     1     2     0     0  5.807460069E+00 -7.682529375E+00  9.500590597E+02  9.582958054E+02  1.250035433E+02  0.00000E+00  9.000E+00
       5     1     1     2   501     0  6.134458358E-01 -4.323033329E-01  2.363649148E+02  2.364138293E+02  4.750000000E+00  0.00000E+00  9.000E+00
      -5     1     1     2     0   503  5.715171507E-01  1.063138430E+01  2.987015802E+02  2.989290041E+02  4.750000000E+00  0.00000E+00  9.000E+00
      21     1     1     2   511   502 -6.992423056E+00 -2.516551593E+00  1.025461557E+01  1.266428650E+01  7.633118912E-07  0.00000E+00  9.000E+00
#rwgt            1           9   6.7984817028371794E-003          10     1280090           0
</event>
<event>
      6   9999  3.45752E-01  1.17013E+01 -1.00000E+00  1.80282E-01
      21    -1     0     0   501   502  0.000000000E+00  0.000000000E+00  7.130737015E+00  7.130737015E+00  0.000000000E+00  0.00000E+00  9.000E+00
      21    -1     0     0   512   503  0.000000000E+00  0.000000000E+00 -8.321335770E+02  8.321335770E+02  0.000000000E+00  0.00000E+00  9.000E+00
      25     1     1     2     0     0  6.723741035E+00  3.459139406E+00 -6.211006974E+02  6.335962045E+02  1.249835982E+02  0.00000E+00  9.000E+00
       5     1     1     2   501     0  1.513961595E-01  4.259934520E+00 -2.621518315E+01  2.698088750E+01  4.750000000E+00  0.00000E+00  9.000E+00
      -5     1     1     2     0   503 -3.187821087E+00  3.386065540E+00 -4.545065721E+01  4.593421800E+01  4.750000000E+00  0.00000E+00  9.000E+00
      21     1     1     2   512   502 -3.687316107E+00 -1.110513947E+01 -1.322363022E+02  1.327530039E+02  1.907348633E-06  0.00000E+00  9.000E+00
#rwgt            1           9   1.3592677334580000E-002          10     1283109           0
</event>
<event>
      6   9999  3.45752E-01  5.30422E+00 -1.00000E+00  2.21796E-01
      21    -1     0     0   501   502  0.000000000E+00  0.000000000E+00  8.665150116E+02  8.665150116E+02  0.000000000E+00  0.00000E+00  9.000E+00
      21    -1     0     0   511   503  0.000000000E+00  0.000000000E+00 -4.674722902E+01  4.674722902E+01  0.000000000E+00  0.00000E+00  9.000E+00
      25     1     1     2     0     0  3.660315211E+00  3.393847571E+00  7.356411301E+02  7.462006011E+02  1.249901943E+02  0.00000E+00  9.000E+00
       5     1     1     2   501     0  4.408520490E-01  1.424166765E-01  1.017702917E+02  1.018821348E+02  4.750000000E+00  0.00000E+00  9.000E+00
      -5     1     1     2     0   503 -1.956829967E-01  5.287683304E-02  2.335762229E+01  2.383657079E+01  4.750000000E+00  0.00000E+00  9.000E+00
      21     1     1     2   511   502 -3.905484263E+00 -3.589141081E+00 -4.100126148E+01  4.134293390E+01  1.784161275E-06  0.00000E+00  9.000E+00
#rwgt            1           9   1.4315405673587972E-002          10     1285469           0
</event>
<event>
      6   9999  3.45752E-01  1.21294E+01 -1.00000E+00  1.78775E-01
      21    -1     0     0   501   502  0.000000000E+00  0.000000000E+00  8.956164965E+00  8.956164965E+00  0.000000000E+00  0.00000E+00  9.000E+00
      21    -1     0     0   502   512  0.000000000E+00  0.000000000E+00 -9.602489224E+02  9.602489224E+02  0.000000000E+00  0.00000E+00  9.000E+00
      25     1     1     2     0     0  7.860140502E+00  3.167949893E+01 -6.918206340E+02  7.037796037E+02  1.249982741E+02  0.00000E+00  9.000E+00
       5     1     1     2   501     0  2.421599034E-01  1.832958690E+00 -2.448317676E+00  5.654656349E+00  4.750000000E+00  0.00000E+00  9.000E+00
      -5     1     1     2     0   503 -9.659518335E+00 -2.148346164E+01 -1.328181686E+02  1.349743451E+02  4.750000000E+00  0.00000E+00  9.000E+00
      21     1     1     2   503   512  1.557217930E+00 -1.202899597E+01 -1.242056372E+02  1.247964823E+02  2.697398305E-06  0.00000E+00  9.000E+00
#rwgt            1           9   1.0227339809735794E-002          10     1288703           0
</event>
<event>
      6   9999  3.45752E-01  3.78113E+00 -1.00000E+00  2.53019E-01
      21    -1     0     0   511   502  0.000000000E+00  0.000000000E+00  2.752922416E+01  2.752922416E+01  0.000000000E+00  0.00000E+00  9.000E+00
      21    -1     0     0   502   503  0.000000000E+00  0.000000000E+00 -9.854594061E+02  9.854594061E+02  0.000000000E+00  0.00000E+00  9.000E+00
      25     1     1     2     0     0  5.614436377E+00  6.885941306E+00 -9.286255359E+02  9.370413625E+02  1.249887639E+02  0.00000E+00  9.000E+00
       5     1     1     2   501     0 -7.655383623E+00  6.611484567E-01  1.978798678E+01  2.175244668E+01  4.750000000E+00  0.00000E+00  9.000E+00
      -5     1     1     2     0   503 -2.020854984E-01 -4.503118545E+00 -4.990051156E+01  5.032834658E+01  4.750000000E+00  0.00000E+00  9.000E+00
      21     1     1     2   511   501  2.243032745E+00 -3.043971217E+00  8.078787568E-01  3.866474460E+00  2.980232239E-08  0.00000E+00  9.000E+00
#rwgt            1           9   1.2604305154594121E-004          10     1290603           0
</event>
<event>
      6   9999 -3.45752E-01  3.89718E+00 -1.00000E+00  2.50214E-01
      21    -1     0     0   512   502  0.000000000E+00  0.000000000E+00  1.026363545E+01  1.026363545E+01  0.000000000E+00  0.00000E+00  9.000E+00
      21    -1     0     0   502   503  0.000000000E+00  0.000000000E+00 -7.715554543E+02  7.715554543E+02  0.000000000E+00  0.00000E+00  9.000E+00
      25     1     1     2     0     0 -9.757010070E+00  5.368294371E+00 -4.654230770E+02  4.820462695E+02  1.250037899E+02  0.00000E+00  9.000E+00
       5     1     1     2   501     0 -4.864480155E-01 -1.471557670E-01 -5.818694260E+00  7.528478557E+00  4.750000000E+00  0.00000E+00  9.000E+00
      -5     1     1     2     0   503  7.632214600E+00 -8.114137295E+00 -2.871031055E+02  2.873583923E+02  4.750000000E+00  0.00000E+00  9.000E+00
      21     1     1     2   512   501  2.611243486E+00  2.892998692E+00 -2.946942024E+00  4.885949372E+00  7.300048300E-08  0.00000E+00  9.000E+00
#rwgt            1           9  -2.4779953049233592E-004          10     1297335           0
</event>
<event>
      6   9999  3.45752E-01  5.27729E+02 -1.00000E+00  9.60637E-02
       3    -1     0     0   501     0  0.000000000E+00  0.000000000E+00  1.656153061E+02  1.656153061E+02  0.000000000E+00  0.00000E+00  9.000E+00
      21    -1     0     0   511   502  0.000000000E+00  0.000000000E+00 -2.630399374E+03  2.630399374E+03  0.000000000E+00  0.00000E+00  9.000E+00
      25     1     1     2     0     0 -3.044205604E+01 -1.481132451E+02 -4.907004153E+02  5.284659338E+02  1.250003738E+02  0.00000E+00  9.000E+00
       5     1     1     2   501     0  7.252553211E+01 -1.878714725E+02 -1.513270785E+02  2.519485863E+02  4.750000000E+00  0.00000E+00  9.000E+00
      -5     1     1     2     0   502  1.610181403E+02 -1.510955801E+02 -1.092589047E+03  1.114688344E+03  4.750000000E+00  0.00000E+00  9.000E+00
       3     1     1     2   511     0 -2.031016163E+02  4.870802977E+02 -7.301675279E+02  9.009118168E+02  0.000000000E+00  0.00000E+00  9.000E+00
#rwgt            1           8   2.2284476918334417E-004          10     1301950           0
</event>
<event>
      6   9999  3.45752E-01  1.11139E+01 -1.00000E+00  1.82488E-01
      21    -1     0     0   501   502  0.000000000E+00  0.000000000E+00  2.048711292E+02  2.048711292E+02  0.000000000E+00  0.00000E+00  9.000E+00
      21    -1     0     0   512   503  0.000000000E+00  0.000000000E+00 -1.759429410E+02  1.759429410E+02  0.000000000E+00  0.00000E+00  9.000E+00
      25     1     1     2     0     0  2.647216073E+01  2.943159035E+01 -1.139510011E+02  1.737170708E+02  1.250031848E+02  0.00000E+00  9.000E+00
       5     1     1     2   501     0 -3.184072258E+00  3.648556104E+00  1.527136361E+02  1.528642124E+02  4.750000000E+00  0.00000E+00  9.000E+00
      -5     1     1     2     0   503 -1.375175347E+01 -2.737242530E+01  9.074361936E+00  3.229964295E+01  4.750000000E+00  0.00000E+00  9.000E+00
      21     1     1     2   512   502 -9.536335002E+00 -5.707721154E+00 -1.890880866E+01  2.193314412E+01  2.384185791E-07  0.00000E+00  9.000E+00
#rwgt            1           9   1.0069147109540337E-002          10     1302070           0
</event>
<event>
      6   9999  3.45752E-01  6.75210E+00 -1.00000E+00  2.07155E-01
      21    -1     0     0   501   502  0.000000000E+00  0.000000000E+00  1.119559520E+01  1.119559520E+01  0.000000000E+00  0.00000E+00  9.000E+00
      21    -1     0     0   511   503  0.000000000E+00  0.000000000E+00 -8.643665680E+02  8.643665680E+02  0.000000000E+00  0.00000E+00  9.000E+00
      25     1     1     2     0     0  2.750845289E+01  2.030994270E+01 -5.789591580E+02  5.932855815E+02  1.249994635E+02  0.00000E+00  9.000E+00
       5     1     1     2   501     0 -1.020860770E-01  1.270111893E+00  7.108756593E-01  4.969049204E+00  4.750000000E+00  0.00000E+00  9.000E+00
      -5     1     1     2     0   503 -2.384435696E+01 -1.584394707E+01 -2.390416987E+02  2.407967613E+02  4.750000000E+00  0.00000E+00  9.000E+00
      21     1     1     2   511   502 -3.562009850E+00 -5.736107521E+00 -3.588099173E+01  3.651077116E+01  6.743495762E-07  0.00000E+00  9.000E+00
#rwgt            1           9   4.1892631418910178E-007          10     1305677           0
</event>
<event>
      6   9999  3.45752E-01  4.68226E+00 -1.00000E+00  2.34495E-01
      21    -1     0     0   512   503  0.000000000E+00  0.000000000E+00  2.503235971E+01  2.503235971E+01  0.000000000E+00  0.00000E+00  9.000E+00
      21    -1     0     0   501   502  0.000000000E+00  0.000000000E+00 -7.106228129E+02  7.106228129E+02  0.000000000E+00  0.00000E+00  9.000E+00
      25     1     1     2     0     0  3.877019845E+01 -3.855514836E+00 -2.668473325E+02  2.972364422E+02  1.249960417E+02  0.00000E+00  9.000E+00
       5     1     1     2   501     0 -4.328603967E+01  5.842349065E+00 -4.024594453E+02  4.048505673E+02  4.750000000E+00  0.00000E+00  9.000E+00
      -5     1     1     2     0   503  4.938821968E+00  2.676281585E+00 -2.368999742E+01  2.480590501E+01  4.750000000E+00  0.00000E+00  9.000E+00
      21     1     1     2   512   502 -4.229807532E-01 -4.663115814E+00  7.406321967E+00  8.762258094E+00  5.397430145E-07  0.00000E+00  9.000E+00
#rwgt            1           9   88.089122054747207               10     1308694           0
</event>
<event>
      6   9999  3.45752E-01  1.21989E+01 -1.00000E+00  1.78537E-01
      21    -1     0     0   511   502  0.000000000E+00  0.000000000E+00  7.386876966E+01  7.386876966E+01  0.000000000E+00  0.00000E+00  9.000E+00
      21    -1     0     0   502   503  0.000000000E+00  0.000000000E+00 -1.246680694E+03  1.246680694E+03  0.000000000E+00  0.00000E+00  9.000E+00
      25     1     1     2     0     0 -1.550936753E+02 -1.067341610E+01 -6.254760867E+02  6.565161113E+02  1.250003976E+02  0.00000E+00  9.000E+00
       5     1     1     2   501     0 -3.922808873E+00 -5.212764704E+00  1.478705730E+01  1.684579796E+01  4.750000000E+00  0.00000E+00  9.000E+00
      -5     1     1     2     0   503  1.526773881E+02  5.463659417E+00 -5.938451875E+02  6.132005427E+02  4.750000000E+00  0.00000E+00  9.000E+00
      21     1     1     2   511   501  6.339096045E+00  1.042252139E+01  3.172229276E+01  3.398701147E+01  1.305872339E-06  0.00000E+00  9.000E+00
#rwgt            1           9   2.6177194213191082E-003          10     1314073           0
</event>
<event>
      6   9999  3.45752E-01  1.23492E+01 -1.00000E+00  1.78031E-01
      21    -1     0     0   502   512  0.000000000E+00  0.000000000E+00  1.339853430E+01  1.339853430E+01  0.000000000E+00  0.00000E+00  9.000E+00
      21    -1     0     0   501   502  0.000000000E+00  0.000000000E+00 -8.036905969E+02  8.036905969E+02  0.000000000E+00  0.00000E+00  9.000E+00
      25     1     1     2     0     0  2.283816976E+01 -1.835201894E+01 -6.249995233E+02  6.380497468E+02  1.249987865E+02  0.00000E+00  9.000E+00
       5     1     1     2   501     0 -1.115810415E+01  2.160316033E+00 -1.224165840E+02  1.230347626E+02  4.750000000E+00  0.00000E+00  9.000E+00
      -5     1     1     2     0   503 -1.055370890E+01  3.893997010E+00 -4.187031932E+01  4.361456322E+01  4.750000000E+00  0.00000E+00  9.000E+00
      21     1     1     2   503   512 -1.126356709E+00  1.229770589E+01 -1.005635935E+00  1.239005865E+01  1.357560393E-07  0.00000E+00  9.000E+00
#rwgt            1           9   1396.7320104558955               10     1317438           0
</event>
<event>
      6   9999  3.45752E-01  5.48358E+00 -1.00000E+00  2.19651E-01
      21    -1     0     0   501   502  0.000000000E+00  0.000000000E+00  1.729231928E+01  1.729231928E+01  0.000000000E+00  0.00000E+00  9.000E+00
      21    -1     0     0   502   511  0.000000000E+00  0.000000000E+00 -1.184059833E+03  1.184059833E+03  0.000000000E+00  0.00000E+00  9.000E+00
      25     1     1     2     0     0 -5.617052913E+00 -9.989563736E+00 -5.525737246E+02  5.666516003E+02  1.249998892E+02  0.00000E+00  9.000E+00
       5     1     1     2   501     0 -4.899419878E-01 -2.715541970E+00  9.415376934E+00  1.090073549E+01  4.750000000E+00  0.00000E+00  9.000E+00
      -5     1     1     2     0   503  4.415728823E+00  7.488857074E+00 -3.821106550E+02  3.822390571E+02  4.750000000E+00  0.00000E+00  9.000E+00
      21     1     1     2   503   511  1.691266078E+00  5.216248631E+00 -2.414985113E+02  2.415607596E+02  3.814697266E-06  0.00000E+00  9.000E+00
#rwgt            1           9  0.15231276846462699               10     1319413           0
</event>
<event>
      6   9999  3.45752E-01  2.19029E+00 -1.00000E+00  3.18328E-01
      21    -1     0     0   501   502  0.000000000E+00  0.000000000E+00  3.976371654E+02  3.976371654E+02  0.000000000E+00  0.00000E+00  9.000E+00
      21    -1     0     0   512   503  0.000000000E+00  0.000000000E+00 -7.864904257E+01  7.864904257E+01  0.000000000E+00  0.00000E+00  9.000E+00
      25     1     1     2     0     0  4.959602866E+01 -8.704548787E+00  1.309436000E+02  1.879004594E+02  1.249992841E+02  0.00000E+00  9.000E+00
       5     1     1     2   501     0 -1.739919744E+00  1.220728371E+00  1.918575242E+02  1.919280845E+02  4.750000000E+00  0.00000E+00  9.000E+00
      -5     1     1     2     0   503 -4.981583165E+01  6.505640374E+00  3.253619180E+01  6.004254089E+01  4.750000000E+00  0.00000E+00  9.000E+00
      21     1     1     2   512   502  1.959722735E+00  9.781800423E-01 -3.634919323E+01  3.641512320E+01  1.581489940E-06  0.00000E+00  9.000E+00
#rwgt            1           9   5.7512651943720683E-002          10     1323750           0
</event>
<event>
      6   9999 -3.45752E-01  9.69717E+00 -1.00000E+00  1.88611E-01
      21    -1     0     0   501   502  0.000000000E+00  0.000000000E+00  7.561748412E+00  7.561748412E+00  0.000000000E+00  0.00000E+00  9.000E+00
      21    -1     0     0   502   511  0.000000000E+00  0.000000000E+00 -7.432075155E+02  7.432075155E+02  0.000000000E+00  0.00000E+00  9.000E+00
      25     1     1     2     0     0 -6.167760857E+00  2.760135475E+00 -6.367663654E+02  6.489509989E+02  1.249813394E+02  0.00000E+00  9.000E+00
       5     1     1     2   501     0 -6.534551260E-01  5.270832205E-01 -5.875369085E+00  7.601794671E+00  4.750000000E+00  0.00000E+00  9.000E+00
      -5     1     1     2     0   503 -1.185623600E+00  2.183206016E+00 -3.159489382E+01  3.204640241E+01  4.750000000E+00  0.00000E+00  9.000E+00
      21     1     1     2   503   511  8.006839584E+00 -5.470424712E+00 -6.140913877E+01  6.217006797E+01  6.743495762E-07  0.00000E+00  9.000E+00
#rwgt            1           9  -7.1880259006419688E-004          10     1331810           0
</event>
<event>
      6   9999  3.45752E-01  4.05653E+00 -1.00000E+00  2.46595E-01
      21    -1     0     0   512   502  0.000000000E+00  0.000000000E+00  1.763503831E+01  1.763503831E+01  0.000000000E+00  0.00000E+00  9.000E+00
      21    -1     0     0   502   503  0.000000000E+00  0.000000000E+00 -6.965174049E+02  6.965174049E+02  0.000000000E+00  0.00000E+00  9.000E+00
      25     1     1     2     0     0  1.628657163E+00 -2.260317568E+00 -6.493571474E+02  6.612845090E+02  1.249989415E+02  0.00000E+00  9.000E+00
       5     1     1     2   501     0 -4.772899228E-01 -1.906158779E-01 -3.770588038E+00  6.086376117E+00  4.750000000E+00  0.00000E+00  9.000E+00
      -5     1     1     2     0   503 -4.655724968E+00  4.494198214E+00 -3.541010580E+01  3.630856214E+01  4.750000000E+00  0.00000E+00  9.000E+00
      21     1     1     2   512   501  3.504357728E+00 -2.043264768E+00  9.655474643E+00  1.047299597E+01  5.960464478E-07  0.00000E+00  9.000E+00
#rwgt            1           9   1.5072607682500133E-002          10     1334130           0
</event>
<event>
      6   9999  3.45752E-01  8.03663E+00 -1.00000E+00  1.97781E-01
      21    -1     0     0   501   502  0.000000000E+00  0.000000000E+00  8.558385329E+01  8.558385329E+01  0.000000000E+00  0.00000E+00  9.000E+00
      21    -1     0     0   502   511  0.000000000E+00  0.000000000E+00 -1.036484798E+02  1.036484798E+02  0.000000000E+00  0.00000E+00  9.000E+00
      25     1     1     2     0     0 -2.555104542E-01  1.294025183E+01  2.471503162E+01  1.280773292E+02  1.250018163E+02  0.00000E+00  9.000E+00
       5     1     1     2   501     0 -1.043425327E+00 -4.257932607E-01  4.358183363E+00  6.544180510E+00  4.750000000E+00  0.00000E+00  9.000E+00
      -5     1     1     2     0   503  2.546008019E+00 -4.575170374E+00 -2.865371913E-01  7.075234579E+00  4.750000000E+00  0.00000E+00  9.000E+00
      21     1     1     2   503   511 -1.247072238E+00 -7.939288196E+00 -4.685130435E+01  4.753558883E+01  0.000000000E+00  0.00000E+00  9.000E+00
#rwgt            1           9   1.5906937147039182               10     1337898           0
</event>
<event>
      6   9999  3.45752E-01  5.17683E+01 -1.00000E+00  1.33985E-01
      21    -1     0     0   501   512  0.000000000E+00  0.000000000E+00  4.997771875E+01  4.997771875E+01  0.000000000E+00  0.00000E+00  9.000E+00
      21    -1     0     0   502   503  0.000000000E+00  0.000000000E+00 -1.249651318E+03  1.249651318E+03  0.000000000E+00  0.00000E+00  9.000E+00
      25     1     1     2     0     0  4.461725963E+01 -6.486963026E+01 -5.687272981E+02  5.876100164E+02  1.250440843E+02  0.00000E+00  9.000E+00
       5     1     1     2   501     0 -7.567320284E+01  1.286337294E+01 -4.048108127E+01  8.690903538E+01  4.750000000E+00  0.00000E+00  9.000E+00
      -5     1     1     2     0   503 -7.437582864E+00  8.662137531E+01 -5.563259549E+02  5.630983137E+02  4.750000000E+00  0.00000E+00  9.000E+00
      21     1     1     2   502   512  3.849352607E+01 -3.461511799E+01 -3.413926477E+01  6.201167102E+01  1.846782373E-06  0.00000E+00  9.000E+00
#rwgt            1           9  0.36809156885826105               10     1340645           0
</event>
<event>
      6   9999  3.45752E-01  6.95861E+00 -1.00000E+00  2.05467E-01
      21    -1     0     0   501   502  0.000000000E+00  0.000000000E+00  1.705120460E+01  1.705120460E+01  0.000000000E+00  0.00000E+00  9.000E+00
      21    -1     0     0   502   511  0.000000000E+00  0.000000000E+00 -1.037634425E+03  1.037634425E+03  0.000000000E+00  0.00000E+00  9.000E+00
      25     1     1     2     0     0  3.636637499E-01  3.662373046E+01 -3.925853605E+02  4.136299285E+02  1.250000904E+02  0.00000E+00  9.000E+00
       5     1     1     2   501     0  1.430601690E+00 -3.066403568E-02  4.924447160E+00  6.990010108E+00  4.750000000E+00  0.00000E+00  9.000E+00
      -5     1     1     2     0   503 -4.750404404E+00 -3.029358033E+01 -5.314253996E+02  5.323305225E+02  4.750000000E+00  0.00000E+00  9.000E+00
      21     1     1     2   503   511  2.956138965E+00 -6.299486100E+00 -1.014969079E+02  1.017351689E+02  0.000000000E+00  0.00000E+00  9.000E+00
#rwgt            1           9   2.1965033746790795E-004          10     1341597           0
</event>
<event>
      6   9999  3.45752E-01  1.16270E+02 -1.00000E+00  1.17717E-01
       2    -1     0     0   502     0  0.000000000E+00  0.000000000E+00  4.602325624E+02  4.602325624E+02  0.000000000E+00  0.00000E+00  9.000E+00
      21    -1     0     0   501   502  0.000000000E+00  0.000000000E+00 -1.023399064E+03  1.023399064E+03  0.000000000E+00  0.00000E+00  9.000E+00
      25     1     1     2     0     0  8.649403716E+01 -1.102174291E+01 -2.195589045E+02  2.672559852E+02  1.249678030E+02  0.00000E+00  9.000E+00
       5     1     1     2   501     0 -2.098480202E+00 -1.689001738E+00 -5.676230036E+02  5.676492694E+02  4.750000000E+00  0.00000E+00  9.000E+00
      -5     1     1     2     0   503  3.132632381E+01  1.429942753E+00 -2.033593507E+02  2.058178110E+02  4.750000000E+00  0.00000E+00  9.000E+00
       2     1     1     2   503     0 -1.157218808E+02  1.128080189E+01  4.273747572E+02  4.429085609E+02  0.000000000E+00  0.00000E+00  9.000E+00
#rwgt            1           9   7.5042550481604024E-003          10     1345389           0
</event>
<event>
      6   9999  3.45752E-01  9.72713E+00 -1.00000E+00  1.88468E-01
      21    -1     0     0   501   502  0.000000000E+00  0.000000000E+00  1.746233595E+01  1.746233595E+01  0.000000000E+00  0.00000E+00  9.000E+00
      21    -1     0     0   511   503  0.000000000E+00  0.000000000E+00 -1.113637538E+03  1.113637538E+03  0.000000000E+00  0.00000E+00  9.000E+00
      25     1     1     2     0     0  1.181505517E+01  7.382458151E+00 -8.926135663E+02  9.014316928E+02  1.250040872E+02  0.00000E+00  9.000E+00
       5     1     1     2   501     0 -2.023164528E+00 -3.856523937E-01  1.218961792E+01  1.324353455E+01  4.750000000E+00  0.00000E+00  9.000E+00
      -5     1     1     2     0   503 -7.313763201E-01 -3.457855474E+00 -4.378185240E+01  4.418036640E+01  4.750000000E+00  0.00000E+00  9.000E+00
      21     1     1     2   511   502 -9.060514325E+00 -3.538950283E+00 -1.719694009E+02  1.722442798E+02  3.303624740E-06  0.00000E+00  9.000E+00
#rwgt            1           9   7.8904261086894614E-004          10     1345856           0
</event>
<event>
      6   9999  3.45752E-01  1.51197E+01 -1.00000E+00  1.70073E-01
      21    -1     0     0   501   502  0.000000000E+00  0.000000000E+00  3.543627896E+01  3.543627896E+01  0.000000000E+00  0.00000E+00  9.000E+00
      21    -1     0     0   512   503  0.000000000E+00  0.000000000E+00 -1.164354217E+03  1.164354217E+03  0.000000000E+00  0.00000E+00  9.000E+00
      25     1     1     2     0     0  1.536451445E+01 -1.704462427E+00 -9.888251943E+02  9.968067394E+02  1.249377336E+02  0.00000E+00  9.000E+00
       5     1     1     2   501     0 -6.873360887E+00  1.642257672E+00  2.926578187E+01  3.047931411E+01  4.750000000E+00  0.00000E+00  9.000E+00
      -5     1     1     2     0   503 -7.603321637E+00  1.515581763E+01 -8.564671265E+01  8.743815641E+01  4.750000000E+00  0.00000E+00  9.000E+00
      21     1     1     2   512   502 -8.878319231E-01 -1.509361288E+01 -8.371181259E+01  8.506628570E+01  9.536743164E-07  0.00000E+00  9.000E+00
#rwgt            1           9   9.8764784645568759E-002          10     1349078           0
</event>
<event>
      6   9999  3.45752E-01  3.18364E+00 -1.00000E+00  2.70333E-01
      21    -1     0     0   501   511  0.000000000E+00  0.000000000E+00  1.079947063E+01  1.079947063E+01  0.000000000E+00  0.00000E+00  9.000E+00
      21    -1     0     0   502   503  0.000000000E+00  0.000000000E+00 -7.222783402E+02  7.222783402E+02  0.000000000E+00  0.00000E+00  9.000E+00
      25     1     1     2     0     0 -1.094486982E+01 -1.192325449E+01 -6.022053181E+02  6.152542224E+02  1.249982352E+02  0.00000E+00  9.000E+00
       5     1     1     2   501     0  1.232871557E+00  5.930590420E-01  1.624919061E+00  5.203321368E+00  4.750000000E+00  0.00000E+00  9.000E+00
      -5     1     1     2     0   503  1.121113011E+01  8.521609472E+00 -1.035603091E+02  1.046212569E+02  4.750000000E+00  0.00000E+00  9.000E+00
      21     1     1     2   502   511 -1.499131850E+00  2.808585976E+00 -7.338161361E+00  7.999010167E+00  8.429369702E-08  0.00000E+00  9.000E+00
#rwgt            1           9   8.2763937735017088E-003          10     1351824           0
</event>
<event>
      6   9999  3.45752E-01  7.23414E+00 -1.00000E+00  2.03334E-01
      21    -1     0     0   501   502  0.000000000E+00  0.000000000E+00  1.541491412E+01  1.541491412E+01  0.000000000E+00  0.00000E+00  9.000E+00
      21    -1     0     0   512   503  0.000000000E+00  0.000000000E+00 -1.553872975E+03  1.553872975E+03  0.000000000E+00  0.00000E+00  9.000E+00
      25     1     1     2     0     0  1.045963891E+01 -4.265262720E-01 -9.492688738E+02  9.575185025E+02  1.249828062E+02  0.00000E+00  9.000E+00
       5     1     1     2   501     0 -2.297078590E+00 -2.143210774E+00  1.043129368E+01  1.188462495E+01  4.750000000E+00  0.00000E+00  9.000E+00
      -5     1     1     2     0   503 -1.799474106E+00 -8.717530235E-01 -6.147181805E+01  6.168747826E+01  4.750000000E+00  0.00000E+00  9.000E+00
      21     1     1     2   512   502 -6.363086210E+00  3.441490070E+00 -5.381486630E+02  5.381972837E+02  1.078959322E-05  0.00000E+00  9.000E+00
#rwgt            1           9   2.4041774615433310E-002          10     1357060           0
</event>
<event>
      6   9999  3.45752E-01  4.09454E+00 -1.00000E+00  2.45769E-01
      21    -1     0     0   501   502  0.000000000E+00  0.000000000E+00  9.318804232E+00  9.318804232E+00  0.000000000E+00  0.00000E+00  9.000E+00
      21    -1     0     0   502   511  0.000000000E+00  0.000000000E+00 -8.139429366E+02  8.139429366E+02  0.000000000E+00  0.00000E+00  9.000E+00
      25     1     1     2     0     0  4.779558541E+00 -8.503534158E+00 -6.924835684E+02  7.037430767E+02  1.250026844E+02  0.00000E+00  9.000E+00
       5     1     1     2   501     0 -4.395108135E-01  1.254935816E+00  2.348616968E-01  4.938187286E+00  4.750000000E+00  0.00000E+00  9.000E+00
      -5     1     1     2     0   503 -8.389942906E+00  7.851619872E+00 -3.583931065E+01  3.793491484E+01  4.750000000E+00  0.00000E+00  9.000E+00
      21     1     1     2   503   511  4.049895179E+00 -6.030215304E-01 -7.653611498E+01  7.664556205E+01  9.536743164E-07  0.00000E+00  9.000E+00
#rwgt            1           9   4.9855330598829004E-004          10     1360507           0
</event>
<event>
      6   9999  3.45752E-01  7.00442E+00 -1.00000E+00  2.05104E-01
      21    -1     0     0   501   502  0.000000000E+00  0.000000000E+00  1.452845841E+01  1.452845841E+01  0.000000000E+00  0.00000E+00  9.000E+00
      21    -1     0     0   502   512  0.000000000E+00  0.000000000E+00 -1.094141443E+03  1.094141443E+03  0.000000000E+00  0.00000E+00  9.000E+00
      25     1     1     2     0     0  8.028960272E+00  1.397821717E+01 -7.116812718E+02  7.227554063E+02  1.250011601E+02  0.00000E+00  9.000E+00
       5     1     1     2   501     0 -3.158773866E+00  5.677842425E-01  7.864590788E+00  9.732138487E+00  4.750000000E+00  0.00000E+00  9.000E+00
      -5     1     1     2     0   503 -4.370018245E+00 -7.559464699E+00 -2.395096455E+02  2.397158221E+02  4.750000000E+00  0.00000E+00  9.000E+00
      21     1     1     2   503   512 -5.001681614E-01 -6.986536713E+00 -1.362866579E+02  1.364665343E+02  1.907348633E-06  0.00000E+00  9.000E+00
#rwgt            1           9   1.1821391779082184               10     1364745           0
</event>
<event>
      6   9999  3.45752E-01  3.06434E+00 -1.00000E+00  2.74523E-01
      21    -1     0     0   501   502  0.000000000E+00  0.000000000E+00  6.326675871E+01  6.326675871E+01  0.000000000E+00  0.00000E+00  9.000E+00
      21    -1     0     0   511   503  0.000000000E+00  0.000000000E+00 -1.539727984E+03  1.539727984E+03  0.000000000E+00  0.00000E+00  9.000E+00
      25     1     1     2     0     0 -3.979298805E+00 -2.372377614E+00 -1.555843808E+01  1.260478051E+02  1.249980847E+02  0.00000E+00  9.000E+00
       5     1     1     2   501     0  1.257569628E+00  1.496561359E+00  7.168785926E+00  8.819023128E+00  4.750000000E+00  0.00000E+00  9.000E+00
      -5     1     1     2     0   503  3.684006854E-01  2.838480798E+00 -1.363913117E+03  1.363924391E+03  4.750000000E+00  0.00000E+00  9.000E+00
      21     1     1     2   511   502  2.353328491E+00 -1.962664543E+00 -1.041584566E+02  1.042035234E+02  1.907348633E-06  0.00000E+00  9.000E+00
#rwgt            1           9   3.7054471354070820E-003          10     1368496           0
</event>
<event>
      6   9999  3.45752E-01  1.24443E+01 -1.00000E+00  1.77715E-01
      21    -1     0     0   501   502  0.000000000E+00  0.000000000E+00  3.754465532E+00  3.754465532E+00  0.000000000E+00  0.00000E+00  9.000E+00
       2    -1     0     0   502     0  0.000000000E+00  0.000000000E+00 -3.735364091E+03  3.735364091E+03  0.000000000E+00  0.00000E+00  9.000E+00
      25     1     1     2     0     0  1.123122315E+01 -9.335921525E-01 -1.675865446E+03  1.680558599E+03  1.250007891E+02  0.00000E+00  9.000E+00
       5     1     1     2   501     0  6.820652464E-01 -6.276737951E-01 -3.120163676E+00  5.758220972E+00  4.750000000E+00  0.00000E+00  9.000E+00
      -5     1     1     2     0   503  2.480567757E-01 -1.077383684E+00 -8.588842793E+01  8.602677979E+01  4.750000000E+00  0.00000E+00  9.000E+00
       2     1     1     2   503     0 -1.216134517E+01  2.638649632E+00 -1.966735587E+03  1.966774957E+03  2.157918644E-05  0.00000E+00  9.000E+00
#rwgt            1           9   1.8338525167631958E-002          10     1378082           0
</event>
<event>
      6   9999  3.45752E-01  3.53175E+00 -1.00000E+00  2.59600E-01
      21    -1     0     0   501   502  0.000000000E+00  0.000000000E+00  2.152551324E+03  2.152551324E+03  0.000000000E+00  0.00000E+00  9.000E+00
      21    -1     0     0   502   511  0.000000000E+00  0.000000000E+00 -4.974146162E+00  4.974146162E+00  0.000000000E+00  0.00000E+00  9.000E+00
      25     1     1     2     0     0 -2.772772972E+00 -2.686192564E+00  8.690788893E+02  8.780318353E+02  1.250075359E+02  0.00000E+00  9.000E+00
       5     1     1     2   501     0  3.113608339E+00 -1.379332604E+00  1.243614582E+03  1.243628316E+03  4.750000000E+00  0.00000E+00  9.000E+00
      -5     1     1     2     0   503  4.546205952E-02  5.549649692E-01  2.125888348E+01  2.179019687E+01  4.750000000E+00  0.00000E+00  9.000E+00
      21     1     1     2   503   511 -3.862974267E-01  3.510560199E+00  1.362482332E+01  1.407512235E+01  2.384185791E-07  0.00000E+00  9.000E+00
#rwgt            1           9   2.1541859014022938E-003          10     1379886           0
</event>
<event>
      6   9999 -3.45752E-01  3.14086E+01 -1.00000E+00  1.46560E-01
      21    -1     0     0   512   503  0.000000000E+00  0.000000000E+00  3.115385241E+03  3.115385241E+03  0.000000000E+00  0.00000E+00  9.000E+00
      21    -1     0     0   501   502  0.000000000E+00  0.000000000E+00 -3.747518688E+00  3.747518688E+00  0.000000000E+00  0.00000E+00  9.000E+00
      25     1     1     2     0     0 -2.904623904E+01  3.782822344E+01  2.126427009E+03  2.130632155E+03  1.250075879E+02  0.00000E+00  9.000E+00
       5     1     1     2   501     0 -1.259779066E+01 -2.377063204E+01  1.995502078E+02  2.014115071E+02  4.750000000E+00  0.00000E+00  9.000E+00
      -5     1     1     2     0   503  1.351087301E+01 -9.236251330E-02  1.596288804E+02  1.602700664E+02  4.750000000E+00  0.00000E+00  9.000E+00
      21     1     1     2   512   502  2.813315669E+01 -1.396522888E+01  6.260316246E+02  6.268190306E+02  7.629394531E-06  0.00000E+00  9.000E+00
#rwgt            1           9  -4.2343475103848007E-003          10     1385203           0
</event>
<event>
      6   9999  3.45752E-01  6.65715E+00 -1.00000E+00  2.07958E-01
      21    -1     0     0   501   511  0.000000000E+00  0.000000000E+00  3.162504567E+01  3.162504567E+01  0.000000000E+00  0.00000E+00  9.000E+00
      21    -1     0     0   502   503  0.000000000E+00  0.000000000E+00 -6.993546688E+02  6.993546688E+02  0.000000000E+00  0.00000E+00  9.000E+00
      25     1     1     2     0     0  3.406988850E+00 -1.379571867E+01 -5.717464357E+02  5.854242001E+02  1.250023114E+02  0.00000E+00  9.000E+00
       5     1     1     2   501     0  9.609873295E-01 -1.172120592E-01 -2.150585637E+00  5.303277656E+00  4.750000000E+00  0.00000E+00  9.000E+00
      -5     1     1     2     0   503 -4.619176332E-01  8.522164683E+00 -1.163561934E+02  1.167654354E+02  4.750000000E+00  0.00000E+00  9.000E+00
      21     1     1     2   502   511 -3.906058546E+00  5.390766043E+00  2.252359169E+01  2.348680128E+01  3.371747881E-07  0.00000E+00  9.000E+00
#rwgt            1           9   4.3003222564440231E-004          10     1386264           0
</event>
<event>
      6   9999  3.45752E-01  7.94673E+00 -1.00000E+00  1.98359E-01
      21    -1     0     0   512   502  0.000000000E+00  0.000000000E+00  3.799421558E+00  3.799421558E+00  0.000000000E+00  0.00000E+00  9.000E+00
      21    -1     0     0   502   503  0.000000000E+00  0.000000000E+00 -2.095525588E+03  2.095525588E+03  0.000000000E+00  0.00000E+00  9.000E+00
      25     1     1     2     0     0 -1.130418443E+01 -9.608262509E+00 -1.977243698E+03  1.981246598E+03  1.250013637E+02  0.00000E+00  9.000E+00
       5     1     1     2   501     0  4.142655607E+00  4.738833569E+00 -4.472618585E+01  4.541599211E+01  4.750000000E+00  0.00000E+00  9.000E+00
      -5     1     1     2     0   503  6.551782990E-01  3.067548671E-01 -5.947119473E+01  5.966497180E+01  4.750000000E+00  0.00000E+00  9.000E+00
      21     1     1     2   512   501  6.506350526E+00  4.562674072E+00 -1.028508812E+01  1.299744703E+01  3.576278687E-07  0.00000E+00  9.000E+00
#rwgt            1           9   489.89062647631124               10     1389263           0
</event>
<event>
      6   9999  3.45752E-01  5.47094E+00 -1.00000E+00  2.19799E-01
      21    -1     0     0   501   502  0.000000000E+00  0.000000000E+00  3.501119328E+02  3.501119328E+02  0.000000000E+00  0.00000E+00  9.000E+00
      21    -1     0     0   502   511  0.000000000E+00  0.000000000E+00 -4.362803585E+02  4.362803585E+02  0.000000000E+00  0.00000E+00  9.000E+00
      25     1     1     2     0     0 -5.230327311E+01  3.169322026E+01  9.742892058E+01  1.698791462E+02  1.250057485E+02  0.00000E+00  9.000E+00
       5     1     1     2   501     0  1.938797724E+00 -1.671946393E+00  1.416088940E+02  1.417116640E+02  4.750000000E+00  0.00000E+00  9.000E+00
      -5     1     1     2     0   503  5.418985645E+01 -2.611004873E+01  6.260622443E+01  8.695042855E+01  4.750000000E+00  0.00000E+00  9.000E+00
      21     1     1     2   503   511 -3.825381065E+00 -3.911225132E+00 -3.878124647E+02  3.878510526E+02  5.394796609E-06  0.00000E+00  9.000E+00
#rwgt            1           9  0.17650210811769398               10     1392347           0
</event>
<event>
      6   9999 -3.45752E-01  1.81224E+01 -1.00000E+00  1.63549E-01
      21    -1     0     0   502   512  0.000000000E+00  0.000000000E+00  7.349727876E+01  7.349727876E+01  0.000000000E+00  0.00000E+00  9.000E+00
      21    -1     0     0   501   502  0.000000000E+00  0.000000000E+00 -1.217643177E+03  1.217643177E+03  0.000000000E+00  0.00000E+00  9.000E+00
      25     1     1     2     0     0  1.131437239E+01 -3.740176011E+01 -1.203772430E+03  1.210875472E+03  1.249977590E+02  0.00000E+00  9.000E+00
       5     1     1     2   501     0 -7.099736253E-01 -3.760614281E-01 -5.657236825E-01  4.850569867E+00  4.750000000E+00  0.00000E+00  9.000E+00
      -5     1     1     2     0   503 -1.660938432E+01  2.067924805E+01  3.120963473E+01  4.123235073E+01  4.750000000E+00  0.00000E+00  9.000E+00
      21     1     1     2   503   512  6.004985555E+00  1.709857349E+01  2.898262105E+01  3.418206240E+01  1.469710828E-06  0.00000E+00  9.000E+00
#rwgt            1           9  -1.4635122131535178E-003          10     1396947           0
</event>
<event>
      6   9999  3.45752E-01  1.98533E+01 -1.00000E+00  1.60455E-01
      21    -1     0     0   501   502  0.000000000E+00  0.000000000E+00  8.941090247E+01  8.941090247E+01  0.000000000E+00  0.00000E+00  9.000E+00
      21    -1     0     0   511   503  0.000000000E+00  0.000000000E+00 -1.304715755E+03  1.304715755E+03  0.000000000E+00  0.00000E+00  9.000E+00
      25     1     1     2     0     0  1.286128208E+02 -1.000893737E+01 -5.726091910E+02  6.001228750E+02  1.249989718E+02  0.00000E+00  9.000E+00
       5     1     1     2   501     0  3.578088076E+00  1.611558026E+01  6.565215017E+01  6.786222781E+01  4.750000000E+00  0.00000E+00  9.000E+00
      -5     1     1     2     0   503 -1.172512620E+02  6.968570812E+00 -3.938877306E+02  4.110553810E+02  4.750000000E+00  0.00000E+00  9.000E+00
      21     1     1     2   511   502 -1.493964696E+01 -1.307521370E+01 -3.144600809E+02  3.150861735E+02  0.000000000E+00  0.00000E+00  9.000E+00
#rwgt            1           9   6.0880158667240604E-004          10     1399342           0
</event>
<event>
      6   9999  3.45752E-01  4.99930E+00 -1.00000E+00  2.29373E-01
      21    -1     0     0   501   512  0.000000000E+00  0.000000000E+00  8.259819973E+02  8.259819973E+02  0.000000000E+00  0.00000E+00  9.000E+00
      21    -1     0     0   502   503  0.000000000E+00  0.000000000E+00 -1.241227249E+03  1.241227249E+03  0.000000000E+00  0.00000E+00  9.000E+00
      25     1     1     2     0     0 -3.486926633E+00 -1.358234243E+01 -1.179986228E+03  1.186671993E+03  1.250051243E+02  0.00000E+00  9.000E+00
       5     1     1     2   501     0 -8.102303154E-01  7.766586198E+00  3.657688155E+01  3.770155299E+01  4.750000000E+00  0.00000E+00  9.000E+00
      -5     1     1     2     0   503  1.262332646E+00  1.842988288E+00 -5.720769335E+01  5.744800055E+01  4.750000000E+00  0.00000E+00  9.000E+00
      21     1     1     2   502   512  3.034824302E+00  3.972767949E+00  7.853717884E+02  7.853876998E+02  1.525878906E-05  0.00000E+00  9.000E+00
#rwgt            1           9   4.6017891999050310E-004          10     1402434           0
</event>
<event>
      6   9999  3.45752E-01  9.10412E+01 -1.00000E+00  1.22193E-01
      21    -1     0     0   511   502  0.000000000E+00  0.000000000E+00  6.431339708E+02  6.431339708E+02  0.000000000E+00  0.00000E+00  9.000E+00
      21    -1     0     0   502   503  0.000000000E+00  0.000000000E+00 -8.579595374E+01  8.579595374E+01  0.000000000E+00  0.00000E+00  9.000E+00
      25     1     1     2     0     0  1.967305708E+01 -4.839314501E+01 -1.088749383E+01  1.359160132E+02  1.250027978E+02  0.00000E+00  9.000E+00
       5     1     1     2   501     0  1.910930333E+01 -3.052094025E+01  1.594057680E+02  1.634914513E+02  4.750000000E+00  0.00000E+00  9.000E+00
      -5     1     1     2     0   503 -7.988623652E-02 -3.491073739E+00 -3.776473138E+00  7.001301809E+00  4.750000000E+00  0.00000E+00  9.000E+00
      21     1     1     2   511   501 -3.870247417E+01  8.240515901E+01  4.125962160E+02  4.225211583E+02  5.394796609E-06  0.00000E+00  9.000E+00
#rwgt            1           9   6.0127402554269169E-002          10     1408096           0
</event>
<event>
      6   9999  3.45752E-01  5.64607E+00 -1.00000E+00  2.17803E-01
      21    -1     0     0   501   512  0.000000000E+00  0.000000000E+00  5.217230732E+01  5.217230732E+01  0.000000000E+00  0.00000E+00  9.000E+00
      21    -1     0     0   502   503  0.000000000E+00  0.000000000E+00 -9.557528337E+02  9.557528337E+02  0.000000000E+00  0.00000E+00  9.000E+00
      25     1     1     2     0     0 -2.059201848E+01 -3.688279271E+01 -5.528692655E+02  5.683891384E+02  1.249696614E+02  0.00000E+00  9.000E+00
       5     1     1     2   501     0  3.677952348E+00  1.904061494E+00  8.203300062E+00  1.034453554E+01  4.750000000E+00  0.00000E+00  9.000E+00
      -5     1     1     2     0   503  2.189488818E+01  3.231987276E+01 -3.928379459E+02  3.948014369E+02  4.750000000E+00  0.00000E+00  9.000E+00
      21     1     1     2   502   512 -4.980822042E+00  2.658858451E+00  3.392338507E+01  3.439003011E+01  1.348699152E-06  0.00000E+00  9.000E+00
#rwgt            1           9   3.8213567448866929E-005          10     1408621           0
</event>
<event>
      6   9999  3.45752E-01  2.24163E+01 -1.00000E+00  1.56519E-01
      21    -1     0     0   501   511  0.000000000E+00  0.000000000E+00  5.033104336E+01  5.033104336E+01  0.000000000E+00  0.00000E+00  9.000E+00
      21    -1     0     0   502   503  0.000000000E+00  0.000000000E+00 -1.341815819E+03  1.341815819E+03  0.000000000E+00  0.00000E+00  9.000E+00
      25     1     1     2     0     0  5.705178865E+01  5.584969493E+01 -4.724366752E+02  4.951715493E+02  1.249974246E+02  0.00000E+00  9.000E+00
       5     1     1     2   501     0  2.584565327E+00  2.044009101E+00  3.351518648E+01  3.401011873E+01  4.750000000E+00  0.00000E+00  9.000E+00
      -5     1     1     2     0   503 -4.918111862E+01 -7.772237916E+01 -8.064529764E+02  8.116948419E+02  4.750000000E+00  0.00000E+00  9.000E+00
      21     1     1     2   502   511 -1.045523536E+01  1.982867512E+01 -4.611031029E+01  5.127035224E+01  0.000000000E+00  0.00000E+00  9.000E+00
#rwgt            1           9   1.0738145026868411E-004          10     1413197           0
</event>
<event>
      6   9999  3.45752E-01  8.59703E+00 -1.00000E+00  1.94385E-01
      21    -1     0     0   501   502  0.000000000E+00  0.000000000E+00  2.432726290E+01  2.432726290E+01  0.000000000E+00  0.00000E+00  9.000E+00
      21    -1     0     0   512   503  0.000000000E+00  0.000000000E+00 -1.405589046E+03  1.405589046E+03  0.000000000E+00  0.00000E+00  9.000E+00
      25     1     1     2     0     0 -6.684139618E+00 -2.777383724E+00 -9.223164571E+02  9.307761523E+02  1.249968285E+02  0.00000E+00  9.000E+00
       5     1     1     2   501     0  8.844133783E+00  7.714592512E-01  1.859158104E+01  2.114292404E+01  4.750000000E+00  0.00000E+00  9.000E+00
      -5     1     1     2     0   503  5.448714330E+00  6.007984232E+00 -1.239665026E+02  1.243223256E+02  4.750000000E+00  0.00000E+00  9.000E+00
      21     1     1     2   512   502 -7.608708496E+00 -4.002059759E+00 -3.535704046E+02  3.536749071E+02  3.814697266E-06  0.00000E+00  9.000E+00
#rwgt            1           9   5.2230127136402111E-003          10     1415298           0
</event>
<event>
      6   9999 -3.45752E-01  1.24191E+01 -1.00000E+00  1.77798E-01
      21    -1     0     0   501   502  0.000000000E+00  0.000000000E+00  1.304626647E+01  1.304626647E+01  0.000000000E+00  0.00000E+00  9.000E+00
      21    -1     0     0   511   503  0.000000000E+00  0.000000000E+00 -9.704116931E+02  9.704116931E+02  0.000000000E+00  0.00000E+00  9.000E+00
      25     1     1     2     0     0  5.390286237E+00  7.300551775E+00 -7.551244081E+02  7.655717600E+02  1.257175201E+02  0.00000E+00  9.000E+00
       5     1     1     2   501     0 -4.433703257E-01  2.399517792E+00  6.326315884E+00  8.278830566E+00  4.750000000E+00  0.00000E+00  9.000E+00
      -5     1     1     2     0   503  1.456078922E+00  9.412102270E-01 -1.992274309E+01  2.055442130E+01  4.750000000E+00  0.00000E+00  9.000E+00
      21     1     1     2   511   502 -6.402994833E+00 -1.064127979E+01 -1.886445913E+02  1.890529477E+02  4.672030912E-06  0.00000E+00  9.000E+00
#rwgt            1           9  -1.3758669508220214E-004          10     1418806           0
</event>
<event>
      6   9999  3.45752E-01  3.23417E+01 -1.00000E+00  1.45757E-01
      21    -1     0     0   501   502  0.000000000E+00  0.000000000E+00  7.191129554E+01  7.191129554E+01  0.000000000E+00  0.00000E+00  9.000E+00
      21    -1     0     0   502   512  0.000000000E+00  0.000000000E+00 -2.144572975E+03  2.144572975E+03  0.000000000E+00  0.00000E+00  9.000E+00
      25     1     1     2     0     0  1.011178804E+02 -2.634464178E+01 -8.969957072E+02  9.116747461E+02  1.250227102E+02  0.00000E+00  9.000E+00
       5     1     1     2   501     0 -1.213138256E+00  2.554007472E+00  6.004797054E+01  6.030187331E+01  4.750000000E+00  0.00000E+00  9.000E+00
      -5     1     1     2     0   503 -8.381056448E+01 -4.262224742E+00 -1.147115145E+03  1.150190460E+03  4.750000000E+00  0.00000E+00  9.000E+00
      21     1     1     2   503   512 -1.609417763E+01  2.805285905E+01 -8.859879761E+01  9.431719033E+01  0.000000000E+00  0.00000E+00  9.000E+00
#rwgt            1           9  0.20873360573776206               10     1421164           0
</event>
<event>
      6   9999  3.45752E-01  2.09294E+01 -1.00000E+00  1.58719E-01
      21    -1     0     0   511   502  0.000000000E+00  0.000000000E+00  1.743764324E+02  1.743764324E+02  0.000000000E+00  0.00000E+00  9.000E+00
      21    -1     0     0   502   503  0.000000000E+00  0.000000000E+00 -5.248088999E+02  5.248088999E+02  0.000000000E+00  0.00000E+00  9.000E+00
      25     1     1     2     0     0  4.809813031E+00  2.677894701E+01 -4.502429136E+02  4.680641858E+02  1.250006179E+02  0.00000E+00  9.000E+00
       5     1     1     2   501     0  3.686359965E+00 -2.841356121E+00 -2.136294746E+01  2.237410509E+01  4.750000000E+00  0.00000E+00  9.000E+00
      -5     1     1     2     0   503  2.749541621E+00 -6.286156735E+00 -4.271760509E+01  4.352507358E+01  4.750000000E+00  0.00000E+00  9.000E+00
      21     1     1     2   511   501 -1.124571462E+01 -1.765143416E+01  1.638909986E+02  1.652219678E+02  3.814697266E-06  0.00000E+00  9.000E+00
#rwgt            1           9   7.0013029599557798E-003          10     1424034           0
</event>
<event>
      6   9999  3.45752E-01  1.12418E+01 -1.00000E+00  1.81993E-01
      21    -1     0     0   501   512  0.000000000E+00  0.000000000E+00  2.164834549E+03  2.164834549E+03  0.000000000E+00  0.00000E+00  9.000E+00
      21    -1     0     0   502   503  0.000000000E+00  0.000000000E+00 -7.511475025E+00  7.511475025E+00  0.000000000E+00  0.00000E+00  9.000E+00
      25     1     1     2     0     0 -1.531278886E+01 -6.679843582E+00  5.546860852E+02  5.688411347E+02  1.249979264E+02  0.00000E+00  9.000E+00
       5     1     1     2   501     0 -1.434956603E+00 -2.001221806E+00  1.317616219E+03  1.317627082E+03  4.750000000E+00  0.00000E+00  9.000E+00
      -5     1     1     2     0   503  5.738789992E+00  6.405054336E+00  9.031788729E+01  9.085065600E+01  4.750000000E+00  0.00000E+00  9.000E+00
      21     1     1     2   502   512  1.100895547E+01  2.276011052E+00  1.947028816E+02  1.950271505E+02  0.000000000E+00  0.00000E+00  9.000E+00
#rwgt            1           9   8.0631098068396564E-003          10     1425266           0
</event>
<event>
      6   9999  3.45752E-01  1.41400E+01 -1.00000E+00  1.72624E-01
      21    -1     0     0   501   511  0.000000000E+00  0.000000000E+00  2.922878673E+02  2.922878673E+02  0.000000000E+00  0.00000E+00  9.000E+00
      21    -1     0     0   502   503  0.000000000E+00  0.000000000E+00 -1.600308046E+02  1.600308046E+02  0.000000000E+00  0.00000E+00  9.000E+00
      25     1     1     2     0     0 -9.456550896E+01  3.094419233E+01 -5.489132610E+01  1.689341721E+02  1.250020732E+02  0.00000E+00  9.000E+00
       5     1     1     2   501     0 -3.883740986E+00 -1.828509299E+00  1.592738421E+02  1.594024660E+02  4.750000000E+00  0.00000E+00  9.000E+00
      -5     1     1     2     0   503  8.604007544E+01 -2.233698482E+01 -4.003134108E+00  8.910905148E+01  4.750000000E+00  0.00000E+00  9.000E+00
      21     1     1     2   502   511  1.240917450E+01 -6.778698211E+00  3.187768074E+01  3.487298225E+01  3.371747881E-07  0.00000E+00  9.000E+00
#rwgt            1           9   2.7675964344187038E-004          10     1427559           0
</event>
<event>
      6   9999  3.45752E-01  7.43981E+00 -1.00000E+00  2.01823E-01
      21    -1     0     0   501   502  0.000000000E+00  0.000000000E+00  1.012122419E+01  1.012122419E+01  0.000000000E+00  0.00000E+00  9.000E+00
      21    -1     0     0   502   512  0.000000000E+00  0.000000000E+00 -3.250108503E+03  3.250108503E+03  0.000000000E+00  0.00000E+00  9.000E+00
      25     1     1     2     0     0  2.375626606E+00 -7.196354387E+00 -1.059533989E+03  1.066909348E+03  1.250034131E+02  0.00000E+00  9.000E+00
       5     1     1     2   501     0 -1.887301655E+00  4.042508700E-01  5.305848919E+00  7.378337147E+00  4.750000000E+00  0.00000E+00  9.000E+00
      -5     1     1     2     0   503  6.202877489E-01 -5.646450944E-01 -6.841246290E+01  6.858229480E+01  4.750000000E+00  0.00000E+00  9.000E+00
      21     1     1     2   503   512 -1.108612700E+00  7.356748611E+00 -2.117346677E+03  2.117359747E+03  3.051757812E-05  0.00000E+00  9.000E+00
#rwgt            1           9   1.3576621544140464               10     1430260           0
</event>
<event>
      6   9999  3.45752E-01  3.53873E+01 -1.00000E+00  1.43343E-01
      21    -1     0     0   501   502  0.000000000E+00  0.000000000E+00  8.018053523E+00  8.018053523E+00  0.000000000E+00  0.00000E+00  9.000E+00
      21    -1     0     0   511   503  0.000000000E+00  0.000000000E+00 -3.979015264E+03  3.979015264E+03  0.000000000E+00  0.00000E+00  9.000E+00
      25     1     1     2     0     0 -1.165403541E+02  1.897076647E+01 -1.470006395E+03  1.480028715E+03  1.249986146E+02  0.00000E+00  9.000E+00
       5     1     1     2   501     0 -9.444642059E+00 -1.978249108E+01 -1.559669496E+02  1.575715713E+02  4.750000000E+00  0.00000E+00  9.000E+00
      -5     1     1     2     0   503  1.034627772E+02  2.810656150E+01 -1.883201700E+03  1.886257069E+03  4.750000000E+00  0.00000E+00  9.000E+00
      21     1     1     2   511   502  2.252221890E+01 -2.729483690E+01 -4.618221662E+02  4.631759619E+02  5.394796609E-06  0.00000E+00  9.000E+00
#rwgt            1           9   1.6282655691150791E-004          10     1433210           0
</event>
<event>
      6   9999  3.45752E-01  9.32972E+01 -1.00000E+00  1.21730E-01
      21    -1     0     0   501   502  0.000000000E+00  0.000000000E+00  7.458758457E+02  7.458758457E+02  0.000000000E+00  0.00000E+00  9.000E+00
       2    -1     0     0   502     0  0.000000000E+00  0.000000000E+00 -3.552357652E+03  3.552357652E+03  0.000000000E+00  0.00000E+00  9.000E+00
      25     1     1     2     0     0 -1.853139425E+02  6.651066524E+00  1.416023093E+02  2.646915830E+02  1.249997045E+02  0.00000E+00  9.000E+00
       5     1     1     2   501     0 -2.771902831E+01  4.724840826E-01  5.315813169E+02  5.323249259E+02  4.750000000E+00  0.00000E+00  9.000E+00
      -5     1     1     2     0   503  2.080356956E+02  8.603970910E+01 -3.165301235E+03  3.173300514E+03  4.750000000E+00  0.00000E+00  9.000E+00
       2     1     1     2   503     0  4.997275172E+00 -9.316325970E+01 -3.143641973E+02  3.279164745E+02  5.394796609E-06  0.00000E+00  9.000E+00
#rwgt            1           9   6.1551841625333465E-004          10     1434205           0
</event>
<event>
      6   9999  3.45752E-01  1.03110E+01 -1.00000E+00  1.85804E-01
      21    -1     0     0   511   502  0.000000000E+00  0.000000000E+00  4.606226488E+01  4.606226488E+01  0.000000000E+00  0.00000E+00  9.000E+00
      21    -1     0     0   502   503  0.000000000E+00  0.000000000E+00 -6.975287051E+02  6.975287051E+02  0.000000000E+00  0.00000E+00  9.000E+00
      25     1     1     2     0     0 -2.166110052E+01  2.882736842E+01 -5.967516481E+02  6.107679478E+02  1.249989445E+02  0.00000E+00  9.000E+00
       5     1     1     2   501     0 -5.125263027E-01 -3.410269227E+00  5.536222957E+00  8.068759758E+00  4.750000000E+00  0.00000E+00  9.000E+00
      -5     1     1     2     0   503  2.643150240E+01 -3.480786453E+01 -8.623739145E+01  9.679701409E+01  4.750000000E+00  0.00000E+00  9.000E+00
      21     1     1     2   511   501 -4.257875571E+00  9.390765333E+00  2.598637636E+01  2.795724833E+01  5.840038640E-07  0.00000E+00  9.000E+00
#rwgt            1           9   6.9518162661165450E-004          10     1436178           0
</event>
<event>
      6   9999 -3.45752E-01  1.45479E+01 -1.00000E+00  1.71531E-01
      21    -1     0     0   502   503  0.000000000E+00  0.000000000E+00  1.259234192E+01  1.259234192E+01  0.000000000E+00  0.00000E+00  9.000E+00
      21    -1     0     0   512   502  0.000000000E+00  0.000000000E+00 -1.241517574E+03  1.241517574E+03  0.000000000E+00  0.00000E+00  9.000E+00
      25     1     1     2     0     0  2.590324394E+01 -3.627436367E+01 -5.173996662E+02  5.341486129E+02  1.250020741E+02  0.00000E+00  9.000E+00
       5     1     1     2   501     0  7.969626674E+00  2.852065258E+00 -6.601032107E+01  6.672011850E+01  4.750000000E+00  0.00000E+00  9.000E+00
      -5     1     1     2     0   503 -3.957733757E+01  4.680517488E+01 -2.496420615E+02  2.571007807E+02  4.750000000E+00  0.00000E+00  9.000E+00
      21     1     1     2   512   501  5.704466953E+00 -1.338287647E+01 -3.958731831E+02  3.961404037E+02  5.394796609E-06  0.00000E+00  9.000E+00
#rwgt            1           9  -7.7977968671098363E-004          10     1438943           0
</event>
<event>
      6   9999  3.45752E-01  3.85064E+00 -1.00000E+00  2.51321E-01
      21    -1     0     0   501   502  0.000000000E+00  0.000000000E+00  8.513183408E+00  8.513183408E+00  0.000000000E+00  0.00000E+00  9.000E+00
      21    -1     0     0   511   503  0.000000000E+00  0.000000000E+00 -2.658777328E+03  2.658777328E+03  0.000000000E+00  0.00000E+00  9.000E+00
      25     1     1     2     0     0  4.771236986E+01  8.479102173E+00 -7.112877494E+02  7.238113450E+02  1.249969408E+02  0.00000E+00  9.000E+00
       5     1     1     2   501     0 -1.272207600E+00  1.304867909E-01 -1.130195757E+00  5.047314279E+00  4.750000000E+00  0.00000E+00  9.000E+00
      -5     1     1     2     0   503 -4.275541894E+01 -7.491517499E+00 -1.737161787E+03  1.737710501E+03  4.750000000E+00  0.00000E+00  9.000E+00
      21     1     1     2   511   502 -3.684743320E+00 -1.118071465E+00 -2.006844123E+02  2.007213510E+02  0.000000000E+00  0.00000E+00  9.000E+00
#rwgt            1           9   2.2458877001912861E-002          10     1441101           0
</event>
<event>
      6   9999  3.45752E-01  2.85247E+01 -1.00000E+00  1.49269E-01
      21    -1     0     0   512   502  0.000000000E+00  0.000000000E+00  2.628503077E+03  2.628503077E+03  0.000000000E+00  0.00000E+00  9.000E+00
      21    -1     0     0   502   503  0.000000000E+00  0.000000000E+00 -2.642413842E+01  2.642413842E+01  0.000000000E+00  0.00000E+00  9.000E+00
      25     1     1     2     0     0 -6.625663189E+00 -2.227353890E+01  1.389465559E+02  1.883380787E+02  1.250003062E+02  0.00000E+00  9.000E+00
       5     1     1     2   501     0 -1.952761221E+00 -4.539241740E+00  2.272780772E+03  2.272791107E+03  4.750000000E+00  0.00000E+00  9.000E+00
      -5     1     1     2     0   503  1.986891060E+00 -9.399171545E-01  1.087666432E+01  1.207043939E+01  4.750000000E+00  0.00000E+00  9.000E+00
      21     1     1     2   512   501  6.591533350E+00  2.775269780E+01  1.794749464E+02  1.817275899E+02  1.907348633E-06  0.00000E+00  9.000E+00
#rwgt            1           9   4.4052543636686277E-004          10     1447088           0
</event>
<event>
      6   9999  3.45752E-01  4.48047E+00 -1.00000E+00  2.38076E-01
      21    -1     0     0   502   511  0.000000000E+00  0.000000000E+00  1.084252482E+01  1.084252482E+01  0.000000000E+00  0.00000E+00  9.000E+00
      21    -1     0     0   501   502  0.000000000E+00  0.000000000E+00 -3.560856251E+03  3.560856251E+03  0.000000000E+00  0.00000E+00  9.000E+00
      25     1     1     2     0     0  1.482651486E+00  3.439595231E+00 -3.491681780E+03  3.493920477E+03  1.249984682E+02  0.00000E+00  9.000E+00
       5     1     1     2   501     0  1.916802262E-01  1.063621462E-01 -4.047935928E+01  4.075768740E+01  4.750000000E+00  0.00000E+00  9.000E+00
      -5     1     1     2     0   503 -3.529546862E-01  7.352326081E-01 -2.668502081E+01  2.711674722E+01  4.750000000E+00  0.00000E+00  9.000E+00
      21     1     1     2   503   511 -1.321377026E+00 -4.281189985E+00  8.832434300E+00  9.903863922E+00  1.255947799E-06  0.00000E+00  9.000E+00
#rwgt            1           9   2.3258301620949057E-003          10     1448759           0
</event>
<event>
      6   9999  3.45752E-01  1.41645E+01 -1.00000E+00  1.72557E-01
      21    -1     0     0   501   502  0.000000000E+00  0.000000000E+00  1.394340290E+01  1.394340290E+01  0.000000000E+00  0.00000E+00  9.000E+00
      21    -1     0     0   502   512  0.000000000E+00  0.000000000E+00 -9.308807449E+02  9.308807449E+02  0.000000000E+00  0.00000E+00  9.000E+00
      25     1     1     2     0     0 -1.165479139E+01 -1.664908898E+01 -7.892629593E+02  7.993587061E+02  1.250011830E+02  0.00000E+00  9.000E+00
       5     1     1     2   501     0  2.589597913E-01 -1.808019602E+00  6.478802464E+00  8.238529992E+00  4.750000000E+00  0.00000E+00  9.000E+00
      -5     1     1     2     0   503  6.309194351E+00  5.237494036E+00 -1.927189635E+01  2.147570176E+01  4.750000000E+00  0.00000E+00  9.000E+00
      21     1     1     2   503   512  5.086637250E+00  1.321961455E+01 -1.148812889E+02  1.157512100E+02  1.348699152E-06  0.00000E+00  9.000E+00
#rwgt            1           9   5.9535379664916446E-003          10     1452721           0
</event>
<event>
      6   9999  3.45752E-01  1.01834E+01 -1.00000E+00  1.86366E-01
      21    -1     0     0   501   502  0.000000000E+00  0.000000000E+00  8.993052128E+02  8.993052128E+02  0.000000000E+00  0.00000E+00  9.000E+00
      21    -1     0     0   511   503  0.000000000E+00  0.000000000E+00 -3.260152167E+01  3.260152167E+01  0.000000000E+00  0.00000E+00  9.000E+00
      25     1     1     2     0     0 -8.581471307E+01 -1.438637384E+01  2.909848785E+02  3.284319277E+02  1.249967956E+02  0.00000E+00  9.000E+00
       5     1     1     2   501     0  1.201807969E+00 -6.032834493E-01  3.165777844E+02  3.166162731E+02  4.750000000E+00  0.00000E+00  9.000E+00
      -5     1     1     2     0   503  8.390704524E+01  2.514853654E+01  2.619881641E+02  2.762846390E+02  4.750000000E+00  0.00000E+00  9.000E+00
      21     1     1     2   511   502  7.058598639E-01 -1.015887925E+01 -2.847135844E+00  1.057389466E+01  1.884864366E-07  0.00000E+00  9.000E+00
#rwgt            1           9   1.9009729098481252E-004          10     1454703           0
</event>
<event>
      6   9999  3.45752E-01  5.56865E+00 -1.00000E+00  2.18673E-01
      21    -1     0     0   512   502  0.000000000E+00  0.000000000E+00  9.396827966E+00  9.396827966E+00  0.000000000E+00  0.00000E+00  9.000E+00
      21    -1     0     0   502   503  0.000000000E+00  0.000000000E+00 -7.658799710E+02  7.658799710E+02  0.000000000E+00  0.00000E+00  9.000E+00
      25     1     1     2     0     0 -3.407468809E+00 -1.904825483E+00 -7.157557006E+02  7.265975267E+02  1.249900144E+02  0.00000E+00  9.000E+00
       5     1     1     2   501     0 -1.455428515E+00 -9.527896817E-01  1.507536270E-01  5.060761503E+00  4.750000000E+00  0.00000E+00  9.000E+00
      -5     1     1     2     0   503  8.737253510E-02 -6.691255120E-03 -3.569872941E+01  3.601346221E+01  4.750000000E+00  0.00000E+00  9.000E+00
      21     1     1     2   512   501  4.775524789E+00  2.864306420E+00 -5.179466663E+00  7.605048533E+00  2.858538343E-07  0.00000E+00  9.000E+00
#rwgt            1           9   1.0974059125734197E-004          10     1457962           0
</event>
<event>
      6   9999 -3.45752E-01  8.97678E+01 -1.00000E+00  1.22461E-01
      21    -1     0     0   511   502  0.000000000E+00  0.000000000E+00  3.889960904E+02  3.889960904E+02  0.000000000E+00  0.00000E+00  9.000E+00
      21    -1     0     0   502   503  0.000000000E+00  0.000000000E+00 -1.938206026E+03  1.938206026E+03  0.000000000E+00  0.00000E+00  9.000E+00
      25     1     1     2     0     0 -3.901491715E+02 -4.719972502E+02 -8.978877119E+02  1.093994897E+03  1.249988433E+02  0.00000E+00  9.000E+00
       5     1     1     2   501     0 -1.975798168E+00 -8.447177999E+00  1.199484086E+02  1.203554810E+02  4.750000000E+00  0.00000E+00  9.000E+00
      -5     1     1     2     0   503  4.628200020E+02  4.251229844E+02 -8.011592295E+02  1.018238960E+03  4.750000000E+00  0.00000E+00  9.000E+00
      21     1     1     2   511   501 -7.069503226E+01  5.532144380E+01  2.988859681E+01  9.461277900E+01  1.617033478E-06  0.00000E+00  9.000E+00
#rwgt            1           9  -1.2803876185029841E-003          10     1461470           0
</event>
<event>
      6   9999  3.45752E-01  4.47457E+00 -1.00000E+00  2.38185E-01
      21    -1     0     0   501   512  0.000000000E+00  0.000000000E+00  3.764113745E+00  3.764113745E+00  0.000000000E+00  0.00000E+00  9.000E+00
      21    -1     0     0   502   503  0.000000000E+00  0.000000000E+00 -1.450152045E+03  1.450152045E+03  0.000000000E+00  0.00000E+00  9.000E+00
      25     1     1     2     0     0  1.477333957E+00 -6.165730140E+00 -1.313993133E+03  1.319942053E+03  1.250154844E+02  0.00000E+00  9.000E+00
       5     1     1     2   501     0  5.145583394E-01 -1.292750094E-01 -1.149472534E+01  1.244880287E+01  4.750000000E+00  0.00000E+00  9.000E+00
      -5     1     1     2     0   503 -4.507439338E-01  2.094219554E+00 -1.007382273E+02  1.008728996E+02  4.750000000E+00  0.00000E+00  9.000E+00
      21     1     1     2   502   512 -1.541148363E+00  4.200785595E+00 -2.016184508E+01  2.065240264E+01  3.371747881E-07  0.00000E+00  9.000E+00
#rwgt            1           9   1.5884226214427487E-004          10     1463488           0
</event>
<event>
      6   9999 -3.45752E-01  5.80193E+00 -1.00000E+00  2.16109E-01
      21    -1     0     0   501   511  0.000000000E+00  0.000000000E+00  6.719968129E+01  6.719968129E+01  0.000000000E+00  0.00000E+00  9.000E+00
      21    -1     0     0   502   503  0.000000000E+00  0.000000000E+00 -1.278342565E+03  1.278342565E+03  0.000000000E+00  0.00000E+00  9.000E+00
      25     1     1     2     0     0  2.852330770E+00 -1.989512739E+01 -1.112786162E+03  1.119965157E+03  1.249998420E+02  0.00000E+00  9.000E+00
       5     1     1     2   501     0 -1.277178622E+01 -1.846963394E+00  3.900811863E+01  4.136091895E+01  4.750000000E+00  0.00000E+00  9.000E+00
      -5     1     1     2     0   503  6.164902188E+00  1.731877645E+01 -1.598606197E+02  1.609842423E+02  4.750000000E+00  0.00000E+00  9.000E+00
      21     1     1     2   502   511  3.754553259E+00  4.423314332E+00  2.249577907E+01  2.323192751E+01  8.259061849E-07  0.00000E+00  9.000E+00
#rwgt            1           9  -1.2997289362142296E-004          10     1467240           0
</event>
<event>
      6   9999  3.45752E-01  6.20703E+00 -1.00000E+00  2.12026E-01
      21    -1     0     0   501   502  0.000000000E+00  0.000000000E+00  1.322096132E+01  1.322096132E+01  0.000000000E+00  0.00000E+00  9.000E+00
      21    -1     0     0   502   512  0.000000000E+00  0.000000000E+00 -9.717577436E+02  9.717577436E+02  0.000000000E+00  0.00000E+00  9.000E+00
      25     1     1     2     0     0  2.311339621E+00 -6.572588948E-01 -7.152577907E+02  7.261023592E+02  1.250006189E+02  0.00000E+00  9.000E+00
       5     1     1     2   501     0  2.070859885E+00  2.264797991E+00  6.510113910E+00  8.623331939E+00  4.750000000E+00  0.00000E+00  9.000E+00
      -5     1     1     2     0   503 -1.153423718E+00  3.693616952E+00 -5.094771124E+01  5.131476370E+01  4.750000000E+00  0.00000E+00  9.000E+00
      21     1     1     2   503   512 -3.228775788E+00 -5.301156048E+00 -1.988413943E+02  1.989382501E+02  3.814697266E-06  0.00000E+00  9.000E+00
#rwgt            1           9   1.5947738703515836E-004          10     1473886           0
</event>
<event>
      6   9999  3.45752E-01  4.69546E+00 -1.00000E+00  2.34270E-01
      21    -1     0     0   511   502  0.000000000E+00  0.000000000E+00  3.835655927E+00  3.835655927E+00  0.000000000E+00  0.00000E+00  9.000E+00
      21    -1     0     0   502   503  0.000000000E+00  0.000000000E+00 -2.484459502E+03  2.484459502E+03  0.000000000E+00  0.00000E+00  9.000E+00
      25     1     1     2     0     0 -2.429424862E+00  6.252812026E+00 -2.423776212E+03  2.427006588E+03  1.249994206E+02  0.00000E+00  9.000E+00
       5     1     1     2   501     0 -1.229241028E+00 -1.149205545E+00 -2.259158941E+00  5.522499978E+00  4.750000000E+00  0.00000E+00  9.000E+00
      -5     1     1     2     0   503  1.318459487E+00 -1.032889876E+00 -1.347832988E+01  1.438864390E+01  4.750000000E+00  0.00000E+00  9.000E+00
      21     1     1     2   511   501  2.340206403E+00 -4.070716605E+00 -4.111014523E+01  4.137742550E+01  9.536743164E-07  0.00000E+00  9.000E+00
#rwgt            1           9   1.9308280017035395E-003          10     1477478           0
</event>
<event>
      6   9999  3.45752E-01  1.41858E+01 -1.00000E+00  1.72499E-01
      21    -1     0     0   512   502  0.000000000E+00  0.000000000E+00  4.164804181E+01  4.164804181E+01  0.000000000E+00  0.00000E+00  9.000E+00
      21    -1     0     0   502   503  0.000000000E+00  0.000000000E+00 -1.528077672E+03  1.528077672E+03  0.000000000E+00  0.00000E+00  9.000E+00
      25     1     1     2     0     0 -3.880075895E+01  6.645083206E+01 -1.364435295E+03  1.372307293E+03  1.249896747E+02  0.00000E+00  9.000E+00
       5     1     1     2   501     0  1.961683012E+00 -1.586773234E+00  1.564630986E+00  5.601483702E+00  4.750000000E+00  0.00000E+00  9.000E+00
      -5     1     1     2     0   503  4.666842829E+01 -7.509251927E+01 -1.427336818E+02  1.679651603E+02  4.750000000E+00  0.00000E+00  9.000E+00
      21     1     1     2   512   501 -9.829352352E+00  1.022846044E+01  1.917471554E+01  2.385177743E+01  1.168007728E-06  0.00000E+00  9.000E+00
#rwgt            1           9   1.4504784451944305E-004          10     1481905           0
</event>
<event>
      6   9999  3.45752E-01  3.92051E+01 -1.00000E+00  1.40693E-01
      21    -1     0     0   501   502  0.000000000E+00  0.000000000E+00  3.510529719E+02  3.510529719E+02  0.000000000E+00  0.00000E+00  9.000E+00
      -2    -1     0     0     0   503  0.000000000E+00  0.000000000E+00 -1.855728823E+02  1.855728823E+02  0.000000000E+00  0.00000E+00  9.000E+00
      25     1     1     2     0     0  2.600497264E+01 -2.164336661E+01  6.440934928E+01  1.446301649E+02  1.249985056E+02  0.00000E+00  9.000E+00
       5     1     1     2   501     0  9.253256078E+00  4.405957500E+00  1.788378627E+02  1.791942489E+02  4.750000000E+00  0.00000E+00  9.000E+00
      -5     1     1     2     0   503  1.331396626E-01  3.410438091E+01  6.021087884E+01  6.936165334E+01  4.750000000E+00  0.00000E+00  9.000E+00
      -2     1     1     2     0   502 -3.539136838E+01 -1.686697180E+01 -1.379780012E+02  1.434397871E+02  3.303624740E-06  0.00000E+00  9.000E+00
#rwgt            1           9   6.8647141056414271E-004          10     1484757           0
</event>
<event>
      6   9999  3.45752E-01  1.44650E+01 -1.00000E+00  1.71750E-01
      21    -1     0     0   511   502  0.000000000E+00  0.000000000E+00  6.369830055E+01  6.369830055E+01  0.000000000E+00  0.00000E+00  9.000E+00
      21    -1     0     0   502   503  0.000000000E+00  0.000000000E+00 -1.259220912E+03  1.259220912E+03  0.000000000E+00  0.00000E+00  9.000E+00
      25     1     1     2     0     0 -1.319752508E+00 -9.733374282E+00 -1.025263258E+03  1.032856269E+03  1.246228074E+02  0.00000E+00  9.000E+00
       5     1     1     2   501     0 -1.136587469E+00 -1.614582512E+01  4.058711542E+01  4.395288316E+01  4.750000000E+00  0.00000E+00  9.000E+00
      -5     1     1     2     0   503 -6.776571175E+00  1.474411579E+01 -2.251402048E+02  2.257741907E+02  4.750000000E+00  0.00000E+00  9.000E+00
      21     1     1     2   511   501  9.232911153E+00  1.113508360E+01  1.429373549E+01  2.033587002E+01  8.920806376E-07  0.00000E+00  9.000E+00
#rwgt            1           9   1.0762380046201588E-003          10     1485945           0
</event>
<event>
      6   9999  3.45752E-01  4.67001E+00 -1.00000E+00  2.34705E-01
      21    -1     0     0   501   502  0.000000000E+00  0.000000000E+00  1.431159078E+02  1.431159078E+02  0.000000000E+00  0.00000E+00  9.000E+00
      21    -1     0     0   502   512  0.000000000E+00  0.000000000E+00 -5.193407391E+01  5.193407391E+01  0.000000000E+00  0.00000E+00  9.000E+00
      25     1     1     2     0     0 -7.713755491E+00 -4.129240896E+00  7.541532525E+01  1.462277478E+02  1.249741185E+02  0.00000E+00  9.000E+00
       5     1     1     2   501     0  5.640430461E-01  1.061336192E+00  2.706032079E+01  2.750032801E+01  4.750000000E+00  0.00000E+00  9.000E+00
      -5     1     1     2     0   503  1.077254475E+01  6.014782529E+00 -6.914299581E+00  1.491963029E+01  4.750000000E+00  0.00000E+00  9.000E+00
      21     1     1     2   503   512 -3.622832306E+00 -2.946877826E+00 -4.379512577E+00  6.402275631E+00  1.032382731E-07  0.00000E+00  9.000E+00
#rwgt            1           9   14.092443575456407               10     1488737           0
</event>
<event>
      6   9999 -3.45752E-01  4.42040E+00 -1.00000E+00  2.39196E-01
      21    -1     0     0   501   511  0.000000000E+00  0.000000000E+00  5.329370012E+01  5.329370012E+01  0.000000000E+00  0.00000E+00  9.000E+00
      21    -1     0     0   502   503  0.000000000E+00  0.000000000E+00 -1.349867561E+03  1.349867561E+03  0.000000000E+00  0.00000E+00  9.000E+00
      25     1     1     2     0     0 -6.967828973E+01 -7.245051981E+01 -3.164384930E+02  3.547716213E+02  1.250017662E+02  0.00000E+00  9.000E+00
       5     1     1     2   501     0  3.583977554E+00 -2.863810082E+00  1.129237844E+01  1.308153715E+01  4.750000000E+00  0.00000E+00  9.000E+00
      -5     1     1     2     0   503  6.787187184E+01  7.126708153E+01 -1.010722371E+03  1.015513595E+03  4.750000000E+00  0.00000E+00  9.000E+00
      21     1     1     2   502   511 -1.777559663E+00  4.047248365E+00  1.929462537E+01  1.979450696E+01  8.596304120E-07  0.00000E+00  9.000E+00
#rwgt            1           9  -4.4485533247134420E-003          10     1492763           0
</event>
<event>
      6   9999  3.45752E-01  9.99338E+00 -1.00000E+00  1.87224E-01
      21    -1     0     0   501   502  0.000000000E+00  0.000000000E+00  8.907178701E+01  8.907178701E+01  0.000000000E+00  0.00000E+00  9.000E+00
      21    -1     0     0   512   503  0.000000000E+00  0.000000000E+00 -1.705193887E+03  1.705193887E+03  0.000000000E+00  0.00000E+00  9.000E+00
      25     1     1     2     0     0  8.617683834E+01  3.222049760E+01 -5.482823305E+02  5.698290537E+02  1.250081139E+02  0.00000E+00  9.000E+00
       5     1     1     2   501     0 -6.968887547E+00  1.436075006E+01  7.543817605E+01  7.725462731E+01  4.750000000E+00  0.00000E+00  9.000E+00
      -5     1     1     2     0   503 -6.927815714E+01 -4.770677027E+01 -1.048185291E+03  1.051565674E+03  4.750000000E+00  0.00000E+00  9.000E+00
      21     1     1     2   512   502 -9.929793651E+00  1.125522609E+00 -9.509265405E+01  9.561631899E+01  1.348699152E-06  0.00000E+00  9.000E+00
#rwgt            1           9   4.2752275841220376E-003          10     1499257           0
</event>
<event>
      6   9999  3.45752E-01  2.67337E+02 -1.00000E+00  1.04705E-01
      21    -1     0     0   511   502  0.000000000E+00  0.000000000E+00  2.293741707E+02  2.293741707E+02  0.000000000E+00  0.00000E+00  9.000E+00
       4    -1     0     0   501     0  0.000000000E+00  0.000000000E+00 -1.722820429E+03  1.722820429E+03  0.000000000E+00  0.00000E+00  9.000E+00
      25     1     1     2     0     0 -1.032019175E+02 -2.165484156E+02 -4.643424611E+02  5.373930510E+02  1.250340673E+02  0.00000E+00  9.000E+00
       5     1     1     2   501     0 -3.393522826E+01 -1.000139633E+02  1.511199938E+02  1.844294108E+02  4.750000000E+00  0.00000E+00  9.000E+00
      -5     1     1     2     0   502  1.490162200E+01  7.880682393E+01 -2.761523420E+02  2.876025945E+02  4.750000000E+00  0.00000E+00  9.000E+00
       4     1     1     2   511     0  1.222355238E+02  2.377555549E+02 -9.040714488E+02  9.427695433E+02  1.525878906E-05  0.00000E+00  9.000E+00
#rwgt            1           5   6.7349484820282679E-008          10     1504201           0
</event>
<event>
      6   9999  3.45752E-01  4.61082E+01 -1.00000E+00  1.36698E-01
      21    -1     0     0   512   502  0.000000000E+00  0.000000000E+00  8.302685456E+01  8.302685456E+01  0.000000000E+00  0.00000E+00  9.000E+00
      21    -1     0     0   502   503  0.000000000E+00  0.000000000E+00 -1.062480471E+03  1.062480471E+03  0.000000000E+00  0.00000E+00  9.000E+00
      25     1     1     2     0     0 -2.938037455E+01 -9.157849103E+01 -8.699321171E+02  8.841135628E+02  1.250003085E+02  0.00000E+00  9.000E+00
       5     1     1     2   501     0  7.751142327E+00  1.983994326E+01  2.842794663E+00  2.200789716E+01  4.750000000E+00  0.00000E+00  9.000E+00
      -5     1     1     2     0   503  4.437572816E+01  3.163164457E+01 -1.623879893E+02  1.713539838E+02  4.750000000E+00  0.00000E+00  9.000E+00
      21     1     1     2   512   501 -2.274649594E+01  4.010690320E+01  5.002369568E+01  6.803188143E+01  9.536743164E-07  0.00000E+00  9.000E+00
#rwgt            1           9   1.7950642063866405E-002          10     1505104           0
</event>
<event>
      6   9999  3.45752E-01  1.23425E+01 -1.00000E+00  1.78053E-01
      21    -1     0     0   501   502  0.000000000E+00  0.000000000E+00  4.219677742E+01  4.219677742E+01  0.000000000E+00  0.00000E+00  9.000E+00
      21    -1     0     0   511   503  0.000000000E+00  0.000000000E+00 -1.463931594E+03  1.463931594E+03  0.000000000E+00  0.00000E+00  9.000E+00
      25     1     1     2     0     0 -2.264105665E+01 -9.301600394E+01 -8.124453061E+02  8.275637092E+02  1.250188908E+02  0.00000E+00  9.000E+00
       5     1     1     2   501     0 -1.072689050E+00 -9.427773708E+00  2.791851338E+01  2.986702979E+01  4.750000000E+00  0.00000E+00  9.000E+00
      -5     1     1     2     0   503  3.369743247E+01  9.518676531E+01 -4.560222473E+02  4.670919500E+02  4.750000000E+00  0.00000E+00  9.000E+00
      21     1     1     2   511   502 -9.983686769E+00  7.257012337E+00 -1.811857764E+02  1.816056822E+02  0.000000000E+00  0.00000E+00  9.000E+00
#rwgt            1           9   1.9244665557297359E-005          10     1506111           0
</event>
<event>
      6   9999  3.45752E-01  5.18629E+00 -1.00000E+00  2.23272E-01
      21    -1     0     0   501   502  0.000000000E+00  0.000000000E+00  2.085100183E+01  2.085100183E+01  0.000000000E+00  0.00000E+00  9.000E+00
       2    -1     0     0   502     0  0.000000000E+00  0.000000000E+00 -1.754853417E+03  1.754853417E+03  0.000000000E+00  0.00000E+00  9.000E+00
      25     1     1     2     0     0  7.921030456E+00 -5.727883131E+00 -1.544889508E+03  1.549969762E+03  1.250084758E+02  0.00000E+00  9.000E+00
       5     1     1     2   501     0 -9.756440473E+00  2.670832204E+00  1.628095103E+01  1.974723631E+01  4.750000000E+00  0.00000E+00  9.000E+00
      -5     1     1     2     0   503 -1.967441072E+00  6.583506631E+00 -7.037771314E+01  7.087170374E+01  4.750000000E+00  0.00000E+00  9.000E+00
       2     1     1     2   503     0  3.802851090E+00 -3.526455704E+00 -1.350161449E+02  1.351157169E+02  2.697398305E-06  0.00000E+00  9.000E+00
#rwgt            1           9   2.6146546866206047E-003          10     1509579           0
</event>
<event>
      6   9999  3.45752E-01  6.45023E+00 -1.00000E+00  2.09772E-01
      21    -1     0     0   501   511  0.000000000E+00  0.000000000E+00  2.214500999E+02  2.214500999E+02  0.000000000E+00  0.00000E+00  9.000E+00
      21    -1     0     0   502   503  0.000000000E+00  0.000000000E+00 -7.046647154E+02  7.046647154E+02  0.000000000E+00  0.00000E+00  9.000E+00
      25     1     1     2     0     0 -6.047549990E+00  2.633998255E+00 -5.822364505E+02  5.955401864E+02  1.250012742E+02  0.00000E+00  9.000E+00
       5     1     1     2   501     0  3.488058309E+00 -5.488735373E+00 -6.146149884E+01  6.198686237E+01  4.750000000E+00  0.00000E+00  9.000E+00
      -5     1     1     2     0   503  3.825679708E+00 -3.469991264E+00 -5.377573811E+01  5.423162522E+01  4.750000000E+00  0.00000E+00  9.000E+00
      21     1     1     2   502   511 -1.266188027E+00  6.324728382E+00  2.142590719E+02  2.143561413E+02  5.394796609E-06  0.00000E+00  9.000E+00
#rwgt            1           9   5.5346043086761935E-006          10     1515300           0
</event>
<event>
      6   9999  3.45752E-01  1.63114E+01 -1.00000E+00  1.67276E-01
      21    -1     0     0   501   502  0.000000000E+00  0.000000000E+00  1.283778330E+01  1.283778330E+01  0.000000000E+00  0.00000E+00  9.000E+00
      21    -1     0     0   512   503  0.000000000E+00  0.000000000E+00 -1.055494540E+03  1.055494540E+03  0.000000000E+00  0.00000E+00  9.000E+00
      25     1     1     2     0     0 -1.290868152E+01 -1.834391621E+01 -5.209828864E+02  5.362366522E+02  1.249937834E+02  0.00000E+00  9.000E+00
       5     1     1     2   501     0 -3.006756968E-01 -4.958840970E+00  2.128613624E+00  7.195415596E+00  4.750000000E+00  0.00000E+00  9.000E+00
      -5     1     1     2     0   503  1.466069797E+01  7.056005934E+00 -3.185768512E+02  3.190274219E+02  4.750000000E+00  0.00000E+00  9.000E+00
      21     1     1     2   512   502 -1.451340753E+00  1.624675124E+01 -2.052256329E+02  2.058728339E+02  2.697398305E-06  0.00000E+00  9.000E+00
#rwgt            1           9   1.4881099082600944E-004          10     1518140           0
</event>
<event>
      6   9999  3.45752E-01  5.67110E+00 -1.00000E+00  2.17526E-01
      21    -1     0     0   511   503  0.000000000E+00  0.000000000E+00  1.968615449E+01  1.968615449E+01  0.000000000E+00  0.00000E+00  9.000E+00
      21    -1     0     0   501   502  0.000000000E+00  0.000000000E+00 -2.964576691E+03  2.964576691E+03  0.000000000E+00  0.00000E+00  9.000E+00
      25     1     1     2     0     0  5.268590099E+00 -9.698986393E+00 -2.593774482E+03  2.596808309E+03  1.250020067E+02  0.00000E+00  9.000E+00
       5     1     1     2   501     0 -2.972998685E+00  3.956887728E-01 -2.681753027E+02  2.682341343E+02  4.750000000E+00  0.00000E+00  9.000E+00
      -5     1     1     2     0   503 -6.329436856E-02  4.090028408E+00 -1.005373196E+02  1.007325542E+02  4.750000000E+00  0.00000E+00  9.000E+00
      21     1     1     2   511   502 -2.232297046E+00  5.213269211E+00  1.759656784E+01  1.848784806E+01  2.172096629E-06  0.00000E+00  9.000E+00
#rwgt            1           9   128.81239241048192               10     1520056           0
</event>
<event>
      6   9999 -3.45752E-01  1.26946E+01 -1.00000E+00  1.76901E-01
      21    -1     0     0   501   512  0.000000000E+00  0.000000000E+00  1.748968676E+02  1.748968676E+02  0.000000000E+00  0.00000E+00  9.000E+00
      21    -1     0     0   502   503  0.000000000E+00  0.000000000E+00 -1.464531850E+02  1.464531850E+02  0.000000000E+00  0.00000E+00  9.000E+00
      25     1     1     2     0     0 -1.141747573E+01 -5.650560004E+00 -1.128047414E+02  1.688543454E+02  1.249983709E+02  0.00000E+00  9.000E+00
       5     1     1     2   501     0  3.306702706E-02  3.092045823E+00  7.701559649E+01  7.722387224E+01  4.750000000E+00  0.00000E+00  9.000E+00
      -5     1     1     2     0   503 -9.316932067E-01  5.635448946E+00  6.192512911E+01  6.236914663E+01  4.750000000E+00  0.00000E+00  9.000E+00
      21     1     1     2   502   512  1.231610191E+01 -3.076934765E+00  2.307698288E+00  1.290268829E+01  1.074538015E-07  0.00000E+00  9.000E+00
#rwgt            1           9  -1.4521009342060003               10     1522840           0
</event>
<event>
      6   9999  3.45752E-01  7.31061E+00 -1.00000E+00  2.02765E-01
      21    -1     0     0   501   502  0.000000000E+00  0.000000000E+00  3.161873609E+01  3.161873609E+01  0.000000000E+00  0.00000E+00  9.000E+00
       2    -1     0     0   502     0  0.000000000E+00  0.000000000E+00 -1.741072087E+03  1.741072087E+03  0.000000000E+00  0.00000E+00  9.000E+00
      25     1     1     2     0     0 -1.351467708E+01 -2.275226683E+00 -1.024528933E+03  1.032217644E+03  1.250036249E+02  0.00000E+00  9.000E+00
       5     1     1     2   501     0  4.444835582E+00  7.466846760E+00  2.614339154E+01  2.795621192E+01  4.750000000E+00  0.00000E+00  9.000E+00
      -5     1     1     2     0   503  5.238004862E+00  1.034293231E+00 -1.739607848E+01  1.880671433E+01  4.750000000E+00  0.00000E+00  9.000E+00
       2     1     1     2   503     0  3.831836633E+00 -6.225913309E+00 -6.936717309E+02  6.937102531E+02  0.000000000E+00  0.00000E+00  9.000E+00
#rwgt            1           9   9.6781426267503255E-004          10     1525779           0
</event>
<event>
      6   9999  3.45752E-01  2.84087E+01 -1.00000E+00  1.49386E-01
      21    -1     0     0   511   502  0.000000000E+00  0.000000000E+00  4.465644822E+01  4.465644822E+01  0.000000000E+00  0.00000E+00  9.000E+00
      21    -1     0     0   502   503  0.000000000E+00  0.000000000E+00 -9.721466596E+02  9.721466596E+02  0.000000000E+00  0.00000E+00  9.000E+00
      25     1     1     2     0     0  2.416396022E+01 -3.695794258E+01 -3.929963323E+02  4.147536434E+02  1.249987238E+02  0.00000E+00  9.000E+00
       5     1     1     2   501     0  3.339841055E+00 -9.412799879E-01  2.446022365E+01  2.515761490E+01  4.750000000E+00  0.00000E+00  9.000E+00
      -5     1     1     2     0   503 -3.241312449E+00  2.312136288E+01 -5.444935284E+02  5.450145581E+02  4.750000000E+00  0.00000E+00  9.000E+00
      21     1     1     2   511   501 -2.426248882E+01  1.477785968E+01 -1.446057420E+01  3.187729140E+01  6.307962682E-07  0.00000E+00  9.000E+00
#rwgt            1           9  0.21514046126267938               10     1530283           0
</event>
<event>
      6   9999  3.45752E-01  8.87537E+00 -1.00000E+00  1.92822E-01
      21    -1     0     0   501   502  0.000000000E+00  0.000000000E+00  9.480301426E+00  9.480301426E+00  0.000000000E+00  0.00000E+00  9.000E+00
       2    -1     0     0   502     0  0.000000000E+00  0.000000000E+00 -3.139340174E+03  3.139340174E+03  0.000000000E+00  0.00000E+00  9.000E+00
      25     1     1     2     0     0  1.522935813E+01 -2.127201550E+01 -7.123980192E+02  7.237518092E+02  1.249852453E+02  0.00000E+00  9.000E+00
       5     1     1     2   501     0  1.818994336E+00 -2.691816112E+00 -3.622567886E+00  6.800008270E+00  4.750000000E+00  0.00000E+00  9.000E+00
      -5     1     1     2     0   503 -8.204388164E+00  2.321783105E+01 -6.906073210E+01  7.347330728E+01  4.750000000E+00  0.00000E+00  9.000E+00
       2     1     1     2   503     0 -8.843964299E+00  7.460005673E-01 -2.344778554E+03  2.344795351E+03  4.315837288E-05  0.00000E+00  9.000E+00
#rwgt            1           9   1.0675931836458323               10     1531984           0
</event>
<event>
      6   9999 -3.45752E-01  5.50567E+00 -1.00000E+00  2.19395E-01
      21    -1     0     0   501   502  0.000000000E+00  0.000000000E+00  3.800231636E+01  3.800231636E+01  0.000000000E+00  0.00000E+00  9.000E+00
      21    -1     0     0   502   511  0.000000000E+00  0.000000000E+00 -7.066023246E+02  7.066023246E+02  0.000000000E+00  0.00000E+00  9.000E+00
      25     1     1     2     0     0 -2.514681762E+01 -1.180363230E+01 -7.245722702E+01  1.471272646E+02  1.249987763E+02  0.00000E+00  9.000E+00
       5     1     1     2   501     0  2.488859952E+00  1.478735889E+00 -1.506720371E+02  1.507746873E+02  4.750000000E+00  0.00000E+00  9.000E+00
      -5     1     1     2     0   503  1.735024098E+01  8.861845093E+00 -4.259118685E+02  4.263836833E+02  4.750000000E+00  0.00000E+00  9.000E+00
      21     1     1     2   503   511  5.307716688E+00  1.463051320E+00 -1.955887567E+01  2.031900571E+01  3.371747881E-07  0.00000E+00  9.000E+00
#rwgt            1           9  -600.49393494789160               10     1534702           0
</event>
<event>
      6   9999  3.45752E-01  2.08398E+02 -1.00000E+00  1.08279E-01
      21    -1     0     0   512   502  0.000000000E+00  0.000000000E+00  2.904020333E+01  2.904020333E+01  0.000000000E+00  0.00000E+00  9.000E+00
       2    -1     0     0   501     0  0.000000000E+00  0.000000000E+00 -3.702461408E+03  3.702461408E+03  0.000000000E+00  0.00000E+00  9.000E+00
      25     1     1     2     0     0 -1.282951872E+02 -1.390041830E+00 -5.787056752E+02  6.057945529E+02  1.250007780E+02  0.00000E+00  9.000E+00
       5     1     1     2   501     0  2.576307176E+01 -4.880440501E+00 -2.879926318E+01  3.923664901E+01  4.750000000E+00  0.00000E+00  9.000E+00
      -5     1     1     2     0   502 -9.567810974E+01  7.063334094E+01 -5.953704888E+02  6.071506823E+02  4.750000000E+00  0.00000E+00  9.000E+00
       2     1     1     2   512     0  1.982102252E+02 -6.436285861E+01 -2.470545778E+03  2.479319728E+03  0.000000000E+00  0.00000E+00  9.000E+00
#rwgt            1           3   2.3539945215970254E-003          10     1539559           0
</event>
<event>
      6   9999  3.45752E-01  6.24656E+00 -1.00000E+00  2.11650E-01
      21    -1     0     0   501   502  0.000000000E+00  0.000000000E+00  5.742466332E+03  5.742466332E+03  0.000000000E+00  0.00000E+00  9.000E+00
      21    -1     0     0   511   503  0.000000000E+00  0.000000000E+00 -7.364680950E+00  7.364680950E+00  0.000000000E+00  0.00000E+00  9.000E+00
      25     1     1     2     0     0 -4.846100927E+00 -6.271969555E+00  1.326577588E+03  1.332477447E+03  1.250009086E+02  0.00000E+00  9.000E+00
       5     1     1     2   501     0 -2.822903458E+00  4.517616230E+00  4.384012862E+03  4.384018672E+03  4.750000000E+00  0.00000E+00  9.000E+00
      -5     1     1     2     0   503  1.593928247E+00  3.007400203E-01  2.634961529E+01  2.682341846E+01  4.750000000E+00  0.00000E+00  9.000E+00
      21     1     1     2   511   502  6.075076139E+00  1.453613305E+00 -1.838414794E+00  6.511475308E+00  8.063166892E-07  0.00000E+00  9.000E+00
#rwgt            1           9   3.1948353466882899E-002          10     1539976           0
</event>
<event>
      6   9999 -3.45752E-01  9.29534E+00 -1.00000E+00  1.90600E-01
      21    -1     0     0   501   502  0.000000000E+00  0.000000000E+00  4.543829432E+00  4.543829432E+00  0.000000000E+00  0.00000E+00  9.000E+00
       2    -1     0     0   502     0  0.000000000E+00  0.000000000E+00 -4.997605935E+03  4.997605935E+03  0.000000000E+00  0.00000E+00  9.000E+00
      25     1     1     2     0     0  9.997366091E+00  2.446507635E+01 -3.600219427E+03  3.602485533E+03  1.249944075E+02  0.00000E+00  9.000E+00
       5     1     1     2   501     0  1.827010274E+00  3.741548862E+00 -3.266719674E+00  7.111336854E+00  4.750000000E+00  0.00000E+00  9.000E+00
      -5     1     1     2     0   503 -3.554020404E+00 -2.396344625E+01 -1.020555131E+02  1.049988956E+02  4.750000000E+00  0.00000E+00  9.000E+00
       2     1     1     2   503     0 -8.270355962E+00 -4.243178964E+00 -1.287520445E+03  1.287553999E+03  1.525878906E-05  0.00000E+00  9.000E+00
#rwgt            1           9  -3.5477077646156753E-004          10     1543346           0
</event>
<event>
      6   9999  3.45752E-01  2.15837E+01 -1.00000E+00  1.57725E-01
       1    -1     0     0   501     0  0.000000000E+00  0.000000000E+00  4.292192026E+02  4.292192026E+02  0.000000000E+00  0.00000E+00  9.000E+00
      21    -1     0     0   502   503  0.000000000E+00  0.000000000E+00 -7.423364786E+02  7.423364786E+02  0.000000000E+00  0.00000E+00  9.000E+00
      25     1     1     2     0     0  5.529163015E+00 -1.414480972E+00 -5.391664209E+02  5.534947736E+02  1.249938504E+02  0.00000E+00  9.000E+00
       5     1     1     2   501     0 -7.622693736E+00  1.773602214E+01 -1.225831798E+02  1.241848236E+02  4.750000000E+00  0.00000E+00  9.000E+00
      -5     1     1     2     0   503 -6.362563063E+00  3.536694511E+00 -7.208415455E+01  7.260632379E+01  4.750000000E+00  0.00000E+00  9.000E+00
       1     1     1     2   502     0  8.456093784E+00 -1.985823568E+01  4.207164792E+02  4.212697603E+02  0.000000000E+00  0.00000E+00  9.000E+00
#rwgt            1           9   7.9901573410284338E-002          10     1546177           0
</event>
<event>
      6   9999  3.45752E-01  5.48317E+00 -1.00000E+00  2.19656E-01
      21    -1     0     0   502   503  0.000000000E+00  0.000000000E+00  4.074486837E+03  4.074486837E+03  0.000000000E+00  0.00000E+00  9.000E+00
      21    -1     0     0   511   502  0.000000000E+00  0.000000000E+00 -5.731741738E+00  5.731741738E+00  0.000000000E+00  0.00000E+00  9.000E+00
      25     1     1     2     0     0  6.455604616E+01  8.075976075E+01  2.681492007E+03  2.686393148E+03  1.249765750E+02  0.00000E+00  9.000E+00
       5     1     1     2   501     0 -1.021040207E+01  1.060449998E+01  1.388756614E+02  1.397344608E+02  4.750000000E+00  0.00000E+00  9.000E+00
      -5     1     1     2     0   503 -5.018659779E+01 -8.779110070E+01  1.239641867E+03  1.243768665E+03  4.750000000E+00  0.00000E+00  9.000E+00
      21     1     1     2   511   501 -4.159046295E+00 -3.573160037E+00  8.745560589E+00  1.032230443E+01  9.610960183E-07  0.00000E+00  9.000E+00
#rwgt            1           9   2.6332030312028266E-004          10     1547212           0
</event>
<event>
      6   9999  3.45752E-01  4.31510E+00 -1.00000E+00  2.41226E-01
      21    -1     0     0   501   512  0.000000000E+00  0.000000000E+00  7.051109985E+00  7.051109985E+00  0.000000000E+00  0.00000E+00  9.000E+00
      21    -1     0     0   502   503  0.000000000E+00  0.000000000E+00 -8.055691602E+02  8.055691602E+02  0.000000000E+00  0.00000E+00  9.000E+00
      25     1     1     2     0     0 -5.160459031E+00 -1.969073934E+00 -7.558437514E+02  7.661300093E+02  1.249996283E+02  0.00000E+00  9.000E+00
       5     1     1     2   501     0 -6.437720980E-01  2.124703483E-01 -6.974859486E+00  8.465857961E+00  4.750000000E+00  0.00000E+00  9.000E+00
      -5     1     1     2     0   503  1.500080830E+00  2.063755392E+00 -3.165270285E+01  3.210865034E+01  4.750000000E+00  0.00000E+00  9.000E+00
      21     1     1     2   502   512  4.304150299E+00 -3.071518069E-01 -4.046736424E+00  5.915752507E+00  1.788139343E-07  0.00000E+00  9.000E+00
#rwgt            1           9   4.0685772518264462E-004          10     1551368           0
</event>
<event>
      6   9999  3.45752E-01  2.54532E+01 -1.00000E+00  1.52608E-01
      21    -1     0     0   501   502  0.000000000E+00  0.000000000E+00  6.634026823E+00  6.634026823E+00  0.000000000E+00  0.00000E+00  9.000E+00
      21    -1     0     0   502   511  0.000000000E+00  0.000000000E+00 -2.726976612E+03  2.726976612E+03  0.000000000E+00  0.00000E+00  9.000E+00
      25     1     1     2     0     0 -6.091982745E+01 -5.232605008E+01 -1.257565466E+03  1.266311557E+03  1.249992675E+02  0.00000E+00  9.000E+00
       5     1     1     2   501     0 -1.213259909E+00 -1.862696009E-01 -6.269888869E+00  7.961199809E+00  4.750000000E+00  0.00000E+00  9.000E+00
      -5     1     1     2     0   503  3.670830019E+01  5.371441116E+01 -1.007118583E+03  1.009228983E+03  4.750000000E+00  0.00000E+00  9.000E+00
      21     1     1     2   503   511  2.542478717E+01 -1.202091486E+00 -4.493886470E+02  4.501088990E+02  7.629394531E-06  0.00000E+00  9.000E+00
#rwgt            1           9   3.8242413015193847E-005          10     1555507           0
</event>
<event>
      6   9999 -3.45752E-01  4.54673E+00 -1.00000E+00  2.36870E-01
      21    -1     0     0   501   502  0.000000000E+00  0.000000000E+00  1.859594759E+01  1.859594759E+01  0.000000000E+00  0.00000E+00  9.000E+00
      21    -1     0     0   512   503  0.000000000E+00  0.000000000E+00 -1.023198972E+03  1.023198972E+03  0.000000000E+00  0.00000E+00  9.000E+00
      25     1     1     2     0     0  1.887908718E+01  3.556196461E+01 -8.766213810E+02  8.864032792E+02  1.249986181E+02  0.00000E+00  9.000E+00
       5     1     1     2   501     0 -1.718923848E+00 -7.173109198E-01  8.738828566E+00  1.011923213E+01  4.750000000E+00  0.00000E+00  9.000E+00
      -5     1     1     2     0   503 -1.269777195E+01 -3.397300211E+01 -7.561025816E+01  8.399328499E+01  4.750000000E+00  0.00000E+00  9.000E+00
      21     1     1     2   512   502 -4.462391378E+00 -8.716515754E-01 -6.111021420E+01  6.127912363E+01  0.000000000E+00  0.00000E+00  9.000E+00
#rwgt            1           9  -1.7846913634924001E-005          10     1556644           0
</event>
<event>
      6   9999  3.45752E-01  2.51484E+01 -1.00000E+00  1.52971E-01
      21    -1     0     0   501   502  0.000000000E+00  0.000000000E+00  6.888281069E+01  6.888281069E+01  0.000000000E+00  0.00000E+00  9.000E+00
      21    -1     0     0   511   503  0.000000000E+00  0.000000000E+00 -1.684312851E+03  1.684312851E+03  0.000000000E+00  0.00000E+00  9.000E+00
      25     1     1     2     0     0 -1.207819923E+01  2.185444190E+02 -6.768766248E+02  7.222799118E+02  1.249750368E+02  0.00000E+00  9.000E+00
       5     1     1     2   501     0  2.335115514E+00  1.767264065E+00  3.272289022E+01  3.319527121E+01  4.750000000E+00  0.00000E+00  9.000E+00
      -5     1     1     2     0   503  1.878277872E+00 -1.964247403E+02 -7.614946147E+02  7.864367853E+02  4.750000000E+00  0.00000E+00  9.000E+00
      21     1     1     2   511   502  7.864805844E+00 -2.388694282E+01 -2.097816909E+02  2.112836933E+02  0.000000000E+00  0.00000E+00  9.000E+00
#rwgt            1           9   5.7142959288207317E-005          10     1561432           0
</event>
<event>
      6   9999 -3.45752E-01  2.01498E+01 -1.00000E+00  1.59963E-01
      21    -1     0     0   501   502  0.000000000E+00  0.000000000E+00  1.325252353E+01  1.325252353E+01  0.000000000E+00  0.00000E+00  9.000E+00
      21    -1     0     0   502   512  0.000000000E+00  0.000000000E+00 -1.045782115E+03  1.045782115E+03  0.000000000E+00  0.00000E+00  9.000E+00
      25     1     1     2     0     0  1.132239176E+01  1.527017014E+01 -6.913462897E+02  7.028125354E+02  1.249975717E+02  0.00000E+00  9.000E+00
       5     1     1     2   501     0  1.075178949E+00  2.380288837E+00  5.823690248E+00  7.956107894E+00  4.750000000E+00  0.00000E+00  9.000E+00
      -5     1     1     2     0   503 -6.180114318E+00  1.516071624E+00 -1.553225433E+02  1.555253910E+02  4.750000000E+00  0.00000E+00  9.000E+00
      21     1     1     2   503   512 -6.217456389E+00 -1.916653060E+01 -1.916844485E+02  1.927406041E+02  2.697398305E-06  0.00000E+00  9.000E+00
#rwgt            1           9  -1.3487021646387256E-004          10     1563855           0
</event>
<event>
      6   9999  3.45752E-01  4.05058E+00 -1.00000E+00  2.46726E-01
      21    -1     0     0   501   511  0.000000000E+00  0.000000000E+00  1.200202447E+01  1.200202447E+01  0.000000000E+00  0.00000E+00  9.000E+00
      21    -1     0     0   502   503  0.000000000E+00  0.000000000E+00 -8.444074522E+02  8.444074522E+02  0.000000000E+00  0.00000E+00  9.000E+00
      25     1     1     2     0     0  9.239590677E-01  1.239845773E+00 -6.158481386E+02  6.284079934E+02  1.250011421E+02  0.00000E+00  9.000E+00
       5     1     1     2   501     0 -3.453087378E+00  5.676148004E-01  3.828157148E+00  7.033014016E+00  4.750000000E+00  0.00000E+00  9.000E+00
      -5     1     1     2     0   503 -1.430795028E+00 -2.659634629E+00 -2.044107708E+02  2.044882553E+02  4.750000000E+00  0.00000E+00  9.000E+00
      21     1     1     2   502   511  3.959923337E+00  8.521740551E-01 -1.597467547E+01  1.648021389E+01  3.769728732E-07  0.00000E+00  9.000E+00
#rwgt            1           9   5.3823030602333691E-002          10     1565634           0
</event>
<event>
      6   9999 -3.45752E-01  1.03767E+01 -1.00000E+00  1.85518E-01
      21    -1     0     0   501   502  0.000000000E+00  0.000000000E+00  4.452462041E+01  4.452462041E+01  0.000000000E+00  0.00000E+00  9.000E+00
      21    -1     0     0   512   503  0.000000000E+00  0.000000000E+00 -1.031966770E+03  1.031966770E+03  0.000000000E+00  0.00000E+00  9.000E+00
      25     1     1     2     0     0 -3.595681204E+01 -2.203616916E+01 -3.554191433E+02  3.791094303E+02  1.249908302E+02  0.00000E+00  9.000E+00
       5     1     1     2   501     0 -1.066024865E+00 -8.756808103E-02  1.433953920E+01  1.514361125E+01  4.750000000E+00  0.00000E+00  9.000E+00
      -5     1     1     2     0   503  4.050658273E+01  1.234935271E+01 -7.471287451E+00  4.326282924E+01  4.750000000E+00  0.00000E+00  9.000E+00
      21     1     1     2   512   502 -3.483745831E+00  9.774384529E+00 -6.388912582E+02  6.389755198E+02  0.000000000E+00  0.00000E+00  9.000E+00
#rwgt            1           9  -8.7385520048028874E-003          10     1570631           0
</event>
<event>
      6   9999  3.45752E-01  1.33889E+01 -1.00000E+00  1.74762E-01
      21    -1     0     0   501   502  0.000000000E+00  0.000000000E+00  2.885829641E+01  2.885829641E+01  0.000000000E+00  0.00000E+00  9.000E+00
      21    -1     0     0   502   511  0.000000000E+00  0.000000000E+00 -1.765556175E+03  1.765556175E+03  0.000000000E+00  0.00000E+00  9.000E+00
      25     1     1     2     0     0 -6.621817713E+01 -7.484332352E+01 -2.531169703E+02  2.994629468E+02  1.249939429E+02  0.00000E+00  9.000E+00
       5     1     1     2   501     0  2.877093591E-01  1.397544862E-01  1.392493381E+00  4.960226387E+00  4.750000000E+00  0.00000E+00  9.000E+00
      -5     1     1     2     0   503  6.259586949E+01  6.173654248E+01 -7.903989974E+02  7.952878605E+02  4.750000000E+00  0.00000E+00  9.000E+00
      21     1     1     2   503   511  3.334598274E+00  1.296702655E+01 -6.945744040E+02  6.947034374E+02  0.000000000E+00  0.00000E+00  9.000E+00
#rwgt            1           9   5.0503224584605830E-005          10     1573933           0
</event>
<event>
      6   9999  3.45752E-01  2.24949E+01 -1.00000E+00  1.56409E-01
      21    -1     0     0   501   502  0.000000000E+00  0.000000000E+00  4.326805423E+01  4.326805423E+01  0.000000000E+00  0.00000E+00  9.000E+00
      21    -1     0     0   502   512  0.000000000E+00  0.000000000E+00 -2.032379765E+02  2.032379765E+02  0.000000000E+00  0.00000E+00  9.000E+00
      25     1     1     2     0     0  3.433967383E+01  1.949257799E+01 -1.152743623E+02  1.745646127E+02  1.250018064E+02  0.00000E+00  9.000E+00
       5     1     1     2   501     0 -3.404466330E+00 -8.298957912E-02  3.101922117E+00  6.616774069E+00  4.750000000E+00  0.00000E+00  9.000E+00
      -5     1     1     2     0   503 -1.337477091E+01 -5.350713023E+00 -3.386770546E+00  1.554179338E+01  4.750000000E+00  0.00000E+00  9.000E+00
      21     1     1     2   503   512 -1.756043659E+01 -1.405887539E+01 -4.441071154E+01  4.978285056E+01  4.768371582E-07  0.00000E+00  9.000E+00
#rwgt            1           9  0.32115214168284151               10     1576840           0
</event>
<event>
      6   9999 -3.45752E-01  1.61354E+01 -1.00000E+00  1.67670E-01
       4    -1     0     0   501     0  0.000000000E+00  0.000000000E+00  3.288467762E+02  3.288467762E+02  0.000000000E+00  0.00000E+00  9.000E+00
      21    -1     0     0   502   503  0.000000000E+00  0.000000000E+00 -1.127777905E+03  1.127777905E+03  0.000000000E+00  0.00000E+00  9.000E+00
      25     1     1     2     0     0 -2.033069061E+01  2.275458905E+01 -9.927650026E+02  1.001069411E+03  1.250060261E+02  0.00000E+00  9.000E+00
       5     1     1     2   501     0 -6.205333032E+00 -1.269852235E+01  2.893384401E+01  3.254978428E+01  4.750000000E+00  0.00000E+00  9.000E+00
      -5     1     1     2     0   503  2.177483931E+01 -2.547298695E+01 -1.266065684E+02  1.310526701E+02  4.750000000E+00  0.00000E+00  9.000E+00
       4     1     1     2   502     0  4.761184331E+00  1.541692024E+01  2.915065979E+02  2.919528163E+02  5.394796609E-06  0.00000E+00  9.000E+00
#rwgt            1           9  -2.0413776981108743E-003          10     1578461           0
</event>
<event>
      6   9999  3.45752E-01  1.19331E+01 -1.00000E+00  1.79456E-01
      21    -1     0     0   501   502  0.000000000E+00  0.000000000E+00  2.428953584E+01  2.428953584E+01  0.000000000E+00  0.00000E+00  9.000E+00
      21    -1     0     0   511   503  0.000000000E+00  0.000000000E+00 -1.279746244E+03  1.279746244E+03  0.000000000E+00  0.00000E+00  9.000E+00
      25     1     1     2     0     0 -7.905025236E+01  6.611255409E+00 -4.567079793E+02  4.801022563E+02  1.249933883E+02  0.00000E+00  9.000E+00
       5     1     1     2   501     0 -1.721794953E+00  5.319282049E+00  9.086811422E+00  1.167869775E+01  4.750000000E+00  0.00000E+00  9.000E+00
      -5     1     1     2     0   503  7.172245661E+01 -4.152180157E+00 -6.520897388E+02  6.560525446E+02  4.750000000E+00  0.00000E+00  9.000E+00
      21     1     1     2   511   502  9.049590705E+00 -7.778357301E+00 -1.557458020E+02  1.562022816E+02  1.907348633E-06  0.00000E+00  9.000E+00
#rwgt            1           9   3.1924577816170286E-003          10     1581270           0
</event>
<event>
      6   9999  3.45752E-01  7.70210E+00 -1.00000E+00  1.99987E-01
      21    -1     0     0   501   512  0.000000000E+00  0.000000000E+00  3.773006668E+01  3.773006668E+01  0.000000000E+00  0.00000E+00  9.000E+00
      21    -1     0     0   502   503  0.000000000E+00  0.000000000E+00 -2.596383592E+02  2.596383592E+02  0.000000000E+00  0.00000E+00  9.000E+00
      25     1     1     2     0     0  3.286389005E+00 -1.039783408E+01 -2.304629267E+02  2.624067317E+02  1.250008677E+02  0.00000E+00  9.000E+00
       5     1     1     2   501     0 -4.357796191E-01 -1.194337884E+00  7.463714914E+00  8.937890533E+00  4.750000000E+00  0.00000E+00  9.000E+00
      -5     1     1     2     0   503 -7.406857292E+00  5.382259686E+00 -8.750742355E+00  1.352657555E+01  4.750000000E+00  0.00000E+00  9.000E+00
      21     1     1     2   502   512  4.556247905E+00  6.209912277E+00  9.841661671E+00  1.249722809E+01  1.685873940E-07  0.00000E+00  9.000E+00
#rwgt            1           9   5.9928635520922144               10     1584121           0
</event>
<event>
      6   9999  3.45752E-01  5.02810E+00 -1.00000E+00  2.25338E-01
      21    -1     0     0   501   502  0.000000000E+00  0.000000000E+00  9.788749677E+00  9.788749677E+00  0.000000000E+00  0.00000E+00  9.000E+00
      21    -1     0     0   502   511  0.000000000E+00  0.000000000E+00 -1.449820587E+03  1.449820587E+03  0.000000000E+00  0.00000E+00  9.000E+00
      25     1     1     2     0     0 -1.722293939E+00 -1.706904010E+01 -7.368730268E+02  7.475965422E+02  1.249976556E+02  0.00000E+00  9.000E+00
       5     1     1     2   501     0  1.648269874E+00 -4.629986082E-01  2.604784427E+00  5.681422639E+00  4.750000000E+00  0.00000E+00  9.000E+00
      -5     1     1     2     0   503 -1.279730043E+00  1.268961171E+01 -1.699143007E+02  1.704584878E+02  4.750000000E+00  0.00000E+00  9.000E+00
      21     1     1     2   503   511  1.353754107E+00  4.842427004E+00 -5.358492945E+02  5.358728844E+02  7.629394531E-06  0.00000E+00  9.000E+00
#rwgt            1           9   5.2097551389685354E-005          10     1586979           0
</event>
<event>
      6   9999  3.45752E-01  1.93080E+01 -1.00000E+00  1.61387E-01
      21    -1     0     0   512   503  0.000000000E+00  0.000000000E+00  9.835466478E+00  9.835466478E+00  0.000000000E+00  0.00000E+00  9.000E+00
      21    -1     0     0   501   502  0.000000000E+00  0.000000000E+00 -7.117332185E+02  7.117332185E+02  0.000000000E+00  0.00000E+00  9.000E+00
      25     1     1     2     0     0  9.331113880E+00 -9.059672157E+00 -6.029411808E+02  6.158988681E+02  1.249968036E+02  0.00000E+00  9.000E+00
       5     1     1     2   501     0  3.225299190E+00 -2.250673209E+00 -2.740704436E+01  2.809228836E+01  4.750000000E+00  0.00000E+00  9.000E+00
      -5     1     1     2     0   503  4.613595922E+00  2.479192830E+00 -3.976005512E+01  4.038385999E+01  4.750000000E+00  0.00000E+00  9.000E+00
      21     1     1     2   512   502 -1.717000899E+01  8.831152536E+00 -3.178947177E+01  3.719366854E+01  0.000000000E+00  0.00000E+00  9.000E+00
#rwgt            1           9   1.3084693715474902               10     1591124           0
</event>
<event>
      6   9999  3.45752E-01  3.49374E+01 -1.00000E+00  1.43681E-01
      21    -1     0     0   501   502  0.000000000E+00  0.000000000E+00  4.682149782E+01  4.682149782E+01  0.000000000E+00  0.00000E+00  9.000E+00
      21    -1     0     0   511   503  0.000000000E+00  0.000000000E+00 -3.876079590E+03  3.876079590E+03  0.000000000E+00  0.00000E+00  9.000E+00
      25     1     1     2     0     0 -9.078370189E+00 -3.958844653E+01 -2.974362083E+03  2.977264674E+03  1.250019053E+02  0.00000E+00  9.000E+00
       5     1     1     2   501     0 -2.282339113E-01  3.085184635E+00  4.407655660E+01  4.443957467E+01  4.750000000E+00  0.00000E+00  9.000E+00
      -5     1     1     2     0   503  1.638118490E+01  2.289668498E+00 -5.907326912E+02  5.909832999E+02  4.750000000E+00  0.00000E+00  9.000E+00
      21     1     1     2   511   502 -7.074580797E+00  3.421359339E+01 -3.082398741E+02  3.102135388E+02  3.814697266E-06  0.00000E+00  9.000E+00
#rwgt            1           9   2.1024888690929257E-004          10     1592329           0
</event>
<event>
      6   9999  3.45752E-01  5.37232E+00 -1.00000E+00  2.20968E-01
      21    -1     0     0   501   512  0.000000000E+00  0.000000000E+00  2.418850719E+01  2.418850719E+01  0.000000000E+00  0.00000E+00  9.000E+00
      21    -1     0     0   502   503  0.000000000E+00  0.000000000E+00 -4.296420786E+03  4.296420786E+03  0.000000000E+00  0.00000E+00  9.000E+00
      25     1     1     2     0     0  1.893943199E+01 -1.236785441E+01 -4.012036776E+03  4.014047261E+03  1.249986244E+02  0.00000E+00  9.000E+00
       5     1     1     2   501     0  2.765537930E-01 -7.764590217E-01 -2.710800302E+01  2.753335610E+01  4.750000000E+00  0.00000E+00  9.000E+00
      -5     1     1     2     0   503 -1.991200980E+01  7.817276490E+00 -2.552680302E+02  2.562068065E+02  4.750000000E+00  0.00000E+00  9.000E+00
      21     1     1     2   502   512  6.960240173E-01  5.327036941E+00  2.218053073E+01  2.282186923E+01  4.762407388E-06  0.00000E+00  9.000E+00
#rwgt            1           9   6.8395577548470571E-006          10     1594546           0
</event>
<event>
      6   9999  3.45752E-01  3.71349E+01 -1.00000E+00  1.42084E-01
      21    -1     0     0   501   502  0.000000000E+00  0.000000000E+00  6.019997908E+01  6.019997908E+01  0.000000000E+00  0.00000E+00  9.000E+00
      21    -1     0     0   502   511  0.000000000E+00  0.000000000E+00 -1.794909064E+03  1.794909064E+03  0.000000000E+00  0.00000E+00  9.000E+00
      25     1     1     2     0     0 -1.344984605E+02  1.342883537E+02 -6.307435773E+02  6.705104833E+02  1.249945999E+02  0.00000E+00  9.000E+00
       5     1     1     2   501     0 -2.158038743E+00 -6.415575293E+00  3.035010372E+01  3.145644661E+01  4.750000000E+00  0.00000E+00  9.000E+00
      -5     1     1     2     0   503  1.007145754E+02 -1.372095968E+02 -9.161607668E+02  9.318492433E+02  4.750000000E+00  0.00000E+00  9.000E+00
      21     1     1     2   503   511  3.594192387E+01  9.336818440E+00 -2.181548444E+02  2.212928698E+02  4.672030912E-06  0.00000E+00  9.000E+00
#rwgt            1           9   2.5984699283234947E-004          10     1597971           0
</event>
<event>
      6   9999 -3.45752E-01  4.69285E+01 -1.00000E+00  1.36277E-01
      21    -1     0     0   501   512  0.000000000E+00  0.000000000E+00  6.619604107E+01  6.619604107E+01  0.000000000E+00  0.00000E+00  9.000E+00
      21    -1     0     0   502   503  0.000000000E+00  0.000000000E+00 -9.175609004E+02  9.175609004E+02  0.000000000E+00  0.00000E+00  9.000E+00
      25     1     1     2     0     0  5.099609283E+01  7.266058483E+01 -7.723595630E+02  7.874290411E+02  1.250001528E+02  0.00000E+00  9.000E+00
       5     1     1     2   501     0  5.352183214E-01  5.830704572E+00  4.015941599E+00  8.542473962E+00  4.750000000E+00  0.00000E+00  9.000E+00
      -5     1     1     2     0   503 -1.614274545E+01 -4.767028910E+01 -1.185802572E+02  1.289064955E+02  4.750000000E+00  0.00000E+00  9.000E+00
      21     1     1     2   502   512 -3.538856569E+01 -3.082100030E+01  3.555901930E+01  5.887893082E+01  1.066240300E-06  0.00000E+00  9.000E+00
#rwgt            1           9  -2.9544849651103538E-004          10     1600112           0
</event>
<event>
      6   9999  3.45752E-01  4.66272E+00 -1.00000E+00  2.34830E-01
      21    -1     0     0   501   511  0.000000000E+00  0.000000000E+00  2.595607222E+01  2.595607222E+01  0.000000000E+00  0.00000E+00  9.000E+00
      21    -1     0     0   502   503  0.000000000E+00  0.000000000E+00 -1.044419642E+03  1.044419642E+03  0.000000000E+00  0.00000E+00  9.000E+00
      25     1     1     2     0     0 -1.837216939E+01 -1.189401699E+01 -2.737379944E+02  3.017227813E+02  1.250005716E+02  0.00000E+00  9.000E+00
       5     1     1     2   501     0 -1.690337702E+00  2.780416970E+00  8.594707194E+00  1.034502063E+01  4.750000000E+00  0.00000E+00  9.000E+00
      -5     1     1     2     0   503  2.372957864E+01  1.199345217E+01 -7.531582400E+02  7.536423773E+02  4.750000000E+00  0.00000E+00  9.000E+00
      21     1     1     2   502   511 -3.667071547E+00 -2.879852147E+00 -1.620428314E-01  4.665535339E+00  1.113544045E-07  0.00000E+00  9.000E+00
#rwgt            1           9   2.1466569895553647E-004          10     1601264           0
</event>
<event>
      6   9999 -3.45752E-01  7.70802E+00 -1.00000E+00  1.99946E-01
      -3    -1     0     0     0   502  0.000000000E+00  0.000000000E+00  2.762844032E+02  2.762844032E+02  0.000000000E+00  0.00000E+00  9.000E+00
      21    -1     0     0   502   503  0.000000000E+00  0.000000000E+00 -1.858803461E+02  1.858803461E+02  0.000000000E+00  0.00000E+00  9.000E+00
      25     1     1     2     0     0  1.145531782E+01 -7.434972622E+01 -1.879909520E+01  1.471005253E+02  1.250042098E+02  0.00000E+00  9.000E+00
       5     1     1     2   501     0  3.275136085E-01  8.642810294E-01  1.604823588E+01  1.676193968E+01  4.750000000E+00  0.00000E+00  9.000E+00
      -5     1     1     2     0   503 -1.540907068E+01  8.028720590E+01 -8.613323078E+01  1.188485205E+02  4.750000000E+00  0.00000E+00  9.000E+00
      -3     1     1     2     0   501  3.626239248E+00 -6.801760708E+00  1.792881472E+02  1.794537637E+02  0.000000000E+00  0.00000E+00  9.000E+00
#rwgt            1           9  -2.3646984940072941E-004          10     1607250           0
</event>
<event>
      6   9999  3.45752E-01  1.96956E+01 -1.00000E+00  1.60720E-01
      21    -1     0     0   502   511  0.000000000E+00  0.000000000E+00  3.834010290E+01  3.834010290E+01  0.000000000E+00  0.00000E+00  9.000E+00
      21    -1     0     0   501   502  0.000000000E+00  0.000000000E+00 -8.144134753E+02  8.144134753E+02  0.000000000E+00  0.00000E+00  9.000E+00
      25     1     1     2     0     0 -1.014999460E+01 -2.648636542E+01 -3.956150937E+02  4.158640263E+02  1.250081438E+02  0.00000E+00  9.000E+00
       5     1     1     2   501     0  2.829552448E+00 -4.054970263E+00 -3.162849403E+02  3.163592500E+02  4.750000000E+00  0.00000E+00  9.000E+00
      -5     1     1     2     0   503 -1.926206046E+00  1.315122488E+01 -8.827972156E+01  8.940098839E+01  4.750000000E+00  0.00000E+00  9.000E+00
      21     1     1     2   503   511  9.246648193E+00  1.739011080E+01  2.410638309E+01  3.112931355E+01  4.768371582E-07  0.00000E+00  9.000E+00
#rwgt            1           9   3.8403110648155582E-003          10     1611088           0
</event>
<event>
      6   9999 -3.45752E-01  1.60113E+01 -1.00000E+00  1.67952E-01
      21    -1     0     0   501   502  0.000000000E+00  0.000000000E+00  5.674399283E+01  5.674399283E+01  0.000000000E+00  0.00000E+00  9.000E+00
      21    -1     0     0   502   512  0.000000000E+00  0.000000000E+00 -3.421489676E+03  3.421489676E+03  0.000000000E+00  0.00000E+00  9.000E+00
      25     1     1     2     0     0 -8.042965212E+00  2.028778690E+02 -5.606941268E+02  6.092844872E+02  1.250022536E+02  0.00000E+00  9.000E+00
       5     1     1     2   501     0  1.710342562E+00  2.827107842E+00  1.915916115E+01  2.001383937E+01  4.750000000E+00  0.00000E+00  9.000E+00
      -5     1     1     2     0   503 -9.499017410E+00 -2.033132378E+02 -7.947832888E+02  8.204447225E+02  4.750000000E+00  0.00000E+00  9.000E+00
      21     1     1     2   503   512  1.583164006E+01 -2.391739104E+00 -2.028427429E+03  2.028490620E+03  2.157918644E-05  0.00000E+00  9.000E+00
#rwgt            1           9  -3.2908020300039724E-004          10     1612963           0
</event>
<event>
      6   9999  3.45752E-01  4.86102E+01 -1.00000E+00  1.35446E-01
      21    -1     0     0   501   511  0.000000000E+00  0.000000000E+00  1.640045834E+02  1.640045834E+02  0.000000000E+00  0.00000E+00  9.000E+00
      21    -1     0     0   502   503  0.000000000E+00  0.000000000E+00 -1.874449495E+03  1.874449495E+03  0.000000000E+00  0.00000E+00  9.000E+00
      25     1     1     2     0     0  7.396603673E+01 -3.050401920E+02 -6.230196770E+02  7.087295983E+02  1.249945289E+02  0.00000E+00  9.000E+00
       5     1     1     2   501     0 -6.482963815E-01  2.745502706E+00  9.312332822E+01  9.328705608E+01  4.750000000E+00  0.00000E+00  9.000E+00
      -5     1     1     2     0   503 -1.051266196E+02  2.655367910E+02 -1.132962409E+03  1.168412503E+03  4.750000000E+00  0.00000E+00  9.000E+00
      21     1     1     2   502   511  3.180887924E+01  3.675789828E+01 -4.758615332E+01  6.802492096E+01  6.743495762E-07  0.00000E+00  9.000E+00
#rwgt            1           9   7.9230695077755619E-004          10     1615827           0
</event>
<event>
      6   9999  3.45752E-01  4.09857E+00 -1.00000E+00  2.45682E-01
      21    -1     0     0   501   502  0.000000000E+00  0.000000000E+00  8.374750847E+00  8.374750847E+00  0.000000000E+00  0.00000E+00  9.000E+00
      21    -1     0     0   502   512  0.000000000E+00  0.000000000E+00 -7.582569354E+02  7.582569354E+02  0.000000000E+00  0.00000E+00  9.000E+00
      25     1     1     2     0     0 -1.153947864E+01 -4.831643368E+00 -5.740039275E+02  5.875925526E+02  1.250119784E+02  0.00000E+00  9.000E+00
       5     1     1     2   501     0  4.313451302E+00 -3.584430531E+00 -1.042185251E+01  1.275270615E+01  4.750000000E+00  0.00000E+00  9.000E+00
      -5     1     1     2     0   503  8.973319247E+00  4.708610433E+00 -8.611080363E+01  8.683504173E+01  4.750000000E+00  0.00000E+00  9.000E+00
      21     1     1     2   503   512 -1.747291912E+00  3.707463465E+00 -7.934560089E+01  7.945138573E+01  9.536743164E-07  0.00000E+00  9.000E+00
#rwgt            1           9   1.8233330190632224               10     1617891           0
</event>
<event>
      6   9999  3.45752E-01  3.68821E+01 -1.00000E+00  1.42261E-01
      21    -1     0     0   501   511  0.000000000E+00  0.000000000E+00  3.143144799E+01  3.143144799E+01  0.000000000E+00  0.00000E+00  9.000E+00
      21    -1     0     0   502   503  0.000000000E+00  0.000000000E+00 -1.021838380E+03  1.021838380E+03  0.000000000E+00  0.00000E+00  9.000E+00
      25     1     1     2     0     0  5.818080601E+01  3.250340171E+01 -9.076343583E+02  9.186239907E+02  1.250137217E+02  0.00000E+00  9.000E+00
       5     1     1     2   501     0  5.849687851E+00  2.993209799E+00  1.190873775E+01  1.440689722E+01  4.750000000E+00  0.00000E+00  9.000E+00
      -5     1     1     2     0   503 -2.976331214E+01 -2.185658415E+01 -4.726168861E+01  6.016472995E+01  4.750000000E+00  0.00000E+00  9.000E+00
      21     1     1     2   502   511 -3.426718172E+01 -1.364002736E+01 -4.741962279E+01  6.007421007E+01  1.348699152E-06  0.00000E+00  9.000E+00
#rwgt            1           9   2.8248426928693482E-004          10     1621722           0
</event>
<event>
      6   9999 -3.45752E-01  3.66482E+01 -1.00000E+00  1.42426E-01
      21    -1     0     0   501   512  0.000000000E+00  0.000000000E+00  2.016205571E+01  2.016205571E+01  0.000000000E+00  0.00000E+00  9.000E+00
      21    -1     0     0   502   503  0.000000000E+00  0.000000000E+00 -7.964169273E+02  7.964169273E+02  0.000000000E+00  0.00000E+00  9.000E+00
      25     1     1     2     0     0 -4.813154587E+01 -4.519691071E+00 -7.152370606E+02  7.276869785E+02  1.250088493E+02  0.00000E+00  9.000E+00
       5     1     1     2   501     0  1.163290977E+01  5.987630621E+00 -2.110491648E+01  2.528154089E+01  4.750000000E+00  0.00000E+00  9.000E+00
      -5     1     1     2     0   503  2.517759994E-01  3.940617593E+00 -2.193902014E+01  2.279199339E+01  4.750000000E+00  0.00000E+00  9.000E+00
      21     1     1     2   502   512  3.624686011E+01 -5.408557143E+00 -1.797387439E+01  4.081847031E+01  1.390207266E-06  0.00000E+00  9.000E+00
#rwgt            1           9  -1.8943880299594103E-003          10     1622679           0
</event>
<event>
      6   9999  3.45752E-01  6.47019E+00 -1.00000E+00  2.09593E-01
      21    -1     0     0   501   502  0.000000000E+00  0.000000000E+00  8.473742773E+01  8.473742773E+01  0.000000000E+00  0.00000E+00  9.000E+00
      21    -1     0     0   502   511  0.000000000E+00  0.000000000E+00 -1.726044862E+03  1.726044862E+03  0.000000000E+00  0.00000E+00  9.000E+00
      25     1     1     2     0     0 -4.411466284E+01 -2.227016337E+01 -1.345106698E+03  1.351804892E+03  1.249894896E+02  0.00000E+00  9.000E+00
       5     1     1     2   501     0 -3.428585708E+00  2.059631283E+01  7.798168685E+01  8.086822174E+01  4.750000000E+00  0.00000E+00  9.000E+00
      -5     1     1     2     0   503  4.118735140E+01  2.884607074E+00 -2.262629994E+02  2.300483129E+02  4.750000000E+00  0.00000E+00  9.000E+00
      21     1     1     2   503   511  6.355897148E+00 -1.210756535E+00 -1.479194239E+02  1.480608636E+02  1.907348633E-06  0.00000E+00  9.000E+00
#rwgt            1           9   2.2119943193277354E-003          10     1623275           0
</event>
<event>
      6   9999  3.45752E-01  1.46142E+01 -1.00000E+00  1.71358E-01
      21    -1     0     0   501   502  0.000000000E+00  0.000000000E+00  8.424052065E+01  8.424052065E+01  0.000000000E+00  0.00000E+00  9.000E+00
      21    -1     0     0   502   512  0.000000000E+00  0.000000000E+00 -6.107563331E+02  6.107563331E+02  0.000000000E+00  0.00000E+00  9.000E+00
      25     1     1     2     0     0  1.649163244E+01  7.648310401E-01 -2.868731523E+01  1.293069047E+02  1.249990186E+02  0.00000E+00  9.000E+00
       5     1     1     2   501     0  3.410140881E+00 -1.837104747E-02  2.925905307E+01  2.983762868E+01  4.750000000E+00  0.00000E+00  9.000E+00
      -5     1     1     2     0   503 -6.604432042E+00  5.316100527E+00 -1.234482942E+00  9.796218431E+00  4.750000000E+00  0.00000E+00  9.000E+00
      21     1     1     2   503   512 -1.329734128E+01 -6.062560520E+00 -5.258530674E+02  5.260561019E+02  0.000000000E+00  0.00000E+00  9.000E+00
#rwgt            1           9  0.95499132225618888               10     1629024           0
</event>
<event>
      6   9999 -3.45752E-01  2.68698E+00 -1.00000E+00  2.90058E-01
      21    -1     0     0   511   502  0.000000000E+00  0.000000000E+00  1.042567571E+02  1.042567571E+02  0.000000000E+00  0.00000E+00  9.000E+00
      21    -1     0     0   502   503  0.000000000E+00  0.000000000E+00 -1.435073993E+03  1.435073993E+03  0.000000000E+00  0.00000E+00  9.000E+00
      25     1     1     2     0     0  1.834822948E+00  1.331144321E+01 -1.041958867E+03  1.049515653E+03  1.249970611E+02  0.00000E+00  9.000E+00
       5     1     1     2   501     0 -8.587028901E-01  1.148445405E-01 -5.006193622E+00  6.955216352E+00  4.750000000E+00  0.00000E+00  9.000E+00
      -5     1     1     2     0   503 -3.516394439E+00 -1.255056649E+01 -3.832123594E+02  3.834633707E+02  4.750000000E+00  0.00000E+00  9.000E+00
      21     1     1     2   511   501  2.540274381E+00 -8.757212546E-01  9.936018424E+01  9.939650946E+01  5.046370146E-06  0.00000E+00  9.000E+00
#rwgt            1           9  -2.1620912884963700E-005          10     1630834           0
</event>
<event>
      6   9999  3.45752E-01  3.61682E+00 -1.00000E+00  2.57264E-01
      21    -1     0     0   512   502  0.000000000E+00  0.000000000E+00  7.282152205E+01  7.282152205E+01  0.000000000E+00  0.00000E+00  9.000E+00
      21    -1     0     0   502   503  0.000000000E+00  0.000000000E+00 -9.148671803E+01  9.148671803E+01  0.000000000E+00  0.00000E+00  9.000E+00
      25     1     1     2     0     0  7.285891194E-01 -1.248503905E+00 -4.462865914E+01  1.327377516E+02  1.250020155E+02  0.00000E+00  9.000E+00
       5     1     1     2   501     0 -1.220412872E-01  3.078242409E-01  1.748110881E+01  1.811798320E+01  4.750000000E+00  0.00000E+00  9.000E+00
      -5     1     1     2     0   503  2.073514635E+00 -1.488038862E+00  1.512899935E+00  5.600454340E+00  4.750000000E+00  0.00000E+00  9.000E+00
      21     1     1     2   512   501 -2.680062467E+00  2.428718526E+00  6.969454409E+00  7.852050896E+00  1.192092896E-07  0.00000E+00  9.000E+00
#rwgt            1           9   9.7985326356271263E-005          10     1636369           0
</event>
<event>
      6   9999  3.45752E-01  2.97481E+01 -1.00000E+00  1.48075E-01
      21    -1     0     0   502   511  0.000000000E+00  0.000000000E+00  4.226769071E+02  4.226769071E+02  0.000000000E+00  0.00000E+00  9.000E+00
      21    -1     0     0   501   502  0.000000000E+00  0.000000000E+00 -8.202809573E+02  8.202809573E+02  0.000000000E+00  0.00000E+00  9.000E+00
      25     1     1     2     0     0  2.584788095E+01  5.486986254E+00 -3.730802342E+02  3.943484471E+02  1.249944662E+02  0.00000E+00  9.000E+00
       5     1     1     2   501     0  2.831025507E-01 -1.038032097E+00 -3.604917937E+02  3.605246919E+02  4.750000000E+00  0.00000E+00  9.000E+00
      -5     1     1     2     0   503  3.215120898E+00 -9.323050044E+00 -7.512426512E+01  7.591754721E+01  4.750000000E+00  0.00000E+00  9.000E+00
      21     1     1     2   503   511 -2.934610440E+01  4.874095887E+00  4.110922428E+02  4.121671782E+02  5.394796609E-06  0.00000E+00  9.000E+00
#rwgt            1           9   3.1767042904720317E-003          10     1641026           0
</event>
<event>
      6   9999  3.45752E-01  2.09608E+01 -1.00000E+00  1.58670E-01
      21    -1     0     0   501   512  0.000000000E+00  0.000000000E+00  2.344311746E+01  2.344311746E+01  0.000000000E+00  0.00000E+00  9.000E+00
      21    -1     0     0   502   503  0.000000000E+00  0.000000000E+00 -9.836930924E+02  9.836930924E+02  0.000000000E+00  0.00000E+00  9.000E+00
      25     1     1     2     0     0 -3.118210960E-01 -7.702134656E+00 -4.830589497E+02  4.990290352E+02  1.249984358E+02  0.00000E+00  9.000E+00
       5     1     1     2   501     0 -6.032714805E+00  1.357659984E+00  8.639850662E+00  1.163814453E+01  4.750000000E+00  0.00000E+00  9.000E+00
      -5     1     1     2     0   503 -1.044252986E+01  1.889642760E+01 -4.691773053E+02  4.696978047E+02  4.750000000E+00  0.00000E+00  9.000E+00
      21     1     1     2   502   512  1.678706576E+01 -1.255195293E+01 -1.665357056E+01  2.677122544E+01  6.743495762E-07  0.00000E+00  9.000E+00
#rwgt            1           9   2.0009220034326879E-002          10     1642069           0
</event>
<event>
      6   9999  3.45752E-01  2.54286E+01 -1.00000E+00  1.52638E-01
      21    -1     0     0   501   502  0.000000000E+00  0.000000000E+00  2.105122064E+03  2.105122064E+03  0.000000000E+00  0.00000E+00  9.000E+00
      21    -1     0     0   502   511  0.000000000E+00  0.000000000E+00 -7.505787147E+02  7.505787147E+02  0.000000000E+00  0.00000E+00  9.000E+00
      25     1     1     2     0     0  7.448137569E+01  4.872527595E+01  1.260301302E+03  1.269608232E+03  1.249962571E+02  0.00000E+00  9.000E+00
       5     1     1     2   501     0  1.308116426E+00 -2.644729251E+00  4.911161927E+02  4.911480256E+02  4.750000000E+00  0.00000E+00  9.000E+00
      -5     1     1     2     0   503 -6.597181719E+01 -6.953744046E+01  3.422154274E+02  3.554176382E+02  4.750000000E+00  0.00000E+00  9.000E+00
      21     1     1     2   503   511 -9.817674926E+00  2.345689376E+01 -7.390895730E+02  7.395268823E+02  1.868812365E-05  0.00000E+00  9.000E+00
#rwgt            1           9   17.048938236806986               10     1644149           0
</event>
<event>
      6   9999  3.45752E-01  5.90976E+00 -1.00000E+00  2.14979E-01
      21    -1     0     0   501   502  0.000000000E+00  0.000000000E+00  1.234272217E+01  1.234272217E+01  0.000000000E+00  0.00000E+00  9.000E+00
      21    -1     0     0   502   512  0.000000000E+00  0.000000000E+00 -1.387850986E+03  1.387850986E+03  0.000000000E+00  0.00000E+00  9.000E+00
      25     1     1     2     0     0  2.218790073E+01  1.749211498E+01 -5.391224862E+02  5.541469025E+02  1.250098292E+02  0.00000E+00  9.000E+00
       5     1     1     2   501     0 -1.251751483E+00 -2.119809813E-02  2.626625402E+00  5.570367325E+00  4.750000000E+00  0.00000E+00  9.000E+00
      -5     1     1     2     0   503 -1.951805504E+01 -2.320801409E+01 -3.287436348E+02  3.301734488E+02  4.750000000E+00  0.00000E+00  9.000E+00
      21     1     1     2   503   512 -1.418094206E+00  5.737097204E+00 -5.102687683E+02  5.103029896E+02  9.344061824E-06  0.00000E+00  9.000E+00
#rwgt            1           9   4.1350275263184292E-004          10     1645877           0
</event>
<event>
      6   9999  3.45752E-01  9.65926E+01 -1.00000E+00  1.21078E-01
      21    -1     0     0   511   502  0.000000000E+00  0.000000000E+00  2.050084965E+01  2.050084965E+01  0.000000000E+00  0.00000E+00  9.000E+00
      21    -1     0     0   502   503  0.000000000E+00  0.000000000E+00 -1.130538900E+03  1.130538900E+03  0.000000000E+00  0.00000E+00  9.000E+00
      25     1     1     2     0     0  5.091366635E+01 -7.345114704E+01 -6.070296136E+02  6.261774994E+02  1.250041459E+02  0.00000E+00  9.000E+00
       5     1     1     2   501     0  3.338605307E+00 -4.988929380E+00 -1.003849961E+01  1.262417031E+01  4.750000000E+00  0.00000E+00  9.000E+00
      -5     1     1     2     0   503 -1.448687123E+00 -2.441953139E+00 -2.597189035E+02  2.597778535E+02  4.750000000E+00  0.00000E+00  9.000E+00
      21     1     1     2   511   501 -5.280358453E+01  8.088202956E+01 -2.332510332E+02  2.524602261E+02  2.697398305E-06  0.00000E+00  9.000E+00
#rwgt            1           9   2.2403338251250857E-004          10     1649956           0
</event>
<event>
      6   9999  3.45752E-01  1.49071E+01 -1.00000E+00  1.70605E-01
       2    -1     0     0   501     0  0.000000000E+00  0.000000000E+00  3.149073677E+03  3.149073677E+03  0.000000000E+00  0.00000E+00  9.000E+00
      21    -1     0     0   502   503  0.000000000E+00  0.000000000E+00 -1.171777784E+03  1.171777784E+03  0.000000000E+00  0.00000E+00  9.000E+00
      25     1     1     2     0     0 -1.047059279E+01 -1.943563135E+01 -2.633272116E+02  2.923255340E+02  1.250024815E+02  0.00000E+00  9.000E+00
       5     1     1     2   501     0 -4.733623397E+00 -5.655013586E+00  2.234482757E+01  2.400500340E+01  4.750000000E+00  0.00000E+00  9.000E+00
      -5     1     1     2     0   503  2.079480973E+01  1.127152108E+01 -8.929405420E+02  8.932663910E+02  4.750000000E+00  0.00000E+00  9.000E+00
       2     1     1     2   502     0 -5.590593550E+00  1.381912386E+01  3.111218819E+03  3.111254532E+03  4.315837288E-05  0.00000E+00  9.000E+00
#rwgt            1           9   1.4235330796891080E-003          10     1650166           0
</event>
<event>
      6   9999  3.45752E-01  7.99586E+00 -1.00000E+00  1.98042E-01
      21    -1     0     0   501   502  0.000000000E+00  0.000000000E+00  1.163677469E+02  1.163677469E+02  0.000000000E+00  0.00000E+00  9.000E+00
      21    -1     0     0   511   503  0.000000000E+00  0.000000000E+00 -1.571224981E+02  1.571224981E+02  0.000000000E+00  0.00000E+00  9.000E+00
      25     1     1     2     0     0  3.904814915E+00 -4.206656255E+00  5.897655087E+01  1.383488502E+02  1.250169079E+02  0.00000E+00  9.000E+00
       5     1     1     2   501     0 -2.077358851E+00  5.908318461E-01  7.800745218E+00  9.385021472E+00  4.750000000E+00  0.00000E+00  9.000E+00
      -5     1     1     2     0   503 -5.026167547E+00 -3.712340404E+00  7.256670112E+00  1.068950853E+01  4.750000000E+00  0.00000E+00  9.000E+00
      21     1     1     2   511   502  3.198711483E+00  7.328164812E+00 -1.147887174E+02  1.150668649E+02  1.348699152E-06  0.00000E+00  9.000E+00
#rwgt            1           9  0.14789409833930517               10     1652912           0
</event>
<event>
      6   9999  3.45752E-01  1.82431E+01 -1.00000E+00  1.63319E-01
      21    -1     0     0   501   502  0.000000000E+00  0.000000000E+00  2.916599099E+01  2.916599099E+01  0.000000000E+00  0.00000E+00  9.000E+00
       2    -1     0     0   502     0  0.000000000E+00  0.000000000E+00 -1.277714206E+03  1.277714206E+03  0.000000000E+00  0.00000E+00  9.000E+00
      25     1     1     2     0     0 -5.136092491E+00 -1.296723914E+01 -7.482126432E+02  7.587109122E+02  1.250022401E+02  0.00000E+00  9.000E+00
       5     1     1     2   501     0  9.785742623E+00 -3.375484588E-01  2.205494600E+01  2.459385778E+01  4.750000000E+00  0.00000E+00  9.000E+00
      -5     1     1     2     0   503  8.632681984E+00  7.991758309E-01 -5.873120951E+01  5.955736185E+01  4.750000000E+00  0.00000E+00  9.000E+00
       2     1     1     2   503     0 -1.328233212E+01  1.250561177E+01 -4.636593086E+02  4.640180655E+02  9.344061824E-06  0.00000E+00  9.000E+00
#rwgt            1           9   2.8870409895252584E-002          10     1655439           0
</event>
<event>
      6   9999  3.45752E-01  4.25584E+00 -1.00000E+00  2.42406E-01
      21    -1     0     0   501   511  0.000000000E+00  0.000000000E+00  1.379210135E+01  1.379210135E+01  0.000000000E+00  0.00000E+00  9.000E+00
      21    -1     0     0   502   503  0.000000000E+00  0.000000000E+00 -7.039853646E+02  7.039853646E+02  0.000000000E+00  0.00000E+00  9.000E+00
      25     1     1     2     0     0  5.180183126E+00  1.355702508E+00 -6.511902094E+02  6.630991326E+02  1.249923939E+02  0.00000E+00  9.000E+00
       5     1     1     2   501     0  4.024319199E-01  2.649983836E-01 -5.351793515E+00  7.171915325E+00  4.750000000E+00  0.00000E+00  9.000E+00
      -5     1     1     2     0   503 -1.442624350E+00 -6.344745174E-01 -3.975317620E+01  4.006695947E+01  4.750000000E+00  0.00000E+00  9.000E+00
      21     1     1     2   502   511 -4.139990696E+00 -9.862263746E-01  6.101915929E+00  7.439458544E+00  4.842304232E-07  0.00000E+00  9.000E+00
#rwgt            1           9   2.4022665740571988E-004          10     1657689           0
</event>
<event>
      6   9999  3.45752E-01  2.87548E+01 -1.00000E+00  1.49039E-01
      21    -1     0     0   502   512  0.000000000E+00  0.000000000E+00  1.693237133E+02  1.693237133E+02  0.000000000E+00  0.00000E+00  9.000E+00
      21    -1     0     0   501   502  0.000000000E+00  0.000000000E+00 -7.695525995E+02  7.695525995E+02  0.000000000E+00  0.00000E+00  9.000E+00
      25     1     1     2     0     0  1.016406055E+01  1.705876273E+01 -5.357942349E+02  5.505397493E+02  1.249969754E+02  0.00000E+00  9.000E+00
       5     1     1     2   501     0  1.161176992E-01  1.590641080E+01 -1.602254586E+02  1.610831694E+02  4.750000000E+00  0.00000E+00  9.000E+00
      -5     1     1     2     0   503 -1.652107668E+01 -4.895777155E+00 -6.320222988E+01  6.568103966E+01  4.750000000E+00  0.00000E+00  9.000E+00
      21     1     1     2   503   512  6.240898432E+00 -2.806939637E+01  1.589930373E+02  1.615723544E+02  3.303624740E-06  0.00000E+00  9.000E+00
#rwgt            1           9   3.2614149343916052E-004          10     1662111           0
</event>
<event>
      6   9999  3.45752E-01  1.95362E+01 -1.00000E+00  1.60992E-01
      21    -1     0     0   501   502  0.000000000E+00  0.000000000E+00  3.749030647E+01  3.749030647E+01  0.000000000E+00  0.00000E+00  9.000E+00
      21    -1     0     0   502   511  0.000000000E+00  0.000000000E+00 -1.696979171E+03  1.696979171E+03  0.000000000E+00  0.00000E+00  9.000E+00
      25     1     1     2     0     0  1.461968627E+01 -9.079628609E+00 -1.122055070E+03  1.129127166E+03  1.249976071E+02  0.00000E+00  9.000E+00
       5     1     1     2   501     0 -5.805540156E-02 -2.374117348E+00  3.347815853E+01  3.389674618E+01  4.750000000E+00  0.00000E+00  9.000E+00
      -5     1     1     2     0   503  7.251545502E-01 -7.107982958E-01 -8.230351868E+01  8.244672686E+01  4.750000000E+00  0.00000E+00  9.000E+00
      21     1     1     2   503   511 -1.528678542E+01  1.216454425E+01 -4.886084344E+02  4.889988385E+02  7.629394531E-06  0.00000E+00  9.000E+00
#rwgt            1           9   1.1570590593770020E-003          10     1663466           0
</event>
<event>
      6   9999  3.45752E-01  1.34545E+01 -1.00000E+00  1.74568E-01
      21    -1     0     0   501   502  0.000000000E+00  0.000000000E+00  8.628910570E+02  8.628910570E+02  0.000000000E+00  0.00000E+00  9.000E+00
      21    -1     0     0   502   512  0.000000000E+00  0.000000000E+00 -5.407528129E+01  5.407528129E+01  0.000000000E+00  0.00000E+00  9.000E+00
      25     1     1     2     0     0 -9.899554394E+00  1.079832307E+01  3.579053395E+01  1.308999474E+02  1.250569028E+02  0.00000E+00  9.000E+00
       5     1     1     2   501     0  1.227083130E+01  4.247470473E+00  7.623094168E+02  7.624347997E+02  4.750000000E+00  0.00000E+00  9.000E+00
      -5     1     1     2     0   503  4.282181602E+00 -3.351505390E+00  5.956327352E+00  9.360021537E+00  4.750000000E+00  0.00000E+00  9.000E+00
      21     1     1     2   503   512 -6.653458508E+00 -1.169428816E+01  4.759497664E+00  1.427156977E+01  1.332800375E-07  0.00000E+00  9.000E+00
#rwgt            1           9   5.2162127821362547E-003          10     1666431           0
</event>
<event>
      6   9999  3.45752E-01  5.79155E+00 -1.00000E+00  2.16219E-01
      21    -1     0     0   502   503  0.000000000E+00  0.000000000E+00  7.650167215E+00  7.650167215E+00  0.000000000E+00  0.00000E+00  9.000E+00
      21    -1     0     0   501   511  0.000000000E+00  0.000000000E+00 -7.109803697E+02  7.109803697E+02  0.000000000E+00  0.00000E+00  9.000E+00
      25     1     1     2     0     0  5.925269077E+00  1.095467363E+00 -5.426949039E+02  5.569373071E+02  1.250003860E+02  0.00000E+00  9.000E+00
       5     1     1     2   501     0 -4.612453456E+00  2.570673045E+00 -7.201185976E+01  7.236127094E+01  4.750000000E+00  0.00000E+00  9.000E+00
      -5     1     1     2     0   503  1.238986421E+00  1.532933139E+00 -3.167290477E+01  3.208769808E+01  4.750000000E+00  0.00000E+00  9.000E+00
      21     1     1     2   502   511 -2.551802042E+00 -5.199073547E+00 -5.695053410E+01  5.724426079E+01  0.000000000E+00  0.00000E+00  9.000E+00
#rwgt            1           9   2.5932744621917743               10     1670115           0
</event>
<event>
      6   9999  3.45752E-01  2.82494E+01 -1.00000E+00  1.49547E-01
      21    -1     0     0   512   503  0.000000000E+00  0.000000000E+00  2.493518205E+02  2.493518205E+02  0.000000000E+00  0.00000E+00  9.000E+00
      21    -1     0     0   501   502  0.000000000E+00  0.000000000E+00 -2.888258841E+03  2.888258841E+03  0.000000000E+00  0.00000E+00  9.000E+00
      25     1     1     2     0     0 -4.563117498E+01 -3.296258446E+01 -7.956993088E+02  8.074232777E+02  1.250048927E+02  0.00000E+00  9.000E+00
       5     1     1     2   501     0 -1.167195624E+00  1.826081868E+00 -1.030448462E+03  1.030461689E+03  4.750000000E+00  0.00000E+00  9.000E+00
      -5     1     1     2     0   503  6.687200661E+01  1.125990182E+01 -1.054324744E+03  1.056514022E+03  4.750000000E+00  0.00000E+00  9.000E+00
      21     1     1     2   512   502 -2.007363601E+01  1.987660078E+01  2.415654939E+02  2.432116732E+02  7.629394531E-06  0.00000E+00  9.000E+00
#rwgt            1           9   47.510717535340724               10     1673453           0
</event>
<event>
      6   9999  3.45752E-01  3.21411E+01 -1.00000E+00  1.45927E-01
      21    -1     0     0   502   511  0.000000000E+00  0.000000000E+00  1.072558773E+02  1.072558773E+02  0.000000000E+00  0.00000E+00  9.000E+00
      21    -1     0     0   501   502  0.000000000E+00  0.000000000E+00 -1.580931127E+03  1.580931127E+03  0.000000000E+00  0.00000E+00  9.000E+00
      25     1     1     2     0     0 -1.266836082E+02  3.202972991E+02 -7.204614817E+02  8.082879325E+02  1.250021552E+02  0.00000E+00  9.000E+00
       5     1     1     2   501     0 -4.058139034E+01 -4.009277271E+01 -2.218885200E+02  2.291535674E+02  4.750000000E+00  0.00000E+00  9.000E+00
      -5     1     1     2     0   503  1.422480860E+02 -3.003838304E+02 -5.190076450E+02  6.163249643E+02  4.750000000E+00  0.00000E+00  9.000E+00
      21     1     1     2   503   511  2.501691252E+01  2.017930397E+01 -1.231760265E+01  3.442053974E+01  2.384185791E-07  0.00000E+00  9.000E+00
#rwgt            1           9   3.2782508416838458E-003          10     1674826           0
</event>
<event>
      6   9999  3.45752E-01  4.97313E+00 -1.00000E+00  2.29774E-01
      21    -1     0     0   501   502  0.000000000E+00  0.000000000E+00  1.857534333E+01  1.857534333E+01  0.000000000E+00  0.00000E+00  9.000E+00
      21    -1     0     0   502   512  0.000000000E+00  0.000000000E+00 -1.209192407E+03  1.209192407E+03  0.000000000E+00  0.00000E+00  9.000E+00
      25     1     1     2     0     0 -5.641398433E+01 -1.849532221E+01 -7.411635620E+02  7.539730896E+02  1.250095179E+02  0.00000E+00  9.000E+00
       5     1     1     2   501     0 -3.583515646E-01  5.902626440E-01  7.407700169E+00  8.826853778E+00  4.750000000E+00  0.00000E+00  9.000E+00
      -5     1     1     2     0   503  5.694847252E+01  1.293505077E+01 -2.090241579E+02  2.170808724E+02  4.750000000E+00  0.00000E+00  9.000E+00
      21     1     1     2   503   512 -1.761366322E-01  4.970008801E+00 -2.478370439E+02  2.478869346E+02  0.000000000E+00  0.00000E+00  9.000E+00
#rwgt            1           9   9.8948976213173497E-004          10     1677125           0
</event>
<event>
      6   9999  3.45752E-01  4.76374E+00 -1.00000E+00  2.33123E-01
      21    -1     0     0   511   502  0.000000000E+00  0.000000000E+00  2.365432546E+02  2.365432546E+02  0.000000000E+00  0.00000E+00  9.000E+00
      21    -1     0     0   502   503  0.000000000E+00  0.000000000E+00 -1.213527030E+03  1.213527030E+03  0.000000000E+00  0.00000E+00  9.000E+00
      25     1     1     2     0     0 -6.175193285E+01 -3.485986750E+01 -4.185343414E+02  4.425204238E+02  1.249992759E+02  0.00000E+00  9.000E+00
       5     1     1     2   501     0  2.982649649E+00 -1.307579330E+00  2.393847545E+01  2.462151639E+01  4.750000000E+00  0.00000E+00  9.000E+00
      -5     1     1     2     0   503  5.766475246E+01  4.080136937E+01 -7.810283859E+02  7.842307553E+02  4.750000000E+00  0.00000E+00  9.000E+00
      21     1     1     2   511   501  1.104530746E+00 -4.633922541E+00  1.986404762E+02  1.986975894E+02  6.031565972E-06  0.00000E+00  9.000E+00
#rwgt            1           9   1.4274269446589591E-004          10     1681772           0
</event>
<event>
      6   9999  3.45752E-01  5.26194E+01 -1.00000E+00  1.33612E-01
      21    -1     0     0   501   502  0.000000000E+00  0.000000000E+00  9.588411884E+02  9.588411884E+02  0.000000000E+00  0.00000E+00  9.000E+00
      21    -1     0     0   512   503  0.000000000E+00  0.000000000E+00 -1.753729741E+02  1.753729741E+02  0.000000000E+00  0.00000E+00  9.000E+00
      25     1     1     2     0     0 -6.445884688E+01  9.202869472E+01 -4.157579807E+01  1.731785850E+02  1.250521960E+02  0.00000E+00  9.000E+00
       5     1     1     2   501     0  1.548968764E+00  5.919476317E+00  8.095005887E+02  8.095376490E+02  4.750000000E+00  0.00000E+00  9.000E+00
      -5     1     1     2     0   503  8.261953725E+01 -4.915950968E+01 -1.248754788E+00  9.626404944E+01  4.750000000E+00  0.00000E+00  9.000E+00
      21     1     1     2   512   502 -1.970965913E+01 -4.878866136E+01  1.679217850E+01  5.523387909E+01  1.617033478E-06  0.00000E+00  9.000E+00
#rwgt            1           9   1.1087981340104752E-004          10     1687794           0
</event>
<event>
      6   9999  3.45752E-01  6.53215E+00 -1.00000E+00  2.09043E-01
      21    -1     0     0   501   511  0.000000000E+00  0.000000000E+00  1.635654898E+01  1.635654898E+01  0.000000000E+00  0.00000E+00  9.000E+00
      21    -1     0     0   502   503  0.000000000E+00  0.000000000E+00 -5.771946645E+02  5.771946645E+02  0.000000000E+00  0.00000E+00  9.000E+00
      25     1     1     2     0     0  1.394612419E+00  5.024162483E+00 -5.279317593E+02  5.425534540E+02  1.250004833E+02  0.00000E+00  9.000E+00
       5     1     1     2   501     0 -3.269523431E+00  1.728654499E+00  6.083774731E+00  8.558787579E+00  4.750000000E+00  0.00000E+00  9.000E+00
      -5     1     1     2     0   503 -2.175420106E+00 -1.627996797E+00 -3.338830833E+01  3.383377691E+01  4.750000000E+00  0.00000E+00  9.000E+00
      21     1     1     2   502   511  4.050331118E+00 -5.124820185E+00 -5.601822641E+00  8.605195000E+00  1.884864366E-07  0.00000E+00  9.000E+00
#rwgt            1           9   1.8925856185335248E-003          10     1689530           0
</event>
<event>
      6   9999  3.45752E-01  2.48790E+01 -1.00000E+00  1.53296E-01
      21    -1     0     0   501   502  0.000000000E+00  0.000000000E+00  1.283357315E+03  1.283357315E+03  0.000000000E+00  0.00000E+00  9.000E+00
      21    -1     0     0   502   512  0.000000000E+00  0.000000000E+00 -5.832042715E+01  5.832042715E+01  0.000000000E+00  0.00000E+00  9.000E+00
      25     1     1     2     0     0  4.140242787E+01 -2.975529742E+01  3.490939596E+02  3.742842593E+02  1.249903011E+02  0.00000E+00  9.000E+00
       5     1     1     2   501     0 -8.084546819E+00  1.173689832E+02  7.575402421E+02  7.666359103E+02  4.750000000E+00  0.00000E+00  9.000E+00
      -5     1     1     2     0   503 -2.225218127E+01 -1.098962668E+02  1.313060161E+02  1.727315298E+02  4.750000000E+00  0.00000E+00  9.000E+00
      21     1     1     2   503   512 -1.106569979E+01  2.228258102E+01 -1.290333019E+01  2.802604251E+01  1.685873940E-07  0.00000E+00  9.000E+00
#rwgt            1           9   1.9864935725005277               10     1692737           0
</event>
<event>
      6   9999  3.45752E-01  1.23945E+01 -1.00000E+00  1.77880E-01
      21    -1     0     0   501   502  0.000000000E+00  0.000000000E+00  2.856046651E+02  2.856046651E+02  0.000000000E+00  0.00000E+00  9.000E+00
      21    -1     0     0   502   511  0.000000000E+00  0.000000000E+00 -1.990558199E+01  1.990558199E+01  0.000000000E+00  0.00000E+00  9.000E+00
      25     1     1     2     0     0 -2.130050655E-01  1.250648700E+01  2.301749562E+02  2.622251326E+02  1.250002085E+02  0.00000E+00  9.000E+00
       5     1     1     2   501     0  6.881091089E-02  5.847432230E-01  1.658790931E+01  1.726464291E+01  4.750000000E+00  0.00000E+00  9.000E+00
      -5     1     1     2     0   503 -1.259543248E+00 -7.764603068E-01  8.352946241E+00  9.722322289E+00  4.750000000E+00  0.00000E+00  9.000E+00
      21     1     1     2   503   511  1.403737403E+00 -1.231476991E+01  1.058327130E+01  1.629814923E+01  4.298152060E-07  0.00000E+00  9.000E+00
#rwgt            1           9   1.2582484177175754E-004          10     1694729           0
</event>
<event>
      6   9999  3.45752E-01  3.32366E+01 -1.00000E+00  1.45016E-01
      21    -1     0     0   502   512  0.000000000E+00  0.000000000E+00  8.287339972E+01  8.287339972E+01  0.000000000E+00  0.00000E+00  9.000E+00
      21    -1     0     0   501   502  0.000000000E+00  0.000000000E+00 -2.798857409E+03  2.798857409E+03  0.000000000E+00  0.00000E+00  9.000E+00
      25     1     1     2     0     0  9.797635676E+01  3.366539279E+02 -1.215345020E+03  1.270988700E+03  1.241512169E+02  0.00000E+00  9.000E+00
       5     1     1     2   501     0 -2.961613827E+00 -2.502127493E+02 -8.753126631E+02  9.103900328E+02  4.750000000E+00  0.00000E+00  9.000E+00
      -5     1     1     2     0   503 -9.829366501E+01 -5.336669907E+01 -6.496125258E+02  6.591878680E+02  4.750000000E+00  0.00000E+00  9.000E+00
      21     1     1     2   503   512  3.278922078E+00 -3.307447957E+01  2.428619947E+01  4.116420792E+01  7.539457465E-07  0.00000E+00  9.000E+00
#rwgt            1           9   1.1046255065589714E-004          10     1696274           0
</event>
<event>
      6   9999  3.45752E-01  2.15964E+01 -1.00000E+00  1.57706E-01
      21    -1     0     0   501   502  0.000000000E+00  0.000000000E+00  1.934957307E+01  1.934957307E+01  0.000000000E+00  0.00000E+00  9.000E+00
      21    -1     0     0   502   511  0.000000000E+00  0.000000000E+00 -1.039955276E+03  1.039955276E+03  0.000000000E+00  0.00000E+00  9.000E+00
      25     1     1     2     0     0 -1.077675347E+01  2.806655291E+01 -5.264716099E+02  5.419418163E+02  1.249988255E+02  0.00000E+00  9.000E+00
       5     1     1     2   501     0 -3.419960864E+00  7.661059206E-01  9.462639723E+00  1.115289654E+01  4.750000000E+00  0.00000E+00  9.000E+00
      -5     1     1     2     0   503 -7.619541313E-01 -1.325566974E+01 -4.063329631E+02  4.065775852E+02  4.750000000E+00  0.00000E+00  9.000E+00
      21     1     1     2   503   511  1.495866847E+01 -1.557698909E+01 -9.726376921E+01  9.963255066E+01  1.907348633E-06  0.00000E+00  9.000E+00
#rwgt            1           9  0.60791416935768272               10     1698577           0
</event>
<event>
      6   9999 -3.45752E-01  6.83693E+00 -1.00000E+00  2.06452E-01
      21    -1     0     0   501   512  0.000000000E+00  0.000000000E+00  8.382420049E+01  8.382420049E+01  0.000000000E+00  0.00000E+00  9.000E+00
      21    -1     0     0   502   503  0.000000000E+00  0.000000000E+00 -1.145235658E+03  1.145235658E+03  0.000000000E+00  0.00000E+00  9.000E+00
      25     1     1     2     0     0  1.764931632E+01 -2.529993558E+01 -3.906687803E+02  4.113379954E+02  1.250010621E+02  0.00000E+00  9.000E+00
       5     1     1     2   501     0  4.373757523E+00 -7.023832439E+00  1.981721189E+01  2.199428026E+01  4.750000000E+00  0.00000E+00  9.000E+00
      -5     1     1     2     0   503 -1.599501250E+01  2.909791079E+01 -7.425412854E+02  7.432984944E+02  4.750000000E+00  0.00000E+00  9.000E+00
      21     1     1     2   502   512 -6.028061348E+00  3.225857231E+00  5.198139658E+01  5.242908801E+01  1.348699152E-06  0.00000E+00  9.000E+00
#rwgt            1           9  -1.5292810382172525E-003          10     1700208           0
</event>
<event>
      6   9999 -3.45752E-01  2.95643E+00 -1.00000E+00  2.78584E-01
      21    -1     0     0   501   511  0.000000000E+00  0.000000000E+00  1.607668460E+02  1.607668460E+02  0.000000000E+00  0.00000E+00  9.000E+00
      21    -1     0     0   502   503  0.000000000E+00  0.000000000E+00 -2.485955574E+02  2.485955574E+02  0.000000000E+00  0.00000E+00  9.000E+00
      25     1     1     2     0     0 -7.686353108E+00 -4.286404162E+01 -2.185252258E+02  2.554752109E+02  1.249716088E+02  0.00000E+00  9.000E+00
       5     1     1     2   501     0  2.059220650E+00  2.916348083E-02  1.905487807E+01  1.974568607E+01  4.750000000E+00  0.00000E+00  9.000E+00
      -5     1     1     2     0   503  8.070165045E+00  4.116992153E+01  2.848377864E+01  5.093111179E+01  4.750000000E+00  0.00000E+00  9.000E+00
      21     1     1     2   502   511 -2.443032587E+00  1.664956605E+00  8.315785765E+01  8.321039465E+01  1.348699152E-06  0.00000E+00  9.000E+00
#rwgt            1           9  -3.8369294713927315E-003          10     1704633           0
</event>
<event>
      6   9999  3.45752E-01  1.58322E+02 -1.00000E+00  1.12524E-01
      21    -1     0     0   501   502  0.000000000E+00  0.000000000E+00  2.371773097E+03  2.371773097E+03  0.000000000E+00  0.00000E+00  9.000E+00
      21    -1     0     0   512   503  0.000000000E+00  0.000000000E+00 -8.303810876E+01  8.303810876E+01  0.000000000E+00  0.00000E+00  9.000E+00
      25     1     1     2     0     0  1.023364940E+02  2.671179977E+02  1.343964377E+03  1.379742034E+03  1.249922094E+02  0.00000E+00  9.000E+00
       5     1     1     2   501     0 -1.878230231E+00  4.470592038E-01  3.272627592E+02  3.273029234E+02  4.750000000E+00  0.00000E+00  9.000E+00
      -5     1     1     2     0   503  5.705357534E+01 -2.515676714E+02  4.386818833E+02  5.089260860E+02  4.750000000E+00  0.00000E+00  9.000E+00
      21     1     1     2   512   502 -1.575118391E+02 -1.599738554E+01  1.788259687E+02  2.388401618E+02  3.303624740E-06  0.00000E+00  9.000E+00
#rwgt            1           9   3.0989255639685145E-002          10     1711827           0
</event>
<event>
      6   9999 -3.45752E-01  3.78844E+00 -1.00000E+00  2.52838E-01
      21    -1     0     0   501   502  0.000000000E+00  0.000000000E+00  9.853750482E+00  9.853750482E+00  0.000000000E+00  0.00000E+00  9.000E+00
      21    -1     0     0   511   503  0.000000000E+00  0.000000000E+00 -8.176270712E+02  8.176270712E+02  0.000000000E+00  0.00000E+00  9.000E+00
      25     1     1     2     0     0  4.600355613E+00  1.738748374E+00 -7.421607124E+02  7.526300433E+02  1.250010902E+02  0.00000E+00  9.000E+00
       5     1     1     2   501     0  1.253950750E+00 -2.145436047E+00  2.641543646E+00  5.976248083E+00  4.750000000E+00  0.00000E+00  9.000E+00
      -5     1     1     2     0   503 -2.142942837E+00 -3.535901730E-01 -3.206145113E+01  3.248409424E+01  4.750000000E+00  0.00000E+00  9.000E+00
      21     1     1     2   511   502 -3.711363526E+00  7.602778467E-01 -3.619270086E+01  3.639043607E+01  8.259061849E-07  0.00000E+00  9.000E+00
#rwgt            1           9  -6.8912727737245580E-005          10     1712254           0
</event>
<event>
      6   9999  3.45752E-01  1.57350E+01 -1.00000E+00  1.68590E-01
      21    -1     0     0   501   502  0.000000000E+00  0.000000000E+00  9.548932784E+01  9.548932784E+01  0.000000000E+00  0.00000E+00  9.000E+00
      21    -1     0     0   502   512  0.000000000E+00  0.000000000E+00 -1.910579687E+03  1.910579687E+03  0.000000000E+00  0.00000E+00  9.000E+00
      25     1     1     2     0     0  4.079500755E+01  2.222718739E+01 -3.401941442E+02  3.653973227E+02  1.249994689E+02  0.00000E+00  9.000E+00
       5     1     1     2   501     0  2.089557888E+01 -1.185717096E+01  8.026131551E+01  8.391459341E+01  4.750000000E+00  0.00000E+00  9.000E+00
      -5     1     1     2     0   503 -4.597519142E+01 -1.115565731E+01 -1.399237883E+03  1.400045493E+03  4.750000000E+00  0.00000E+00  9.000E+00
      21     1     1     2   503   512 -1.571539501E+01  7.856408807E-01 -1.559196477E+02  1.567116059E+02  0.000000000E+00  0.00000E+00  9.000E+00
#rwgt            1           9  0.15915574824001441               10     1716579           0
</event>
<event>
      6   9999  3.45752E-01  8.79638E+00 -1.00000E+00  1.93258E-01
      21    -1     0     0   501   502  0.000000000E+00  0.000000000E+00  1.732723690E+01  1.732723690E+01  0.000000000E+00  0.00000E+00  9.000E+00
      21    -1     0     0   511   503  0.000000000E+00  0.000000000E+00 -1.221133911E+03  1.221133911E+03  0.000000000E+00  0.00000E+00  9.000E+00
      25     1     1     2     0     0  5.906344541E+01 -1.475393735E+01 -8.123714819E+02  8.241835033E+02  1.249994130E+02  0.00000E+00  9.000E+00
       5     1     1     2   501     0  3.979585080E-01 -2.554592546E+00  4.431501409E+00  6.991782233E+00  4.750000000E+00  0.00000E+00  9.000E+00
      -5     1     1     2     0   503 -6.649806314E+01  1.203010895E+01 -1.988490480E+02  2.100719456E+02  4.750000000E+00  0.00000E+00  9.000E+00
      21     1     1     2   511   502  7.036659223E+00  5.278420941E+00 -1.970176452E+02  1.972139164E+02  0.000000000E+00  0.00000E+00  9.000E+00
#rwgt            1           9   8.3621551201489702E-003          10     1720323           0
</event>
<event>
      6   9999  3.45752E-01  8.96287E+00 -1.00000E+00  1.92346E-01
      21    -1     0     0   501   502  0.000000000E+00  0.000000000E+00  9.142094244E+00  9.142094244E+00  0.000000000E+00  0.00000E+00  9.000E+00
       1    -1     0     0   502     0  0.000000000E+00  0.000000000E+00 -1.546192590E+03  1.546192590E+03  0.000000000E+00  0.00000E+00  9.000E+00
      25     1     1     2     0     0  7.212411280E-01 -5.025193201E+00 -6.541022768E+02  6.659580221E+02  1.249981034E+02  0.00000E+00  9.000E+00
       5     1     1     2   501     0  2.515833371E+00  1.326745030E+00  2.996712561E-01  5.544544416E+00  4.750000000E+00  0.00000E+00  9.000E+00
      -5     1     1     2     0   503  4.563198562E+00  8.113067613E+00 -1.022174746E+02  1.027502762E+02  4.750000000E+00  0.00000E+00  9.000E+00
       1     1     1     2   503     0 -7.800273061E+00 -4.414619441E+00 -7.810304156E+02  7.810818415E+02  0.000000000E+00  0.00000E+00  9.000E+00
#rwgt            1           9   1.1260571969319412E-003          10     1723728           0
</event>
<event>
      6   9999 -3.45752E-01  2.14471E+01 -1.00000E+00  1.57929E-01
      21    -1     0     0   501   502  0.000000000E+00  0.000000000E+00  5.154750250E+02  5.154750250E+02  0.000000000E+00  0.00000E+00  9.000E+00
      21    -1     0     0   511   503  0.000000000E+00  0.000000000E+00 -1.141941403E+02  1.141941403E+02  0.000000000E+00  0.00000E+00  9.000E+00
      25     1     1     2     0     0  2.123819956E+01 -1.194811263E+02  6.156047186E+01  1.847756537E+02  1.250021993E+02  0.00000E+00  9.000E+00
       5     1     1     2   501     0 -5.163118912E+00  4.011260437E+00  1.898987512E+02  1.900706348E+02  4.750000000E+00  0.00000E+00  9.000E+00
      -5     1     1     2     0   503 -2.921560941E+01  1.324199452E+02  1.751978250E+02  2.215974596E+02  4.750000000E+00  0.00000E+00  9.000E+00
      21     1     1     2   511   502  1.314052876E+01 -1.695007930E+01 -2.537616332E+01  3.322541722E+01  5.840038640E-07  0.00000E+00  9.000E+00
#rwgt            1           9  -6.8759749770654093               10     1726150           0
</event>
<event>
      6   9999  3.45752E-01  2.30709E+01 -1.00000E+00  1.55615E-01
      21    -1     0     0   512   502  0.000000000E+00  0.000000000E+00  5.903427134E+01  5.903427134E+01  0.000000000E+00  0.00000E+00  9.000E+00
      21    -1     0     0   502   503  0.000000000E+00  0.000000000E+00 -8.285926110E+02  8.285926110E+02  0.000000000E+00  0.00000E+00  9.000E+00
      25     1     1     2     0     0 -2.269667778E+01  7.554477844E+00 -5.909035825E+02  6.044537440E+02  1.250003017E+02  0.00000E+00  9.000E+00
       5     1     1     2   501     0 -2.603658063E+00 -9.738261340E-01  2.452887944E+00  6.025490181E+00  4.750000000E+00  0.00000E+00  9.000E+00
      -5     1     1     2     0   503  2.378439703E+00 -9.198067857E+00 -2.262247697E+02  2.264739949E+02  4.750000000E+00  0.00000E+00  9.000E+00
      21     1     1     2   512   501  2.292189614E+01  2.617416147E+00  4.511712472E+01  5.067365324E+01  2.939421655E-06  0.00000E+00  9.000E+00
#rwgt            1           9   9.8034824729506032E-002          10     1728213           0
</event>
<event>
      6   9999 -3.45752E-01  7.69603E+00 -1.00000E+00  2.00028E-01
      21    -1     0     0   501   502  0.000000000E+00  0.000000000E+00  8.920485444E+00  8.920485444E+00  0.000000000E+00  0.00000E+00  9.000E+00
      21    -1     0     0   511   503  0.000000000E+00  0.000000000E+00 -8.961295446E+02  8.961295446E+02  0.000000000E+00  0.00000E+00  9.000E+00
      25     1     1     2     0     0 -1.595301747E+01 -2.128642234E+00 -6.682169688E+02  6.799984968E+02  1.250000336E+02  0.00000E+00  9.000E+00
       5     1     1     2   501     0 -6.427648963E-01  4.362219559E-01  1.633504839E-01  4.815871644E+00  4.750000000E+00  0.00000E+00  9.000E+00
      -5     1     1     2     0   503  1.054202521E+01  6.444358056E+00 -1.068516739E+02  1.076685041E+02  4.750000000E+00  0.00000E+00  9.000E+00
      21     1     1     2   511   502  6.053757152E+00 -4.751937778E+00 -1.123037669E+02  1.125671575E+02  1.348699152E-06  0.00000E+00  9.000E+00
#rwgt            1           9  -1.7881136843339877E-004          10     1730135           0
</event>
<event>
      6   9999  3.45752E-01  9.38050E+00 -1.00000E+00  1.90167E-01
      21    -1     0     0   501   502  0.000000000E+00  0.000000000E+00  4.771361714E+01  4.771361714E+01  0.000000000E+00  0.00000E+00  9.000E+00
      21    -1     0     0   502   512  0.000000000E+00  0.000000000E+00 -3.342961662E+03  3.342961662E+03  0.000000000E+00  0.00000E+00  9.000E+00
      25     1     1     2     0     0 -3.401804217E+01 -2.021931392E+01 -2.616494749E+03  2.619777721E+03  1.249979570E+02  0.00000E+00  9.000E+00
       5     1     1     2   501     0 -1.548330115E+01  1.112124322E+01  4.271756662E+01  4.701880117E+01  4.750000000E+00  0.00000E+00  9.000E+00
      -5     1     1     2     0   503  4.218574142E+01  3.226460971E+00 -3.977645330E+02  4.000365396E+02  4.750000000E+00  0.00000E+00  9.000E+00
      21     1     1     2   503   512  7.315601903E+00  5.871609723E+00 -3.237063299E+02  3.238422175E+02  0.000000000E+00  0.00000E+00  9.000E+00
#rwgt            1           9   1.1671162543281305E-003          10     1733033           0
</event>
<event>
      6   9999  3.45752E-01  1.12165E+01 -1.00000E+00  1.82091E-01
      21    -1     0     0   501   502  0.000000000E+00  0.000000000E+00  1.016315139E+03  1.016315139E+03  0.000000000E+00  0.00000E+00  9.000E+00
      21    -1     0     0   502   511  0.000000000E+00  0.000000000E+00 -2.077309588E+01  2.077309588E+01  0.000000000E+00  0.00000E+00  9.000E+00
      25     1     1     2     0     0 -9.263541948E-01 -1.017962352E+01  2.704545611E+02  2.981189518E+02  1.249990278E+02  0.00000E+00  9.000E+00
       5     1     1     2   501     0 -2.954893895E+00  7.777731313E-01  7.081404318E+02  7.081629544E+02  4.750000000E+00  0.00000E+00  9.000E+00
      -5     1     1     2     0   503 -1.940538631E+00 -1.854434745E-01  1.875496149E+01  1.944508061E+01  4.750000000E+00  0.00000E+00  9.000E+00
      21     1     1     2   503   511  5.821786720E+00  9.587293867E+00 -1.807911650E+00  1.136124768E+01  3.311948593E-07  0.00000E+00  9.000E+00
#rwgt            1           9   2.0201182273992112E-005          10     1738265           0
</event>
<event>
      6   9999  3.45752E-01  2.20478E+01 -1.00000E+00  1.57045E-01
       3    -1     0     0   502     0  0.000000000E+00  0.000000000E+00  7.177231744E+01  7.177231744E+01  0.000000000E+00  0.00000E+00  9.000E+00
      21    -1     0     0   501   502  0.000000000E+00  0.000000000E+00 -1.313993177E+03  1.313993177E+03  0.000000000E+00  0.00000E+00  9.000E+00
      25     1     1     2     0     0  1.777389056E+01  1.029234391E+01 -4.932376346E+01  1.359399932E+02  1.250000183E+02  0.00000E+00  9.000E+00
       5     1     1     2   501     0 -4.602036352E+00  9.878416245E-01 -1.199614373E+03  1.199633011E+03  4.750000000E+00  0.00000E+00  9.000E+00
      -5     1     1     2     0   503  6.625712451E+00 -2.098391993E+01 -7.765191798E+00  2.381356052E+01  4.750000000E+00  0.00000E+00  9.000E+00
       3     1     1     2   503     0 -1.979756666E+01  9.703734398E+00  1.448246781E+01  2.637893062E+01  1.025477084E-06  0.00000E+00  9.000E+00
#rwgt            1           9   2.8356569799962319               10     1740738           0
</event>
<event>
      6   9999  3.45752E-01  2.02977E+01 -1.00000E+00  1.59722E-01
      21    -1     0     0   511   502  0.000000000E+00  0.000000000E+00  2.665302563E+01  2.665302563E+01  0.000000000E+00  0.00000E+00  9.000E+00
      21    -1     0     0   502   503  0.000000000E+00  0.000000000E+00 -6.019120392E+02  6.019120392E+02  0.000000000E+00  0.00000E+00  9.000E+00
      25     1     1     2     0     0 -2.060930124E+01 -1.099760407E+01 -4.107794754E+02  4.300126220E+02  1.250015481E+02  0.00000E+00  9.000E+00
       5     1     1     2   501     0 -8.909374676E-01 -4.567365174E-01 -8.024121667E+00  9.378241111E+00  4.750000000E+00  0.00000E+00  9.000E+00
      -5     1     1     2     0   503  4.269620522E+00  7.258356558E-01 -1.664327972E+02  1.665568821E+02  4.750000000E+00  0.00000E+00  9.000E+00
      21     1     1     2   511   501  1.723061819E+01  1.072850493E+01  9.977380735E+00  2.261731964E+01  8.920806376E-07  0.00000E+00  9.000E+00
#rwgt            1           9  0.17898132201717806               10     1742831           0
</event>
<event>
      6   9999  3.45752E-01  3.06052E+01 -1.00000E+00  1.47279E-01
      21    -1     0     0   512   503  0.000000000E+00  0.000000000E+00  1.178068538E+01  1.178068538E+01  0.000000000E+00  0.00000E+00  9.000E+00
      21    -1     0     0   501   502  0.000000000E+00  0.000000000E+00 -7.866568400E+02  7.866568400E+02  0.000000000E+00  0.00000E+00  9.000E+00
      25     1     1     2     0     0  1.885297063E+01  1.466413129E+01 -6.138305713E+02  6.268837531E+02  1.249991937E+02  0.00000E+00  9.000E+00
       5     1     1     2   501     0 -1.406498725E+00  1.368782890E+00 -4.518898727E+01  4.548031306E+01  4.750000000E+00  0.00000E+00  9.000E+00
      -5     1     1     2     0   503  1.091652589E+01 -4.534230617E+00 -6.859333096E+01  6.976630517E+01  4.750000000E+00  0.00000E+00  9.000E+00
      21     1     1     2   512   502 -2.836299779E+01 -1.149868357E+01 -4.726326505E+01  5.630715399E+01  6.743495762E-07  0.00000E+00  9.000E+00
#rwgt            1           9   16.440594029660918               10     1744002           0
</event>
<event>
      6   9999  3.45752E-01  6.55571E+02 -1.00000E+00  9.36043E-02
       1    -1     0     0   501     0  0.000000000E+00  0.000000000E+00  2.862878028E+02  2.862878028E+02  0.000000000E+00  0.00000E+00  9.000E+00
      21    -1     0     0   511   502  0.000000000E+00  0.000000000E+00 -2.799368150E+03  2.799368150E+03  0.000000000E+00  0.00000E+00  9.000E+00
      25     1     1     2     0     0 -1.958221872E+02  1.933179149E+02 -1.284487301E+03  1.319564720E+03  1.250011105E+02  0.00000E+00  9.000E+00
       5     1     1     2   501     0 -2.223252691E+02  2.055935725E+02 -2.494540242E+02  3.923609500E+02  4.750000000E+00  0.00000E+00  9.000E+00
      -5     1     1     2     0   502 -5.933931530E+01  5.028810347E+01 -6.226371932E+02  6.274947686E+02  4.750000000E+00  0.00000E+00  9.000E+00
       1     1     1     2   511     0  4.774867716E+02 -4.491995909E+02 -3.565018288E+02  7.462355147E+02  1.375408659E-05  0.00000E+00  9.000E+00
#rwgt            1           2   1.7697824453706487E-005          10     1745177           0
</event>
<event>
      6   9999  3.45752E-01  2.28737E+01 -1.00000E+00  1.55884E-01
      21    -1     0     0   501   502  0.000000000E+00  0.000000000E+00  8.074756599E+01  8.074756599E+01  0.000000000E+00  0.00000E+00  9.000E+00
      21    -1     0     0   502   512  0.000000000E+00  0.000000000E+00 -5.908382962E+02  5.908382962E+02  0.000000000E+00  0.00000E+00  9.000E+00
      25     1     1     2     0     0  7.942637215E+01  1.043714094E+02 -1.562349908E+02  2.392365334E+02  1.249912272E+02  0.00000E+00  9.000E+00
       5     1     1     2   501     0 -7.229350071E-01  3.550262085E+00  2.050637932E+01  2.135886440E+01  4.750000000E+00  0.00000E+00  9.000E+00
      -5     1     1     2     0   503 -6.703906424E+01 -8.824554548E+01 -1.559019669E+02  1.913360871E+02  4.750000000E+00  0.00000E+00  9.000E+00
      21     1     1     2   503   512 -1.166437290E+01 -1.967612604E+01 -2.184601519E+02  2.196543773E+02  2.697398305E-06  0.00000E+00  9.000E+00
#rwgt            1           9   1.3918173235355955E-003          10     1745592           0
</event>
<event>
      6   9999  3.45752E-01  9.15992E+00 -1.00000E+00  1.91299E-01
      21    -1     0     0   501   502  0.000000000E+00  0.000000000E+00  9.914502199E+00  9.914502199E+00  0.000000000E+00  0.00000E+00  9.000E+00
      21    -1     0     0   502   511  0.000000000E+00  0.000000000E+00 -7.750934551E+02  7.750934551E+02  0.000000000E+00  0.00000E+00  9.000E+00
      25     1     1     2     0     0 -9.621730925E+00  1.301200626E+01 -4.401911691E+02  4.578782948E+02  1.249895094E+02  0.00000E+00  9.000E+00
       5     1     1     2   501     0  1.473847366E+00 -1.770672794E+00 -6.818171737E+01  6.838579233E+01  4.750000000E+00  0.00000E+00  9.000E+00
      -5     1     1     2     0   503  8.036049512E+00 -2.040057542E+01 -1.856376898E+02  1.869884380E+02  4.750000000E+00  0.00000E+00  9.000E+00
      21     1     1     2   503   511  1.118340473E-01  9.159241957E+00 -7.116837663E+01  7.175543221E+01  0.000000000E+00  0.00000E+00  9.000E+00
#rwgt            1           9   1.4586269760665953E-005          10     1747348           0
</event>
<event>
      6   9999  3.45752E-01  5.13134E+00 -1.00000E+00  2.23978E-01
      21    -1     0     0   501   502  0.000000000E+00  0.000000000E+00  8.283736353E+01  8.283736353E+01  0.000000000E+00  0.00000E+00  9.000E+00
      21    -1     0     0   512   503  0.000000000E+00  0.000000000E+00 -1.574370572E+03  1.574370572E+03  0.000000000E+00  0.00000E+00  9.000E+00
      25     1     1     2     0     0 -2.077751167E+01  1.952721711E+01 -1.143678368E+03  1.150844419E+03  1.250185932E+02  0.00000E+00  9.000E+00
       5     1     1     2   501     0  1.346031408E+00 -1.337294275E+01  7.813233328E+01  7.942210903E+01  4.750000000E+00  0.00000E+00  9.000E+00
      -5     1     1     2     0   503  2.260794557E+01 -2.124294725E+00 -3.274940621E+02  3.283147195E+02  4.750000000E+00  0.00000E+00  9.000E+00
      21     1     1     2   512   502 -3.176465303E+00 -4.029979631E+00 -9.849311155E+01  9.862668853E+01  1.348699152E-06  0.00000E+00  9.000E+00
#rwgt            1           9   8.0252099689685330E-004          10     1749478           0
</event>
<event>
      6   9999  3.45752E-01  2.26780E+01 -1.00000E+00  1.56153E-01
      21    -1     0     0   501   502  0.000000000E+00  0.000000000E+00  2.665716212E+01  2.665716212E+01  0.000000000E+00  0.00000E+00  9.000E+00
      21    -1     0     0   502   511  0.000000000E+00  0.000000000E+00 -1.164234322E+03  1.164234322E+03  0.000000000E+00  0.00000E+00  9.000E+00
      25     1     1     2     0     0  8.854802111E+01  1.397955154E+00 -2.759465019E+02  3.156168337E+02  1.249992299E+02  0.00000E+00  9.000E+00
       5     1     1     2   501     0  1.836897174E+00  6.587074340E-01  1.988244898E+00  5.506696331E+00  4.750000000E+00  0.00000E+00  9.000E+00
      -5     1     1     2     0   503 -6.897722306E+01 -9.540186046E+00 -7.803835384E+02  7.834985015E+02  4.750000000E+00  0.00000E+00  9.000E+00
      21     1     1     2   503   511 -2.140769522E+01  7.483523459E+00 -8.323536440E+01  8.626945244E+01  1.348699152E-06  0.00000E+00  9.000E+00
#rwgt            1           9   2.4345949139238389E-003          10     1756564           0
</event>
<event>
      6   9999  3.45752E-01  5.89661E+00 -1.00000E+00  2.15115E-01
      21    -1     0     0   501   502  0.000000000E+00  0.000000000E+00  2.987855832E+01  2.987855832E+01  0.000000000E+00  0.00000E+00  9.000E+00
      21    -1     0     0   512   503  0.000000000E+00  0.000000000E+00 -1.210496229E+03  1.210496229E+03  0.000000000E+00  0.00000E+00  9.000E+00
      25     1     1     2     0     0 -8.469959974E+00 -2.627618766E+01 -7.049023822E+02  7.164319624E+02  1.250008406E+02  0.00000E+00  9.000E+00
       5     1     1     2   501     0 -5.377306748E+00 -7.868385173E+00  2.220415170E+01  2.462546986E+01  4.750000000E+00  0.00000E+00  9.000E+00
      -5     1     1     2     0   503  1.073640415E+01  2.913532427E+01 -4.118277163E+02  4.130239314E+02  4.750000000E+00  0.00000E+00  9.000E+00
      21     1     1     2   512   502  3.110862575E+00  5.009248561E+00 -8.609172365E+01  8.629342338E+01  1.651812370E-06  0.00000E+00  9.000E+00
#rwgt            1           9   3.6247242928634066E-004          10     1758246           0
</event>
<event>
      6   9999  3.45752E-01  1.03011E+01 -1.00000E+00  1.85847E-01
      21    -1     0     0   501   502  0.000000000E+00  0.000000000E+00  1.598028601E+01  1.598028601E+01  0.000000000E+00  0.00000E+00  9.000E+00
      21    -1     0     0   511   503  0.000000000E+00  0.000000000E+00 -1.071826840E+03  1.071826840E+03  0.000000000E+00  0.00000E+00  9.000E+00
      25     1     1     2     0     0  1.817925251E+01 -2.584924263E+00 -6.369621660E+02  6.493712885E+02  1.250004092E+02  0.00000E+00  9.000E+00
       5     1     1     2   501     0  2.662309460E+00  3.604336221E+00  8.301395658E+00  1.056195063E+01  4.750000000E+00  0.00000E+00  9.000E+00
      -5     1     1     2     0   503 -1.213750031E+01  4.489762604E+00 -2.690678236E+02  2.694207362E+02  4.750000000E+00  0.00000E+00  9.000E+00
      21     1     1     2   511   502 -8.704061659E+00 -5.509174563E+00 -1.581179603E+02  1.584531510E+02  2.697398305E-06  0.00000E+00  9.000E+00
#rwgt            1           9   1.7262590628237408E-002          10     1763459           0
</event>
<event>
      6   9999  3.45752E-01  1.16949E+01 -1.00000E+00  1.80305E-01
      21    -1     0     0   512   502  0.000000000E+00  0.000000000E+00  1.625731541E+01  1.625731541E+01  0.000000000E+00  0.00000E+00  9.000E+00
      21    -1     0     0   502   503  0.000000000E+00  0.000000000E+00 -8.811986349E+02  8.811986349E+02  0.000000000E+00  0.00000E+00  9.000E+00
      25     1     1     2     0     0 -1.331860594E+01  1.194314638E+01 -7.280837886E+02  7.389529402E+02  1.250016822E+02  0.00000E+00  9.000E+00
       5     1     1     2   501     0 -8.282581536E-01 -9.109328857E-01  6.322217115E+00  8.003045642E+00  4.750000000E+00  0.00000E+00  9.000E+00
      -5     1     1     2     0   503  3.569397796E+00 -1.602099735E+01 -1.353538923E+02  1.364281922E+02  4.750000000E+00  0.00000E+00  9.000E+00
      21     1     1     2   512   501  1.057746629E+01  4.988783859E+00 -7.825855586E+00  1.407177221E+01  5.196212463E-07  0.00000E+00  9.000E+00
#rwgt            1           9  0.46044317157851533               10     1766067           0
</event>
<event>
      6   9999  3.45752E-01  5.68829E+00 -1.00000E+00  2.17337E-01
      21    -1     0     0   501   502  0.000000000E+00  0.000000000E+00  1.815182849E+01  1.815182849E+01  0.000000000E+00  0.00000E+00  9.000E+00
      21    -1     0     0   502   511  0.000000000E+00  0.000000000E+00 -6.545235120E+02  6.545235120E+02  0.000000000E+00  0.00000E+00  9.000E+00
      25     1     1     2     0     0  3.660492472E+00  8.276125685E-01 -6.040726375E+02  6.168815916E+02  1.250002500E+02  0.00000E+00  9.000E+00
       5     1     1     2   501     0  4.173335792E-01 -3.462122431E+00  1.022180286E+01  1.179865300E+01  4.750000000E+00  0.00000E+00  9.000E+00
      -5     1     1     2     0   503  1.482269757E+00  1.433687356E+00 -1.435120885E+01  1.525687643E+01  4.750000000E+00  0.00000E+00  9.000E+00
      21     1     1     2   503   511 -5.560095808E+00  1.200822507E+00 -2.816963999E+01  2.873821945E+01  4.768371582E-07  0.00000E+00  9.000E+00
#rwgt            1           9   4.0664798116690857E-003          10     1768509           0
</event>
<event>
      6   9999  3.45752E-01  9.44122E+00 -1.00000E+00  1.89863E-01
      21    -1     0     0   501   502  0.000000000E+00  0.000000000E+00  6.965207401E+02  6.965207401E+02  0.000000000E+00  0.00000E+00  9.000E+00
      21    -1     0     0   502   512  0.000000000E+00  0.000000000E+00 -8.534295610E+01  8.534295610E+01  0.000000000E+00  0.00000E+00  9.000E+00
      25     1     1     2     0     0 -4.263259898E+01 -4.712104631E+00  5.243156433E+02  5.407147048E+02  1.250030232E+02  0.00000E+00  9.000E+00
       5     1     1     2   501     0  9.455865142E-01 -1.371029577E+00  1.341662890E+02  1.342606773E+02  4.750000000E+00  0.00000E+00  9.000E+00
      -5     1     1     2     0   503  4.926813112E+01  4.561255619E-01  8.558789828E+00  5.023317806E+01  4.750000000E+00  0.00000E+00  9.000E+00
      21     1     1     2   503   512 -7.581118661E+00  5.627008647E+00 -5.586293811E+01  5.665513605E+01  1.907348633E-06  0.00000E+00  9.000E+00
#rwgt            1           9   1.1512698237569011E-003          10     1772141           0
</event>
<event>
      6   9999 -3.45752E-01  8.66509E+00 -1.00000E+00  1.93996E-01
      21    -1     0     0   501   502  0.000000000E+00  0.000000000E+00  1.684335052E+03  1.684335052E+03  0.000000000E+00  0.00000E+00  9.000E+00
      21    -1     0     0   502   511  0.000000000E+00  0.000000000E+00 -2.480948360E+01  2.480948360E+01  0.000000000E+00  0.00000E+00  9.000E+00
      25     1     1     2     0     0  4.414686871E+00  4.089447704E+00  6.154453958E+02  6.280400319E+02  1.250001336E+02  0.00000E+00  9.000E+00
       5     1     1     2   501     0 -2.438184612E+00  2.826780216E+00  9.248561737E+02  9.248759052E+02  4.750000000E+00  0.00000E+00  9.000E+00
      -5     1     1     2     0   503 -8.600383224E+00 -1.329809746E+00  1.365220583E+02  1.368815908E+02  4.750000000E+00  0.00000E+00  9.000E+00
      21     1     1     2   503   511  6.623880966E+00 -5.586418175E+00 -1.729805918E+01  1.934700800E+01  2.384185791E-06  0.00000E+00  9.000E+00
#rwgt            1           9  -7.9087875432737755               10     1775180           0
</event>
<event>
      6   9999  3.45752E-01  2.61543E+01 -1.00000E+00  1.51798E-01
      21    -1     0     0   512   502  0.000000000E+00  0.000000000E+00  1.974758277E+02  1.974758277E+02  0.000000000E+00  0.00000E+00  9.000E+00
      21    -1     0     0   502   503  0.000000000E+00  0.000000000E+00 -1.025223947E+03  1.025223947E+03  0.000000000E+00  0.00000E+00  9.000E+00
      25     1     1     2     0     0  2.267536252E+01 -9.981392394E+00 -8.842609374E+02  8.933959468E+02  1.250004483E+02  0.00000E+00  9.000E+00
       5     1     1     2   501     0  1.002848883E+01  5.327614720E+00  6.996734206E+00  1.415877313E+01  4.750000000E+00  0.00000E+00  9.000E+00
      -5     1     1     2     0   503 -9.514468553E+00  1.674932271E+01 -1.311264801E+02  1.326189323E+02  4.750000000E+00  0.00000E+00  9.000E+00
      21     1     1     2   512   501 -2.318938280E+01 -1.209554504E+01  1.806425636E+02  1.825261227E+02  0.000000000E+00  0.00000E+00  9.000E+00
#rwgt            1           9  0.68437462841264562               10     1777850           0
</event>
<event>
      6   9999  3.45752E-01  9.93271E+00 -1.00000E+00  1.87503E-01
      21    -1     0     0   511   502  0.000000000E+00  0.000000000E+00  1.906966755E+02  1.906966755E+02  0.000000000E+00  0.00000E+00  9.000E+00
      21    -1     0     0   502   503  0.000000000E+00  0.000000000E+00 -6.860528333E+02  6.860528333E+02  0.000000000E+00  0.00000E+00  9.000E+00
      25     1     1     2     0     0 -8.435567956E+01 -1.454873616E+02 -1.704972875E+02  2.701440832E+02  1.250041902E+02  0.00000E+00  9.000E+00
       5     1     1     2   501     0  9.134107950E+00 -2.350105181E+00  6.504757317E+01  6.589919724E+01  4.750000000E+00  0.00000E+00  9.000E+00
      -5     1     1     2     0   503  8.010581715E+01  1.391885987E+02 -4.510246439E+02  4.787861734E+02  4.750000000E+00  0.00000E+00  9.000E+00
      21     1     1     2   511   501 -4.884245537E+00  8.648868092E+00  6.111820048E+01  6.192005493E+01  9.536743164E-07  0.00000E+00  9.000E+00
#rwgt            1           9   5.4042627519271941E-002          10     1779121           0
</event>
<event>
      6   9999  3.45752E-01  5.39359E+00 -1.00000E+00  2.20713E-01
      21    -1     0     0   501   502  0.000000000E+00  0.000000000E+00  9.607670301E+01  9.607670301E+01  0.000000000E+00  0.00000E+00  9.000E+00
      21    -1     0     0   502   512  0.000000000E+00  0.000000000E+00 -1.214372782E+02  1.214372782E+02  0.000000000E+00  0.00000E+00  9.000E+00
      25     1     1     2     0     0 -4.321481770E+00 -9.430428433E+00 -5.959445597E+01  1.388674874E+02  1.250002868E+02  0.00000E+00  9.000E+00
       5     1     1     2   501     0  1.990134197E+00  5.633409920E-01  5.121758968E+01  5.147894696E+01  4.750000000E+00  0.00000E+00  9.000E+00
      -5     1     1     2     0   503  2.733803620E+00  3.488529526E+00  2.492466951E+00  6.958333995E+00  4.750000000E+00  0.00000E+00  9.000E+00
      21     1     1     2   503   512 -4.024560473E-01  5.378557916E+00 -1.947617585E+01  2.020921279E+01  2.384185791E-07  0.00000E+00  9.000E+00
#rwgt            1           9   3.9731110754952876E-003          10     1783348           0
</event>
<event>
      6   9999  3.45752E-01  6.03020E+00 -1.00000E+00  2.13755E-01
      21    -1     0     0   511   502  0.000000000E+00  0.000000000E+00  2.424661700E+01  2.424661700E+01  0.000000000E+00  0.00000E+00  9.000E+00
      21    -1     0     0   502   503  0.000000000E+00  0.000000000E+00 -7.974458951E+02  7.974458951E+02  0.000000000E+00  0.00000E+00  9.000E+00
      25     1     1     2     0     0 -1.332865071E+01  5.040154421E-01 -7.488745094E+02  7.593523350E+02  1.250001233E+02  0.00000E+00  9.000E+00
       5     1     1     2   501     0  2.041472807E-01 -2.764654350E-01 -7.820372723E+00  9.156355104E+00  4.750000000E+00  0.00000E+00  9.000E+00
      -5     1     1     2     0   503  1.855060216E+01 -2.858276909E+00 -3.152626814E+01  3.699679270E+01  4.750000000E+00  0.00000E+00  9.000E+00
      21     1     1     2   511   501 -5.426098727E+00  2.630726902E+00  1.502187222E+01  1.618702927E+01  1.066240300E-06  0.00000E+00  9.000E+00
#rwgt            1           9   1.1418043928524993E-004          10     1787797           0
</event>
<event>
      6   9999  3.45752E-01  3.16864E+00 -1.00000E+00  2.70844E-01
      21    -1     0     0   501   502  0.000000000E+00  0.000000000E+00  1.452467296E+01  1.452467296E+01  0.000000000E+00  0.00000E+00  9.000E+00
      21    -1     0     0   512   503  0.000000000E+00  0.000000000E+00 -8.552031604E+02  8.552031604E+02  0.000000000E+00  0.00000E+00  9.000E+00
      25     1     1     2     0     0  2.039264043E+00 -2.990760807E+01 -7.613244594E+02  7.720961132E+02  1.249754052E+02  0.00000E+00  9.000E+00
       5     1     1     2   501     0  1.434231998E+00 -1.144456647E+00  4.585044352E+00  6.852148141E+00  4.750000000E+00  0.00000E+00  9.000E+00
      -5     1     1     2     0   503 -6.457540909E+00  2.998635213E+01 -7.156736439E+01  7.800853348E+01  4.750000000E+00  0.00000E+00  9.000E+00
      21     1     1     2   512   502  2.984044868E+00  1.065712586E+00 -1.237170793E+01  1.277103850E+01  1.685873940E-07  0.00000E+00  9.000E+00
#rwgt            1           9   1.1854714985234118E-003          10     1791083           0
</event>
<event>
      6   9999  3.45752E-01  2.72585E+00 -1.00000E+00  2.88270E-01
      21    -1     0     0   501   502  0.000000000E+00  0.000000000E+00  6.684941765E+02  6.684941765E+02  0.000000000E+00  0.00000E+00  9.000E+00
      21    -1     0     0   502   511  0.000000000E+00  0.000000000E+00 -4.642447237E+02  4.642447237E+02  0.000000000E+00  0.00000E+00  9.000E+00
      25     1     1     2     0     0  2.207390924E+00 -2.735134648E+00  5.613802729E+02  5.751392810E+02  1.250001127E+02  0.00000E+00  9.000E+00
       5     1     1     2   501     0 -3.811507777E-01 -6.148393081E-01  9.616018097E+01  9.628014441E+01  4.750000000E+00  0.00000E+00  9.000E+00
      -5     1     1     2     0   503 -4.081586550E+00  1.819065091E+00  1.358702148E+00  6.661600266E+00  4.750000000E+00  0.00000E+00  9.000E+00
      21     1     1     2   503   511  2.255346404E+00  1.530908865E+00 -4.546497032E+02  4.546578745E+02  1.078959322E-05  0.00000E+00  9.000E+00
#rwgt            1           9   1094.5665245394550               10     1796860           0
</event>
<event>
      6   9999 -3.45752E-01  2.63396E+02 -1.00000E+00  1.04911E-01
      21    -1     0     0   512   503  0.000000000E+00  0.000000000E+00  7.207050749E+01  7.207050749E+01  0.000000000E+00  0.00000E+00  9.000E+00
      21    -1     0     0   501   502  0.000000000E+00  0.000000000E+00 -2.134256005E+03  2.134256005E+03  0.000000000E+00  0.00000E+00  9.000E+00
      25     1     1     2     0     0 -1.552683146E+02 -1.422653059E+02 -1.362435387E+03  1.384269803E+03  1.250001479E+02  0.00000E+00  9.000E+00
       5     1     1     2   501     0 -4.685145876E+01  5.139583862E+00 -5.161173351E+01  7.005574956E+01  4.750000000E+00  0.00000E+00  9.000E+00
      -5     1     1     2     0   503 -2.674695022E+01  6.750769782E+00  1.961246721E+01  3.417870110E+01  4.750000000E+00  0.00000E+00  9.000E+00
      21     1     1     2   512   502  2.288667236E+02  1.303749523E+02 -6.677508445E+02  7.178222591E+02  7.629394531E-06  0.00000E+00  9.000E+00
#rwgt            1           9  -1.0277702686318547E-003          10     1802801           0
</event>
<event>
      6   9999  3.45752E-01  6.58548E+01 -1.00000E+00  1.28684E-01
      21    -1     0     0   502   503  0.000000000E+00  0.000000000E+00  3.144243897E+01  3.144243897E+01  0.000000000E+00  0.00000E+00  9.000E+00
       2    -1     0     0   501     0  0.000000000E+00  0.000000000E+00 -2.512303996E+03  2.512303996E+03  0.000000000E+00  0.00000E+00  9.000E+00
      25     1     1     2     0     0 -3.676904019E+01 -9.754045109E+01 -3.376281329E+02  3.748116464E+02  1.249996490E+02  0.00000E+00  9.000E+00
       5     1     1     2   501     0  5.168077798E+01  3.122961034E+01 -2.821545913E+02  2.885826871E+02  4.750000000E+00  0.00000E+00  9.000E+00
      -5     1     1     2     0   503 -5.978961365E+01  1.145065608E+02 -4.625169311E+02  4.802405902E+02  4.750000000E+00  0.00000E+00  9.000E+00
       2     1     1     2   502     0  4.487787586E+01 -4.819572009E+01 -1.398561902E+03  1.400111511E+03  0.000000000E+00  0.00000E+00  9.000E+00
#rwgt            1           9   1.2556913288946422E-002          10     1803933           0
</event>
<event>
      6   9999  3.45752E-01  1.32347E+01 -1.00000E+00  1.75223E-01
      21    -1     0     0   501   502  0.000000000E+00  0.000000000E+00  7.686118315E+02  7.686118315E+02  0.000000000E+00  0.00000E+00  9.000E+00
      21    -1     0     0   502   511  0.000000000E+00  0.000000000E+00 -2.989200632E+02  2.989200632E+02  0.000000000E+00  0.00000E+00  9.000E+00
      25     1     1     2     0     0 -4.744581641E+01  8.237858290E+00  1.804413006E+02  2.247292510E+02  1.250008220E+02  0.00000E+00  9.000E+00
       5     1     1     2   501     0 -1.069142098E+01  2.792190010E+00  5.482943377E+02  5.484262449E+02  4.750000000E+00  0.00000E+00  9.000E+00
      -5     1     1     2     0   503  4.569742478E+01 -1.554765012E+01 -1.614837335E+01  5.112060756E+01  4.750000000E+00  0.00000E+00  9.000E+00
      21     1     1     2   503   511  1.243981260E+01  4.517601815E+00 -2.428954966E+02  2.432557912E+02  5.394796609E-06  0.00000E+00  9.000E+00
#rwgt            1           9   3.4622691414557458               10     1805472           0
</event>
<event>
      6   9999  3.45752E-01  5.93323E+00 -1.00000E+00  2.14737E-01
       2    -1     0     0   501     0  0.000000000E+00  0.000000000E+00  1.080910528E+03  1.080910528E+03  0.000000000E+00  0.00000E+00  9.000E+00
      21    -1     0     0   502   503  0.000000000E+00  0.000000000E+00 -8.503184123E+02  8.503184123E+02  0.000000000E+00  0.00000E+00  9.000E+00
      25     1     1     2     0     0  1.484544164E+00 -1.053508281E+01 -7.972026354E+02  8.070132459E+02  1.250005812E+02  0.00000E+00  9.000E+00
       5     1     1     2   501     0 -3.105485918E+00 -1.641677893E-01  4.979221745E+00  7.551565602E+00  4.750000000E+00  0.00000E+00  9.000E+00
      -5     1     1     2     0   503 -1.787460158E+00  1.555579630E+01 -4.548936310E+01  4.834276024E+01  4.750000000E+00  0.00000E+00  9.000E+00
       2     1     1     2   502     0  3.408401911E+00 -4.856545703E+00  1.068304893E+03  1.068321369E+03  1.525878906E-05  0.00000E+00  9.000E+00
#rwgt            1           9   1.2915100890559156E-005          10     1808698           0
</event>
<event>
      6   9999 -3.45752E-01  7.38151E+00 -1.00000E+00  2.02245E-01
      21    -1     0     0   501   502  0.000000000E+00  0.000000000E+00  1.269337574E+03  1.269337574E+03  0.000000000E+00  0.00000E+00  9.000E+00
      21    -1     0     0   511   503  0.000000000E+00  0.000000000E+00 -5.446254822E+01  5.446254822E+01  0.000000000E+00  0.00000E+00  9.000E+00
      25     1     1     2     0     0  5.841903544E+01  4.276282383E+01  7.125943082E+02  7.270876630E+02  1.249975151E+02  0.00000E+00  9.000E+00
       5     1     1     2   501     0 -3.665482911E+01  1.595051208E+01  3.379838939E+02  3.403728402E+02  4.750000000E+00  0.00000E+00  9.000E+00
      -5     1     1     2     0   503 -2.017295894E+01 -5.150537864E+01  2.063271083E+02  2.136660722E+02  4.750000000E+00  0.00000E+00  9.000E+00
      21     1     1     2   511   502 -1.591247380E+00 -7.207957268E+00 -4.203028493E+01  4.267354646E+01  1.651812370E-06  0.00000E+00  9.000E+00
#rwgt            1           9 -0.42205586924919514               10     1812266           0
</event>
<event>
      6   9999  3.45752E-01  9.55438E+00 -1.00000E+00  1.89303E-01
      21    -1     0     0   512   503  0.000000000E+00  0.000000000E+00  1.355085179E+01  1.355085179E+01  0.000000000E+00  0.00000E+00  9.000E+00
      21    -1     0     0   501   502  0.000000000E+00  0.000000000E+00 -8.218966419E+02  8.218966419E+02  0.000000000E+00  0.00000E+00  9.000E+00
      25     1     1     2     0     0 -4.752623737E+01  1.542425025E+01 -4.409704070E+02  4.610605720E+02  1.250012021E+02  0.00000E+00  9.000E+00
       5     1     1     2   501     0  4.887422098E+01 -2.494687459E+01 -3.184230587E+02  3.231514240E+02  4.750000000E+00  0.00000E+00  9.000E+00
      -5     1     1     2     0   503 -1.002171627E+00 -2.549293601E-02 -2.463009683E+01  2.510396717E+01  4.750000000E+00  0.00000E+00  9.000E+00
      21     1     1     2   512   502 -3.458119825E-01  9.548117270E+00 -2.432222760E+01  2.613153047E+01  3.371747881E-07  0.00000E+00  9.000E+00
#rwgt            1           9   1.8744737054874939E-002          10     1815602           0
</event>
<event>
      6   9999 -3.45752E-01  1.40740E+01 -1.00000E+00  1.72805E-01
      21    -1     0     0   501   511  0.000000000E+00  0.000000000E+00  1.595029959E+02  1.595029959E+02  0.000000000E+00  0.00000E+00  9.000E+00
      21    -1     0     0   502   503  0.000000000E+00  0.000000000E+00 -8.445870840E+02  8.445870840E+02  0.000000000E+00  0.00000E+00  9.000E+00
      25     1     1     2     0     0  6.029979368E+00  1.465868074E+01 -5.225787747E+02  5.375545478E+02  1.250003141E+02  0.00000E+00  9.000E+00
       5     1     1     2   501     0  1.077766080E-01 -1.865555393E-01 -3.340324121E+01  3.373996802E+01  4.750000000E+00  0.00000E+00  9.000E+00
      -5     1     1     2     0   503  7.713525027E+00 -1.696609034E+01 -2.802924501E+02  2.809515381E+02  4.750000000E+00  0.00000E+00  9.000E+00
      21     1     1     2   502   511 -1.385128100E+01  2.493965132E+00  1.511903779E+02  1.518440260E+02  0.000000000E+00  0.00000E+00  9.000E+00
#rwgt            1           9  -6.9647353135422169E-005          10     1818102           0
</event>
<event>
      6   9999  3.45752E-01  1.49341E+02 -1.00000E+00  1.13471E-01
      21    -1     0     0   501   512  0.000000000E+00  0.000000000E+00  3.595369192E+01  3.595369192E+01  0.000000000E+00  0.00000E+00  9.000E+00
      21    -1     0     0   502   503  0.000000000E+00  0.000000000E+00 -1.518360953E+03  1.518360953E+03  0.000000000E+00  0.00000E+00  9.000E+00
      25     1     1     2     0     0 -1.069117061E+01 -7.384720075E+01 -4.669290886E+02  4.890967632E+02  1.250006392E+02  0.00000E+00  9.000E+00
       5     1     1     2   501     0 -7.482664133E-01 -3.076700898E+00  7.658009819E+00  9.551628418E+00  4.750000000E+00  0.00000E+00  9.000E+00
      -5     1     1     2     0   503 -5.545640075E+01 -5.659590028E+01 -6.324155826E+02  6.373778627E+02  4.750000000E+00  0.00000E+00  9.000E+00
      21     1     1     2   502   512  6.689583777E+01  1.335198019E+02 -3.907205994E+02  4.182883902E+02  7.629394531E-06  0.00000E+00  9.000E+00
#rwgt            1           9   1.6672968748314719E-002          10     1819642           0
</event>
<event>
      6   9999  3.45752E-01  3.50908E+01 -1.00000E+00  1.43565E-01
      21    -1     0     0   511   502  0.000000000E+00  0.000000000E+00  1.720156075E+02  1.720156075E+02  0.000000000E+00  0.00000E+00  9.000E+00
      21    -1     0     0   502   503  0.000000000E+00  0.000000000E+00 -1.288224791E+03  1.288224791E+03  0.000000000E+00  0.00000E+00  9.000E+00
      25     1     1     2     0     0 -1.823476620E+01 -1.266290180E+01 -1.111641225E+03  1.118867663E+03  1.250031061E+02  0.00000E+00  9.000E+00
       5     1     1     2   501     0 -1.711044874E+01  1.566265870E+01  4.804558440E+01  5.356329914E+01  4.750000000E+00  0.00000E+00  9.000E+00
      -5     1     1     2     0   503  8.739191932E-01  3.565077620E+00 -1.675387887E+02  1.676462995E+02  4.750000000E+00  0.00000E+00  9.000E+00
      21     1     1     2   511   501  3.447129575E+01 -6.564834513E+00  1.149252463E+02  1.201631371E+02  0.000000000E+00  0.00000E+00  9.000E+00
#rwgt            1           9   8.0536269505668314E-005          10     1820225           0
</event>
<event>
      6   9999  3.45752E-01  2.18482E+01 -1.00000E+00  1.57335E-01
      21    -1     0     0   501   502  0.000000000E+00  0.000000000E+00  1.281778978E+03  1.281778978E+03  0.000000000E+00  0.00000E+00  9.000E+00
       2    -1     0     0   502     0  0.000000000E+00  0.000000000E+00 -1.566306603E+03  1.566306603E+03  0.000000000E+00  0.00000E+00  9.000E+00
      25     1     1     2     0     0 -1.390540089E+01 -5.835478559E+00  6.825320116E+02  6.940490241E+02  1.250067518E+02  0.00000E+00  9.000E+00
       5     1     1     2   501     0 -4.732609325E+00 -4.049194975E+00  5.309756975E+02  5.310334711E+02  4.750000000E+00  0.00000E+00  9.000E+00
      -5     1     1     2     0   503  5.111555151E-02 -1.598845362E+00  6.230676367E+01  6.250803323E+01  4.750000000E+00  0.00000E+00  9.000E+00
       2     1     1     2   503     0  1.858689466E+01  1.148351890E+01 -1.560342098E+03  1.560495052E+03  2.157918644E-05  0.00000E+00  9.000E+00
#rwgt            1           9   5.6511842223970455E-004          10     1821905           0
</event>
<event>
      6   9999  3.45752E-01  4.27530E+01 -1.00000E+00  1.38530E-01
      21    -1     0     0   502   503  0.000000000E+00  0.000000000E+00  9.711859720E+01  9.711859720E+01  0.000000000E+00  0.00000E+00  9.000E+00
      21    -1     0     0   501   511  0.000000000E+00  0.000000000E+00 -1.850364657E+03  1.850364657E+03  0.000000000E+00  0.00000E+00  9.000E+00
      25     1     1     2     0     0 -3.338567911E+02  1.546339642E+02 -5.501046344E+02  6.735077961E+02  1.250024909E+02  0.00000E+00  9.000E+00
       5     1     1     2   501     0  2.051694958E+02 -1.104861572E+01 -5.028550095E+02  5.432332068E+02  4.750000000E+00  0.00000E+00  9.000E+00
      -5     1     1     2     0   503  8.633955514E+01 -1.377125866E+02 -6.016870362E+02  6.232729156E+02  4.750000000E+00  0.00000E+00  9.000E+00
      21     1     1     2   502   511  4.234774017E+01 -5.872761845E+00 -9.859937927E+01  1.074693353E+02  0.000000000E+00  0.00000E+00  9.000E+00
#rwgt            1           9   1.4184478665753389E-004          10     1822985           0
</event>
<event>
      6   9999  3.45752E-01  1.70243E+01 -1.00000E+00  1.65741E-01
      21    -1     0     0   512   502  0.000000000E+00  0.000000000E+00  9.075462062E+01  9.075462062E+01  0.000000000E+00  0.00000E+00  9.000E+00
      21    -1     0     0   502   503  0.000000000E+00  0.000000000E+00 -1.298801325E+03  1.298801325E+03  0.000000000E+00  0.00000E+00  9.000E+00
      25     1     1     2     0     0  2.360950818E+01 -5.507170317E+01 -9.411616508E+01  1.675546980E+02  1.250056916E+02  0.00000E+00  9.000E+00
       5     1     1     2   501     0 -4.513676896E+00 -2.476176878E+00  1.405170824E+01  1.570088327E+01  4.750000000E+00  0.00000E+00  9.000E+00
      -5     1     1     2     0   503 -3.549408492E+01  6.212202923E+01 -1.164134253E+03  1.166340472E+03  4.750000000E+00  0.00000E+00  9.000E+00
      21     1     1     2   512   501  1.639825364E+01 -4.574149180E+00  3.615200468E+01  3.995989246E+01  1.066240300E-06  0.00000E+00  9.000E+00
#rwgt            1           9   1.5768394978036535E-002          10     1824891           0
</event>
<event>
      6   9999  3.45752E-01  3.46966E+01 -1.00000E+00  1.43865E-01
      21    -1     0     0   502   503  0.000000000E+00  0.000000000E+00  2.739838316E+01  2.739838316E+01  0.000000000E+00  0.00000E+00  9.000E+00
      21    -1     0     0   511   502  0.000000000E+00  0.000000000E+00 -1.790482091E+03  1.790482091E+03  0.000000000E+00  0.00000E+00  9.000E+00
      25     1     1     2     0     0  3.117724189E+01 -7.226600942E+01 -1.963446255E+02  2.457035443E+02  1.249984927E+02  0.00000E+00  9.000E+00
       5     1     1     2   501     0 -5.100113553E+01  4.064181018E+01 -8.193893331E+02  8.219941084E+02  4.750000000E+00  0.00000E+00  9.000E+00
      -5     1     1     2     0   503 -4.268994278E+00  6.656545386E+00 -2.021030965E+01  2.221605331E+01  4.750000000E+00  0.00000E+00  9.000E+00
      21     1     1     2   511   501  2.409288792E+01  2.496765384E+01 -7.271394400E+02  7.279667686E+02  1.525878906E-05  0.00000E+00  9.000E+00
#rwgt            1           9   2.9345944444057991E-003          10     1827612           0
</event>
<event>
      6   9999  3.45752E-01  2.80602E+00 -1.00000E+00  2.84731E-01
      21    -1     0     0   512   502  0.000000000E+00  0.000000000E+00  3.287471766E+03  3.287471766E+03  0.000000000E+00  0.00000E+00  9.000E+00
      21    -1     0     0   502   503  0.000000000E+00  0.000000000E+00 -3.065846938E+00  3.065846938E+00  0.000000000E+00  0.00000E+00  9.000E+00
      25     1     1     2     0     0 -4.728352840E+01  1.840523052E+01  1.819029281E+03  1.824024978E+03  1.250004368E+02  0.00000E+00  9.000E+00
       5     1     1     2   501     0  1.034441291E+01 -1.155647235E+01  4.935446321E+02  4.938111231E+02  4.750000000E+00  0.00000E+00  9.000E+00
      -5     1     1     2     0   503  3.552527550E+01 -4.424961864E+00  7.664376608E+02  7.672880006E+02  4.750000000E+00  0.00000E+00  9.000E+00
      21     1     1     2   512   501  1.413839984E+00 -2.423796307E+00  2.053943446E+02  2.054135111E+02  0.000000000E+00  0.00000E+00  9.000E+00
#rwgt            1           9   1.9568248930249375               10     1828917           0
</event>
<event>
      6   9999 -3.45752E-01  3.15212E+01 -1.00000E+00  1.46462E-01
      21    -1     0     0   501   502  0.000000000E+00  0.000000000E+00  1.756503007E+01  1.756503007E+01  0.000000000E+00  0.00000E+00  9.000E+00
      21    -1     0     0   502   511  0.000000000E+00  0.000000000E+00 -2.141116963E+03  2.141116963E+03  0.000000000E+00  0.00000E+00  9.000E+00
      25     1     1     2     0     0 -5.263018331E+01 -4.575085334E+01 -5.398563449E+02  5.585086130E+02  1.249956832E+02  0.00000E+00  9.000E+00
       5     1     1     2   501     0 -8.110858406E+00  3.896154033E+00  3.232407315E+00  1.067600100E+01  4.750000000E+00  0.00000E+00  9.000E+00
      -5     1     1     2     0   503  2.979960608E+01  4.787268506E+01 -8.396022461E+02  8.415071626E+02  4.750000000E+00  0.00000E+00  9.000E+00
      21     1     1     2   503   511  3.094143563E+01 -6.017985750E+00 -7.473257494E+02  7.479902167E+02  1.078959322E-05  0.00000E+00  9.000E+00
#rwgt            1           9 -0.18940550760847497               10     1834919           0
</event>
<event>
      6   9999  3.45752E-01  6.91504E+00 -1.00000E+00  2.05817E-01
      21    -1     0     0   512   503  0.000000000E+00  0.000000000E+00  7.961699145E+01  7.961699145E+01  0.000000000E+00  0.00000E+00  9.000E+00
      21    -1     0     0   501   502  0.000000000E+00  0.000000000E+00 -7.824197098E+02  7.824197098E+02  0.000000000E+00  0.00000E+00  9.000E+00
      25     1     1     2     0     0 -2.681649781E+01  7.637909931E+00 -4.883125979E+02  5.048324213E+02  1.250164716E+02  0.00000E+00  9.000E+00
       5     1     1     2   501     0  1.064718485E+01 -1.252791280E+01 -1.841256493E+02  1.849192482E+02  4.750000000E+00  0.00000E+00  9.000E+00
      -5     1     1     2     0   503  9.599067559E+00  2.733697586E+00 -1.008536098E+02  1.014575198E+02  4.750000000E+00  0.00000E+00  9.000E+00
      21     1     1     2   512   502  6.570245401E+00  2.156305283E+00  7.048913864E+01  7.082751191E+01  1.907348633E-06  0.00000E+00  9.000E+00
#rwgt            1           9   1.3262985071718040E-004          10     1836247           0
</event>
<event>
      6   9999  3.45752E-01  9.47369E+00 -1.00000E+00  1.89701E-01
      21    -1     0     0   501   502  0.000000000E+00  0.000000000E+00  1.056848842E+01  1.056848842E+01  0.000000000E+00  0.00000E+00  9.000E+00
      21    -1     0     0   502   511  0.000000000E+00  0.000000000E+00 -9.510033153E+02  9.510033153E+02  0.000000000E+00  0.00000E+00  9.000E+00
      25     1     1     2     0     0 -6.593110611E+00  1.315454518E+01 -7.840134749E+02  7.940551465E+02  1.250197410E+02  0.00000E+00  9.000E+00
       5     1     1     2   501     0 -2.398639618E-01 -2.468327933E+00  1.135063092E+00  5.477321036E+00  4.750000000E+00  0.00000E+00  9.000E+00
      -5     1     1     2     0   503  1.176637304E+01 -1.877401137E+01 -6.194127704E+01  6.595601064E+01  4.750000000E+00  0.00000E+00  9.000E+00
      21     1     1     2   503   511 -4.933398468E+00  8.087794125E+00 -9.561513803E+01  9.608332558E+01  1.907348633E-06  0.00000E+00  9.000E+00
#rwgt            1           9   1.1428189691247531E-006          10     1838956           0
</event>
<event>
      6   9999 -3.45752E-01  1.74921E+01 -1.00000E+00  1.64783E-01
      21    -1     0     0   501   502  0.000000000E+00  0.000000000E+00  3.770274557E+01  3.770274557E+01  0.000000000E+00  0.00000E+00  9.000E+00
      21    -1     0     0   512   503  0.000000000E+00  0.000000000E+00 -1.317572249E+03  1.317572249E+03  0.000000000E+00  0.00000E+00  9.000E+00
      25     1     1     2     0     0 -9.976992534E+01  3.867382206E+01 -9.537242829E+02  9.678109464E+02  1.249732679E+02  0.00000E+00  9.000E+00
       5     1     1     2   501     0 -2.999756821E+00 -6.842080623E-01  9.103312466E+00  1.071911748E+01  4.750000000E+00  0.00000E+00  9.000E+00
      -5     1     1     2     0   503  9.740422014E+01 -5.463853579E+01 -1.329806590E+02  1.737221052E+02  4.750000000E+00  0.00000E+00  9.000E+00
      21     1     1     2   512   502  5.365462021E+00  1.664892179E+01 -2.022678736E+02  2.030228250E+02  2.697398305E-06  0.00000E+00  9.000E+00
#rwgt            1           9  -3.9344571695316749E-003          10     1841560           0
</event>
<event>
      6   9999  3.45752E-01  3.59446E+00 -1.00000E+00  2.57868E-01
      21    -1     0     0   501   502  0.000000000E+00  0.000000000E+00  3.581954466E+01  3.581954466E+01  0.000000000E+00  0.00000E+00  9.000E+00
      21    -1     0     0   511   503  0.000000000E+00  0.000000000E+00 -3.784430365E+02  3.784430365E+02  0.000000000E+00  0.00000E+00  9.000E+00
      25     1     1     2     0     0 -1.808008148E+01  2.662797397E+01 -2.016452731E+02  2.394203262E+02  1.250013524E+02  0.00000E+00  9.000E+00
       5     1     1     2   501     0 -8.973076921E-01 -7.314652363E-01  1.468974759E+01  1.548196973E+01  4.750000000E+00  0.00000E+00  9.000E+00
      -5     1     1     2     0   503  2.004212230E+01 -2.246336469E+01 -1.369353555E+02  1.402859349E+02  4.750000000E+00  0.00000E+00  9.000E+00
      21     1     1     2   511   502 -1.064733132E+00 -3.433144046E+00 -1.873261080E+01  1.907435037E+01  4.768371582E-07  0.00000E+00  9.000E+00
#rwgt            1           9   5.7904107453571789E-003          10     1843865           0
</event>
<event>
      6   9999  3.45752E-01  2.09741E+01 -1.00000E+00  1.58650E-01
      21    -1     0     0   512   502  0.000000000E+00  0.000000000E+00  1.493649451E+02  1.493649451E+02  0.000000000E+00  0.00000E+00  9.000E+00
      21    -1     0     0   502   503  0.000000000E+00  0.000000000E+00 -6.964930144E+02  6.964930144E+02  0.000000000E+00  0.00000E+00  9.000E+00
      25     1     1     2     0     0  9.354467572E+00 -8.365718315E+00 -5.225321452E+02  5.374213061E+02  1.249973048E+02  0.00000E+00  9.000E+00
       5     1     1     2   501     0  1.098077676E+01  1.773749376E+01 -1.122401756E+02  1.142611730E+02  4.750000000E+00  0.00000E+00  9.000E+00
      -5     1     1     2     0   503 -5.644338821E+00  5.597838444E+00 -5.207436109E+01  5.289135977E+01  4.750000000E+00  0.00000E+00  9.000E+00
      21     1     1     2   512   501 -1.469090551E+01 -1.496961389E+01  1.397186126E+02  1.412841206E+02  1.907348633E-06  0.00000E+00  9.000E+00
#rwgt            1           9   1.1740948418166562E-003          10     1849114           0
</event>
<event>
      6   9999  3.45752E-01  3.75058E+01 -1.00000E+00  1.41827E-01
      21    -1     0     0   511   502  0.000000000E+00  0.000000000E+00  5.133382853E+01  5.133382853E+01  0.000000000E+00  0.00000E+00  9.000E+00
      21    -1     0     0   502   503  0.000000000E+00  0.000000000E+00 -2.829335371E+03  2.829335371E+03  0.000000000E+00  0.00000E+00  9.000E+00
      25     1     1     2     0     0 -2.274892204E+01 -2.832512425E+01 -2.455922686E+03  2.459369849E+03  1.249959501E+02  0.00000E+00  9.000E+00
       5     1     1     2   501     0 -2.899930400E+00  3.908234100E+00  3.964859767E+01  4.022757372E+01  4.750000000E+00  0.00000E+00  9.000E+00
      -5     1     1     2     0   503 -9.170353806E+00  1.047738424E+01 -3.342600844E+02  3.345836779E+02  4.750000000E+00  0.00000E+00  9.000E+00
      21     1     1     2   511   501  3.481920624E+01  1.393950592E+01 -2.746736942E+01  4.648809881E+01  5.840038640E-07  0.00000E+00  9.000E+00
#rwgt            1           9   6.5234745612687460E-007          10     1850247           0
</event>
<event>
      6   9999  3.45752E-01  7.39934E+00 -1.00000E+00  2.02115E-01
      21    -1     0     0   501   512  0.000000000E+00  0.000000000E+00  1.494018038E+02  1.494018038E+02  0.000000000E+00  0.00000E+00  9.000E+00
      21    -1     0     0   502   503  0.000000000E+00  0.000000000E+00 -1.813950795E+03  1.813950795E+03  0.000000000E+00  0.00000E+00  9.000E+00
      25     1     1     2     0     0  6.654304110E+00  1.875905863E+00 -1.762115244E+03  1.766556715E+03  1.249987942E+02  0.00000E+00  9.000E+00
       5     1     1     2   501     0 -2.130677508E+00 -1.545093085E+00 -8.696351290E-02  5.431128974E+00  4.750000000E+00  0.00000E+00  9.000E+00
      -5     1     1     2     0   503 -2.902365371E+00 -7.550354296E+00 -4.629029380E+01  4.723119070E+01  4.750000000E+00  0.00000E+00  9.000E+00
      21     1     1     2   502   512 -1.621261232E+00  7.219541517E+00  1.439435096E+02  1.441335638E+02  1.907348633E-06  0.00000E+00  9.000E+00
#rwgt            1           9   9.2553672630817191E-006          10     1852006           0
</event>
<event>
      6   9999  3.45752E-01  2.56135E+01 -1.00000E+00  1.52420E-01
      21    -1     0     0   501   502  0.000000000E+00  0.000000000E+00  1.750215682E+02  1.750215682E+02  0.000000000E+00  0.00000E+00  9.000E+00
      21    -1     0     0   511   503  0.000000000E+00  0.000000000E+00 -4.403278046E+01  4.403278046E+01  0.000000000E+00  0.00000E+00  9.000E+00
      25     1     1     2     0     0  9.046771730E+00  1.668898361E+01  8.528342082E+01  1.525010615E+02  1.249917823E+02  0.00000E+00  9.000E+00
       5     1     1     2   501     0  1.638046823E+00  1.970242506E+00  2.601434436E+01  2.656828308E+01  4.750000000E+00  0.00000E+00  9.000E+00
      -5     1     1     2     0   503  7.667372329E+00 -7.916702159E-01  6.712424800E+00  1.127095767E+01  4.750000000E+00  0.00000E+00  9.000E+00
      21     1     1     2   511   502 -1.835219088E+01 -1.786755590E+01  1.297859779E+01  2.871404647E+01  2.384185791E-07  0.00000E+00  9.000E+00
#rwgt            1           9   7.2969574310063623E-002          10     1855267           0
</event>
<event>
      6   9999  3.45752E-01  2.47031E+01 -1.00000E+00  1.53511E-01
      21    -1     0     0   501   502  0.000000000E+00  0.000000000E+00  2.399513885E+01  2.399513885E+01  0.000000000E+00  0.00000E+00  9.000E+00
      21    -1     0     0   512   503  0.000000000E+00  0.000000000E+00 -5.677366075E+02  5.677366075E+02  0.000000000E+00  0.00000E+00  9.000E+00
      25     1     1     2     0     0 -3.489959634E+01  1.614273983E+01 -4.530564367E+02  4.715574915E+02  1.250110518E+02  0.00000E+00  9.000E+00
       5     1     1     2   501     0  3.306671526E+01  9.790395039E+00 -1.363840640E+01  3.738753967E+01  4.750000000E+00  0.00000E+00  9.000E+00
      -5     1     1     2     0   503 -9.160469351E-01 -1.383478866E+00 -7.964844452E+00  9.420955520E+00  4.750000000E+00  0.00000E+00  9.000E+00
      21     1     1     2   512   502  2.748928016E+00 -2.454965600E+01 -6.908178114E+01  7.336575973E+01  1.348699152E-06  0.00000E+00  9.000E+00
#rwgt            1           9   3.7550321560915526E-003          10     1856157           0
</event>
<event>
      6   9999  3.45752E-01  2.53587E+01 -1.00000E+00  1.52720E-01
      21    -1     0     0   511   503  0.000000000E+00  0.000000000E+00  1.412814049E+02  1.412814049E+02  0.000000000E+00  0.00000E+00  9.000E+00
      21    -1     0     0   501   502  0.000000000E+00  0.000000000E+00 -1.655422275E+03  1.655422275E+03  0.000000000E+00  0.00000E+00  9.000E+00
      25     1     1     2     0     0 -1.926089770E+02 -1.685067238E+02 -6.365310721E+02  6.973459194E+02  1.250071662E+02  0.00000E+00  9.000E+00
       5     1     1     2   501     0 -5.429664088E+01 -3.450847668E+01 -5.228442357E+02  5.268089004E+02  4.750000000E+00  0.00000E+00  9.000E+00
      -5     1     1     2     0   503  2.608672574E+02  2.241844075E+02 -3.957474203E+02  5.243557549E+02  4.750000000E+00  0.00000E+00  9.000E+00
      21     1     1     2   511   502 -1.396163957E+01 -2.116920709E+01  4.098185792E+01  4.819310517E+01  2.236564522E-06  0.00000E+00  9.000E+00
#rwgt            1           9   1.5119477918198411E-003          10     1857481           0
</event>
<event>
      6   9999  3.45752E-01  3.26088E+02 -1.00000E+00  1.02021E-01
      21    -1     0     0   512   502  0.000000000E+00  0.000000000E+00  1.593573996E+02  1.593573996E+02  0.000000000E+00  0.00000E+00  9.000E+00
       1    -1     0     0   501     0  0.000000000E+00  0.000000000E+00 -8.622752350E+02  8.622752350E+02  0.000000000E+00  0.00000E+00  9.000E+00
      25     1     1     2     0     0  1.965399210E+02 -4.285481333E+01 -9.353506291E+01  2.546346642E+02  1.250021146E+02  0.00000E+00  9.000E+00
       5     1     1     2   501     0  9.994363752E+01 -6.327663452E+01 -1.113242458E+02  1.625063487E+02  4.750000000E+00  0.00000E+00  9.000E+00
      -5     1     1     2     0   502  1.144968839E+01 -1.156695081E+00 -5.129961845E+00  1.346522619E+01  4.750000000E+00  0.00000E+00  9.000E+00
       1     1     1     2   512     0 -3.079332469E+02  1.072881429E+02 -4.929285648E+02  5.910263955E+02  0.000000000E+00  0.00000E+00  9.000E+00
#rwgt            1           1   7.2889900008756637E-007          10     1860218           0
</event>
<event>
      6   9999  3.45752E-01  5.82212E+00 -1.00000E+00  2.15895E-01
      21    -1     0     0   511   502  0.000000000E+00  0.000000000E+00  1.091942507E+02  1.091942507E+02  0.000000000E+00  0.00000E+00  9.000E+00
      21    -1     0     0   502   503  0.000000000E+00  0.000000000E+00 -1.370241671E+02  1.370241671E+02  0.000000000E+00  0.00000E+00  9.000E+00
      25     1     1     2     0     0 -3.655354497E+00 -1.537335098E+01 -7.762706916E+01  1.479906196E+02  1.250022403E+02  0.00000E+00  9.000E+00
       5     1     1     2   501     0 -2.281853045E+00  1.412239517E+00  2.576924331E+01  2.634041903E+01  4.750000000E+00  0.00000E+00  9.000E+00
      -5     1     1     2     0   503  4.130509874E+00  1.949580984E+01 -1.931431160E+01  2.815586698E+01  4.750000000E+00  0.00000E+00  9.000E+00
      21     1     1     2   511   501  1.806697668E+00 -5.534698383E+00  4.334222100E+01  4.373151225E+01  8.259061849E-07  0.00000E+00  9.000E+00
#rwgt            1           9  0.44747772904032485               10     1860657           0
</event>
<event>
      6   9999  3.45752E-01  8.62215E+00 -1.00000E+00  1.94241E-01
      -2    -1     0     0     0   502  0.000000000E+00  0.000000000E+00  2.584620737E+02  2.584620737E+02  0.000000000E+00  0.00000E+00  9.000E+00
      21    -1     0     0   502   503  0.000000000E+00  0.000000000E+00 -1.080125840E+03  1.080125840E+03  0.000000000E+00  0.00000E+00  9.000E+00
      25     1     1     2     0     0  8.798704840E+00 -5.992659256E+00 -4.363121904E+02  4.539903502E+02  1.250023259E+02  0.00000E+00  9.000E+00
       5     1     1     2   501     0 -4.644093268E+00 -3.538105496E+00  1.665700148E+01  1.827851173E+01  4.750000000E+00  0.00000E+00  9.000E+00
      -5     1     1     2     0   503 -1.089803902E+01  1.490363084E+01 -6.339404132E+02  6.342270062E+02  4.750000000E+00  0.00000E+00  9.000E+00
      -2     1     1     2     0   501  6.743427446E+00 -5.372866092E+00  2.319318354E+02  2.320920459E+02  3.814697266E-06  0.00000E+00  9.000E+00
#rwgt            1           9   3.3494105009102427E-004          10     1864671           0
</event>
<event>
      6   9999  3.45752E-01  1.76813E+01 -1.00000E+00  1.64406E-01
      21    -1     0     0   501   502  0.000000000E+00  0.000000000E+00  1.133428785E+01  1.133428785E+01  0.000000000E+00  0.00000E+00  9.000E+00
       1    -1     0     0   502     0  0.000000000E+00  0.000000000E+00 -1.347373014E+03  1.347373014E+03  0.000000000E+00  0.00000E+00  9.000E+00
      25     1     1     2     0     0 -3.065841273E+01 -1.507043212E+00 -6.987728751E+02  7.105281557E+02  1.249980784E+02  0.00000E+00  9.000E+00
       5     1     1     2   501     0  4.373504365E+00 -1.497393847E+00  7.260418934E-02  6.628536802E+00  4.750000000E+00  0.00000E+00  9.000E+00
      -5     1     1     2     0   503  1.212319440E+01  1.359090768E+01 -4.287514499E+01  4.682440787E+01  4.750000000E+00  0.00000E+00  9.000E+00
       1     1     1     2   503     0  1.416171396E+01 -1.058647062E+01 -5.944633107E+02  5.947262019E+02  7.629394531E-06  0.00000E+00  9.000E+00
#rwgt            1           9   3.4816807803001303E-002          10     1868536           0
</event>
<event>
      6   9999 -3.45752E-01  6.39959E+00 -1.00000E+00  2.10230E-01
      21    -1     0     0   501   502  0.000000000E+00  0.000000000E+00  2.707318713E+01  2.707318713E+01  0.000000000E+00  0.00000E+00  9.000E+00
      21    -1     0     0   511   503  0.000000000E+00  0.000000000E+00 -1.204414456E+03  1.204414456E+03  0.000000000E+00  0.00000E+00  9.000E+00
      25     1     1     2     0     0 -4.452739525E+00 -2.485693776E+00 -1.013034837E+03  1.020731033E+03  1.250050156E+02  0.00000E+00  9.000E+00
       5     1     1     2   501     0  6.703423621E+00  1.749119765E+00  2.214708671E+01  2.368652060E+01  4.750000000E+00  0.00000E+00  9.000E+00
      -5     1     1     2     0   503 -7.875322626E-01 -5.493513000E+00 -5.814388234E+01  5.860095942E+01  4.750000000E+00  0.00000E+00  9.000E+00
      21     1     1     2   511   502 -1.463151833E+00  6.230087011E+00 -1.283096355E+02  1.284691300E+02  1.907348633E-06  0.00000E+00  9.000E+00
#rwgt            1           9  -6.5604244893003596E-004          10     1870031           0
</event>
<event>
      6   9999  3.45752E-01  1.81011E+01 -1.00000E+00  1.63589E-01
      21    -1     0     0   501   502  0.000000000E+00  0.000000000E+00  3.787207444E+01  3.787207444E+01  0.000000000E+00  0.00000E+00  9.000E+00
      21    -1     0     0   502   512  0.000000000E+00  0.000000000E+00 -1.521411102E+03  1.521411102E+03  0.000000000E+00  0.00000E+00  9.000E+00
      25     1     1     2     0     0 -5.954780191E+01  4.386198569E+01 -4.761546946E+02  4.978124602E+02  1.249965515E+02  0.00000E+00  9.000E+00
       5     1     1     2   501     0 -3.241600641E-01  1.953996840E+00  2.338875083E+01  2.394826400E+01  4.750000000E+00  0.00000E+00  9.000E+00
      -5     1     1     2     0   503  7.688281005E+01 -5.200316286E+01 -6.850459094E+02  6.913217456E+02  4.750000000E+00  0.00000E+00  9.000E+00
      21     1     1     2   503   512 -1.701084807E+01  6.187180326E+00 -3.457271744E+02  3.462007066E+02  3.814697266E-06  0.00000E+00  9.000E+00
#rwgt            1           9   1.0805674959480449E-003          10     1874338           0
</event>
<event>
      6   9999  3.45752E-01  2.41913E+01 -1.00000E+00  1.54149E-01
      21    -1     0     0   511   502  0.000000000E+00  0.000000000E+00  9.080043620E+01  9.080043620E+01  0.000000000E+00  0.00000E+00  9.000E+00
      21    -1     0     0   502   503  0.000000000E+00  0.000000000E+00 -8.641347721E+02  8.641347721E+02  0.000000000E+00  0.00000E+00  9.000E+00
      25     1     1     2     0     0 -5.174573673E+00 -1.804144222E+01 -8.154630123E+02  8.252004958E+02  1.249946564E+02  0.00000E+00  9.000E+00
       5     1     1     2   501     0  1.859127137E+00 -7.965140336E+00  7.966036001E+00  1.236608442E+01  4.750000000E+00  0.00000E+00  9.000E+00
      -5     1     1     2     0   503  4.975248118E-01  1.979980862E+00 -3.949921141E+01  3.983614009E+01  4.750000000E+00  0.00000E+00  9.000E+00
      21     1     1     2   511   501  2.817921725E+00  2.402660170E+01  7.366185180E+01  7.753248792E+01  2.523185073E-06  0.00000E+00  9.000E+00
#rwgt            1           9   2.3129347036100973E-003          10     1876854           0
</event>
<event>
      6   9999 -3.45752E-01  1.00734E+01 -1.00000E+00  1.86860E-01
      21    -1     0     0   501   512  0.000000000E+00  0.000000000E+00  7.932971390E+01  7.932971390E+01  0.000000000E+00  0.00000E+00  9.000E+00
      21    -1     0     0   502   503  0.000000000E+00  0.000000000E+00 -7.462095210E+02  7.462095210E+02  0.000000000E+00  0.00000E+00  9.000E+00
      25     1     1     2     0     0 -7.872262110E-02  7.783390107E+00 -6.392526295E+02  6.514061121E+02  1.250016448E+02  0.00000E+00  9.000E+00
       5     1     1     2   501     0  8.960437739E-01  7.415482488E-01 -1.069766629E+00  5.005965331E+00  4.750000000E+00  0.00000E+00  9.000E+00
      -5     1     1     2     0   503  9.029288088E+00 -6.399321980E+00 -9.711258155E+01  9.785650393E+01  4.750000000E+00  0.00000E+00  9.000E+00
      21     1     1     2   502   512 -9.846609241E+00 -2.125616376E+00  7.055517059E+01  7.127065353E+01  1.348699152E-06  0.00000E+00  9.000E+00
#rwgt            1           9  -1.1268356242878878E-004          10     1878212           0
</event>
<event>
      6   9999  3.45752E-01  1.51171E+01 -1.00000E+00  1.70079E-01
      21    -1     0     0   511   503  0.000000000E+00  0.000000000E+00  3.183129955E+01  3.183129955E+01  0.000000000E+00  0.00000E+00  9.000E+00
      21    -1     0     0   501   502  0.000000000E+00  0.000000000E+00 -2.295678641E+02  2.295678641E+02  0.000000000E+00  0.00000E+00  9.000E+00
      25     1     1     2     0     0 -9.157268729E+00  7.805705419E+00 -1.906727501E+02  2.283122872E+02  1.250024730E+02  0.00000E+00  9.000E+00
       5     1     1     2   501     0 -8.501233018E-01 -1.238718242E-01  7.073226988E-01  4.878612432E+00  4.750000000E+00  0.00000E+00  9.000E+00
      -5     1     1     2     0   503 -4.993189082E+00 -9.554768997E+00 -1.636813157E+00  1.189399870E+01  4.750000000E+00  0.00000E+00  9.000E+00
      21     1     1     2   511   502  1.500058111E+01  1.872935402E+00 -6.134323930E+00  1.631426525E+01  2.230201594E-07  0.00000E+00  9.000E+00
#rwgt            1           9   2.3009324848571235E-004          10     1880387           0
</event>
<event>
      6   9999  3.45752E-01  7.42755E+00 -1.00000E+00  2.01911E-01
      21    -1     0     0   512   502  0.000000000E+00  0.000000000E+00  8.009366557E+00  8.009366557E+00  0.000000000E+00  0.00000E+00  9.000E+00
      21    -1     0     0   502   503  0.000000000E+00  0.000000000E+00 -6.772699396E+02  6.772699396E+02  0.000000000E+00  0.00000E+00  9.000E+00
      25     1     1     2     0     0 -4.026269021E+00  1.386501120E+01 -5.876335506E+02  6.009549402E+02  1.250008040E+02  0.00000E+00  9.000E+00
       5     1     1     2   501     0 -4.788708629E-01 -4.125613166E+00 -2.385987012E+01  2.468007098E+01  4.750000000E+00  0.00000E+00  9.000E+00
      -5     1     1     2     0   503 -6.027018489E-03 -3.838737197E+00 -3.874634928E+01  3.922471188E+01  4.750000000E+00  0.00000E+00  9.000E+00
      21     1     1     2   512   501  4.511166902E+00 -5.900660837E+00 -1.902080309E+01  2.041958313E+01  2.384185791E-07  0.00000E+00  9.000E+00
#rwgt            1           9   2.9978582871830861               10     1881858           0
</event>
<event>
      6   9999  3.45752E-01  4.38656E+01 -1.00000E+00  1.37901E-01
      21    -1     0     0   511   503  0.000000000E+00  0.000000000E+00  4.015603555E+02  4.015603555E+02  0.000000000E+00  0.00000E+00  9.000E+00
      21    -1     0     0   501   502  0.000000000E+00  0.000000000E+00 -1.227029673E+02  1.227029673E+02  0.000000000E+00  0.00000E+00  9.000E+00
      25     1     1     2     0     0  5.757180361E+01  4.902276175E+01 -5.370840965E+01  1.556444322E+02  1.249914088E+02  0.00000E+00  9.000E+00
       5     1     1     2   501     0  1.287980039E+00  4.582135273E+00 -8.512347831E+00  1.084792247E+01  4.750000000E+00  0.00000E+00  9.000E+00
      -5     1     1     2     0   503 -3.327716720E+01 -1.797171946E+01  4.735276240E+01  6.078814986E+01  4.750000000E+00  0.00000E+00  9.000E+00
      21     1     1     2   511   502 -2.558261645E+01 -3.563317756E+01  2.937253832E+02  2.969828183E+02  5.394796609E-06  0.00000E+00  9.000E+00
#rwgt            1           9   1.5448218202208848               10     1884453           0
</event>
<event>
      6   9999  3.45752E-01  6.71790E+00 -1.00000E+00  2.07442E-01
      21    -1     0     0   501   502  0.000000000E+00  0.000000000E+00  1.084746258E+03  1.084746258E+03  0.000000000E+00  0.00000E+00  9.000E+00
      21    -1     0     0   512   503  0.000000000E+00  0.000000000E+00 -1.057176643E+01  1.057176643E+01  0.000000000E+00  0.00000E+00  9.000E+00
      25     1     1     2     0     0  3.303674128E+01  2.092269706E+00  9.284092219E+02  9.373707964E+02  1.249980905E+02  0.00000E+00  9.000E+00
       5     1     1     2   501     0  2.255217162E-01  4.067980888E-02  6.828245618E+01  6.844785487E+01  4.750000000E+00  0.00000E+00  9.000E+00
      -5     1     1     2     0   503 -3.322187274E+01  4.584824199E+00  4.496566643E+01  5.629553356E+01  4.750000000E+00  0.00000E+00  9.000E+00
      21     1     1     2   512   502 -4.039025400E-02 -6.717773713E+00  3.251714676E+01  3.320383936E+01  0.000000000E+00  0.00000E+00  9.000E+00
#rwgt            1           9   9.2580853063545694E-003          10     1885469           0
</event>
<event>
      6   9999 -3.45752E-01  1.41439E+01 -1.00000E+00  1.72613E-01
      21    -1     0     0   501   502  0.000000000E+00  0.000000000E+00  3.128171208E+01  3.128171208E+01  0.000000000E+00  0.00000E+00  9.000E+00
      21    -1     0     0   511   503  0.000000000E+00  0.000000000E+00 -1.674352824E+03  1.674352824E+03  0.000000000E+00  0.00000E+00  9.000E+00
      25     1     1     2     0     0  1.627200095E+01 -2.051627069E+01 -1.090471620E+03  1.097924237E+03  1.249943204E+02  0.00000E+00  9.000E+00
       5     1     1     2   501     0 -4.810363792E+00 -2.036268678E+00  2.623327389E+01  2.716676552E+01  4.750000000E+00  0.00000E+00  9.000E+00
      -5     1     1     2     0   503 -4.430235386E+00  1.028023150E+01 -4.780311242E+01  4.932555324E+01  4.750000000E+00  0.00000E+00  9.000E+00
      21     1     1     2   511   502 -7.031401768E+00  1.227230787E+01 -5.310296533E+02  5.312179805E+02  7.629394531E-06  0.00000E+00  9.000E+00
#rwgt            1           9  -4.4594417582448231E-006          10     1888930           0
</event>
<event>
      6   9999  3.45752E-01  2.31188E+01 -1.00000E+00  1.55551E-01
      21    -1     0     0   501   502  0.000000000E+00  0.000000000E+00  1.094235390E+02  1.094235390E+02  0.000000000E+00  0.00000E+00  9.000E+00
      21    -1     0     0   512   503  0.000000000E+00  0.000000000E+00 -5.528085132E+02  5.528085132E+02  0.000000000E+00  0.00000E+00  9.000E+00
      25     1     1     2     0     0 -1.681902197E+02 -5.943447901E+01 -8.152776672E+01  2.325780181E+02  1.250014018E+02  0.00000E+00  9.000E+00
       5     1     1     2   501     0 -6.639486504E-01 -2.530899139E-01  8.616624245E+00  9.864765364E+00  4.750000000E+00  0.00000E+00  9.000E+00
      -5     1     1     2     0   503  1.552757817E+02  4.097645999E+01 -2.504014528E+02  2.975114934E+02  4.750000000E+00  0.00000E+00  9.000E+00
      21     1     1     2   512   502  1.357838664E+01  1.871110894E+01 -1.200723789E+02  1.222777754E+02  1.348699152E-06  0.00000E+00  9.000E+00
#rwgt            1           9   6.8464609598573339E-002          10     1891727           0
</event>
<event>
      6   9999  3.45752E-01  1.46594E+01 -1.00000E+00  1.71240E-01
      21    -1     0     0   501   511  0.000000000E+00  0.000000000E+00  5.389774969E+01  5.389774969E+01  0.000000000E+00  0.00000E+00  9.000E+00
      21    -1     0     0   502   503  0.000000000E+00  0.000000000E+00 -1.225630227E+02  1.225630227E+02  0.000000000E+00  0.00000E+00  9.000E+00
      25     1     1     2     0     0  8.003492181E+00 -5.843236292E+00 -7.516370977E+01  1.461955587E+02  1.250014353E+02  0.00000E+00  9.000E+00
       5     1     1     2   501     0  5.830769575E-01 -2.177432136E-01  1.586952570E+00  5.046613647E+00  4.750000000E+00  0.00000E+00  9.000E+00
      -5     1     1     2     0   503  1.958713735E+00 -4.122100682E+00 -4.335975255E+00  7.886155904E+00  4.750000000E+00  0.00000E+00  9.000E+00
      21     1     1     2   502   511 -1.054528287E+01  1.018308019E+01  9.247459440E+00  1.733244412E+01  1.685873940E-07  0.00000E+00  9.000E+00
#rwgt            1           9  0.12762343910613769               10     1894063           0
</event>
<event>
      6   9999  3.45752E-01  9.73320E+00 -1.00000E+00  1.88439E-01
      21    -1     0     0   502   503  0.000000000E+00  0.000000000E+00  3.878419381E+02  3.878419381E+02  0.000000000E+00  0.00000E+00  9.000E+00
      21    -1     0     0   512   502  0.000000000E+00  0.000000000E+00 -1.534632158E+01  1.534632158E+01  0.000000000E+00  0.00000E+00  9.000E+00
      25     1     1     2     0     0  5.220667354E+00  4.129374189E+00  2.695315358E+02  2.971805700E+02  1.249989413E+02  0.00000E+00  9.000E+00
       5     1     1     2   501     0  5.296010530E-01 -1.431535006E-01  4.287121720E+01  4.313704597E+01  4.750000000E+00  0.00000E+00  9.000E+00
      -5     1     1     2     0   503  3.735109382E+00 -1.803831978E+00  4.055761177E+01  4.104494152E+01  4.750000000E+00  0.00000E+00  9.000E+00
      21     1     1     2   512   501 -9.485377788E+00 -2.182388710E+00  1.953525172E+01  2.182570210E+01  0.000000000E+00  0.00000E+00  9.000E+00
#rwgt            1           9   8.1821751274369511E-002          10     1895686           0
</event>
<event>
      6   9999  3.45752E-01  7.84487E+00 -1.00000E+00  1.99027E-01
      21    -1     0     0   501   502  0.000000000E+00  0.000000000E+00  5.623579447E+00  5.623579447E+00  0.000000000E+00  0.00000E+00  9.000E+00
      21    -1     0     0   511   503  0.000000000E+00  0.000000000E+00 -1.325876299E+03  1.325876299E+03  0.000000000E+00  0.00000E+00  9.000E+00
      25     1     1     2     0     0  6.339992443E+00  1.123025664E+00 -1.072949074E+03  1.080225472E+03  1.250035930E+02  0.00000E+00  9.000E+00
       5     1     1     2   501     0  1.620990985E-01 -7.839550653E-01 -1.719209501E+00  5.114591183E+00  4.750000000E+00  0.00000E+00  9.000E+00
      -5     1     1     2     0   503  1.342671673E+00 -2.988512354E-01 -1.854392821E+02  1.855052073E+02  4.750000000E+00  0.00000E+00  9.000E+00
      21     1     1     2   511   502 -7.844763215E+00 -4.021936374E-02 -6.014515446E+01  6.065460850E+01  0.000000000E+00  0.00000E+00  9.000E+00
#rwgt            1           9   9.3723233520573698E-005          10     1897919           0
</event>
<event>
      6   9999  3.45752E-01  1.20407E+01 -1.00000E+00  1.79080E-01
      21    -1     0     0   501   502  0.000000000E+00  0.000000000E+00  9.266125063E+00  9.266125063E+00  0.000000000E+00  0.00000E+00  9.000E+00
       2    -1     0     0   502     0  0.000000000E+00  0.000000000E+00 -1.438755082E+03  1.438755082E+03  0.000000000E+00  0.00000E+00  9.000E+00
      25     1     1     2     0     0  7.252897881E+00  1.259487235E+01 -6.664435131E+02  6.782201447E+02  1.249974924E+02  0.00000E+00  9.000E+00
       5     1     1     2   501     0  2.284415993E+00  2.631748945E-01  9.607560124E-01  5.364081428E+00  4.750000000E+00  0.00000E+00  9.000E+00
      -5     1     1     2     0   503  3.931882558E-01 -6.049022679E+00 -9.165298653E+01  9.197596269E+01  4.750000000E+00  0.00000E+00  9.000E+00
       2     1     1     2   503     0 -9.930502129E+00 -6.809024569E+00 -6.723532135E+02  6.724610185E+02  7.629394531E-06  0.00000E+00  9.000E+00
#rwgt            1           9   6.9583656684975401E-004          10     1900583           0
</event>
<event>
      6   9999  3.45752E-01  4.63418E+01 -1.00000E+00  1.36577E-01
      21    -1     0     0   501   502  0.000000000E+00  0.000000000E+00  3.980000779E+01  3.980000779E+01  0.000000000E+00  0.00000E+00  9.000E+00
      21    -1     0     0   511   503  0.000000000E+00  0.000000000E+00 -1.423447250E+03  1.423447250E+03  0.000000000E+00  0.00000E+00  9.000E+00
      25     1     1     2     0     0 -8.729180062E+01  8.172871569E+01 -7.658677238E+02  7.851594063E+02  1.249899258E+02  0.00000E+00  9.000E+00
       5     1     1     2   501     0 -6.248752754E+00  1.266962377E+01  2.089552581E+01  2.566616014E+01  4.750000000E+00  0.00000E+00  9.000E+00
      -5     1     1     2     0   503  5.988197134E+01 -6.254459236E+01 -4.313065588E+02  4.399381624E+02  4.750000000E+00  0.00000E+00  9.000E+00
      21     1     1     2   511   502  3.365858203E+01 -3.185374709E+01 -2.073684858E+02  2.124835294E+02  3.814697266E-06  0.00000E+00  9.000E+00
#rwgt            1           9   1.1648826653914404E-004          10     1902576           0
</event>
<event>
      6   9999  3.45752E-01  7.08212E+00 -1.00000E+00  2.04495E-01
      21    -1     0     0   501   502  0.000000000E+00  0.000000000E+00  1.595299652E+01  1.595299652E+01  0.000000000E+00  0.00000E+00  9.000E+00
      21    -1     0     0   512   503  0.000000000E+00  0.000000000E+00 -1.271725926E+03  1.271725926E+03  0.000000000E+00  0.00000E+00  9.000E+00
      25     1     1     2     0     0 -7.057954968E+00 -9.091938919E+00 -7.125073118E+02  7.234808025E+02  1.250012964E+02  0.00000E+00  9.000E+00
       5     1     1     2   501     0  7.123029828E-02  3.721491896E-01  9.718188362E+00  1.082355089E+01  4.750000000E+00  0.00000E+00  9.000E+00
      -5     1     1     2     0   503 -9.102664721E-02  8.968566563E+00 -1.571383382E+02  1.574657527E+02  4.750000000E+00  0.00000E+00  9.000E+00
      21     1     1     2   512   502  7.077751317E+00 -2.487768338E-01 -3.958454680E+02  3.959088165E+02  0.000000000E+00  0.00000E+00  9.000E+00
#rwgt            1           9   6.5148161008194534E-004          10     1903660           0
</event>
<event>
      6   9999  3.45752E-01  9.84297E+00 -1.00000E+00  1.87921E-01
      21    -1     0     0   511   503  0.000000000E+00  0.000000000E+00  2.507473284E+01  2.507473284E+01  0.000000000E+00  0.00000E+00  9.000E+00
      21    -1     0     0   501   502  0.000000000E+00  0.000000000E+00 -1.296290512E+03  1.296290512E+03  0.000000000E+00  0.00000E+00  9.000E+00
      25     1     1     2     0     0  1.181558863E+02 -7.142422226E+01 -7.826241934E+02  8.044770160E+02  1.249816317E+02  0.00000E+00  9.000E+00
       5     1     1     2   501     0 -1.921235233E+01  3.757769439E+01 -1.031921439E+02  1.115902265E+02  4.750000000E+00  0.00000E+00  9.000E+00
      -5     1     1     2     0   503 -1.056511770E+02  4.105010852E+01 -3.701784433E+02  3.871716996E+02  4.750000000E+00  0.00000E+00  9.000E+00
      21     1     1     2   511   502  6.707643019E+00 -7.203580646E+00 -1.522099854E+01  1.812630259E+01  3.371747881E-07  0.00000E+00  9.000E+00
#rwgt            1           9   1.3855548447942222E-003          10     1907261           0
</event>
<event>
      6   9999  3.45752E-01  9.17433E+00 -1.00000E+00  1.91224E-01
      21    -1     0     0   501   502  0.000000000E+00  0.000000000E+00  6.695326844E+00  6.695326844E+00  0.000000000E+00  0.00000E+00  9.000E+00
      21    -1     0     0   512   503  0.000000000E+00  0.000000000E+00 -1.441868222E+03  1.441868222E+03  0.000000000E+00  0.00000E+00  9.000E+00
      25     1     1     2     0     0  1.116121271E+01 -2.437897304E+00 -7.206098431E+02  7.314602192E+02  1.249999609E+02  0.00000E+00  9.000E+00
       5     1     1     2   501     0  9.212438412E-01  4.546855372E-01 -4.182099583E+00  6.411543190E+00  4.750000000E+00  0.00000E+00  9.000E+00
      -5     1     1     2     0   503 -3.042052190E+00  4.213440881E-01 -6.500418489E+01  6.524981353E+01  4.750000000E+00  0.00000E+00  9.000E+00
      21     1     1     2   512   502 -9.040404362E+00  1.561867678E+00 -6.453767673E+02  6.454419727E+02  7.629394531E-06  0.00000E+00  9.000E+00
#rwgt            1           9   2.3535442283916467E-002          10     1910808           0
</event>
<event>
      6   9999  3.45752E-01  1.86117E+01 -1.00000E+00  1.62632E-01
      21    -1     0     0   501   502  0.000000000E+00  0.000000000E+00  3.736162919E+01  3.736162919E+01  0.000000000E+00  0.00000E+00  9.000E+00
      21    -1     0     0   511   503  0.000000000E+00  0.000000000E+00 -1.166303273E+03  1.166303273E+03  0.000000000E+00  0.00000E+00  9.000E+00
      25     1     1     2     0     0  1.687979001E+01 -8.294805333E+00 -9.220869625E+02  9.307109098E+02  1.249988009E+02  0.00000E+00  9.000E+00
       5     1     1     2   501     0 -8.310709223E-02 -9.908456156E+00  3.036129872E+01  3.228862602E+01  4.750000000E+00  0.00000E+00  9.000E+00
      -5     1     1     2     0   503 -6.542848655E-01  8.939478733E+00 -1.841685123E+02  1.844476776E+02  4.750000000E+00  0.00000E+00  9.000E+00
      21     1     1     2   511   502 -1.614239806E+01  9.263782757E+00 -5.304746780E+01  5.621768872E+01  6.743495762E-07  0.00000E+00  9.000E+00
#rwgt            1           9   1.0493803070116922E-002          10     1913232           0
</event>
<event>
      6   9999  3.45752E-01  8.02453E+00 -1.00000E+00  1.97858E-01
      21    -1     0     0   501   502  0.000000000E+00  0.000000000E+00  6.820580775E+01  6.820580775E+01  0.000000000E+00  0.00000E+00  9.000E+00
      21    -1     0     0   502   512  0.000000000E+00  0.000000000E+00 -1.802813048E+03  1.802813048E+03  0.000000000E+00  0.00000E+00  9.000E+00
      25     1     1     2     0     0 -6.162600118E+00  3.316632851E+01 -1.131702103E+03  1.139087296E+03  1.250289338E+02  0.00000E+00  9.000E+00
       5     1     1     2   501     0  4.628453465E+00 -6.000022309E+00  6.388505760E+01  6.450802999E+01  4.750000000E+00  0.00000E+00  9.000E+00
      -5     1     1     2     0   503  6.915810964E-01 -1.918613256E+01 -3.731888455E+02  3.737125405E+02  4.750000000E+00  0.00000E+00  9.000E+00
      21     1     1     2   503   512  8.425655574E-01 -7.980173644E+00 -2.936013495E+02  2.937109898E+02  0.000000000E+00  0.00000E+00  9.000E+00
#rwgt            1           9   2.1828510756208903               10     1915590           0
</event>
<event>
      6   9999  3.45752E-01  9.82765E+00 -1.00000E+00  1.87992E-01
      21    -1     0     0   501   502  0.000000000E+00  0.000000000E+00  2.297846290E+01  2.297846290E+01  0.000000000E+00  0.00000E+00  9.000E+00
      21    -1     0     0   502   511  0.000000000E+00  0.000000000E+00 -1.196208668E+03  1.196208668E+03  0.000000000E+00  0.00000E+00  9.000E+00
      25     1     1     2     0     0 -3.052283579E+01  2.421695497E+01 -6.632378807E+02  6.760389699E+02  1.250043919E+02  0.00000E+00  9.000E+00
       5     1     1     2   501     0  5.800286267E-01 -1.622949996E+00  1.548976843E+01  1.629312204E+01  4.750000000E+00  0.00000E+00  9.000E+00
      -5     1     1     2     0   503  2.252016630E+01 -1.615295559E+01 -3.754983001E+02  3.765496139E+02  4.750000000E+00  0.00000E+00  9.000E+00
      21     1     1     2   503   511  7.422640867E+00 -6.441049388E+00 -1.499837924E+02  1.503054247E+02  2.697398305E-06  0.00000E+00  9.000E+00
#rwgt            1           9   6.3344578982207786E-002          10     1920951           0
</event>
<event>
      6   9999  3.45752E-01  3.46033E+01 -1.00000E+00  1.43936E-01
      21    -1     0     0   501   502  0.000000000E+00  0.000000000E+00  6.223506034E+01  6.223506034E+01  0.000000000E+00  0.00000E+00  9.000E+00
       2    -1     0     0   502     0  0.000000000E+00  0.000000000E+00 -4.155199384E+03  4.155199384E+03  0.000000000E+00  0.00000E+00  9.000E+00
      25     1     1     2     0     0  1.516224848E+01 -9.552728359E+01 -7.461476383E+02  7.627040322E+02  1.250031475E+02  0.00000E+00  9.000E+00
       5     1     1     2   501     0 -2.860075987E+00  7.682643912E-01  5.296662219E+01  5.326157932E+01  4.750000000E+00  0.00000E+00  9.000E+00
      -5     1     1     2     0   503  7.425788499E+00  6.633018038E+01 -1.670916376E+03  1.672255642E+03  4.750000000E+00  0.00000E+00  9.000E+00
       2     1     1     2   503     0 -1.972796099E+01  2.842883882E+01 -1.728866932E+03  1.729213191E+03  3.051757812E-05  0.00000E+00  9.000E+00
#rwgt            1           9   6.0789356829246660E-002          10     1923751           0
</event>
<event>
      6   9999  3.45752E-01  8.98703E+00 -1.00000E+00  1.92216E-01
      21    -1     0     0   501   502  0.000000000E+00  0.000000000E+00  9.326071528E+00  9.326071528E+00  0.000000000E+00  0.00000E+00  9.000E+00
      21    -1     0     0   511   503  0.000000000E+00  0.000000000E+00 -1.175384708E+03  1.175384708E+03  0.000000000E+00  0.00000E+00  9.000E+00
      25     1     1     2     0     0  7.567853607E+00 -1.941695425E+00 -5.947447893E+02  6.077887747E+02  1.249991505E+02  0.00000E+00  9.000E+00
       5     1     1     2   501     0  4.192792000E-01 -3.649134190E-01  5.027953521E-01  4.808769075E+00  4.750000000E+00  0.00000E+00  9.000E+00
      -5     1     1     2     0   503 -2.951523199E-01  6.954198605E+00 -1.844963523E+02  1.846886962E+02  4.750000000E+00  0.00000E+00  9.000E+00
      21     1     1     2   511   502 -7.691980488E+00 -4.647589761E+00 -3.873202902E+02  3.874245396E+02  5.394796609E-06  0.00000E+00  9.000E+00
#rwgt            1           9   5.5744157970783056E-004          10     1925816           0
</event>
<event>
      6   9999  3.45752E-01  8.70065E+00 -1.00000E+00  1.93794E-01
      21    -1     0     0   501   502  0.000000000E+00  0.000000000E+00  3.458767025E+01  3.458767025E+01  0.000000000E+00  0.00000E+00  9.000E+00
      21    -1     0     0   512   503  0.000000000E+00  0.000000000E+00 -1.211828516E+03  1.211828516E+03  0.000000000E+00  0.00000E+00  9.000E+00
      25     1     1     2     0     0 -1.222720383E+01 -4.863984762E+00 -1.079463170E+03  1.086756800E+03  1.250057765E+02  0.00000E+00  9.000E+00
       5     1     1     2   501     0  3.586802561E+00  4.300039901E+00  2.989832628E+01  3.078681390E+01  4.750000000E+00  0.00000E+00  9.000E+00
      -5     1     1     2     0   503  8.853201040E-01 -3.380674313E+00 -9.050292398E+01  9.069484274E+01  4.750000000E+00  0.00000E+00  9.000E+00
      21     1     1     2   512   502  7.755081167E+00  3.944619174E+00 -3.717307832E+01  3.817772984E+01  8.259061849E-07  0.00000E+00  9.000E+00
#rwgt            1           9   1.5106015093094755E-005          10     1928318           0
</event>
<event>
      6   9999  3.45752E-01  3.50863E+00 -1.00000E+00  2.60253E-01
      21    -1     0     0   502   503  0.000000000E+00  0.000000000E+00  9.166880429E+00  9.166880429E+00  0.000000000E+00  0.00000E+00  9.000E+00
      21    -1     0     0   511   502  0.000000000E+00  0.000000000E+00 -7.551116584E+02  7.551116584E+02  0.000000000E+00  0.00000E+00  9.000E+00
      25     1     1     2     0     0 -1.080510896E+01  9.416734674E+00 -4.508132972E+02  4.680410507E+02  1.249974838E+02  0.00000E+00  9.000E+00
       5     1     1     2   501     0  4.971332979E+00 -1.612516840E+00 -1.658868619E+02  1.660371278E+02  4.750000000E+00  0.00000E+00  9.000E+00
      -5     1     1     2     0   503  3.464705799E+00 -1.039226283E+01 -1.092162347E+02  1.098669729E+02  4.750000000E+00  0.00000E+00  9.000E+00
      21     1     1     2   511   501  2.369070183E+00  2.588044996E+00 -2.002838422E+01  2.033338744E+01  4.129530925E-07  0.00000E+00  9.000E+00
#rwgt            1           9   2.9853108833351006E-002          10     1932305           0
</event>
<event>
      6   9999  3.45752E-01  1.44574E+01 -1.00000E+00  1.71770E-01
      21    -1     0     0   501   502  0.000000000E+00  0.000000000E+00  1.480527547E+01  1.480527547E+01  0.000000000E+00  0.00000E+00  9.000E+00
      21    -1     0     0   502   512  0.000000000E+00  0.000000000E+00 -8.482690992E+02  8.482690992E+02  0.000000000E+00  0.00000E+00  9.000E+00
      25     1     1     2     0     0  6.328799450E+00  1.138163346E+01 -4.701968194E+02  4.867022269E+02  1.249976536E+02  0.00000E+00  9.000E+00
       5     1     1     2   501     0  1.781005209E+00  1.568941596E+00  3.397064654E+00  6.303658109E+00  4.750000000E+00  0.00000E+00  9.000E+00
      -5     1     1     2     0   503 -4.573916007E+00  1.067817387E+00 -5.604931405E+00  8.720017068E+00  4.750000000E+00  0.00000E+00  9.000E+00
      21     1     1     2   503   512 -3.535888652E+00 -1.401839244E+01 -3.610591375E+02  3.613484725E+02  3.814697266E-06  0.00000E+00  9.000E+00
#rwgt            1           9  0.31569992919003281               10     1937143           0
</event>
<event>
      6   9999  3.45752E-01  5.82285E+00 -1.00000E+00  2.15887E-01
      21    -1     0     0   502   503  0.000000000E+00  0.000000000E+00  1.883050625E+01  1.883050625E+01  0.000000000E+00  0.00000E+00  9.000E+00
      21    -1     0     0   501   511  0.000000000E+00  0.000000000E+00 -1.198066465E+03  1.198066465E+03  0.000000000E+00  0.00000E+00  9.000E+00
      25     1     1     2     0     0 -2.152598156E+01 -3.499830899E+01 -2.249696257E+02  2.606239194E+02  1.250009815E+02  0.00000E+00  9.000E+00
       5     1     1     2   501     0  2.656205077E+01  3.100574531E+01 -5.973039379E+02  5.987165068E+02  4.750000000E+00  0.00000E+00  9.000E+00
      -5     1     1     2     0   503 -3.982337423E+00  9.719276993E+00 -1.274409769E+02  1.279612772E+02  4.750000000E+00  0.00000E+00  9.000E+00
      21     1     1     2   502   511 -1.053731780E+00 -5.726713315E+00 -2.295214182E+02  2.295952678E+02  2.697398305E-06  0.00000E+00  9.000E+00
#rwgt            1           9   8.4689869678985993E-003          10     1938958           0
</event>
<event>
      6   9999  3.45752E-01  3.20494E+01 -1.00000E+00  1.46005E-01
      21    -1     0     0   501   502  0.000000000E+00  0.000000000E+00  1.704394166E+02  1.704394166E+02  0.000000000E+00  0.00000E+00  9.000E+00
      21    -1     0     0   512   503  0.000000000E+00  0.000000000E+00 -7.930177638E+02  7.930177638E+02  0.000000000E+00  0.00000E+00  9.000E+00
      25     1     1     2     0     0  1.751602691E+02 -3.380658949E+00 -1.534580668E+02  2.643226494E+02  1.249981440E+02  0.00000E+00  9.000E+00
       5     1     1     2   501     0  1.493016220E+00  1.596842659E+00  9.736513157E+01  9.750543754E+01  4.750000000E+00  0.00000E+00  9.000E+00
      -5     1     1     2     0   503 -1.618237487E+02 -2.662836281E+01 -5.191949270E+02  5.445015428E+02  4.750000000E+00  0.00000E+00  9.000E+00
      21     1     1     2   512   502 -1.482953661E+01  2.841217910E+01 -4.729048497E+01  5.712755067E+01  6.743495762E-07  0.00000E+00  9.000E+00
#rwgt            1           9   2.1438906171265031E-004          10     1943488           0
</event>
<event>
      6   9999 -3.45752E-01  3.75824E+00 -1.00000E+00  2.53591E-01
      21    -1     0     0   511   502  0.000000000E+00  0.000000000E+00  8.781656074E+01  8.781656074E+01  0.000000000E+00  0.00000E+00  9.000E+00
      21    -1     0     0   502   503  0.000000000E+00  0.000000000E+00 -7.712587866E+02  7.712587866E+02  0.000000000E+00  0.00000E+00  9.000E+00
      25     1     1     2     0     0 -1.822454716E+00 -2.774012931E+00 -6.876238248E+02  6.989010387E+02  1.250004838E+02  0.00000E+00  9.000E+00
       5     1     1     2   501     0 -9.967755733E-01  7.914239393E-01  1.793450738E+00  5.234393847E+00  4.750000000E+00  0.00000E+00  9.000E+00
      -5     1     1     2     0   503  5.910593732E+00  4.119836090E+00 -7.598662784E+01  7.647508273E+01  4.750000000E+00  0.00000E+00  9.000E+00
      21     1     1     2   511   501 -3.091363443E+00 -2.137247098E+00  7.837477604E+01  7.846483208E+01  2.697398305E-06  0.00000E+00  9.000E+00
#rwgt            1           9  -1.1778019081739197E-004          10     1945431           0
</event>
<event>
      6   9999  3.45752E-01  9.98947E+00 -1.00000E+00  1.87242E-01
      21    -1     0     0   501   502  0.000000000E+00  0.000000000E+00  1.224690476E+01  1.224690476E+01  0.000000000E+00  0.00000E+00  9.000E+00
      21    -1     0     0   502   512  0.000000000E+00  0.000000000E+00 -1.032282086E+03  1.032282086E+03  0.000000000E+00  0.00000E+00  9.000E+00
      25     1     1     2     0     0 -5.720882595E+00  7.476605984E+00 -7.633563171E+02  7.735808060E+02  1.250030742E+02  0.00000E+00  9.000E+00
       5     1     1     2   501     0  1.631971203E+00  3.738362294E+00  4.884665285E+00  7.941104306E+00  4.750000000E+00  0.00000E+00  9.000E+00
      -5     1     1     2     0   503  6.630806911E+00 -1.554315005E+00 -2.739849654E+01  2.862906928E+01  4.750000000E+00  0.00000E+00  9.000E+00
      21     1     1     2   503   512 -2.541895519E+00 -9.660653274E+00 -2.341650334E+02  2.343780116E+02  0.000000000E+00  0.00000E+00  9.000E+00
#rwgt            1           9   7.2251028658804700E-002          10     1950490           0
</event>
<event>
      6   9999  3.45752E-01  3.78444E+00 -1.00000E+00  2.52937E-01
      21    -1     0     0   511   502  0.000000000E+00  0.000000000E+00  7.062386271E+01  7.062386271E+01  0.000000000E+00  0.00000E+00  9.000E+00
      21    -1     0     0   502   503  0.000000000E+00  0.000000000E+00 -8.974323900E+02  8.974323900E+02  0.000000000E+00  0.00000E+00  9.000E+00
      25     1     1     2     0     0 -2.804217031E-02  5.643716971E-01 -8.666413879E+02  8.756102843E+02  1.250030219E+02  0.00000E+00  9.000E+00
       5     1     1     2   501     0 -5.352403322E+00  2.171854940E+00  1.043957860E+01  1.284182528E+01  4.750000000E+00  0.00000E+00  9.000E+00
      -5     1     1     2     0   503  2.312150369E+00 -5.209321386E-01 -2.475803518E+01  2.532074674E+01  4.750000000E+00  0.00000E+00  9.000E+00
      21     1     1     2   511   501  3.068295123E+00 -2.215294498E+00  5.415131721E+01  5.428339635E+01  1.907348633E-06  0.00000E+00  9.000E+00
#rwgt            1           9   7.8269830725059426E-005          10     1953001           0
</event>
<event>
      6   9999 -3.45752E-01  1.94714E+01 -1.00000E+00  1.61103E-01
      21    -1     0     0   512   502  0.000000000E+00  0.000000000E+00  1.880459138E+01  1.880459138E+01  0.000000000E+00  0.00000E+00  9.000E+00
      21    -1     0     0   502   503  0.000000000E+00  0.000000000E+00 -9.909842874E+02  9.909842874E+02  0.000000000E+00  0.00000E+00  9.000E+00
      25     1     1     2     0     0 -2.727038201E-01  8.076022446E+01 -4.791767307E+02  5.017542650E+02  1.249988596E+02  0.00000E+00  9.000E+00
       5     1     1     2   501     0 -1.192999622E+00 -1.422541848E-02 -1.737697044E+00  5.196685624E+00  4.750000000E+00  0.00000E+00  9.000E+00
      -5     1     1     2     0   503 -1.794258287E+01 -8.231287600E+01 -4.396077666E+02  4.476325466E+02  4.750000000E+00  0.00000E+00  9.000E+00
      21     1     1     2   512   501  1.940828632E+01  1.566876960E+00 -5.165750161E+01  5.520538156E+01  0.000000000E+00  0.00000E+00  9.000E+00
#rwgt            1           9  -4.8103411140401782E-004          10     1958025           0
</event>
<event>
      6   9999  3.45752E-01  4.90224E+00 -1.00000E+00  2.30881E-01
       2    -1     0     0   501     0  0.000000000E+00  0.000000000E+00  7.645818921E+02  7.645818921E+02  0.000000000E+00  0.00000E+00  9.000E+00
      21    -1     0     0   502   503  0.000000000E+00  0.000000000E+00 -1.172868792E+02  1.172868792E+02  0.000000000E+00  0.00000E+00  9.000E+00
      25     1     1     2     0     0 -1.252527229E+00 -3.720873742E+00 -8.062837630E+01  1.487992585E+02  1.249994821E+02  0.00000E+00  9.000E+00
       5     1     1     2   501     0  3.291623606E-01 -1.955413168E+00  2.556139788E+02  2.556657988E+02  4.750000000E+00  0.00000E+00  9.000E+00
      -5     1     1     2     0   503  3.132764293E+00  1.300160466E+00  8.260509038E-01  5.894869756E+00  4.750000000E+00  0.00000E+00  9.000E+00
       2     1     1     2   502     0 -2.209399424E+00  4.376126444E+00  4.714833595E+02  4.715088443E+02  7.629394531E-06  0.00000E+00  9.000E+00
#rwgt            1           9   1.2046092298292497E-003          10     1959947           0
</event>
<event>
      6   9999  3.45752E-01  5.34113E+00 -1.00000E+00  2.21345E-01
      21    -1     0     0   501   502  0.000000000E+00  0.000000000E+00  4.440578020E+01  4.440578020E+01  0.000000000E+00  0.00000E+00  9.000E+00
      21    -1     0     0   511   503  0.000000000E+00  0.000000000E+00 -1.362735693E+03  1.362735693E+03  0.000000000E+00  0.00000E+00  9.000E+00
      25     1     1     2     0     0  4.494576849E+01  1.665619535E+01 -5.370878537E+02  5.535166471E+02  1.249790584E+02  0.00000E+00  9.000E+00
       5     1     1     2   501     0  5.799420074E+00 -2.236868535E+00  3.471261700E+01  3.558321421E+01  4.750000000E+00  0.00000E+00  9.000E+00
      -5     1     1     2     0   503 -5.199927831E+01 -9.227512404E+00 -7.334290664E+02  7.353433415E+02  4.750000000E+00  0.00000E+00  9.000E+00
      21     1     1     2   511   502  1.254089747E+00 -5.191814412E+00 -8.252560926E+01  8.269827001E+01  9.536743164E-07  0.00000E+00  9.000E+00
#rwgt            1           9   2.4003928101149360E-003          10     1965612           0
</event>
<event>
      6   9999  3.45752E-01  1.56861E+01 -1.00000E+00  1.68705E-01
      21    -1     0     0   501   502  0.000000000E+00  0.000000000E+00  1.508107012E+01  1.508107012E+01  0.000000000E+00  0.00000E+00  9.000E+00
      21    -1     0     0   512   503  0.000000000E+00  0.000000000E+00 -9.461308287E+02  9.461308287E+02  0.000000000E+00  0.00000E+00  9.000E+00
      25     1     1     2     0     0  1.675830537E+01  6.259532007E+01 -6.038974753E+02  6.200939125E+02  1.250011390E+02  0.00000E+00  9.000E+00
       5     1     1     2   501     0  1.684175865E+00  2.294901749E+00  8.890472703E-01  5.608558409E+00  4.750000000E+00  0.00000E+00  9.000E+00
      -5     1     1     2     0   503 -1.304685311E+01 -5.016130337E+01 -2.064155379E+02  2.128762869E+02  4.750000000E+00  0.00000E+00  9.000E+00
      21     1     1     2   512   502 -5.395628122E+00 -1.472891845E+01 -1.216257927E+02  1.226331411E+02  0.000000000E+00  0.00000E+00  9.000E+00
#rwgt            1           9   2.6174522199122040E-004          10     1971083           0
</event>
<event>
      6   9999  3.45752E-01  2.52240E+01 -1.00000E+00  1.52880E-01
      21    -1     0     0   502   503  0.000000000E+00  0.000000000E+00  3.584344650E+01  3.584344650E+01  0.000000000E+00  0.00000E+00  9.000E+00
      21    -1     0     0   501   511  0.000000000E+00  0.000000000E+00 -1.277705926E+03  1.277705926E+03  0.000000000E+00  0.00000E+00  9.000E+00
      25     1     1     2     0     0 -8.968726540E+01  3.148721105E+00 -8.375473261E+02  8.515654922E+02  1.249981756E+02  0.00000E+00  9.000E+00
       5     1     1     2   501     0  9.408205955E+01  3.567357245E+01 -2.837759341E+02  3.011235311E+02  4.750000000E+00  0.00000E+00  9.000E+00
      -5     1     1     2     0   503 -2.804244420E+01 -4.759935849E+01 -2.285994019E+01  5.997680361E+01  4.750000000E+00  0.00000E+00  9.000E+00
      21     1     1     2   502   511  2.364765005E+01  8.777064938E+00 -9.767927927E+01  1.008835458E+02  1.348699152E-06  0.00000E+00  9.000E+00
#rwgt            1           9  0.28036625302334534               10     1973416           0
</event>
<event>
      6   9999  3.45752E-01  8.82876E+00 -1.00000E+00  1.93078E-01
      21    -1     0     0   512   503  0.000000000E+00  0.000000000E+00  2.567190890E+01  2.567190890E+01  0.000000000E+00  0.00000E+00  9.000E+00
      21    -1     0     0   501   502  0.000000000E+00  0.000000000E+00 -9.807799175E+02  9.807799175E+02  0.000000000E+00  0.00000E+00  9.000E+00
      25     1     1     2     0     0 -1.423878579E+01 -2.839324139E+01 -2.913325023E+02  3.186059147E+02  1.250047311E+02  0.00000E+00  9.000E+00
       5     1     1     2   501     0  6.363866782E+01  1.506377661E+00 -5.963608691E+02  5.997674532E+02  4.750000000E+00  0.00000E+00  9.000E+00
      -5     1     1     2     0   503 -4.106967919E+01  2.396202891E+01 -5.525827004E+01  7.305433790E+01  4.750000000E+00  0.00000E+00  9.000E+00
      21     1     1     2   512   502 -8.330202832E+00  2.924834817E+00 -1.215636723E+01  1.502412068E+01  2.920019320E-07  0.00000E+00  9.000E+00
#rwgt            1           9   1.5428771135703416E-002          10     1975214           0
</event>
<event>
      6   9999  3.45752E-01  8.87281E+00 -1.00000E+00  1.92836E-01
      21    -1     0     0   501   511  0.000000000E+00  0.000000000E+00  2.802502250E+02  2.802502250E+02  0.000000000E+00  0.00000E+00  9.000E+00
      21    -1     0     0   502   503  0.000000000E+00  0.000000000E+00 -5.210519389E+02  5.210519389E+02  0.000000000E+00  0.00000E+00  9.000E+00
      25     1     1     2     0     0  8.000647403E+00  6.305615761E+00 -3.354593518E+02  3.581357251E+02  1.249977989E+02  0.00000E+00  9.000E+00
       5     1     1     2   501     0 -1.846711106E+01  2.007611439E+00  1.728979721E+02  1.739578569E+02  4.750000000E+00  0.00000E+00  9.000E+00
      -5     1     1     2     0   503  2.954296863E+00 -3.591559298E+00 -1.734545279E+02  1.735818623E+02  4.750000000E+00  0.00000E+00  9.000E+00
      21     1     1     2   502   511  7.512166791E+00 -4.721667902E+00  9.521419376E+01  9.562671954E+01  1.348699152E-06  0.00000E+00  9.000E+00
#rwgt            1           9   1.2699673627001183E-003          10     1978304           0
</event>
<event>
      6   9999  3.45752E-01  8.11701E+00 -1.00000E+00  1.97272E-01
      21    -1     0     0   501   512  0.000000000E+00  0.000000000E+00  3.707143667E+02  3.707143667E+02  0.000000000E+00  0.00000E+00  9.000E+00
      21    -1     0     0   502   503  0.000000000E+00  0.000000000E+00 -4.016704353E+02  4.016704353E+02  0.000000000E+00  0.00000E+00  9.000E+00
      25     1     1     2     0     0 -1.649015121E+00 -9.252351787E-01 -3.819097432E+02  4.018490260E+02  1.249960498E+02  0.00000E+00  9.000E+00
       5     1     1     2   501     0  5.028563341E-01  4.981902282E+00  1.842730291E+01  1.967740347E+01  4.750000000E+00  0.00000E+00  9.000E+00
      -5     1     1     2     0   503  1.087539994E-01  3.993778978E+00 -8.061325638E+00  1.017396525E+01  4.750000000E+00  0.00000E+00  9.000E+00
      21     1     1     2   502   512  1.037404787E+00 -8.050446082E+00  3.405876972E+02  3.406844073E+02  5.394796609E-06  0.00000E+00  9.000E+00
#rwgt            1           9   3.7806164931269552E-003          10     1983479           0
</event>
<event>
      6   9999  3.45752E-01  1.10238E+01 -1.00000E+00  1.82842E-01
      21    -1     0     0   501   502  0.000000000E+00  0.000000000E+00  4.100813423E+00  4.100813423E+00  0.000000000E+00  0.00000E+00  9.000E+00
      21    -1     0     0   511   503  0.000000000E+00  0.000000000E+00 -1.630093890E+03  1.630093890E+03  0.000000000E+00  0.00000E+00  9.000E+00
      25     1     1     2     0     0 -7.283950472E+00  1.074739374E+01 -1.402982737E+03  1.408599495E+03  1.249936599E+02  0.00000E+00  9.000E+00
       5     1     1     2   501     0 -1.882499762E+00  4.611907925E-01 -6.047949150E+00  7.930743422E+00  4.750000000E+00  0.00000E+00  9.000E+00
      -5     1     1     2     0   503  6.318557673E-01 -4.231145040E+00 -7.171816407E+01  7.200249570E+01  4.750000000E+00  0.00000E+00  9.000E+00
      21     1     1     2   511   502  8.534594467E+00 -6.977439487E+00 -1.452442260E+02  1.456619688E+02  0.000000000E+00  0.00000E+00  9.000E+00
#rwgt            1           9   1.3847891528629035E-004          10     1986608           0
</event>
<event>
      6   9999 -3.45752E-01  6.06555E+01 -1.00000E+00  1.30446E-01
      21    -1     0     0   501   512  0.000000000E+00  0.000000000E+00  2.213081467E+02  2.213081467E+02  0.000000000E+00  0.00000E+00  9.000E+00
      21    -1     0     0   502   503  0.000000000E+00  0.000000000E+00 -1.466138405E+03  1.466138405E+03  0.000000000E+00  0.00000E+00  9.000E+00
      25     1     1     2     0     0 -6.179339078E+01  2.689659868E+01 -1.533135908E+01  1.428339733E+02  1.249985728E+02  0.00000E+00  9.000E+00
       5     1     1     2   501     0  4.411256741E+01  4.305400448E+01 -4.347994657E+02  4.391727494E+02  4.750000000E+00  0.00000E+00  9.000E+00
      -5     1     1     2     0   503 -1.288018284E+01 -1.755674065E+01 -9.440132145E+02  9.442762572E+02  4.750000000E+00  0.00000E+00  9.000E+00
      21     1     1     2   502   512  3.056100621E+01 -5.239386251E+01  1.493137806E+02  1.611635722E+02  0.000000000E+00  0.00000E+00  9.000E+00
#rwgt            1           9  -5.7880849560726403E-005          10     1988449           0
</event>
<event>
      6   9999  3.45752E-01  8.60245E+00 -1.00000E+00  1.94354E-01
      21    -1     0     0   511   502  0.000000000E+00  0.000000000E+00  1.196349792E+02  1.196349792E+02  0.000000000E+00  0.00000E+00  9.000E+00
      21    -1     0     0   502   503  0.000000000E+00  0.000000000E+00 -1.449994327E+03  1.449994327E+03  0.000000000E+00  0.00000E+00  9.000E+00
      25     1     1     2     0     0 -1.743083332E+01 -1.951937512E+00 -9.687836207E+02  9.769725187E+02  1.250038185E+02  0.00000E+00  9.000E+00
       5     1     1     2   501     0  2.148765397E+00  3.693511933E+00  6.788006754E+01  6.818009455E+01  4.750000000E+00  0.00000E+00  9.000E+00
      -5     1     1     2     0   503  1.167225335E+01 -9.549988919E+00 -4.764446198E+02  4.767069142E+02  4.750000000E+00  0.00000E+00  9.000E+00
      21     1     1     2   511   501  3.609814575E+00  7.808414499E+00  4.698882501E+01  4.776977888E+01  2.611744678E-06  0.00000E+00  9.000E+00
#rwgt            1           9   9.5198527897067148E-002          10     1989712           0
</event>
<event>
      6   9999 -3.45752E-01  3.48653E+00 -1.00000E+00  2.60884E-01
      21    -1     0     0   501   512  0.000000000E+00  0.000000000E+00  3.146149457E+01  3.146149457E+01  0.000000000E+00  0.00000E+00  9.000E+00
      21    -1     0     0   502   503  0.000000000E+00  0.000000000E+00 -4.792510005E+03  4.792510005E+03  0.000000000E+00  0.00000E+00  9.000E+00
      25     1     1     2     0     0 -2.354800405E+01  5.044736520E+00 -4.298903900E+03  4.300788261E+03  1.249998579E+02  0.00000E+00  9.000E+00
       5     1     1     2   501     0 -5.431321395E+00 -7.140384290E-02 -2.819462422E+00  7.747013550E+00  4.750000000E+00  0.00000E+00  9.000E+00
      -5     1     1     2     0   503  2.604578218E+01 -3.089133189E+00 -4.869064164E+02  4.876354646E+02  4.750000000E+00  0.00000E+00  9.000E+00
      21     1     1     2   502   512  2.933543259E+00 -1.884199489E+00  2.758126879E+01  2.780076027E+01  3.337860107E-06  0.00000E+00  9.000E+00
#rwgt            1           9  -5.4369127167404438E-004          10     1994985           0
</event>
<event>
      6   9999 -3.45752E-01  1.56926E+01 -1.00000E+00  1.68690E-01
      21    -1     0     0   501   502  0.000000000E+00  0.000000000E+00  4.742925769E+02  4.742925769E+02  0.000000000E+00  0.00000E+00  9.000E+00
      21    -1     0     0   511   503  0.000000000E+00  0.000000000E+00 -4.300608301E+01  4.300608301E+01  0.000000000E+00  0.00000E+00  9.000E+00
      25     1     1     2     0     0 -3.877127153E+01 -1.075351163E+01  1.149077297E+02  1.744954986E+02  1.250041726E+02  0.00000E+00  9.000E+00
       5     1     1     2   501     0 -1.880297529E+00 -2.767586260E+00  2.820706907E+02  2.821305231E+02  4.750000000E+00  0.00000E+00  9.000E+00
      -5     1     1     2     0   503  2.501042602E+01  1.479082464E+01  3.400120495E+01  4.497704238E+01  4.750000000E+00  0.00000E+00  9.000E+00
      21     1     1     2   511   502  1.564114303E+01 -1.269726750E+00  3.068686163E-01  1.569559587E+01  2.696400013E-07  0.00000E+00  9.000E+00
#rwgt            1           9 -0.15010564899049861               10     2000700           0
</event>
<event>
      6   9999  3.45752E-01  1.29215E+01 -1.00000E+00  1.76184E-01
      21    -1     0     0   501   512  0.000000000E+00  0.000000000E+00  1.684699760E+02  1.684699760E+02  0.000000000E+00  0.00000E+00  9.000E+00
      21    -1     0     0   502   503  0.000000000E+00  0.000000000E+00 -1.232355362E+03  1.232355362E+03  0.000000000E+00  0.00000E+00  9.000E+00
      25     1     1     2     0     0 -5.721603357E+00 -3.031906671E+00 -7.766777598E+02  7.866980253E+02  1.249940445E+02  0.00000E+00  9.000E+00
       5     1     1     2   501     0 -3.064805119E+00  9.356981023E+00  3.351342401E+01  3.525135761E+01  4.750000000E+00  0.00000E+00  9.000E+00
      -5     1     1     2     0   503 -4.111043259E+00 -7.112271442E+00 -4.494249130E+02  4.495250828E+02  4.750000000E+00  0.00000E+00  9.000E+00
      21     1     1     2   502   512  1.289745174E+01  7.871970899E-01  1.287038627E+02  1.293508725E+02  3.814697266E-06  0.00000E+00  9.000E+00
#rwgt            1           9   3.7724956365844362E-004          10     2002903           0
</event>
<event>
      6   9999  3.45752E-01  5.25287E+01 -1.00000E+00  1.33651E-01
      21    -1     0     0   501   502  0.000000000E+00  0.000000000E+00  7.209512545E+01  7.209512545E+01  0.000000000E+00  0.00000E+00  9.000E+00
       2    -1     0     0   502     0  0.000000000E+00  0.000000000E+00 -2.777614478E+03  2.777614478E+03  0.000000000E+00  0.00000E+00  9.000E+00
      25     1     1     2     0     0  1.230222721E+02  1.774809007E+01 -1.129346402E+03  1.143021701E+03  1.250033590E+02  0.00000E+00  9.000E+00
       5     1     1     2   501     0 -7.209871665E+00 -1.325243623E+01  5.192109836E+01  5.427681154E+01  4.750000000E+00  0.00000E+00  9.000E+00
      -5     1     1     2     0   503 -1.073848519E+02 -5.634389317E+01 -3.047699667E+02  3.280448686E+02  4.750000000E+00  0.00000E+00  9.000E+00
       2     1     1     2   503     0 -8.427548540E+00  5.184823933E+01 -1.323324082E+03  1.324366222E+03  1.525878906E-05  0.00000E+00  9.000E+00
#rwgt            1           9   1.0578946274022331E-004          10     2005972           0
</event>
<event>
      6   9999  3.45752E-01  8.14951E+00 -1.00000E+00  1.97068E-01
      21    -1     0     0   511   503  0.000000000E+00  0.000000000E+00  4.767006823E+01  4.767006823E+01  0.000000000E+00  0.00000E+00  9.000E+00
      21    -1     0     0   501   502  0.000000000E+00  0.000000000E+00 -7.261386987E+02  7.261386987E+02  0.000000000E+00  0.00000E+00  9.000E+00
      25     1     1     2     0     0  9.813455147E-01  1.052986712E+00 -5.135058906E+02  5.285030488E+02  1.250004046E+02  0.00000E+00  9.000E+00
       5     1     1     2   501     0  2.730729480E-01 -1.570271164E+00 -1.052764593E+02  1.053956152E+02  4.750000000E+00  0.00000E+00  9.000E+00
      -5     1     1     2     0   503  6.693948401E+00  2.316737604E+00 -9.919938494E+01  9.956533880E+01  4.750000000E+00  0.00000E+00  9.000E+00
      21     1     1     2   511   502 -7.948366863E+00 -1.799453152E+00  3.951310439E+01  4.034476404E+01  2.132480600E-06  0.00000E+00  9.000E+00
#rwgt            1           9   3.6214597578733750E-002          10     2007400           0
</event>
<event>
      6   9999  3.45752E-01  2.53307E+00 -1.00000E+00  2.97655E-01
      21    -1     0     0   501   512  0.000000000E+00  0.000000000E+00  1.152748542E+01  1.152748542E+01  0.000000000E+00  0.00000E+00  9.000E+00
      21    -1     0     0   502   503  0.000000000E+00  0.000000000E+00 -8.500642276E+02  8.500642276E+02  0.000000000E+00  0.00000E+00  9.000E+00
      25     1     1     2     0     0  2.413857661E+01 -1.898640545E+00 -6.344523117E+02  6.471037534E+02  1.250090241E+02  0.00000E+00  9.000E+00
       5     1     1     2   501     0 -4.368126409E-01 -1.476223518E+00  2.428415155E+00  5.552453631E+00  4.750000000E+00  0.00000E+00  9.000E+00
      -5     1     1     2     0   503 -2.555041792E+01  5.106607774E+00 -2.022505082E+02  2.039772827E+02  4.750000000E+00  0.00000E+00  9.000E+00
      21     1     1     2   502   512  1.848653954E+00 -1.731743711E+00 -4.262337448E+00  4.958223295E+00  8.429369702E-08  0.00000E+00  9.000E+00
#rwgt            1           9   5.9440851550839483E-003          10     2009921           0
</event>
<event>
      6   9999  3.45752E-01  1.65567E+01 -1.00000E+00  1.66737E-01
       4    -1     0     0   501     0  0.000000000E+00  0.000000000E+00  1.139486788E+03  1.139486788E+03  0.000000000E+00  0.00000E+00  9.000E+00
      21    -1     0     0   502   503  0.000000000E+00  0.000000000E+00 -1.168579494E+03  1.168579494E+03  0.000000000E+00  0.00000E+00  9.000E+00
      25     1     1     2     0     0 -2.892812911E+01 -5.738236633E+00 -9.688806881E+02  9.773565491E+02  1.250050891E+02  0.00000E+00  9.000E+00
       5     1     1     2   501     0 -7.657783895E-01 -8.551169315E+00  2.781303908E+01  2.949299165E+01  4.750000000E+00  0.00000E+00  9.000E+00
      -5     1     1     2     0   503  1.383896688E+01  9.520121114E+00 -1.941674046E+02  1.949504891E+02  4.750000000E+00  0.00000E+00  9.000E+00
       4     1     1     2   502     0  1.585494062E+01  4.769284834E+00  1.106142348E+03  1.106266252E+03  2.157918644E-05  0.00000E+00  9.000E+00
#rwgt            1           9   1.2596240443384045E-004          10     2017062           0
</event>
<event>
      6   9999  3.45752E-01  1.27414E+01 -1.00000E+00  1.76752E-01
      21    -1     0     0   501   502  0.000000000E+00  0.000000000E+00  4.087783239E+02  4.087783239E+02  0.000000000E+00  0.00000E+00  9.000E+00
      21    -1     0     0   511   503  0.000000000E+00  0.000000000E+00 -1.162334196E+02  1.162334196E+02  0.000000000E+00  0.00000E+00  9.000E+00
      25     1     1     2     0     0 -1.927511421E+01 -2.331536442E+01  1.389495355E+02  1.893334166E+02  1.250001319E+02  0.00000E+00  9.000E+00
       5     1     1     2   501     0 -1.748601740E+00 -1.397958074E+00  2.407318111E+02  2.407890763E+02  4.750000000E+00  0.00000E+00  9.000E+00
      -5     1     1     2     0   503  8.504996430E+00  2.234158752E+01 -4.992159581E+01  5.555366527E+01  4.750000000E+00  0.00000E+00  9.000E+00
      21     1     1     2   511   502  1.251871952E+01  2.371734972E+00 -3.721484659E+01  3.933558531E+01  0.000000000E+00  0.00000E+00  9.000E+00
#rwgt            1           9   723.75808377317287               10     2019494           0
</event>
<event>
      6   9999  3.45752E-01  1.03395E+01 -1.00000E+00  1.85679E-01
      21    -1     0     0   502   503  0.000000000E+00  0.000000000E+00  9.858530976E+02  9.858530976E+02  0.000000000E+00  0.00000E+00  9.000E+00
      21    -1     0     0   512   502  0.000000000E+00  0.000000000E+00 -5.921093197E+00  5.921093197E+00  0.000000000E+00  0.00000E+00  9.000E+00
      25     1     1     2     0     0  5.335391722E+00 -5.520907254E+00  8.552822452E+02  8.644000452E+02  1.249830883E+02  0.00000E+00  9.000E+00
       5     1     1     2   501     0  1.153060544E+00  5.577543198E+00  2.776968015E+01  2.874293256E+01  4.750000000E+00  0.00000E+00  9.000E+00
      -5     1     1     2     0   503  2.011142080E+00  5.830838080E+00  5.172011960E+01  5.230274024E+01  4.750000000E+00  0.00000E+00  9.000E+00
      21     1     1     2   512   501 -8.499594346E+00 -5.887474024E+00  4.515995944E+01  4.632847279E+01  9.536743164E-07  0.00000E+00  9.000E+00
#rwgt            1           9   9.4727535485143406               10     2022419           0
</event>
<event>
      6   9999  3.45752E-01  2.85038E+01 -1.00000E+00  1.49290E-01
      21    -1     0     0   502   503  0.000000000E+00  0.000000000E+00  3.086921535E+01  3.086921535E+01  0.000000000E+00  0.00000E+00  9.000E+00
      21    -1     0     0   501   511  0.000000000E+00  0.000000000E+00 -1.141771893E+03  1.141771893E+03  0.000000000E+00  0.00000E+00  9.000E+00
      25     1     1     2     0     0  8.131515589E+01  9.190969633E+01 -3.123426147E+02  3.581025903E+02  1.249800358E+02  0.00000E+00  9.000E+00
       5     1     1     2   501     0 -1.481626459E-01 -2.565884580E+01 -2.487330415E+02  2.500981543E+02  4.750000000E+00  0.00000E+00  9.000E+00
      -5     1     1     2     0   503 -5.680058488E+01 -8.104078120E+01 -4.314565312E+02  4.426863624E+02  4.750000000E+00  0.00000E+00  9.000E+00
      21     1     1     2   502   511 -2.436640837E+01  1.478993068E+01 -1.183704905E+02  1.217540017E+02  1.907348633E-06  0.00000E+00  9.000E+00
#rwgt            1           9   2.3808591962044792E-003          10     2024283           0
</event>
<event>
      6   9999  3.45752E-01  1.40242E+01 -1.00000E+00  1.72943E-01
      21    -1     0     0   501   502  0.000000000E+00  0.000000000E+00  2.858260052E+01  2.858260052E+01  0.000000000E+00  0.00000E+00  9.000E+00
      21    -1     0     0   512   503  0.000000000E+00  0.000000000E+00 -1.487633522E+03  1.487633522E+03  0.000000000E+00  0.00000E+00  9.000E+00
      25     1     1     2     0     0 -2.844461809E+01  4.471314245E+01 -4.582217807E+02  4.779127988E+02  1.250003261E+02  0.00000E+00  9.000E+00
       5     1     1     2   501     0 -6.955352464E+00 -9.972911332E-01  1.684043457E+01  1.885561598E+01  4.750000000E+00  0.00000E+00  9.000E+00
      -5     1     1     2     0   503  2.572433065E+01 -3.356400680E+01 -5.825437403E+02  5.840959301E+02  4.750000000E+00  0.00000E+00  9.000E+00
      21     1     1     2   512   502  9.675639910E+00 -1.015184451E+01 -4.351258352E+02  4.353517778E+02  0.000000000E+00  0.00000E+00  9.000E+00
#rwgt            1           9   3.5326468755966443E-005          10     2025675           0
</event>
<event>
      6   9999  3.45752E-01  1.00226E+01 -1.00000E+00  1.87090E-01
      21    -1     0     0   502   503  0.000000000E+00  0.000000000E+00  2.899218078E+03  2.899218078E+03  0.000000000E+00  0.00000E+00  9.000E+00
       2    -1     0     0   501     0  0.000000000E+00  0.000000000E+00 -4.702923030E+02  4.702923030E+02  0.000000000E+00  0.00000E+00  9.000E+00
      25     1     1     2     0     0 -5.673979260E+01  3.999931623E-01  1.587253886E+03  1.593179020E+03  1.249997059E+02  0.00000E+00  9.000E+00
       5     1     1     2   501     0  2.718039030E+00 -3.034997922E+00  1.792210178E+02  1.793302391E+02  4.750000000E+00  0.00000E+00  9.000E+00
      -5     1     1     2     0   503  4.456408218E+01 -6.824048529E-01  1.129227606E+03  1.130116796E+03  4.750000000E+00  0.00000E+00  9.000E+00
       2     1     1     2   502     0  9.457671393E+00  3.317409613E+00 -4.667767356E+02  4.668843257E+02  1.427329020E-05  0.00000E+00  9.000E+00
#rwgt            1           9   2.9978059261764336E-004          10     2027930           0
</event>
<event>
      6   9999  3.45752E-01  2.45705E+00 -1.00000E+00  3.01748E-01
      -1    -1     0     0     0   502  0.000000000E+00  0.000000000E+00  6.674079885E+01  6.674079885E+01  0.000000000E+00  0.00000E+00  9.000E+00
      21    -1     0     0   502   503  0.000000000E+00  0.000000000E+00 -7.497716725E+02  7.497716725E+02  0.000000000E+00  0.00000E+00  9.000E+00
      25     1     1     2     0     0  3.477467754E+00  5.373984382E+00 -6.050397660E+02  6.178502265E+02  1.249992460E+02  0.00000E+00  9.000E+00
       5     1     1     2   501     0 -1.031664913E+00  9.781784579E-02  1.290464359E+00  5.030079431E+00  4.750000000E+00  0.00000E+00  9.000E+00
      -5     1     1     2     0   503 -1.097782237E-01 -4.710179636E+00 -1.363484131E+02  1.365124540E+02  4.750000000E+00  0.00000E+00  9.000E+00
      -1     1     1     2     0   501 -2.336024617E+00 -7.616225920E-01  5.706684107E+01  5.711971140E+01  1.168007728E-06  0.00000E+00  9.000E+00
#rwgt            1           9   3.5569715901122729E-004          10     2030184           0
</event>
<event>
      6   9999 -3.45752E-01  1.95749E+01 -1.00000E+00  1.60926E-01
      21    -1     0     0   501   502  0.000000000E+00  0.000000000E+00  1.357173400E+01  1.357173400E+01  0.000000000E+00  0.00000E+00  9.000E+00
      21    -1     0     0   502   511  0.000000000E+00  0.000000000E+00 -1.657717051E+03  1.657717051E+03  0.000000000E+00  0.00000E+00  9.000E+00
      25     1     1     2     0     0  5.773026708E+00  1.312161184E+01 -7.950788241E+02  8.049718518E+02  1.249953648E+02  0.00000E+00  9.000E+00
       5     1     1     2   501     0 -2.957101079E+00  7.275170675E+00  5.824988255E+00  1.087039757E+01  4.750000000E+00  0.00000E+00  9.000E+00
      -5     1     1     2     0   503  6.917588262E-01 -1.138695261E+00 -4.939541074E+02  4.939787423E+02  4.750000000E+00  0.00000E+00  9.000E+00
      21     1     1     2   503   511 -3.507684455E+00 -1.925808725E+01 -3.609373737E+02  3.614677931E+02  0.000000000E+00  0.00000E+00  9.000E+00
#rwgt            1           9 -0.16213447640882975               10     2037279           0
</event>
<event>
      6   9999  3.45752E-01  3.55860E+01 -1.00000E+00  1.43196E-01
      21    -1     0     0   501   502  0.000000000E+00  0.000000000E+00  8.954122417E+01  8.954122417E+01  0.000000000E+00  0.00000E+00  9.000E+00
      21    -1     0     0   512   503  0.000000000E+00  0.000000000E+00 -1.758674800E+03  1.758674800E+03  0.000000000E+00  0.00000E+00  9.000E+00
      25     1     1     2     0     0 -2.607219717E+01  1.008115597E+02 -1.342447610E+03  1.352270224E+03  1.250057725E+02  0.00000E+00  9.000E+00
       5     1     1     2   501     0  5.589491964E+00 -7.451750359E-01  7.783249783E+01  7.818093070E+01  4.750000000E+00  0.00000E+00  9.000E+00
      -5     1     1     2     0   503  2.300196589E+01 -6.456967949E+01 -2.737326278E+02  2.822241095E+02  4.750000000E+00  0.00000E+00  9.000E+00
      21     1     1     2   512   502 -2.519260682E+00 -3.549670515E+01 -1.307858357E+02  1.355407598E+02  1.907348633E-06  0.00000E+00  9.000E+00
#rwgt            1           9   9.2669000264411245E-005          10     2039111           0
</event>
<event>
      6   9999  3.45752E-01  1.39070E+01 -1.00000E+00  1.73269E-01
      21    -1     0     0   511   502  0.000000000E+00  0.000000000E+00  7.373300773E+01  7.373300773E+01  0.000000000E+00  0.00000E+00  9.000E+00
      21    -1     0     0   502   503  0.000000000E+00  0.000000000E+00 -1.151922163E+02  1.151922163E+02  0.000000000E+00  0.00000E+00  9.000E+00
      25     1     1     2     0     0 -1.894042740E+01 -4.918525782E+00 -1.244023085E+01  1.271186522E+02  1.249858420E+02  0.00000E+00  9.000E+00
       5     1     1     2   501     0 -3.937837375E-01  8.892048661E-01  7.329498891E+00  8.788048983E+00  4.750000000E+00  0.00000E+00  9.000E+00
      -5     1     1     2     0   503  8.033351338E+00  1.213464786E+01 -3.598599386E+01  3.910675985E+01  4.750000000E+00  0.00000E+00  9.000E+00
      21     1     1     2   511   501  1.130085980E+01 -8.105326942E+00 -3.624827684E-01  1.391176304E+01  3.285866539E-07  0.00000E+00  9.000E+00
#rwgt            1           9  0.21111183533225783               10     2040962           0
</event>
<event>
      6   9999  3.45752E-01  2.38811E+01 -1.00000E+00  1.54545E-01
       1    -1     0     0   501     0  0.000000000E+00  0.000000000E+00  1.343091896E+03  1.343091896E+03  0.000000000E+00  0.00000E+00  9.000E+00
      21    -1     0     0   502   503  0.000000000E+00  0.000000000E+00 -1.873204583E+01  1.873204583E+01  0.000000000E+00  0.00000E+00  9.000E+00
      25     1     1     2     0     0 -7.113814005E+01  5.340045529E+01  5.322727282E+02  5.539424931E+02  1.250031399E+02  0.00000E+00  9.000E+00
       5     1     1     2   501     0  6.720924416E+01 -4.677348799E+01  3.009600788E+02  3.119364890E+02  4.750000000E+00  0.00000E+00  9.000E+00
      -5     1     1     2     0   503  2.311169248E+01  7.597248975E+00  7.217665868E+01  7.631448801E+01  4.750000000E+00  0.00000E+00  9.000E+00
       1     1     1     2   502     0 -1.918279659E+01 -1.422421627E+01  4.189503846E+02  4.196304717E+02  5.394796609E-06  0.00000E+00  9.000E+00
#rwgt            1           9  0.33541309170771311               10     2042749           0
</event>
<event>
      6   9999  3.45752E-01  2.42559E+01 -1.00000E+00  1.54068E-01
      21    -1     0     0   501   502  0.000000000E+00  0.000000000E+00  1.494402636E+02  1.494402636E+02  0.000000000E+00  0.00000E+00  9.000E+00
      21    -1     0     0   502   511  0.000000000E+00  0.000000000E+00 -7.767396853E+02  7.767396853E+02  0.000000000E+00  0.00000E+00  9.000E+00
      25     1     1     2     0     0 -7.902394482E+01 -2.720558076E+02 -3.385913323E+02  4.588337151E+02  1.250005661E+02  0.00000E+00  9.000E+00
       5     1     1     2   501     0  3.333392551E+00 -2.955478105E+00  3.515218992E+01  3.575031906E+01  4.750000000E+00  0.00000E+00  9.000E+00
      -5     1     1     2     0   503  6.950713933E+01  2.515567556E+02 -2.971345437E+02  3.955041634E+02  4.750000000E+00  0.00000E+00  9.000E+00
      21     1     1     2   503   511  6.183412942E+00  2.345453007E+01 -2.672573551E+01  3.609175134E+01  5.840038640E-07  0.00000E+00  9.000E+00
#rwgt            1           9   1.6791013309607755E-004          10     2044261           0
</event>
<event>
      6   9999  3.45752E-01  2.18231E+01 -1.00000E+00  1.57371E-01
      21    -1     0     0   501   502  0.000000000E+00  0.000000000E+00  1.978694619E+03  1.978694619E+03  0.000000000E+00  0.00000E+00  9.000E+00
      21    -1     0     0   512   503  0.000000000E+00  0.000000000E+00 -3.514552459E+01  3.514552459E+01  0.000000000E+00  0.00000E+00  9.000E+00
      25     1     1     2     0     0  7.719351273E+01  2.377925941E+01  7.071716757E+02  7.226599446E+02  1.249852996E+02  0.00000E+00  9.000E+00
       5     1     1     2   501     0 -1.755630127E-01  6.566213365E+00  7.746279204E+02  7.746703321E+02  4.750000000E+00  0.00000E+00  9.000E+00
      -5     1     1     2     0   503 -7.205473317E+01 -9.094243061E+00  4.815642989E+02  4.870331881E+02  4.750000000E+00  0.00000E+00  9.000E+00
      21     1     1     2   512   502 -4.963216546E+00 -2.125122972E+01 -1.981480038E+01  2.947667887E+01  1.668930054E-06  0.00000E+00  9.000E+00
#rwgt            1           9   5.9320337973199763E-004          10     2047008           0
</event>
<event>
      6   9999  3.45752E-01  1.12895E+01 -1.00000E+00  1.81811E-01
      21    -1     0     0   501   511  0.000000000E+00  0.000000000E+00  1.474956232E+02  1.474956232E+02  0.000000000E+00  0.00000E+00  9.000E+00
      21    -1     0     0   502   503  0.000000000E+00  0.000000000E+00 -1.190647421E+03  1.190647421E+03  0.000000000E+00  0.00000E+00  9.000E+00
      25     1     1     2     0     0  8.201135672E+00  1.449343697E+01 -1.156151530E+03  1.163008656E+03  1.250018288E+02  0.00000E+00  9.000E+00
       5     1     1     2   501     0 -5.782831623E+00 -5.001882918E+00  7.440986131E+01  7.495231774E+01  4.750000000E+00  0.00000E+00  9.000E+00
      -5     1     1     2     0   503 -7.625425636E-01  1.675846722E+00 -3.012158593E+01  3.054934324E+01  4.750000000E+00  0.00000E+00  9.000E+00
      21     1     1     2   502   511 -1.655761486E+00 -1.116740078E+01  6.871145643E+01  6.963272673E+01  2.861022949E-06  0.00000E+00  9.000E+00
#rwgt            1           9   7.9348597389122843E-005          10     2048833           0
</event>
<event>
      6   9999  3.45752E-01  6.42054E+01 -1.00000E+00  1.29222E-01
      21    -1     0     0   502   503  0.000000000E+00  0.000000000E+00  2.488037319E+02  2.488037319E+02  0.000000000E+00  0.00000E+00  9.000E+00
      21    -1     0     0   501   512  0.000000000E+00  0.000000000E+00 -5.973061166E+02  5.973061166E+02  0.000000000E+00  0.00000E+00  9.000E+00
      25     1     1     2     0     0  6.031049938E+01 -2.892942854E+01  1.531509387E+02  2.086981353E+02  1.250017338E+02  0.00000E+00  9.000E+00
       5     1     1     2   501     0 -1.381953072E+01  3.068170998E+01 -3.722523930E+02  3.738004191E+02  4.750000000E+00  0.00000E+00  9.000E+00
      -5     1     1     2     0   503  1.431146942E+01 -2.237751635E+01  5.883436670E+01  6.472724774E+01  4.750000000E+00  0.00000E+00  9.000E+00
      21     1     1     2   502   512 -6.080243808E+01  2.062523491E+01 -1.882352972E+02  1.988840464E+02  0.000000000E+00  0.00000E+00  9.000E+00
#rwgt            1           9  0.15292405999610617               10     2053089           0
</event>
<event>
      6   9999  3.45752E-01  1.48476E+01 -1.00000E+00  1.70757E-01
      21    -1     0     0   501   511  0.000000000E+00  0.000000000E+00  2.965768723E+02  2.965768723E+02  0.000000000E+00  0.00000E+00  9.000E+00
      21    -1     0     0   502   503  0.000000000E+00  0.000000000E+00 -2.902686584E+02  2.902686584E+02  0.000000000E+00  0.00000E+00  9.000E+00
      25     1     1     2     0     0  1.494944537E+01  1.567643054E+02 -1.855044498E+02  2.735593967E+02  1.249972370E+02  0.00000E+00  9.000E+00
       5     1     1     2   501     0  5.759200636E+00  8.235260596E+00  1.378052116E+02  1.382527640E+02  4.750000000E+00  0.00000E+00  9.000E+00
      -5     1     1     2     0   503 -1.973178601E+01 -1.501841122E+02  4.746651041E+01  1.588088254E+02  4.750000000E+00  0.00000E+00  9.000E+00
      21     1     1     2   502   511 -9.768599937E-01 -1.481545379E+01  6.540941707E+00  1.622454452E+01  0.000000000E+00  0.00000E+00  9.000E+00
#rwgt            1           9   1.2088630946170326E-003          10     2054702           0
</event>
<event>
      6   9999 -3.45752E-01  9.87712E+00 -1.00000E+00  1.87761E-01
      21    -1     0     0   501   512  0.000000000E+00  0.000000000E+00  1.762296458E+01  1.762296458E+01  0.000000000E+00  0.00000E+00  9.000E+00
      21    -1     0     0   502   503  0.000000000E+00  0.000000000E+00 -3.480975072E+03  3.480975072E+03  0.000000000E+00  0.00000E+00  9.000E+00
      25     1     1     2     0     0  2.992651067E+01  6.710362235E+01 -2.613019179E+03  2.617038858E+03  1.249986600E+02  0.00000E+00  9.000E+00
       5     1     1     2   501     0 -1.924351130E+01 -4.694545309E+01 -3.441128153E+02  3.478654631E+02  4.750000000E+00  0.00000E+00  9.000E+00
      -5     1     1     2     0   503 -1.967321420E+01 -2.424883960E+01 -5.176356007E+02  5.185983216E+02  4.750000000E+00  0.00000E+00  9.000E+00
      21     1     1     2   502   512  8.990214839E+00  4.090670340E+00  1.141548749E+01  1.509539338E+01  7.348554138E-07  0.00000E+00  9.000E+00
#rwgt            1           9  -2.4970941213515508E-003          10     2058094           0
</event>
<event>
      6   9999  3.45752E-01  4.68740E+00 -1.00000E+00  2.34407E-01
      21    -1     0     0   501   502  0.000000000E+00  0.000000000E+00  1.548365674E+03  1.548365674E+03  0.000000000E+00  0.00000E+00  9.000E+00
      21    -1     0     0   511   503  0.000000000E+00  0.000000000E+00 -2.994771887E+01  2.994771887E+01  0.000000000E+00  0.00000E+00  9.000E+00
      25     1     1     2     0     0 -2.196303546E+00 -4.156507611E-01  5.984733334E+02  6.113912853E+02  1.249959059E+02  0.00000E+00  9.000E+00
       5     1     1     2   501     0  3.227972470E+00 -2.922661476E+00  9.280888732E+02  9.281112437E+02  4.750000000E+00  0.00000E+00  9.000E+00
      -5     1     1     2     0   503  1.588829390E-01 -1.195373389E+00  1.469755871E+01  1.549305952E+01  4.750000000E+00  0.00000E+00  9.000E+00
      21     1     1     2   511   502 -1.190551863E+00  4.533685627E+00 -2.284181000E+01  2.331780442E+01  8.920806376E-07  0.00000E+00  9.000E+00
#rwgt            1           9  0.51764812573818264               10     2060779           0
</event>
<event>
      6   9999  3.45752E-01  2.74138E+01 -1.00000E+00  1.50416E-01
      21    -1     0     0   501   512  0.000000000E+00  0.000000000E+00  1.364832994E+01  1.364832994E+01  0.000000000E+00  0.00000E+00  9.000E+00
      21    -1     0     0   502   503  0.000000000E+00  0.000000000E+00 -9.151221050E+02  9.151221050E+02  0.000000000E+00  0.00000E+00  9.000E+00
      25     1     1     2     0     0  4.884407749E+00 -1.890215148E+01 -5.760652684E+02  5.897952918E+02  1.250045763E+02  0.00000E+00  9.000E+00
       5     1     1     2   501     0 -1.670700563E+00 -6.687356976E+00  7.387287746E-01  8.403582801E+00  4.750000000E+00  0.00000E+00  9.000E+00
      -5     1     1     2     0   503 -3.692297485E+00 -1.820136493E+00 -2.417907903E+02  2.418724762E+02  4.750000000E+00  0.00000E+00  9.000E+00
      21     1     1     2   502   512  4.785902987E-01  2.740964494E+01 -8.435644519E+01  8.869908415E+01  0.000000000E+00  0.00000E+00  9.000E+00
#rwgt            1           9   2.5726559137769070E-004          10     2065580           0
</event>
<event>
      6   9999  3.45752E-01  4.52853E+00 -1.00000E+00  2.37198E-01
      21    -1     0     0   511   502  0.000000000E+00  0.000000000E+00  1.125512081E+02  1.125512081E+02  0.000000000E+00  0.00000E+00  9.000E+00
      21    -1     0     0   502   503  0.000000000E+00  0.000000000E+00 -3.105505850E+02  3.105505850E+02  0.000000000E+00  0.00000E+00  9.000E+00
      25     1     1     2     0     0 -5.265766405E-01 -1.249169831E+01 -2.805268686E+02  3.073773775E+02  1.250168324E+02  0.00000E+00  9.000E+00
       5     1     1     2   501     0 -5.705678682E-02 -5.362463717E-01 -7.624935957E-01  4.840941244E+00  4.750000000E+00  0.00000E+00  9.000E+00
      -5     1     1     2     0   503 -3.044423768E-01  8.587351337E+00 -1.198938172E+01  1.549655001E+01  4.750000000E+00  0.00000E+00  9.000E+00
      21     1     1     2   511   501  8.880758041E-01  4.440593344E+00  9.527936704E+01  9.538692432E+01  1.907348633E-06  0.00000E+00  9.000E+00
#rwgt            1           9   2.7726865869288974E-002          10     2066904           0
</event>
<event>
      6   9999  3.45752E-01  1.11922E+01 -1.00000E+00  1.82184E-01
      21    -1     0     0   512   502  0.000000000E+00  0.000000000E+00  3.053160493E+01  3.053160493E+01  0.000000000E+00  0.00000E+00  9.000E+00
      21    -1     0     0   502   503  0.000000000E+00  0.000000000E+00 -4.674620021E+02  4.674620021E+02  0.000000000E+00  0.00000E+00  9.000E+00
      25     1     1     2     0     0  2.372531683E+01  1.123166428E+01 -4.247101200E+02  4.435200925E+02  1.250693627E+02  0.00000E+00  9.000E+00
       5     1     1     2   501     0  1.347206320E-02 -9.915276574E-01  1.454089090E+01  1.532916556E+01  4.750000000E+00  0.00000E+00  9.000E+00
      -5     1     1     2     0   503 -1.254656906E+01 -1.024014915E+01 -1.242963911E+01  2.096033106E+01  4.750000000E+00  0.00000E+00  9.000E+00
      21     1     1     2   512   501 -1.119221983E+01  1.252797375E-05 -1.433152895E+01  1.818401789E+01  2.384185791E-07  0.00000E+00  9.000E+00
#rwgt            1           9   7.1008702235681644E-003          10     2071073           0
</event>
<event>
      6   9999  3.45752E-01  3.44889E+01 -1.00000E+00  1.44025E-01
      21    -1     0     0   501   511  0.000000000E+00  0.000000000E+00  2.168318800E+01  2.168318800E+01  0.000000000E+00  0.00000E+00  9.000E+00
      21    -1     0     0   502   503  0.000000000E+00  0.000000000E+00 -9.410177940E+02  9.410177940E+02  0.000000000E+00  0.00000E+00  9.000E+00
      25     1     1     2     0     0 -7.112117757E+00 -4.082290539E+01 -7.996750612E+02  8.104460595E+02  1.250020801E+02  0.00000E+00  9.000E+00
       5     1     1     2   501     0  4.021429545E+01  2.644878079E+01 -6.448517143E+01  8.060786189E+01  4.750000000E+00  0.00000E+00  9.000E+00
      -5     1     1     2     0   503 -1.576292938E+00  3.883604997E-01 -2.598099511E+01  2.646148390E+01  4.750000000E+00  0.00000E+00  9.000E+00
      21     1     1     2   502   511 -3.152588475E+01  1.398576410E+01 -2.919337821E+01  4.518557666E+01  9.536743164E-07  0.00000E+00  9.000E+00
#rwgt            1           9  0.56642119858562912               10     2073535           0
</event>
<event>
      6   9999  3.45752E-01  7.05414E+00 -1.00000E+00  2.04713E-01
      21    -1     0     0   501   502  0.000000000E+00  0.000000000E+00  9.936964343E+00  9.936964343E+00  0.000000000E+00  0.00000E+00  9.000E+00
      21    -1     0     0   502   512  0.000000000E+00  0.000000000E+00 -1.144193154E+03  1.144193154E+03  0.000000000E+00  0.00000E+00  9.000E+00
      25     1     1     2     0     0 -2.072179297E+01 -3.675205384E+00 -1.048876816E+03  1.056509350E+03  1.250061277E+02  0.00000E+00  9.000E+00
       5     1     1     2   501     0 -1.767671128E+00 -1.098991937E+00  7.203971797E-01  5.235830077E+00  4.750000000E+00  0.00000E+00  9.000E+00
      -5     1     1     2     0   503  2.240923919E+01 -2.279482833E+00 -4.360354736E+01  4.930721940E+01  4.750000000E+00  0.00000E+00  9.000E+00
      21     1     1     2   503   512  8.022490841E-02  7.053680154E+00 -4.249622316E+01  4.307771840E+01  4.768371582E-07  0.00000E+00  9.000E+00
#rwgt            1           9   5.0750801345135022E-004          10     2074570           0
</event>
<event>
      6   9999  3.45752E-01  9.55177E+00 -1.00000E+00  1.89316E-01
      21    -1     0     0   511   503  0.000000000E+00  0.000000000E+00  1.023472719E+01  1.023472719E+01  0.000000000E+00  0.00000E+00  9.000E+00
      21    -1     0     0   501   502  0.000000000E+00  0.000000000E+00 -7.613753514E+02  7.613753514E+02  0.000000000E+00  0.00000E+00  9.000E+00
      25     1     1     2     0     0  5.828198534E-01 -2.250603064E+01 -5.351641361E+02  5.500289045E+02  1.249971285E+02  0.00000E+00  9.000E+00
       5     1     1     2   501     0  4.811892578E-01 -1.807291816E-01 -1.590490871E+02  1.591208309E+02  4.750000000E+00  0.00000E+00  9.000E+00
      -5     1     1     2     0   503 -3.533865414E-01  1.316146464E+01 -4.529763664E+01  4.741083652E+01  4.750000000E+00  0.00000E+00  9.000E+00
      21     1     1     2   511   502 -7.106225698E-01  9.525295176E+00 -1.162976431E+01  1.504950666E+01  3.371747881E-07  0.00000E+00  9.000E+00
#rwgt            1           9  0.39707957416082623               10     2077692           0
</event>
<event>
      6   9999  3.45752E-01  1.41130E+01 -1.00000E+00  1.72698E-01
      21    -1     0     0   501   502  0.000000000E+00  0.000000000E+00  3.114542938E+02  3.114542938E+02  0.000000000E+00  0.00000E+00  9.000E+00
      21    -1     0     0   502   512  0.000000000E+00  0.000000000E+00 -2.905940887E+01  2.905940887E+01  0.000000000E+00  0.00000E+00  9.000E+00
      25     1     1     2     0     0 -5.914356927E+00  3.159715125E+00  1.776678590E+02  2.173379140E+02  1.249997493E+02  0.00000E+00  9.000E+00
       5     1     1     2   501     0 -2.329700117E+00  2.537425994E+00  1.011584636E+02  1.013284920E+02  4.750000000E+00  0.00000E+00  9.000E+00
      -5     1     1     2     0   503 -3.999000577E+00  1.323086407E+00  4.376916660E+00  7.711190745E+00  4.750000000E+00  0.00000E+00  9.000E+00
      21     1     1     2   503   512  1.224305762E+01 -7.020227525E+00 -8.083543271E-01  1.413610594E+01  3.089970552E-07  0.00000E+00  9.000E+00
#rwgt            1           9  0.62757096160432158               10     2079863           0
</event>
<event>
      6   9999 -3.45752E-01  8.77258E+00 -1.00000E+00  1.93390E-01
      21    -1     0     0   501   502  0.000000000E+00  0.000000000E+00  9.261312015E+00  9.261312015E+00  0.000000000E+00  0.00000E+00  9.000E+00
      -3    -1     0     0     0   503  0.000000000E+00  0.000000000E+00 -1.461322680E+03  1.461322680E+03  0.000000000E+00  0.00000E+00  9.000E+00
      25     1     1     2     0     0  2.463909079E+01 -2.058825875E+01 -6.633113775E+02  6.757497323E+02  1.249990236E+02  0.00000E+00  9.000E+00
       5     1     1     2   501     0  7.204198817E-02  7.466966229E-02 -1.569760903E+00  5.003740091E+00  4.750000000E+00  0.00000E+00  9.000E+00
      -5     1     1     2     0   503 -2.631800532E+01  1.188943359E+01 -1.641583528E+02  1.667468840E+02  4.750000000E+00  0.00000E+00  9.000E+00
      -3     1     1     2     0   502  1.606872537E+00  8.624155504E+00 -6.230218769E+02  6.230836358E+02  0.000000000E+00  0.00000E+00  9.000E+00
#rwgt            1           9  -5.3977321169813559E-004          10     2081814           0
</event>
<event>
      6   9999  3.45752E-01  1.25217E+01 -1.00000E+00  1.77461E-01
       2    -1     0     0   501     0  0.000000000E+00  0.000000000E+00  1.599921630E+03  1.599921630E+03  0.000000000E+00  0.00000E+00  9.000E+00
      21    -1     0     0   502   503  0.000000000E+00  0.000000000E+00 -8.752365533E+02  8.752365533E+02  0.000000000E+00  0.00000E+00  9.000E+00
      25     1     1     2     0     0 -4.100933166E+00 -7.447763785E+00 -7.708702623E+02  7.809849796E+02  1.249971613E+02  0.00000E+00  9.000E+00
       5     1     1     2   501     0 -8.346680264E+00 -2.657037067E+00  1.033071681E+01  1.435315740E+01  4.750000000E+00  0.00000E+00  9.000E+00
      -5     1     1     2     0   503  1.296845871E-01  7.855221398E+00 -9.705632250E+01  9.748955615E+01  4.750000000E+00  0.00000E+00  9.000E+00
       2     1     1     2   502     0  1.231792884E+01  2.249579454E+00  1.582280944E+03  1.582330490E+03  2.157918644E-05  0.00000E+00  9.000E+00
#rwgt            1           9   2.1041580811311349E-004          10     2084297           0
</event>
<event>
      6   9999 -3.45752E-01  3.62429E+01 -1.00000E+00  1.42716E-01
      21    -1     0     0   501   502  0.000000000E+00  0.000000000E+00  3.575667241E+03  3.575667241E+03  0.000000000E+00  0.00000E+00  9.000E+00
      21    -1     0     0   511   503  0.000000000E+00  0.000000000E+00 -1.655621077E+01  1.655621077E+01  0.000000000E+00  0.00000E+00  9.000E+00
      25     1     1     2     0     0  1.753416366E+02 -6.615685787E+01  1.654792752E+03  1.670055533E+03  1.250000506E+02  0.00000E+00  9.000E+00
       5     1     1     2   501     0 -1.653534337E+02  8.175706721E+01  1.390237856E+03  1.402429975E+03  4.750000000E+00  0.00000E+00  9.000E+00
      -5     1     1     2     0   503  2.158322143E+01 -3.339894545E+01  2.516954963E+02  2.548617476E+02  4.750000000E+00  0.00000E+00  9.000E+00
      21     1     1     2   511   502 -3.157142433E+01  1.779873610E+01  2.623849261E+02  2.648761962E+02  0.000000000E+00  0.00000E+00  9.000E+00
#rwgt            1           9  -2.2991511728326125E-003          10     2087458           0
</event>
<event>
      6   9999  3.45752E-01  6.28119E+00 -1.00000E+00  2.11324E-01
      21    -1     0     0   501   502  0.000000000E+00  0.000000000E+00  1.698305858E+01  1.698305858E+01  0.000000000E+00  0.00000E+00  9.000E+00
      21    -1     0     0   512   503  0.000000000E+00  0.000000000E+00 -1.139373886E+03  1.139373886E+03  0.000000000E+00  0.00000E+00  9.000E+00
      25     1     1     2     0     0 -1.644389553E+01 -5.008283583E+00 -7.254241203E+02  7.363170403E+02  1.250085791E+02  0.00000E+00  9.000E+00
       5     1     1     2   501     0  1.674944673E+00  2.177429308E+00  1.070121273E+01  1.202601729E+01  4.750000000E+00  0.00000E+00  9.000E+00
      -5     1     1     2     0   503  8.491400220E+00  2.617122657E+00 -2.033688445E+02  2.036182767E+02  4.750000000E+00  0.00000E+00  9.000E+00
      21     1     1     2   512   502  6.277550637E+00  2.137316182E-01 -2.042990756E+02  2.043956105E+02  2.697398305E-06  0.00000E+00  9.000E+00
#rwgt            1           9   1.0216623223856139E-004          10     2088862           0
</event>
<event>
      6   9999  3.45752E-01  7.04758E+00 -1.00000E+00  2.04764E-01
      21    -1     0     0   502   503  0.000000000E+00  0.000000000E+00  1.053763821E+01  1.053763821E+01  0.000000000E+00  0.00000E+00  9.000E+00
      21    -1     0     0   511   502  0.000000000E+00  0.000000000E+00 -1.108481821E+03  1.108481821E+03  0.000000000E+00  0.00000E+00  9.000E+00
      25     1     1     2     0     0  5.598352108E+00  1.934457726E+01 -7.700848533E+02  7.804234723E+02  1.249982424E+02  0.00000E+00  9.000E+00
       5     1     1     2   501     0 -4.392300122E+00 -1.705917271E+00 -9.401331892E+00  1.153906389E+01  4.750000000E+00  0.00000E+00  9.000E+00
      -5     1     1     2     0   503 -8.233116844E+00 -1.710127597E+01 -1.821666227E+01  2.673288493E+01  4.750000000E+00  0.00000E+00  9.000E+00
      21     1     1     2   511   501  7.027064858E+00 -5.373840220E-01 -3.002413353E+02  3.003240381E+02  6.607249480E-06  0.00000E+00  9.000E+00
#rwgt            1           9  0.38941020774068547               10     2092468           0
</event>
<event>
      6   9999 -3.45752E-01  1.72330E+01 -1.00000E+00  1.65309E-01
      21    -1     0     0   502   503  0.000000000E+00  0.000000000E+00  9.493090725E+00  9.493090725E+00  0.000000000E+00  0.00000E+00  9.000E+00
       1    -1     0     0   501     0  0.000000000E+00  0.000000000E+00 -1.425154548E+03  1.425154548E+03  0.000000000E+00  0.00000E+00  9.000E+00
      25     1     1     2     0     0  1.571774251E+01 -4.540207349E+01 -6.066678678E+02  6.212715696E+02  1.249962627E+02  0.00000E+00  9.000E+00
       5     1     1     2   501     0 -1.745227233E+01  1.157498325E+01 -1.556028863E+02  1.570776330E+02  4.750000000E+00  0.00000E+00  9.000E+00
      -5     1     1     2     0   503 -9.873541871E+00  2.109012361E+01 -1.057960056E+02  1.084326401E+02  4.750000000E+00  0.00000E+00  9.000E+00
       1     1     1     2   502     0  1.160807169E+01  1.273696663E+01 -5.475946977E+02  5.478657961E+02  7.629394531E-06  0.00000E+00  9.000E+00
#rwgt            1           9  -3.3482758859726380               10     2095299           0
</event>
<event>
      6   9999  3.45752E-01  2.39737E+01 -1.00000E+00  1.54426E-01
      21    -1     0     0   511   502  0.000000000E+00  0.000000000E+00  2.451547727E+02  2.451547727E+02  0.000000000E+00  0.00000E+00  9.000E+00
      21    -1     0     0   502   503  0.000000000E+00  0.000000000E+00 -1.215046202E+03  1.215046202E+03  0.000000000E+00  0.00000E+00  9.000E+00
      25     1     1     2     0     0  6.574306972E+00 -1.744783338E+00 -9.071432715E+02  9.157399518E+02  1.249979137E+02  0.00000E+00  9.000E+00
       5     1     1     2   501     0 -2.055101038E+01 -8.652335819E-01  3.005248949E+01  3.672611171E+01  4.750000000E+00  0.00000E+00  9.000E+00
      -5     1     1     2     0   503 -9.949253702E+00  1.097681675E+00 -2.994724298E+02  2.996773119E+02  4.750000000E+00  0.00000E+00  9.000E+00
      21     1     1     2   511   501  2.392595711E+01  1.512335245E+00  2.066717830E+02  2.080575989E+02  0.000000000E+00  0.00000E+00  9.000E+00
#rwgt            1           9   2.8250407836888508E-003          10     2096754           0
</event>
<event>
      6   9999  3.45752E-01  6.63867E+01 -1.00000E+00  1.28514E-01
      21    -1     0     0   501   502  0.000000000E+00  0.000000000E+00  1.695139099E+03  1.695139099E+03  0.000000000E+00  0.00000E+00  9.000E+00
      21    -1     0     0   502   512  0.000000000E+00  0.000000000E+00 -1.040845911E+02  1.040845911E+02  0.000000000E+00  0.00000E+00  9.000E+00
      25     1     1     2     0     0 -1.329983960E+02 -1.018546530E+02  1.434234831E+02  2.534926735E+02  1.250011852E+02  0.00000E+00  9.000E+00
       5     1     1     2   501     0 -3.018419364E+00  2.124836089E+01  7.964677701E+02  7.967710305E+02  4.750000000E+00  0.00000E+00  9.000E+00
      -5     1     1     2     0   503  1.056247029E+02  1.396276122E+02  6.592169770E+02  6.820865292E+02  4.750000000E+00  0.00000E+00  9.000E+00
      21     1     1     2   503   512  3.039211247E+01 -5.902132014E+01 -8.053722873E+00  6.687345649E+01  1.118282261E-06  0.00000E+00  9.000E+00
#rwgt            1           9   1.0240352054346599E-003          10     2098652           0
</event>
<event>
      6   9999  3.45752E-01  4.86164E+00 -1.00000E+00  2.31527E-01
      21    -1     0     0   501   502  0.000000000E+00  0.000000000E+00  7.905137019E+00  7.905137019E+00  0.000000000E+00  0.00000E+00  9.000E+00
      21    -1     0     0   502   511  0.000000000E+00  0.000000000E+00 -7.698434545E+02  7.698434545E+02  0.000000000E+00  0.00000E+00  9.000E+00
      25     1     1     2     0     0 -1.283503492E+00  4.404900142E+00 -5.223669885E+02  5.371342816E+02  1.249996612E+02  0.00000E+00  9.000E+00
       5     1     1     2   501     0  3.734944117E+00  3.932655238E+00 -3.902209416E+01  3.968251400E+01  4.750000000E+00  0.00000E+00  9.000E+00
      -5     1     1     2     0   503 -7.060423143E-01 -3.800033540E+00 -1.555907143E+02  1.557111802E+02  4.750000000E+00  0.00000E+00  9.000E+00
      21     1     1     2   503   511 -1.745398310E+00 -4.537521841E+00 -4.495852053E+01  4.522061574E+01  4.768371582E-07  0.00000E+00  9.000E+00
#rwgt            1           9   9.9964606501860079E-002          10     2099707           0
</event>
<event>
      6   9999  3.45752E-01  2.10007E+01 -1.00000E+00  1.58609E-01
      21    -1     0     0   501   502  0.000000000E+00  0.000000000E+00  2.913900985E+01  2.913900985E+01  0.000000000E+00  0.00000E+00  9.000E+00
       2    -1     0     0   502     0  0.000000000E+00  0.000000000E+00 -1.866227021E+03  1.866227021E+03  0.000000000E+00  0.00000E+00  9.000E+00
      25     1     1     2     0     0  9.633336624E+01  1.853076577E+01 -5.942250683E+02  6.151031393E+02  1.249997336E+02  0.00000E+00  9.000E+00
       5     1     1     2   501     0 -1.001592879E+00 -1.457967586E-01  1.363813705E+01  1.447707592E+01  4.750000000E+00  0.00000E+00  9.000E+00
      -5     1     1     2     0   503 -1.066923625E+02 -7.223941269E-01 -6.341513523E+02  6.430818628E+02  4.750000000E+00  0.00000E+00  9.000E+00
       2     1     1     2   503     0  1.136058917E+01 -1.766257488E+01 -6.223497272E+02  6.227039525E+02  7.629394531E-06  0.00000E+00  9.000E+00
#rwgt            1           9   1.5967671884216531E-003          10     2103114           0
</event>
<event>
      6   9999 -3.45752E-01  1.88756E+01 -1.00000E+00  1.62152E-01
      21    -1     0     0   511   503  0.000000000E+00  0.000000000E+00  6.494688940E+01  6.494688940E+01  0.000000000E+00  0.00000E+00  9.000E+00
      21    -1     0     0   501   502  0.000000000E+00  0.000000000E+00 -1.361627798E+03  1.361627798E+03  0.000000000E+00  0.00000E+00  9.000E+00
      25     1     1     2     0     0 -6.232241627E+01 -1.063468302E+02 -1.167648344E+02  2.108386709E+02  1.250007469E+02  0.00000E+00  9.000E+00
       5     1     1     2   501     0  8.086009358E+01  1.327032259E+02 -1.127103628E+03  1.137775747E+03  4.750000000E+00  0.00000E+00  9.000E+00
      -5     1     1     2     0   503 -5.475928371E+00 -1.272994826E+01 -5.680797485E+01  5.866639481E+01  4.750000000E+00  0.00000E+00  9.000E+00
      21     1     1     2   511   502 -1.306174894E+01 -1.362644739E+01  3.995528169E+00  1.929387465E+01  3.769728732E-07  0.00000E+00  9.000E+00
#rwgt            1           9  -2.9206572756752163E-004          10     2105036           0
</event>
<event>
      6   9999 -3.45752E-01  9.94487E+00 -1.00000E+00  1.87447E-01
      21    -1     0     0   501   512  0.000000000E+00  0.000000000E+00  2.698934811E+01  2.698934811E+01  0.000000000E+00  0.00000E+00  9.000E+00
      21    -1     0     0   502   503  0.000000000E+00  0.000000000E+00 -1.136842980E+03  1.136842980E+03  0.000000000E+00  0.00000E+00  9.000E+00
      25     1     1     2     0     0  2.328577253E+01 -1.548626283E+01 -8.366293513E+02  8.463784884E+02  1.250032903E+02  0.00000E+00  9.000E+00
       5     1     1     2   501     0 -3.624958128E+00 -6.436155952E+00  1.672626117E+01  1.889165788E+01  4.750000000E+00  0.00000E+00  9.000E+00
      -5     1     1     2     0   503 -2.960005246E+01  2.158790274E+01 -2.851251510E+02  2.875084605E+02  4.750000000E+00  0.00000E+00  9.000E+00
      21     1     1     2   502   512  9.939238056E+00  3.345160508E-01 -4.825390350E+00  1.105372092E+01  4.339283639E-07  0.00000E+00  9.000E+00
#rwgt            1           9  -1.2423739214702143E-002          10     2107677           0
</event>
<event>
      6   9999  3.45752E-01  1.40016E+01 -1.00000E+00  1.73005E-01
      21    -1     0     0   501   511  0.000000000E+00  0.000000000E+00  3.984956655E+01  3.984956655E+01  0.000000000E+00  0.00000E+00  9.000E+00
      21    -1     0     0   502   503  0.000000000E+00  0.000000000E+00 -1.117810463E+03  1.117810463E+03  0.000000000E+00  0.00000E+00  9.000E+00
      25     1     1     2     0     0  1.380158408E+00  9.607783248E+00 -1.008811425E+03  1.016569983E+03  1.249792977E+02  0.00000E+00  9.000E+00
       5     1     1     2   501     0  9.174919184E-01 -1.294791392E+00  2.124051095E+01  2.182292560E+01  4.750000000E+00  0.00000E+00  9.000E+00
      -5     1     1     2     0   503 -6.648241817E+00  4.995568704E+00 -1.011538857E+02  1.016062297E+02  4.750000000E+00  0.00000E+00  9.000E+00
      21     1     1     2   502   511  4.350591491E+00 -1.330856056E+01  1.076390388E+01  1.766089062E+01  8.920806376E-07  0.00000E+00  9.000E+00
#rwgt            1           9  0.12475187312233685               10     2111124           0
</event>
<event>
      6   9999  3.45752E-01  2.80229E+01 -1.00000E+00  1.49779E-01
      21    -1     0     0   512   503  0.000000000E+00  0.000000000E+00  1.999354911E+01  1.999354911E+01  0.000000000E+00  0.00000E+00  9.000E+00
      21    -1     0     0   501   502  0.000000000E+00  0.000000000E+00 -8.371426709E+02  8.371426709E+02  0.000000000E+00  0.00000E+00  9.000E+00
      25     1     1     2     0     0 -2.131580040E+01 -1.106802426E+01 -6.114873330E+02  6.245939842E+02  1.249960884E+02  0.00000E+00  9.000E+00
       5     1     1     2   501     0  1.667619826E+00  2.911016738E+00 -1.055149066E+02  1.056750349E+02  4.750000000E+00  0.00000E+00  9.000E+00
      -5     1     1     2     0   503 -8.360934460E+00  7.279429234E+00 -9.802496318E+01  9.876411910E+01  4.750000000E+00  0.00000E+00  9.000E+00
      21     1     1     2   512   502  2.800911503E+01  8.775782907E-01 -2.121918934E+00  2.810308184E+01  1.036246935E-06  0.00000E+00  9.000E+00
#rwgt            1           9   3.3976957864116828E-003          10     2114091           0
</event>
<event>
      6   9999  3.45752E-01  6.76374E+00 -1.00000E+00  2.07057E-01
      21    -1     0     0   501   502  0.000000000E+00  0.000000000E+00  8.158281145E+01  8.158281145E+01  0.000000000E+00  0.00000E+00  9.000E+00
      21    -1     0     0   511   503  0.000000000E+00  0.000000000E+00 -4.541316945E+02  4.541316945E+02  0.000000000E+00  0.00000E+00  9.000E+00
      25     1     1     2     0     0 -9.999887047E+00  9.164275506E+00 -1.786398973E+02  2.184513536E+02  1.249991972E+02  0.00000E+00  9.000E+00
       5     1     1     2   501     0  7.377922317E-01 -1.238675690E+00  5.713957246E+01  5.735478965E+01  4.750000000E+00  0.00000E+00  9.000E+00
      -5     1     1     2     0   503  1.017023827E+01 -1.223107992E+00 -2.886783135E+00  1.165443077E+01  4.750000000E+00  0.00000E+00  9.000E+00
      21     1     1     2   511   502 -9.081434550E-01 -6.702491824E+00 -2.481617751E+02  2.482539320E+02  4.672030912E-06  0.00000E+00  9.000E+00
#rwgt            1           9   4.0827177359749871E-003          10     2114952           0
</event>
<event>
      6   9999  3.45752E-01  2.23168E+01 -1.00000E+00  1.56660E-01
      21    -1     0     0   501   512  0.000000000E+00  0.000000000E+00  1.030989782E+01  1.030989782E+01  0.000000000E+00  0.00000E+00  9.000E+00
      21    -1     0     0   502   503  0.000000000E+00  0.000000000E+00 -8.040992977E+02  8.040992977E+02  0.000000000E+00  0.00000E+00  9.000E+00
      25     1     1     2     0     0 -2.067824625E+01 -1.198503984E+01 -6.950066687E+02  7.065612527E+02  1.249932125E+02  0.00000E+00  9.000E+00
       5     1     1     2   501     0 -2.618120232E+00 -4.154203849E-01 -2.826485859E+00  6.130142735E+00  4.750000000E+00  0.00000E+00  9.000E+00
      -5     1     1     2     0   503  1.439494130E+00  7.892915731E+00 -1.433362380E+01  1.709928459E+01  4.750000000E+00  0.00000E+00  9.000E+00
      21     1     1     2   502   512  2.185687235E+01  4.507544489E+00 -8.162262153E+01  8.461851554E+01  9.536743164E-07  0.00000E+00  9.000E+00
#rwgt            1           9   1.2570531131440394E-003          10     2118618           0
</event>
<event>
      6   9999  3.45752E-01  2.03023E+01 -1.00000E+00  1.59715E-01
      21    -1     0     0   511   502  0.000000000E+00  0.000000000E+00  2.709920333E+01  2.709920333E+01  0.000000000E+00  0.00000E+00  9.000E+00
      21    -1     0     0   502   503  0.000000000E+00  0.000000000E+00 -8.520818009E+02  8.520818009E+02  0.000000000E+00  0.00000E+00  9.000E+00
      25     1     1     2     0     0 -1.324776191E+01 -7.794523913E+00 -4.369161427E+02  4.547033841E+02  1.249927757E+02  0.00000E+00  9.000E+00
       5     1     1     2   501     0  7.833411158E-01  4.937964427E+00  1.138152394E+01  1.330784367E+01  4.750000000E+00  0.00000E+00  9.000E+00
      -5     1     1     2     0   503  7.058096135E+00  2.242579332E+01 -3.861630075E+02  3.869071773E+02  4.750000000E+00  0.00000E+00  9.000E+00
      21     1     1     2   511   501  5.406324658E+00 -1.956923384E+01 -1.328497134E+01  2.426259926E+01  3.769728732E-07  0.00000E+00  9.000E+00
#rwgt            1           9   6.6824294191113451E-002          10     2120330           0
</event>
<event>
      6   9999  3.45752E-01  5.28623E+00 -1.00000E+00  2.22018E-01
      21    -1     0     0   512   502  0.000000000E+00  0.000000000E+00  2.333590627E+02  2.333590627E+02  0.000000000E+00  0.00000E+00  9.000E+00
      21    -1     0     0   502   503  0.000000000E+00  0.000000000E+00 -6.720718646E+02  6.720718646E+02  0.000000000E+00  0.00000E+00  9.000E+00
      25     1     1     2     0     0 -1.855202898E-01  7.496484955E+00 -6.056332839E+02  6.184437835E+02  1.249992284E+02  0.00000E+00  9.000E+00
       5     1     1     2   501     0 -3.213972376E+00 -1.033462191E+01 -4.129453388E+01  4.295270721E+01  4.750000000E+00  0.00000E+00  9.000E+00
      -5     1     1     2     0   503 -6.304182588E-01 -5.829881170E-01 -1.755296844E+01  1.820457369E+01  4.750000000E+00  0.00000E+00  9.000E+00
      21     1     1     2   512   501  4.029910925E+00  3.421125073E+00  2.257679842E+02  2.258298629E+02  2.697398305E-06  0.00000E+00  9.000E+00
#rwgt            1           9   3.9301240319202798E-004          10     2122130           0
</event>
<event>
      6   9999  3.45752E-01  8.33110E+00 -1.00000E+00  1.95953E-01
      21    -1     0     0   501   502  0.000000000E+00  0.000000000E+00  7.578916158E+02  7.578916158E+02  0.000000000E+00  0.00000E+00  9.000E+00
      21    -1     0     0   511   503  0.000000000E+00  0.000000000E+00 -5.114095816E+01  5.114095816E+01  0.000000000E+00  0.00000E+00  9.000E+00
      25     1     1     2     0     0 -1.238018433E+01  1.874485947E+01  4.293892379E+01  1.340641787E+02  1.249992564E+02  0.00000E+00  9.000E+00
       5     1     1     2   501     0 -7.532071696E+00 -6.863694069E+00  6.231303885E+02  6.232318076E+02  4.750000000E+00  0.00000E+00  9.000E+00
      -5     1     1     2     0   503  1.158287982E+01 -1.205070750E+01  3.971448091E+01  4.334956920E+01  4.750000000E+00  0.00000E+00  9.000E+00
      21     1     1     2   511   502  8.329376208E+00  1.695420985E-01  9.668644315E-01  8.387018503E+00  1.852184965E-07  0.00000E+00  9.000E+00
#rwgt            1           9   4.7290701372125097E-003          10     2125499           0
</event>
<event>
      6   9999  3.45752E-01  9.04954E+00 -1.00000E+00  1.91881E-01
      21    -1     0     0   501   502  0.000000000E+00  0.000000000E+00  7.878084967E+00  7.878084967E+00  0.000000000E+00  0.00000E+00  9.000E+00
      21    -1     0     0   502   512  0.000000000E+00  0.000000000E+00 -4.447759653E+03  4.447759653E+03  0.000000000E+00  0.00000E+00  9.000E+00
      25     1     1     2     0     0  9.384083863E+01  1.330354251E+00 -1.689791482E+03  1.697005499E+03  1.249981417E+02  0.00000E+00  9.000E+00
       5     1     1     2   501     0 -1.024429577E+00 -2.727026688E+00  1.259225279E+00  5.712642017E+00  4.750000000E+00  0.00000E+00  9.000E+00
      -5     1     1     2     0   503 -8.376951676E+01  1.615658182E+00 -2.484468341E+03  2.485885243E+03  4.750000000E+00  0.00000E+00  9.000E+00
      21     1     1     2   503   512 -9.046892300E+00 -2.189857451E-01 -2.668809696E+02  2.670343538E+02  6.607249480E-06  0.00000E+00  9.000E+00
#rwgt            1           9   1.1598239163472422E-003          10     2129425           0
</event>
<event>
      6   9999 -3.45752E-01  1.09349E+01 -1.00000E+00  1.83196E-01
      21    -1     0     0   501   502  0.000000000E+00  0.000000000E+00  6.801965231E+01  6.801965231E+01  0.000000000E+00  0.00000E+00  9.000E+00
      21    -1     0     0   511   503  0.000000000E+00  0.000000000E+00 -1.661676912E+03  1.661676912E+03  0.000000000E+00  0.00000E+00  9.000E+00
      25     1     1     2     0     0 -1.330323747E+02 -9.494563506E+01 -1.783176741E+02  2.722770687E+02  1.250012916E+02  0.00000E+00  9.000E+00
       5     1     1     2   501     0  7.561701019E-01 -1.547131811E+00  1.187293974E+01  1.290327897E+01  4.750000000E+00  0.00000E+00  9.000E+00
      -5     1     1     2     0   503  1.213466044E+02  9.615222513E+01 -6.879296830E+02  7.051525084E+02  4.750000000E+00  0.00000E+00  9.000E+00
      21     1     1     2   511   502  1.092960021E+01  3.405417320E-01 -7.392828421E+02  7.393637081E+02  1.078959322E-05  0.00000E+00  9.000E+00
#rwgt            1           9  -4.6395158899407692E-004          10     2132810           0
</event>
<event>
      6   9999  3.45752E-01  9.70830E+02 -1.00000E+00  8.94634E-02
       1    -1     0     0   501     0  0.000000000E+00  0.000000000E+00  2.162930222E+03  2.162930222E+03  0.000000000E+00  0.00000E+00  9.000E+00
      21    -1     0     0   512   502  0.000000000E+00  0.000000000E+00 -4.943043411E+03  4.943043411E+03  0.000000000E+00  0.00000E+00  9.000E+00
      25     1     1     2     0     0  9.866289479E+02  9.087343284E+02 -5.373202265E+02  1.450369759E+03  1.249986030E+02  0.00000E+00  9.000E+00
       5     1     1     2   501     0 -1.566412519E+03 -2.682287051E+03 -9.526249960E+02  3.248973523E+03  4.750000000E+00  0.00000E+00  9.000E+00
      -5     1     1     2     0   502  5.542522128E+02  8.030588006E+02 -9.909867326E+02  1.390746641E+03  4.750000000E+00  0.00000E+00  9.000E+00
       1     1     1     2   512     0  2.553135874E+01  9.704939221E+02 -2.991812337E+02  1.015883711E+03  8.529922400E-06  0.00000E+00  9.000E+00
#rwgt            1           2   8.8766293897634186E-007          10     2136659           0
</event>
<event>
      6   9999  3.45752E-01  2.07560E+01 -1.00000E+00  1.58990E-01
      21    -1     0     0   501   502  0.000000000E+00  0.000000000E+00  1.175453109E+02  1.175453109E+02  0.000000000E+00  0.00000E+00  9.000E+00
      21    -1     0     0   511   503  0.000000000E+00  0.000000000E+00 -1.875736007E+02  1.875736007E+02  0.000000000E+00  0.00000E+00  9.000E+00
      25     1     1     2     0     0  3.531259713E+00  2.306822313E+01 -1.096790811E+02  1.679311456E+02  1.250070242E+02  0.00000E+00  9.000E+00
       5     1     1     2   501     0  2.631113403E+00 -5.396480865E+00  7.294056734E+01  7.334121370E+01  4.750000000E+00  0.00000E+00  9.000E+00
      -5     1     1     2     0   503  1.276139273E+01 -2.619825019E+01 -6.987825831E+00  3.034128651E+01  4.750000000E+00  0.00000E+00  9.000E+00
      21     1     1     2   511   502 -1.892376585E+01  8.526507925E+00 -2.630195024E+01  3.350526582E+01  3.371747881E-07  0.00000E+00  9.000E+00
#rwgt            1           9   2.1335896368713230E-003          10     2137184           0
</event>
<event>
      6   9999  3.45752E-01  2.08237E+01 -1.00000E+00  1.58884E-01
      21    -1     0     0   512   502  0.000000000E+00  0.000000000E+00  1.632366770E+01  1.632366770E+01  0.000000000E+00  0.00000E+00  9.000E+00
      21    -1     0     0   502   503  0.000000000E+00  0.000000000E+00 -4.269654559E+02  4.269654559E+02  0.000000000E+00  0.00000E+00  9.000E+00
      25     1     1     2     0     0  8.887807122E+00 -1.880492752E+01 -3.755570081E+02  3.963351913E+02  1.249235731E+02  0.00000E+00  9.000E+00
       5     1     1     2   501     0  2.648651648E-01 -1.170098644E+00 -3.161018209E+00  5.830421984E+00  4.750000000E+00  0.00000E+00  9.000E+00
      -5     1     1     2     0   503  5.698963450E-01  1.560439896E+00 -7.439635624E+00  8.981672045E+00  4.750000000E+00  0.00000E+00  9.000E+00
      21     1     1     2   512   501 -9.722568632E+00  1.841458627E+01 -2.448412629E+01  3.214183829E+01  4.768371582E-07  0.00000E+00  9.000E+00
#rwgt            1           9   1.2839752400605931E-004          10     2139527           0
</event>
<event>
      6   9999  3.45752E-01  2.06819E+01 -1.00000E+00  1.59107E-01
      21    -1     0     0   501   511  0.000000000E+00  0.000000000E+00  2.282575784E+02  2.282575784E+02  0.000000000E+00  0.00000E+00  9.000E+00
      21    -1     0     0   502   503  0.000000000E+00  0.000000000E+00 -2.853146694E+02  2.853146694E+02  0.000000000E+00  0.00000E+00  9.000E+00
      25     1     1     2     0     0 -1.497462569E+01 -2.685127472E+00  6.365293013E+01  1.410970646E+02  1.250009472E+02  0.00000E+00  9.000E+00
       5     1     1     2   501     0  8.971726257E-01  4.191084582E+00  3.761277152E+01  3.815302334E+01  4.750000000E+00  0.00000E+00  9.000E+00
      -5     1     1     2     0   503  2.252516956E+01  1.737196069E+01 -2.442470989E+02  2.459438475E+02  4.750000000E+00  0.00000E+00  9.000E+00
      21     1     1     2   502   511 -8.447716499E+00 -1.887791780E+01  8.592430626E+01  8.837831239E+01  0.000000000E+00  0.00000E+00  9.000E+00
#rwgt            1           9   87.240288426934470               10     2140819           0
</event>
<event>
      6   9999  3.45752E-01  2.63670E+01 -1.00000E+00  1.51558E-01
      21    -1     0     0   501   512  0.000000000E+00  0.000000000E+00  2.384500324E+01  2.384500324E+01  0.000000000E+00  0.00000E+00  9.000E+00
      21    -1     0     0   502   503  0.000000000E+00  0.000000000E+00 -7.136838950E+02  7.136838950E+02  0.000000000E+00  0.00000E+00  9.000E+00
      25     1     1     2     0     0 -3.361964209E+00 -4.024503654E+01 -6.166493132E+02  6.304795543E+02  1.249685048E+02  0.00000E+00  9.000E+00
       5     1     1     2   501     0  8.139377850E-01 -1.119057568E+00 -6.594728425E+00  8.244254215E+00  4.750000000E+00  0.00000E+00  9.000E+00
      -5     1     1     2     0   503  1.274143810E+01  1.704720094E+01 -6.896636323E+01  7.233168781E+01  4.750000000E+00  0.00000E+00  9.000E+00
      21     1     1     2   502   512 -1.019341168E+01  2.431689316E+01  2.371513068E+00  2.647340192E+01  6.426530675E-07  0.00000E+00  9.000E+00
#rwgt            1           9   1.3541914823667850E-005          10     2142838           0
</event>
<event>
      6   9999  3.45752E-01  1.02478E+01 -1.00000E+00  1.86081E-01
      21    -1     0     0   501   502  0.000000000E+00  0.000000000E+00  1.262981028E+02  1.262981028E+02  0.000000000E+00  0.00000E+00  9.000E+00
      21    -1     0     0   511   503  0.000000000E+00  0.000000000E+00 -3.828574862E+02  3.828574862E+02  0.000000000E+00  0.00000E+00  9.000E+00
      25     1     1     2     0     0 -9.133794922E+00 -1.760325749E+00 -1.516941903E+02  1.968146221E+02  1.250533612E+02  0.00000E+00  9.000E+00
       5     1     1     2   501     0  2.358935292E+00  9.120666770E-01  1.031916193E+02  1.033318403E+02  4.750000000E+00  0.00000E+00  9.000E+00
      -5     1     1     2     0   503 -3.257106218E+00 -1.243747425E+00 -2.579321536E+01  2.645766632E+01  4.750000000E+00  0.00000E+00  9.000E+00
      21     1     1     2   511   502  1.003196585E+01  2.092006497E+00 -1.822635970E+02  1.825514602E+02  2.697398305E-06  0.00000E+00  9.000E+00
#rwgt            1           9   1.6450080392716642               10     2143647           0
</event>
<event>
      6   9999  3.45752E-01  5.89361E+00 -1.00000E+00  2.15146E-01
      21    -1     0     0   501   502  0.000000000E+00  0.000000000E+00  7.574152297E+02  7.574152297E+02  0.000000000E+00  0.00000E+00  9.000E+00
       3    -1     0     0   502     0  0.000000000E+00  0.000000000E+00 -6.936485720E+02  6.936485720E+02  0.000000000E+00  0.00000E+00  9.000E+00
      25     1     1     2     0     0 -3.341442854E+01 -2.252449269E+01  9.591902554E+01  1.626327060E+02  1.250002432E+02  0.00000E+00  9.000E+00
       5     1     1     2   501     0  4.137982498E+00  3.553300259E+00  5.918979857E+02  5.919421735E+02  4.750000000E+00  0.00000E+00  9.000E+00
      -5     1     1     2     0   503  2.989037978E+01  1.310964159E+01  2.869437707E+01  4.371758550E+01  4.750000000E+00  0.00000E+00  9.000E+00
       3     1     1     2   503     0 -6.139337438E-01  5.861550836E+00 -6.527447306E+02  6.527713367E+02  0.000000000E+00  0.00000E+00  9.000E+00
#rwgt            1           9   1.2173446958115608               10     2147014           0
</event>
<event>
      6   9999  3.45752E-01  8.38408E+00 -1.00000E+00  1.95634E-01
      21    -1     0     0   511   502  0.000000000E+00  0.000000000E+00  7.020798241E+02  7.020798241E+02  0.000000000E+00  0.00000E+00  9.000E+00
      21    -1     0     0   502   503  0.000000000E+00  0.000000000E+00 -5.814739210E+01  5.814739210E+01  0.000000000E+00  0.00000E+00  9.000E+00
      25     1     1     2     0     0  1.797451988E+01 -5.023241513E+01  2.582348768E+02  2.918175989E+02  1.250035221E+02  0.00000E+00  9.000E+00
       5     1     1     2   501     0 -1.697474155E+00 -4.345029511E+00  3.509281972E+02  3.509913429E+02  4.750000000E+00  0.00000E+00  9.000E+00
      -5     1     1     2     0   503 -2.397357160E+01  5.790255672E+01 -1.689322056E+01  6.507980954E+01  4.750000000E+00  0.00000E+00  9.000E+00
      21     1     1     2   511   501  7.696525873E+00 -3.325112076E+00  5.166257852E+01  5.233846482E+01  6.743495762E-07  0.00000E+00  9.000E+00
#rwgt            1           9   46.531908450116497               10     2151990           0
</event>
<event>
      6   9999 -3.45752E-01  9.96492E+00 -1.00000E+00  1.87355E-01
      21    -1     0     0   501   502  0.000000000E+00  0.000000000E+00  4.181580829E+00  4.181580829E+00  0.000000000E+00  0.00000E+00  9.000E+00
      21    -1     0     0   502   512  0.000000000E+00  0.000000000E+00 -2.282085215E+03  2.282085215E+03  0.000000000E+00  0.00000E+00  9.000E+00
      25     1     1     2     0     0  3.075405117E+01  4.666822390E+00 -1.594226483E+03  1.599422501E+03  1.250066683E+02  0.00000E+00  9.000E+00
       5     1     1     2   501     0 -9.124771502E-02 -3.106858549E-01 -1.032981940E+01  1.137420418E+01  4.750000000E+00  0.00000E+00  9.000E+00
      -5     1     1     2     0   503 -3.462747039E+01 -1.349840166E+01 -3.559796312E+02  3.579459860E+02  4.750000000E+00  0.00000E+00  9.000E+00
      21     1     1     2   503   512  3.964666931E+00  9.142265129E+00 -3.173677005E+02  3.175241045E+02  0.000000000E+00  0.00000E+00  9.000E+00
#rwgt            1           9  -3.7225250365057142E-003          10     2155669           0
</event>
<event>
      6   9999 -3.45752E-01  5.34317E+00 -1.00000E+00  2.21321E-01
      21    -1     0     0   501   502  0.000000000E+00  0.000000000E+00  1.416589008E+01  1.416589008E+01  0.000000000E+00  0.00000E+00  9.000E+00
      21    -1     0     0   502   511  0.000000000E+00  0.000000000E+00 -1.197635463E+03  1.197635463E+03  0.000000000E+00  0.00000E+00  9.000E+00
      25     1     1     2     0     0 -6.939576618E-01 -5.276201689E+00 -8.393534604E+02  8.486270526E+02  1.250012921E+02  0.00000E+00  9.000E+00
       5     1     1     2   501     0 -4.179742730E+00 -1.814024278E+00  8.206108732E+00  1.051967936E+01  4.750000000E+00  0.00000E+00  9.000E+00
      -5     1     1     2     0   503  3.879109295E+00  1.840444802E+00 -7.271699958E+01  7.299835103E+01  4.750000000E+00  0.00000E+00  9.000E+00
      21     1     1     2   503   511  9.945910966E-01  5.249781165E+00 -2.796052220E+02  2.796562704E+02  5.394796609E-06  0.00000E+00  9.000E+00
#rwgt            1           9  -7.0209881725495943E-002          10     2158023           0
</event>
<event>
      6   9999  3.45752E-01  1.87122E+01 -1.00000E+00  1.62448E-01
      21    -1     0     0   512   502  0.000000000E+00  0.000000000E+00  5.097594993E+01  5.097594993E+01  0.000000000E+00  0.00000E+00  9.000E+00
      21    -1     0     0   502   503  0.000000000E+00  0.000000000E+00 -1.270665970E+03  1.270665970E+03  0.000000000E+00  0.00000E+00  9.000E+00
      25     1     1     2     0     0 -1.862990675E+01 -2.513496633E+01 -1.173998906E+03  1.181048950E+03  1.249973998E+02  0.00000E+00  9.000E+00
       5     1     1     2   501     0 -1.863616560E+00 -3.027443324E-01  4.256880010E+01  4.287458411E+01  4.750000000E+00  0.00000E+00  9.000E+00
      -5     1     1     2     0   503  2.144450221E+01  6.749683734E+00 -5.390210436E+01  5.859542866E+01  4.750000000E+00  0.00000E+00  9.000E+00
      21     1     1     2   512   501 -9.509789033E-01  1.868802693E+01 -3.435780915E+01  3.912295696E+01  0.000000000E+00  0.00000E+00  9.000E+00
#rwgt            1           9   1.0395852662269093E-004          10     2162260           0
</event>
<event>
      6   9999  3.45752E-01  4.76347E+00 -1.00000E+00  2.33127E-01
      21    -1     0     0   501   502  0.000000000E+00  0.000000000E+00  6.881281248E+01  6.881281248E+01  0.000000000E+00  0.00000E+00  9.000E+00
      21    -1     0     0   502   511  0.000000000E+00  0.000000000E+00 -3.487994517E+02  3.487994517E+02  0.000000000E+00  0.00000E+00  9.000E+00
      25     1     1     2     0     0  1.150054750E+01  2.292485657E+01 -2.905042255E+01  1.308707441E+02  1.250016518E+02  0.00000E+00  9.000E+00
       5     1     1     2   501     0  1.312335220E+00  3.375627575E-01  1.601363339E+01  1.675813614E+01  4.750000000E+00  0.00000E+00  9.000E+00
      -5     1     1     2     0   503 -8.650030510E+00 -2.094697375E+01 -8.878192280E+01  9.175179046E+01  4.750000000E+00  0.00000E+00  9.000E+00
      21     1     1     2   503   511 -4.162852211E+00 -2.315445581E+00 -1.781679273E+02  1.782315936E+02  0.000000000E+00  0.00000E+00  9.000E+00
#rwgt            1           9   134.34927952278494               10     2164687           0
</event>
<event>
      6   9999  3.45752E-01  6.32961E+00 -1.00000E+00  2.10873E-01
      21    -1     0     0   512   502  0.000000000E+00  0.000000000E+00  2.148140604E+02  2.148140604E+02  0.000000000E+00  0.00000E+00  9.000E+00
      21    -1     0     0   502   503  0.000000000E+00  0.000000000E+00 -6.014204999E+02  6.014204999E+02  0.000000000E+00  0.00000E+00  9.000E+00
      25     1     1     2     0     0 -3.353187010E+00  1.785692521E+00 -5.563442515E+02  5.702221485E+02  1.249797580E+02  0.00000E+00  9.000E+00
       5     1     1     2   501     0 -7.938717585E+00 -3.422762697E+00  3.570725838E+01  3.704469385E+01  4.750000000E+00  0.00000E+00  9.000E+00
      -5     1     1     2     0   503  5.035837614E+00  6.749982665E-01 -3.708677546E+01  3.773336319E+01  4.750000000E+00  0.00000E+00  9.000E+00
      21     1     1     2   512   501  6.256066981E+00  9.620719099E-01  1.711173291E+02  1.712343548E+02  2.697398305E-06  0.00000E+00  9.000E+00
#rwgt            1           9   293.43270408330625               10     2169670           0
</event>
<event>
      6   9999  3.45752E-01  4.86009E+00 -1.00000E+00  2.31552E-01
      21    -1     0     0   511   502  0.000000000E+00  0.000000000E+00  2.537030689E+01  2.537030689E+01  0.000000000E+00  0.00000E+00  9.000E+00
      21    -1     0     0   502   503  0.000000000E+00  0.000000000E+00 -7.683740654E+02  7.683740654E+02  0.000000000E+00  0.00000E+00  9.000E+00
      25     1     1     2     0     0 -3.634195761E+00  1.947802706E+00 -5.979578036E+02  6.108974249E+02  1.250005104E+02  0.00000E+00  9.000E+00
       5     1     1     2   501     0 -2.594317810E-01  1.013885725E+00  5.982946321E-01  4.900584208E+00  4.750000000E+00  0.00000E+00  9.000E+00
      -5     1     1     2     0   503 -8.059816530E-01 -4.200280705E+00 -1.613649807E+02  1.614915213E+02  4.750000000E+00  0.00000E+00  9.000E+00
      21     1     1     2   511   501  4.699609195E+00  1.238592275E+00  1.572073106E+01  1.645484191E+01  1.203954809E-06  0.00000E+00  9.000E+00
#rwgt            1           9   5.4711399237850297E-005          10     2174018           0
</event>
<event>
      6   9999  3.45752E-01  2.87386E+01 -1.00000E+00  1.49055E-01
      21    -1     0     0   501   502  0.000000000E+00  0.000000000E+00  2.964024308E+01  2.964024308E+01  0.000000000E+00  0.00000E+00  9.000E+00
      21    -1     0     0   502   512  0.000000000E+00  0.000000000E+00 -5.123318976E+02  5.123318976E+02  0.000000000E+00  0.00000E+00  9.000E+00
      25     1     1     2     0     0 -3.956556469E+00  4.525116252E+01 -1.559536471E+02  2.049621146E+02  1.249984252E+02  0.00000E+00  9.000E+00
       5     1     1     2   501     0 -1.916968521E-01  1.479856576E+00  1.257063137E+00  5.135117418E+00  4.750000000E+00  0.00000E+00  9.000E+00
      -5     1     1     2     0   503  7.602710989E+00 -1.820084188E+01 -9.700892595E+01  9.910785072E+01  4.750000000E+00  0.00000E+00  9.000E+00
      21     1     1     2   503   512 -3.454457668E+00 -2.853017721E+01 -2.309861446E+02  2.327670580E+02  2.697398305E-06  0.00000E+00  9.000E+00
#rwgt            1           9   7.9098800414651208E-004          10     2177499           0
</event>
<event>
      6   9999  3.45752E-01  3.52276E+01 -1.00000E+00  1.43463E-01
      21    -1     0     0   501   502  0.000000000E+00  0.000000000E+00  3.657712792E+01  3.657712792E+01  0.000000000E+00  0.00000E+00  9.000E+00
      21    -1     0     0   511   503  0.000000000E+00  0.000000000E+00 -1.613336243E+03  1.613336243E+03  0.000000000E+00  0.00000E+00  9.000E+00
      25     1     1     2     0     0 -9.352981472E+01 -3.915760238E+01 -2.418629403E+02  2.905236376E+02  1.250006320E+02  0.00000E+00  9.000E+00
       5     1     1     2   501     0 -5.053746071E+00 -3.735184220E+00  8.045756308E+00  1.126004641E+01  4.750000000E+00  0.00000E+00  9.000E+00
      -5     1     1     2     0   503  8.149849154E+01  1.208553844E+01 -8.885141288E+02  8.923384918E+02  4.750000000E+00  0.00000E+00  9.000E+00
      21     1     1     2   511   502  1.708506925E+01  3.080724816E+01 -4.544278026E+02  4.557911955E+02  5.394796609E-06  0.00000E+00  9.000E+00
#rwgt            1           9   1.2086928977944625E-002          10     2178609           0
</event>
<event>
      6   9999  3.45752E-01  4.33958E+00 -1.00000E+00  2.40746E-01
      21    -1     0     0   512   502  0.000000000E+00  0.000000000E+00  1.595352010E+02  1.595352010E+02  0.000000000E+00  0.00000E+00  9.000E+00
      21    -1     0     0   502   503  0.000000000E+00  0.000000000E+00 -1.048063460E+03  1.048063460E+03  0.000000000E+00  0.00000E+00  9.000E+00
      25     1     1     2     0     0 -4.091036996E+00 -4.940710683E+00 -9.541547776E+02  9.623293375E+02  1.250010677E+02  0.00000E+00  9.000E+00
       5     1     1     2   501     0  2.397641192E+00  1.355180443E+00  1.936934719E+01  2.013254350E+01  4.750000000E+00  0.00000E+00  9.000E+00
      -5     1     1     2     0   503  1.336068438E+00 -7.393094185E-01 -8.933548107E+01  8.947470220E+01  4.750000000E+00  0.00000E+00  9.000E+00
      21     1     1     2   512   501  3.573273665E-01  4.324839658E+00  1.355926525E+02  1.356620777E+02  4.264961200E-06  0.00000E+00  9.000E+00
#rwgt            1           9   4.3023655436579824E-004          10     2180392           0
</event>
<event>
      6   9999  3.45752E-01  4.73038E+00 -1.00000E+00  2.33680E-01
      21    -1     0     0   511   502  0.000000000E+00  0.000000000E+00  2.955470222E+01  2.955470222E+01  0.000000000E+00  0.00000E+00  9.000E+00
      21    -1     0     0   502   503  0.000000000E+00  0.000000000E+00 -1.124866952E+03  1.124866952E+03  0.000000000E+00  0.00000E+00  9.000E+00
      25     1     1     2     0     0 -8.342109262E+00 -1.516262620E+01 -4.137916656E+02  4.326085735E+02  1.250085570E+02  0.00000E+00  9.000E+00
       5     1     1     2   501     0 -1.979857136E+00 -4.119707331E+00  1.814004335E+01  1.930066049E+01  4.750000000E+00  0.00000E+00  9.000E+00
      -5     1     1     2     0   503  1.163222451E+01  2.382763486E+01 -6.960256461E+02  6.965467158E+02  4.750000000E+00  0.00000E+00  9.000E+00
      21     1     1     2   511   501 -1.310258111E+00 -4.545301328E+00 -3.634981734E+00  5.965704710E+00  1.884864366E-07  0.00000E+00  9.000E+00
#rwgt            1           9   1.1793706419833769               10     2185689           0
</event>
<event>
      6   9999  3.45752E-01  1.42216E+01 -1.00000E+00  1.72402E-01
      21    -1     0     0   512   502  0.000000000E+00  0.000000000E+00  1.152660690E+01  1.152660690E+01  0.000000000E+00  0.00000E+00  9.000E+00
      21    -1     0     0   502   503  0.000000000E+00  0.000000000E+00 -6.677620641E+02  6.677620641E+02  0.000000000E+00  0.00000E+00  9.000E+00
      25     1     1     2     0     0  1.386296431E+01 -4.772338478E+00 -4.146583523E+02  4.333365576E+02  1.249962640E+02  0.00000E+00  9.000E+00
       5     1     1     2   501     0 -1.618623420E+01  8.057229066E-01 -1.230147232E+02  1.241685468E+02  4.750000000E+00  0.00000E+00  9.000E+00
      -5     1     1     2     0   503 -6.944675648E+00 -6.820342718E+00 -7.907410164E+01  7.981241536E+01  4.750000000E+00  0.00000E+00  9.000E+00
      21     1     1     2   512   501  9.267945539E+00  1.078695829E+01 -3.948828007E+01  4.197115136E+01  6.743495762E-07  0.00000E+00  9.000E+00
#rwgt            1           9  0.23814315558837015               10     2191181           0
</event>
<event>
      6   9999  3.45752E-01  1.05834E+01 -1.00000E+00  1.84636E-01
      21    -1     0     0   501   511  0.000000000E+00  0.000000000E+00  1.645355272E+02  1.645355272E+02  0.000000000E+00  0.00000E+00  9.000E+00
      21    -1     0     0   502   503  0.000000000E+00  0.000000000E+00 -3.923217811E+02  3.923217811E+02  0.000000000E+00  0.00000E+00  9.000E+00
      25     1     1     2     0     0  6.411095060E-02  1.606610664E+01 -3.719090611E+02  3.926821773E+02  1.249992750E+02  0.00000E+00  9.000E+00
       5     1     1     2   501     0 -5.559436499E-01  1.480315815E+00  2.733914766E+00  5.704138691E+00  4.750000000E+00  0.00000E+00  9.000E+00
      -5     1     1     2     0   503  1.691563074E-01 -6.967908476E+00 -6.221969446E+00  1.048121015E+01  4.750000000E+00  0.00000E+00  9.000E+00
      21     1     1     2   502   511  3.226763919E-01 -1.057851398E+01  1.476108619E+02  1.479897822E+02  2.697398305E-06  0.00000E+00  9.000E+00
#rwgt            1           9   4.0090611750030498E-003          10     2192885           0
</event>
<event>
      6   9999 -3.45752E-01  2.45678E+01 -1.00000E+00  1.53678E-01
      21    -1     0     0   501   502  0.000000000E+00  0.000000000E+00  3.876165130E+01  3.876165130E+01  0.000000000E+00  0.00000E+00  9.000E+00
       2    -1     0     0   502     0  0.000000000E+00  0.000000000E+00 -1.451069444E+03  1.451069444E+03  0.000000000E+00  0.00000E+00  9.000E+00
      25     1     1     2     0     0  4.692556753E+01 -3.789622773E-01 -1.047597690E+03  1.056071420E+03  1.249950872E+02  0.00000E+00  9.000E+00
       5     1     1     2   501     0 -1.134898689E+00 -4.178568171E+00  3.117297283E+01  3.182868458E+01  4.750000000E+00  0.00000E+00  9.000E+00
      -5     1     1     2     0   503 -2.700959933E+01 -1.128065304E+01 -8.397615920E+01  8.905801145E+01  4.750000000E+00  0.00000E+00  9.000E+00
       2     1     1     2   503     0 -1.878106950E+01  1.583818349E+01 -3.119069162E+02  3.128729790E+02  3.814697266E-06  0.00000E+00  9.000E+00
#rwgt            1           9  -4.2905896751552789E-003          10     2195394           0
</event>
<event>
      6   9999  3.45752E-01  1.13218E+01 -1.00000E+00  1.81688E-01
      21    -1     0     0   501   511  0.000000000E+00  0.000000000E+00  8.524542663E+02  8.524542663E+02  0.000000000E+00  0.00000E+00  9.000E+00
      21    -1     0     0   502   503  0.000000000E+00  0.000000000E+00 -7.253937283E+02  7.253937283E+02  0.000000000E+00  0.00000E+00  9.000E+00
      25     1     1     2     0     0  7.276710331E+00  1.081327605E+01 -6.705780516E+02  6.822529612E+02  1.249972090E+02  0.00000E+00  9.000E+00
       5     1     1     2   501     0  2.836300596E+00 -1.208231824E+01 -2.597846655E+01  2.917996297E+01  4.750000000E+00  0.00000E+00  9.000E+00
      -5     1     1     2     0   503  1.128996129E+00 -7.252325118E-02 -2.108203133E+01  2.164011176E+01  4.750000000E+00  0.00000E+00  9.000E+00
      21     1     1     2   502   511 -1.124200706E+01  1.341565445E+00  8.446990875E+02  8.447749587E+02  0.000000000E+00  0.00000E+00  9.000E+00
#rwgt            1           9   2.4272971545762270E-003          10     2197114           0
</event>
<event>
      6   9999 -3.45752E-01  1.63060E+01 -1.00000E+00  1.67288E-01
      21    -1     0     0   512   502  0.000000000E+00  0.000000000E+00  3.150418399E+01  3.150418399E+01  0.000000000E+00  0.00000E+00  9.000E+00
      21    -1     0     0   502   503  0.000000000E+00  0.000000000E+00 -3.391500672E+02  3.391500672E+02  0.000000000E+00  0.00000E+00  9.000E+00
      25     1     1     2     0     0  2.361678812E+01  2.744527889E+01 -2.746889256E+02  3.039562392E+02  1.249975739E+02  0.00000E+00  9.000E+00
       5     1     1     2   501     0 -1.113659860E+01 -2.196991671E+01 -1.815080705E+01  3.096312912E+01  4.750000000E+00  0.00000E+00  9.000E+00
      -5     1     1     2     0   503 -7.916640595E-01  5.894132330E+00  5.719456293E+00  9.520620158E+00  4.750000000E+00  0.00000E+00  9.000E+00
      21     1     1     2   512   501 -1.168852547E+01 -1.136949452E+01 -2.052560686E+01  2.621426273E+01  2.384185791E-07  0.00000E+00  9.000E+00
#rwgt            1           9  -16944.408077839304               10     2198945           0
</event>
<event>
      6   9999  3.45752E-01  2.68691E+01 -1.00000E+00  1.51003E-01
      21    -1     0     0   501   502  0.000000000E+00  0.000000000E+00  7.753655240E+01  7.753655240E+01  0.000000000E+00  0.00000E+00  9.000E+00
      21    -1     0     0   502   511  0.000000000E+00  0.000000000E+00 -1.698999323E+03  1.698999323E+03  0.000000000E+00  0.00000E+00  9.000E+00
      25     1     1     2     0     0  7.675383907E+00 -2.043182099E-01 -1.581739606E+02  2.017469700E+02  1.249955393E+02  0.00000E+00  9.000E+00
       5     1     1     2   501     0 -6.770827835E+00 -1.672318464E+01  5.297526998E+01  5.616449718E+01  4.750000000E+00  0.00000E+00  9.000E+00
      -5     1     1     2     0   503 -2.511928724E+01  5.282890127E+00 -1.346013382E+03  1.346266495E+03  4.750000000E+00  0.00000E+00  9.000E+00
      21     1     1     2   503   511  2.421473117E+01  1.164461272E+01 -1.702506980E+02  1.723579136E+02  0.000000000E+00  0.00000E+00  9.000E+00
#rwgt            1           9   6.2905836091072562E-004          10     2201336           0
</event>
<event>
      6   9999  3.45752E-01  7.03406E+00 -1.00000E+00  2.04870E-01
      21    -1     0     0   501   502  0.000000000E+00  0.000000000E+00  6.017849782E+02  6.017849782E+02  0.000000000E+00  0.00000E+00  9.000E+00
      21    -1     0     0   502   512  0.000000000E+00  0.000000000E+00 -1.376126630E+01  1.376126630E+01  0.000000000E+00  0.00000E+00  9.000E+00
      25     1     1     2     0     0 -1.587550378E+01  2.200561558E+01  3.509305562E+02  3.735140419E+02  1.249968221E+02  0.00000E+00  9.000E+00
       5     1     1     2   501     0 -7.485871285E-02 -4.633043992E-01  1.085170966E+02  1.086220190E+02  4.750000000E+00  0.00000E+00  9.000E+00
      -5     1     1     2     0   503  1.010384208E+01 -2.545334714E+01  1.121221037E+02  1.155157528E+02  4.750000000E+00  0.00000E+00  9.000E+00
      21     1     1     2   503   512  5.846520421E+00  3.911035961E+00  1.645395545E+01  1.789443079E+01  2.384185791E-07  0.00000E+00  9.000E+00
#rwgt            1           9   2.9950646504601143E-002          10     2204602           0
</event>
<event>
      6   9999  3.45752E-01  1.01583E+01 -1.00000E+00  1.86478E-01
      21    -1     0     0   511   502  0.000000000E+00  0.000000000E+00  3.985963950E+01  3.985963950E+01  0.000000000E+00  0.00000E+00  9.000E+00
      21    -1     0     0   502   503  0.000000000E+00  0.000000000E+00 -1.116076767E+03  1.116076767E+03  0.000000000E+00  0.00000E+00  9.000E+00
      25     1     1     2     0     0  1.244053790E+00 -1.732899181E+01 -1.084964415E+03  1.092279907E+03  1.250030944E+02  0.00000E+00  9.000E+00
       5     1     1     2   501     0  1.134784216E+00  1.908205867E+00  1.464105545E+01  1.555159122E+01  4.750000000E+00  0.00000E+00  9.000E+00
      -5     1     1     2     0   503  1.100178730E+00  5.876769073E+00 -2.517705326E+01  2.630956706E+01  4.750000000E+00  0.00000E+00  9.000E+00
      21     1     1     2   511   501 -3.479016737E+00  9.544016867E+00  1.928328476E+01  2.179534094E+01  9.830249847E-07  0.00000E+00  9.000E+00
#rwgt            1           9   1.3765128940357529E-003          10     2207531           0
</event>
<event>
      6   9999  3.45752E-01  1.04338E+01 -1.00000E+00  1.85272E-01
      21    -1     0     0   512   502  0.000000000E+00  0.000000000E+00  1.035076650E+01  1.035076650E+01  0.000000000E+00  0.00000E+00  9.000E+00
      21    -1     0     0   502   503  0.000000000E+00  0.000000000E+00 -8.002608510E+02  8.002608510E+02  0.000000000E+00  0.00000E+00  9.000E+00
      25     1     1     2     0     0  6.897321674E+00 -2.824819107E+01 -5.513847082E+02  5.661231439E+02  1.249991374E+02  0.00000E+00  9.000E+00
       5     1     1     2   501     0  6.623188325E+00  7.013049612E+00 -3.770305427E+01  3.920627870E+01  4.750000000E+00  0.00000E+00  9.000E+00
      -5     1     1     2     0   503 -8.666407897E+00  3.047101582E+01 -1.570303402E+02  1.602644055E+02  4.750000000E+00  0.00000E+00  9.000E+00
      21     1     1     2   512   501 -4.854102101E+00 -9.235874355E+00 -4.379198182E+01  4.501778930E+01  4.768371582E-07  0.00000E+00  9.000E+00
#rwgt            1           9   1.7005817584063866E-003          10     2210850           0
</event>
<event>
      6   9999  3.45752E-01  2.10541E+01 -1.00000E+00  1.58526E-01
      21    -1     0     0   501   502  0.000000000E+00  0.000000000E+00  1.916795134E+03  1.916795134E+03  0.000000000E+00  0.00000E+00  9.000E+00
      21    -1     0     0   502   511  0.000000000E+00  0.000000000E+00 -3.826297179E+01  3.826297179E+01  0.000000000E+00  0.00000E+00  9.000E+00
      25     1     1     2     0     0 -2.820265401E+01  1.760495359E+01  1.195432409E+02  1.761254048E+02  1.249969907E+02  0.00000E+00  9.000E+00
       5     1     1     2   501     0  5.361075152E+00 -1.878872444E+00  1.708934242E+03  1.708950285E+03  4.750000000E+00  0.00000E+00  9.000E+00
      -5     1     1     2     0   503  2.669876259E+01  4.971695450E+00  3.207836315E+01  4.229805625E+01  4.750000000E+00  0.00000E+00  9.000E+00
      21     1     1     2   503   511 -3.857183734E+00 -2.069777660E+01  1.797631629E+01  2.768435966E+01  6.743495762E-07  0.00000E+00  9.000E+00
#rwgt            1           9   1.0159340799645907E-004          10     2213031           0
</event>
<event>
      6   9999  3.45752E-01  1.29957E+01 -1.00000E+00  1.75953E-01
      21    -1     0     0   501   502  0.000000000E+00  0.000000000E+00  1.139836999E+01  1.139836999E+01  0.000000000E+00  0.00000E+00  9.000E+00
      21    -1     0     0   512   503  0.000000000E+00  0.000000000E+00 -1.061324091E+03  1.061324091E+03  0.000000000E+00  0.00000E+00  9.000E+00
      25     1     1     2     0     0 -3.172792970E+00 -4.136077313E+00 -8.621592948E+02  8.711888994E+02  1.249971002E+02  0.00000E+00  9.000E+00
       5     1     1     2   501     0 -6.412996415E+00 -2.971855589E+00  3.660451528E+00  9.269296308E+00  4.750000000E+00  0.00000E+00  9.000E+00
      -5     1     1     2     0   503 -1.300730181E+00  1.064963779E-02 -5.076443340E+01  5.100276670E+01  4.750000000E+00  0.00000E+00  9.000E+00
      21     1     1     2   512   502  1.088651957E+01  7.097283264E+00 -1.406624444E+02  1.412614987E+02  0.000000000E+00  0.00000E+00  9.000E+00
#rwgt            1           9   1.0954519603504991               10     2215544           0
</event>
<event>
      6   9999 -3.45752E-01  8.75279E+01 -1.00000E+00  1.22946E-01
      21    -1     0     0   511   502  0.000000000E+00  0.000000000E+00  6.738894161E+01  6.738894161E+01  0.000000000E+00  0.00000E+00  9.000E+00
      21    -1     0     0   502   503  0.000000000E+00  0.000000000E+00 -5.600731250E+02  5.600731250E+02  0.000000000E+00  0.00000E+00  9.000E+00
      25     1     1     2     0     0 -4.292938411E+01  3.724250526E+01 -3.986523147E+02  4.216382622E+02  1.250008795E+02  0.00000E+00  9.000E+00
       5     1     1     2   501     0 -2.698429901E+01 -2.311518762E+01 -9.475815444E+00  3.707853651E+01  4.750000000E+00  0.00000E+00  9.000E+00
      -5     1     1     2     0   503 -5.828593302E+00 -5.799347801E+01 -3.539537862E+01  6.835650166E+01  4.750000000E+00  0.00000E+00  9.000E+00
      21     1     1     2   511   501  7.574227642E+01  4.386616037E+01 -4.916067456E+01  1.003887662E+02  2.611744678E-06  0.00000E+00  9.000E+00
#rwgt            1           9  -13892.419140044856               10     2217389           0
</event>
<event>
      6   9999  3.45752E-01  2.10368E+01 -1.00000E+00  1.58553E-01
      21    -1     0     0   501   512  0.000000000E+00  0.000000000E+00  3.055673002E+02  3.055673002E+02  0.000000000E+00  0.00000E+00  9.000E+00
      21    -1     0     0   502   503  0.000000000E+00  0.000000000E+00 -1.538676111E+03  1.538676111E+03  0.000000000E+00  0.00000E+00  9.000E+00
      25     1     1     2     0     0  1.549998305E+00  4.174369667E+01 -6.615813751E+02  6.745821581E+02  1.250049339E+02  0.00000E+00  9.000E+00
       5     1     1     2   501     0 -6.414320539E+00 -2.608084146E+01  8.390870707E+01  8.823030897E+01  4.750000000E+00  0.00000E+00  9.000E+00
      -5     1     1     2     0   503 -5.425989535E+00 -3.401107443E+01 -8.675650851E+02  8.682614433E+02  4.750000000E+00  0.00000E+00  9.000E+00
      21     1     1     2   502   512  1.029031177E+01  1.834821921E+01  2.121289426E+02  2.131695005E+02  2.697398305E-06  0.00000E+00  9.000E+00
#rwgt            1           9   1.2077286935849915E-002          10     2218418           0
</event>
<event>
      6   9999  3.45752E-01  1.00015E+01 -1.00000E+00  1.87187E-01
      21    -1     0     0   501   511  0.000000000E+00  0.000000000E+00  4.031568482E+01  4.031568482E+01  0.000000000E+00  0.00000E+00  9.000E+00
      21    -1     0     0   502   503  0.000000000E+00  0.000000000E+00 -1.004198582E+03  1.004198582E+03  0.000000000E+00  0.00000E+00  9.000E+00
      25     1     1     2     0     0  6.830592128E+00  1.073490042E+02 -4.727263011E+02  5.006662270E+02  1.250041973E+02  0.00000E+00  9.000E+00
       5     1     1     2   501     0  4.718666208E-01 -2.615650956E-01 -2.722046424E+00  5.501191793E+00  4.750000000E+00  0.00000E+00  9.000E+00
      -5     1     1     2     0   503  2.624035600E+00 -1.083102928E+02 -5.063477476E+02  5.178306761E+02  4.750000000E+00  0.00000E+00  9.000E+00
      21     1     1     2   502   511 -9.926494349E+00  1.222853681E+00  1.791319783E+01  2.051617210E+01  4.129530925E-07  0.00000E+00  9.000E+00
#rwgt            1           9   8.0561142040198664E-006          10     2221202           0
</event>
<event>
      6   9999 -3.45752E-01  3.96696E+01 -1.00000E+00  1.40395E-01
      21    -1     0     0   512   502  0.000000000E+00  0.000000000E+00  1.725926645E+02  1.725926645E+02  0.000000000E+00  0.00000E+00  9.000E+00
      21    -1     0     0   502   503  0.000000000E+00  0.000000000E+00 -1.033383721E+03  1.033383721E+03  0.000000000E+00  0.00000E+00  9.000E+00
      25     1     1     2     0     0 -6.923339953E+01  5.445114924E+01 -9.503122740E+02  9.625365257E+02  1.249998158E+02  0.00000E+00  9.000E+00
       5     1     1     2   501     0  2.981392791E+01 -1.841516472E+01 -1.291324261E+01  3.764708386E+01  4.750000000E+00  0.00000E+00  9.000E+00
      -5     1     1     2     0   503  6.714574352E-01 -2.753468518E+01 -4.507787159E+01  5.303948293E+01  4.750000000E+00  0.00000E+00  9.000E+00
      21     1     1     2   512   501  3.874801419E+01 -8.501299343E+00  1.475123314E+02  1.527532933E+02  3.814697266E-06  0.00000E+00  9.000E+00
#rwgt            1           9 -0.32506868846291970               10     2224408           0
</event>
<event>
      6   9999  3.45752E-01  4.16331E+01 -1.00000E+00  1.39185E-01
      21    -1     0     0   501   511  0.000000000E+00  0.000000000E+00  8.233528260E+01  8.233528260E+01  0.000000000E+00  0.00000E+00  9.000E+00
      21    -1     0     0   502   503  0.000000000E+00  0.000000000E+00 -1.380035331E+03  1.380035331E+03  0.000000000E+00  0.00000E+00  9.000E+00
      25     1     1     2     0     0  1.053849144E+02  7.753478611E+01 -2.723624622E+02  3.269909872E+02  1.249966866E+02  0.00000E+00  9.000E+00
       5     1     1     2   501     0 -7.403474101E+00  6.895792841E-01  2.075640544E+01  2.255388692E+01  4.750000000E+00  0.00000E+00  9.000E+00
      -5     1     1     2     0   503 -1.344022040E+02 -5.805411075E+01 -1.059120722E+03  1.069202272E+03  4.750000000E+00  0.00000E+00  9.000E+00
      21     1     1     2   502   511  3.642076369E+01 -2.017025465E+01  1.302673041E+01  4.362346738E+01  7.348554138E-07  0.00000E+00  9.000E+00
#rwgt            1           9   2.4287927189505355E-004          10     2225784           0
</event>
<event>
      6   9999  3.45752E-01  5.63353E+00 -1.00000E+00  2.17943E-01
      21    -1     0     0   512   502  0.000000000E+00  0.000000000E+00  3.065073674E+02  3.065073674E+02  0.000000000E+00  0.00000E+00  9.000E+00
      21    -1     0     0   502   503  0.000000000E+00  0.000000000E+00 -9.474086220E+02  9.474086220E+02  0.000000000E+00  0.00000E+00  9.000E+00
      25     1     1     2     0     0 -2.738839897E+00  1.124468027E+01 -8.503577615E+02  8.595739019E+02  1.250001049E+02  0.00000E+00  9.000E+00
       5     1     1     2   501     0 -4.441191418E-01 -3.626281528E+00  1.212717130E+01  1.352693399E+01  4.750000000E+00  0.00000E+00  9.000E+00
      -5     1     1     2     0   503 -2.268522266E+00 -9.038963498E+00 -9.141719709E+01  9.201367006E+01  4.750000000E+00  0.00000E+00  9.000E+00
      21     1     1     2   512   501  5.451481305E+00  1.420564756E+00  2.887465327E+02  2.888014834E+02  3.814697266E-06  0.00000E+00  9.000E+00
#rwgt            1           9   4.7099143354409701E-003          10     2227352           0
</event>
<event>
      6   9999  3.45752E-01  5.75558E+00 -1.00000E+00  2.16605E-01
      21    -1     0     0   501   502  0.000000000E+00  0.000000000E+00  7.187516062E+00  7.187516062E+00  0.000000000E+00  0.00000E+00  9.000E+00
      21    -1     0     0   502   511  0.000000000E+00  0.000000000E+00 -1.484923173E+03  1.484923173E+03  0.000000000E+00  0.00000E+00  9.000E+00
      25     1     1     2     0     0 -4.875018620E+00 -6.140024161E+00 -9.130386251E+02  9.215891736E+02  1.250024336E+02  0.00000E+00  9.000E+00
       5     1     1     2   501     0  1.028192448E+00  9.721338557E-01  5.459182743E-01  4.986256181E+00  4.750000000E+00  0.00000E+00  9.000E+00
      -5     1     1     2     0   503  9.547107680E+00  4.371993668E+00 -2.845352667E+02  2.847685764E+02  4.750000000E+00  0.00000E+00  9.000E+00
      21     1     1     2   503   511 -5.700281508E+00  7.958966373E-01 -2.807076834E+02  2.807666828E+02  3.814697266E-06  0.00000E+00  9.000E+00
#rwgt            1           9   17.986925862307736               10     2232216           0
</event>
<event>
      6   9999  3.45752E-01  2.59701E+01 -1.00000E+00  1.52008E-01
      21    -1     0     0   502   512  0.000000000E+00  0.000000000E+00  3.089329057E+01  3.089329057E+01  0.000000000E+00  0.00000E+00  9.000E+00
      21    -1     0     0   501   502  0.000000000E+00  0.000000000E+00 -7.878182225E+02  7.878182225E+02  0.000000000E+00  0.00000E+00  9.000E+00
      25     1     1     2     0     0 -1.001427724E+01  4.505278596E+00 -5.769097104E+02  5.903981790E+02  1.249984500E+02  0.00000E+00  9.000E+00
       5     1     1     2   501     0 -5.653734676E+00  2.221351279E+01 -1.141347921E+02  1.165105923E+02  4.750000000E+00  0.00000E+00  9.000E+00
      -5     1     1     2     0   503 -6.873509324E+00 -1.382211907E+01 -8.042939411E+01  8.203502936E+01  4.750000000E+00  0.00000E+00  9.000E+00
      21     1     1     2   503   512  2.254152124E+01 -1.289667231E+01  1.454896456E+01  2.976771248E+01  8.596304120E-07  0.00000E+00  9.000E+00
#rwgt            1           9   1.5785970441030214E-004          10     2236054           0
</event>
<event>
      6   9999  3.45752E-01  1.88292E+01 -1.00000E+00  1.62236E-01
      21    -1     0     0   501   511  0.000000000E+00  0.000000000E+00  8.088103825E+02  8.088103825E+02  0.000000000E+00  0.00000E+00  9.000E+00
      21    -1     0     0   502   503  0.000000000E+00  0.000000000E+00 -1.005343244E+02  1.005343244E+02  0.000000000E+00  0.00000E+00  9.000E+00
      25     1     1     2     0     0 -1.075226282E+00  8.237311681E+00 -5.676983125E+01  1.375416076E+02  1.250034826E+02  0.00000E+00  9.000E+00
       5     1     1     2   501     0 -4.506073555E+00  9.780578406E+00  9.620988344E+01  9.692713028E+01  4.750000000E+00  0.00000E+00  9.000E+00
      -5     1     1     2     0   503 -7.815548143E-01 -2.963773300E-01 -8.738178010E-01  4.901502321E+00  4.750000000E+00  0.00000E+00  9.000E+00
      21     1     1     2   502   511  6.362854651E+00 -1.772151276E+01  6.697098238E+02  6.699744667E+02  7.629394531E-06  0.00000E+00  9.000E+00
#rwgt            1           9   9.3443620101035549E-005          10     2237737           0
</event>
<event>
      6   9999  3.45752E-01  6.03749E+00 -1.00000E+00  2.13682E-01
      21    -1     0     0   502   503  0.000000000E+00  0.000000000E+00  7.446311260E+01  7.446311260E+01  0.000000000E+00  0.00000E+00  9.000E+00
      21    -1     0     0   501   512  0.000000000E+00  0.000000000E+00 -1.711528793E+03  1.711528793E+03  0.000000000E+00  0.00000E+00  9.000E+00
      25     1     1     2     0     0 -1.700239173E+00 -1.643219364E+01  1.772309708E+01  1.273303331E+02  1.250039910E+02  0.00000E+00  9.000E+00
       5     1     1     2   501     0  1.340715611E+01  1.403186835E+01 -1.480882507E+03  1.481017288E+03  4.750000000E+00  0.00000E+00  9.000E+00
      -5     1     1     2     0   503 -5.687568076E+00  1.932606067E+00 -6.264770195E+00  9.894101395E+00  4.750000000E+00  0.00000E+00  9.000E+00
      21     1     1     2   502   512 -6.019348865E+00  4.677192218E-01 -1.676415004E+02  1.677501833E+02  2.697398305E-06  0.00000E+00  9.000E+00
#rwgt            1           9   5.4469192001748074E-004          10     2239473           0
</event>
<event>
      6   9999  3.45752E-01  4.95345E+00 -1.00000E+00  2.30079E-01
      21    -1     0     0   501   502  0.000000000E+00  0.000000000E+00  9.642507050E+00  9.642507050E+00  0.000000000E+00  0.00000E+00  9.000E+00
      21    -1     0     0   511   503  0.000000000E+00  0.000000000E+00 -2.149546104E+03  2.149546104E+03  0.000000000E+00  0.00000E+00  9.000E+00
      25     1     1     2     0     0  2.677895387E+00  9.787957339E+00 -7.185940960E+02  7.294551902E+02  1.249976983E+02  0.00000E+00  9.000E+00
       5     1     1     2   501     0  8.148933671E-01 -5.995621520E-02  1.068431410E+00  4.936769351E+00  4.750000000E+00  0.00000E+00  9.000E+00
      -5     1     1     2     0   503 -3.200203318E+00 -1.467280313E+01 -5.027183802E+01  5.268161587E+01  4.750000000E+00  0.00000E+00  9.000E+00
      21     1     1     2   511   502 -2.925854363E-01  4.944802010E+00 -1.372106095E+03  1.372115036E+03  2.157918644E-05  0.00000E+00  9.000E+00
#rwgt            1           9   1.5568558434686004E-004          10     2245651           0
</event>
<event>
      6   9999  3.45752E-01  3.36979E+00 -1.00000E+00  2.64342E-01
      21    -1     0     0   512   502  0.000000000E+00  0.000000000E+00  2.877722334E+01  2.877722334E+01  0.000000000E+00  0.00000E+00  9.000E+00
      21    -1     0     0   502   503  0.000000000E+00  0.000000000E+00 -6.698471989E+02  6.698471989E+02  0.000000000E+00  0.00000E+00  9.000E+00
      25     1     1     2     0     0  2.504839678E+00 -3.021096086E+00 -6.375445377E+02  6.496939215E+02  1.249950116E+02  0.00000E+00  9.000E+00
       5     1     1     2   501     0 -3.101415864E-01 -2.524530719E-01 -5.742311048E-01  4.801266679E+00  4.750000000E+00  0.00000E+00  9.000E+00
      -5     1     1     2     0   503  9.966592403E-02  8.054817135E-01 -2.315257310E+01  2.364873940E+01  4.750000000E+00  0.00000E+00  9.000E+00
      21     1     1     2   512   501 -2.294364016E+00  2.468067444E+00  2.020136627E+01  2.048049468E+01  1.238859277E-06  0.00000E+00  9.000E+00
#rwgt            1           9   6.0600988397085920E-004          10     2249644           0
</event>
<event>
      6   9999  3.45752E-01  6.09609E+01 -1.00000E+00  1.30337E-01
      21    -1     0     0   511   502  0.000000000E+00  0.000000000E+00  6.820247216E+01  6.820247216E+01  0.000000000E+00  0.00000E+00  9.000E+00
      21    -1     0     0   502   503  0.000000000E+00  0.000000000E+00 -1.590176177E+03  1.590176177E+03  0.000000000E+00  0.00000E+00  9.000E+00
      25     1     1     2     0     0  2.086324274E+02  1.453121403E+02 -4.094793073E+02  4.979372912E+02  1.250005401E+02  0.00000E+00  9.000E+00
       5     1     1     2   501     0 -2.029602111E+01  4.013186411E+01 -3.354755314E+02  3.385098073E+02  4.750000000E+00  0.00000E+00  9.000E+00
      -5     1     1     2     0   503 -1.468982037E+02 -1.407326198E+02 -6.487276652E+02  6.798932995E+02  4.750000000E+00  0.00000E+00  9.000E+00
      21     1     1     2   511   501 -4.143820253E+01 -4.471138461E+01 -1.282912007E+02  1.420382509E+02  1.907348633E-06  0.00000E+00  9.000E+00
#rwgt            1           9   2.9317828079842236E-005          10     2254388           0
</event>
<event>
      6   9999  3.45752E-01  9.96746E+00 -1.00000E+00  1.87343E-01
      21    -1     0     0   512   503  0.000000000E+00  0.000000000E+00  3.374537434E+01  3.374537434E+01  0.000000000E+00  0.00000E+00  9.000E+00
      21    -1     0     0   501   502  0.000000000E+00  0.000000000E+00 -1.156083522E+03  1.156083522E+03  0.000000000E+00  0.00000E+00  9.000E+00
      25     1     1     2     0     0 -1.018802448E+02 -9.350855368E+01 -3.785060186E+02  4.219183100E+02  1.249992812E+02  0.00000E+00  9.000E+00
       5     1     1     2   501     0  4.605638050E+01  3.659372734E+01 -5.919489607E+02  5.948835396E+02  4.750000000E+00  0.00000E+00  9.000E+00
      -5     1     1     2     0   503  4.638242815E+01  5.371957646E+01 -1.428286739E+02  1.595610075E+02  4.750000000E+00  0.00000E+00  9.000E+00
      21     1     1     2   512   502  9.441436187E+00  3.195249867E+00 -9.054493989E+00  1.346603878E+01  1.685873940E-07  0.00000E+00  9.000E+00
#rwgt            1           9   5.5646931312698329E-002          10     2255752           0
</event>
<event>
      6   9999  3.45752E-01  9.96228E+00 -1.00000E+00  1.87367E-01
      21    -1     0     0   501   502  0.000000000E+00  0.000000000E+00  1.850518487E+03  1.850518487E+03  0.000000000E+00  0.00000E+00  9.000E+00
      21    -1     0     0   511   503  0.000000000E+00  0.000000000E+00 -4.053722394E+00  4.053722394E+00  0.000000000E+00  0.00000E+00  9.000E+00
      25     1     1     2     0     0 -7.306520425E+00 -2.984962017E+00  1.058567278E+03  1.065951823E+03  1.250052440E+02  0.00000E+00  9.000E+00
       5     1     1     2   501     0 -1.034336716E+00  6.213759288E-01  5.806676842E+02  5.806883656E+02  4.750000000E+00  0.00000E+00  9.000E+00
      -5     1     1     2     0   503 -1.518890719E+00  3.789225755E+00  1.138881957E+02  1.140602861E+02  4.750000000E+00  0.00000E+00  9.000E+00
      21     1     1     2   511   502  9.859747861E+00 -1.425639667E+00  9.334160640E+01  9.387173462E+01  1.907348633E-06  0.00000E+00  9.000E+00
#rwgt            1           9   5.5256361022097905E-005          10     2259127           0
</event>
<event>
      6   9999 -3.45752E-01  6.90621E+01 -1.00000E+00  1.27687E-01
      21    -1     0     0   502   503  0.000000000E+00  0.000000000E+00  1.505841500E+01  1.505841500E+01  0.000000000E+00  0.00000E+00  9.000E+00
       2    -1     0     0   501     0  0.000000000E+00  0.000000000E+00 -2.549345334E+03  2.549345334E+03  0.000000000E+00  0.00000E+00  9.000E+00
      25     1     1     2     0     0  3.779453575E+01 -4.633543630E+01 -4.412878717E+02  4.625315963E+02  1.250003692E+02  0.00000E+00  9.000E+00
       5     1     1     2   501     0  4.838138864E+01  2.939088850E+01 -3.591009383E+02  3.635665407E+02  4.750000000E+00  0.00000E+00  9.000E+00
      -5     1     1     2     0   503 -1.895445770E+01  1.106370659E+00 -6.275787278E+01  6.573894293E+01  4.750000000E+00  0.00000E+00  9.000E+00
       2     1     1     2   502     0 -6.722146670E+01  1.583817713E+01 -1.671140236E+03  1.672566669E+03  0.000000000E+00  0.00000E+00  9.000E+00
#rwgt            1           9  -6.1822431653740718E-002          10     2261190           0
</event>
<event>
      6   9999 -3.45752E-01  1.31817E+01 -1.00000E+00  1.75383E-01
      21    -1     0     0   511   502  0.000000000E+00  0.000000000E+00  7.045983570E+01  7.045983570E+01  0.000000000E+00  0.00000E+00  9.000E+00
      21    -1     0     0   502   503  0.000000000E+00  0.000000000E+00 -1.022524316E+03  1.022524316E+03  0.000000000E+00  0.00000E+00  9.000E+00
      25     1     1     2     0     0 -9.531320064E+00 -4.205572214E+01 -9.422408476E+02  9.514729604E+02  1.249937987E+02  0.00000E+00  9.000E+00
       5     1     1     2   501     0 -1.778324278E+00 -3.555321806E-02  1.370738474E+01  1.461569696E+01  4.750000000E+00  0.00000E+00  9.000E+00
      -5     1     1     2     0   503  5.014886084E+00  3.050969166E+01 -7.102368824E+01  7.760745556E+01  4.750000000E+00  0.00000E+00  9.000E+00
      21     1     1     2   511   501  6.294758258E+00  1.158158369E+01  4.749267040E+01  4.928803915E+01  0.000000000E+00  0.00000E+00  9.000E+00
#rwgt            1           9  -7.1075297314012983E-004          10     2261600           0
</event>
<event>
      6   9999  3.45752E-01  1.42485E+01 -1.00000E+00  1.72329E-01
      21    -1     0     0   501   502  0.000000000E+00  0.000000000E+00  8.348448464E+00  8.348448464E+00  0.000000000E+00  0.00000E+00  9.000E+00
      21    -1     0     0   502   512  0.000000000E+00  0.000000000E+00 -9.190342008E+02  9.190342008E+02  0.000000000E+00  0.00000E+00  9.000E+00
      25     1     1     2     0     0  1.918816941E+01  8.912053354E+00 -6.953787107E+02  7.068406996E+02  1.249984513E+02  0.00000E+00  9.000E+00
       5     1     1     2   501     0  1.191809975E+00 -1.324736487E-01 -4.014684662E+00  6.333889265E+00  4.750000000E+00  0.00000E+00  9.000E+00
      -5     1     1     2     0   503 -7.081221030E+00 -3.664571078E+00 -1.678874988E+01  1.918325820E+01  4.750000000E+00  0.00000E+00  9.000E+00
      21     1     1     2   503   512 -1.329875836E+01 -5.115008627E+00 -1.945036071E+02  1.950248022E+02  0.000000000E+00  0.00000E+00  9.000E+00
#rwgt            1           9   1.6661955589986344E-003          10     2264080           0
</event>
<event>
      6   9999 -3.45752E-01  4.44300E+01 -1.00000E+00  1.37591E-01
       2    -1     0     0   501     0  0.000000000E+00  0.000000000E+00  6.399535477E+02  6.399535477E+02  0.000000000E+00  0.00000E+00  9.000E+00
      21    -1     0     0   502   503  0.000000000E+00  0.000000000E+00 -2.550508081E+02  2.550508081E+02  0.000000000E+00  0.00000E+00  9.000E+00
      25     1     1     2     0     0  1.461519384E+01 -2.905099126E+01 -2.302583429E+02  2.640087888E+02  1.249966884E+02  0.00000E+00  9.000E+00
       5     1     1     2   501     0  3.318669502E+00 -9.332231511E+00  2.015923974E+01  2.295782131E+01  4.750000000E+00  0.00000E+00  9.000E+00
      -5     1     1     2     0   503 -2.836753147E+00 -3.403204814E+00 -3.842850768E+00  7.547116896E+00  4.750000000E+00  0.00000E+00  9.000E+00
       2     1     1     2   502     0 -1.509711020E+01  4.178642759E+01  5.988446936E+02  6.004906288E+02  1.078959322E-05  0.00000E+00  9.000E+00
#rwgt            1           9  -7.3473104858004954E-003          10     2265702           0
</event>
<event>
      6   9999 -3.45752E-01  4.28062E+00 -1.00000E+00  2.41909E-01
      21    -1     0     0   501   502  0.000000000E+00  0.000000000E+00  3.381743284E+01  3.381743284E+01  0.000000000E+00  0.00000E+00  9.000E+00
      21    -1     0     0   511   503  0.000000000E+00  0.000000000E+00 -1.189669628E+03  1.189669628E+03  0.000000000E+00  0.00000E+00  9.000E+00
      25     1     1     2     0     0 -2.229365980E+01 -3.425943624E+01 -4.952395050E+02  5.123931191E+02  1.249552920E+02  0.00000E+00  9.000E+00
       5     1     1     2   501     0 -1.333458937E+00  3.548711288E+00  2.413473546E+01  2.488813815E+01  4.750000000E+00  0.00000E+00  9.000E+00
      -5     1     1     2     0   503  2.473391538E+01  2.657566851E+01 -6.646416436E+02  6.656493894E+02  4.750000000E+00  0.00000E+00  9.000E+00
      21     1     1     2   511   502 -1.106796642E+00  4.135056441E+00 -2.010578202E+01  2.055641412E+01  2.384185791E-07  0.00000E+00  9.000E+00
#rwgt            1           9  -1.3758460379302590E-003          10     2266687           0
</event>
<event>
      6   9999  3.45752E-01  2.43775E+00 -1.00000E+00  3.02827E-01
      21    -1     0     0   501   512  0.000000000E+00  0.000000000E+00  4.134417500E+01  4.134417500E+01  0.000000000E+00  0.00000E+00  9.000E+00
      21    -1     0     0   502   503  0.000000000E+00  0.000000000E+00 -1.075476060E+03  1.075476060E+03  0.000000000E+00  0.00000E+00  9.000E+00
      25     1     1     2     0     0 -8.192441309E+00 -1.315269067E+01 -1.015807361E+03  1.023586858E+03  1.250014042E+02  0.00000E+00  9.000E+00
       5     1     1     2   501     0  1.009690819E+00  4.796467328E+00  2.423366880E+01  2.517655215E+01  4.750000000E+00  0.00000E+00  9.000E+00
      -5     1     1     2     0   503  4.764233428E+00  8.050591959E+00 -5.468759607E+01  5.568487780E+01  4.750000000E+00  0.00000E+00  9.000E+00
      21     1     1     2   502   512  2.418517063E+00  3.056313872E-01  1.212940377E+01  1.237194694E+01  6.529361695E-07  0.00000E+00  9.000E+00
#rwgt            1           9   2.4714054297121230E-003          10     2272645           0
</event>
<event>
      6   9999 -3.45752E-01  5.70263E+00 -1.00000E+00  2.17180E-01
      21    -1     0     0   501   511  0.000000000E+00  0.000000000E+00  1.503545666E+02  1.503545666E+02  0.000000000E+00  0.00000E+00  9.000E+00
      21    -1     0     0   502   503  0.000000000E+00  0.000000000E+00 -8.183855656E+02  8.183855656E+02  0.000000000E+00  0.00000E+00  9.000E+00
      25     1     1     2     0     0 -9.398329777E+00  2.164396087E+01 -6.788600897E+02  6.906758764E+02  1.250014208E+02  0.00000E+00  9.000E+00
       5     1     1     2   501     0  2.192826149E+00 -1.498183988E+00  6.346021640E+00  8.359876341E+00  4.750000000E+00  0.00000E+00  9.000E+00
      -5     1     1     2     0   503  4.568314729E+00 -2.520197999E+01 -1.312709604E+02  1.338306275E+02  4.750000000E+00  0.00000E+00  9.000E+00
      21     1     1     2   502   511  2.637188898E+00  5.056203103E+00  1.357540295E+02  1.358737520E+02  3.814697266E-06  0.00000E+00  9.000E+00
#rwgt            1           9  -6.5391066010116389E-004          10     2281700           0
</event>
<event>
      6   9999  3.45752E-01  9.00159E+00 -1.00000E+00  1.92137E-01
      21    -1     0     0   501   502  0.000000000E+00  0.000000000E+00  8.597292702E+01  8.597292702E+01  0.000000000E+00  0.00000E+00  9.000E+00
      21    -1     0     0   502   512  0.000000000E+00  0.000000000E+00 -1.326667709E+02  1.326667709E+02  0.000000000E+00  0.00000E+00  9.000E+00
      25     1     1     2     0     0  8.219079759E+00 -2.095227216E+00 -8.373548109E+01  1.506942452E+02  1.250007260E+02  0.00000E+00  9.000E+00
       5     1     1     2   501     0 -6.380341414E-01 -1.147840529E+00  4.922704802E+01  4.947311777E+01  4.750000000E+00  0.00000E+00  9.000E+00
      -5     1     1     2     0   503  8.115726025E-01 -1.155547596E-02 -3.428969034E+00  5.914314183E+00  4.750000000E+00  0.00000E+00  9.000E+00
      21     1     1     2   503   512 -8.392618220E+00  3.254623221E+00 -8.756441787E+00  1.255802077E+01  0.000000000E+00  0.00000E+00  9.000E+00
#rwgt            1           9  0.55250376128362899               10     2285571           0
</event>
<event>
      6   9999  3.45752E-01  1.20239E+01 -1.00000E+00  1.79138E-01
      21    -1     0     0   502   503  0.000000000E+00  0.000000000E+00  1.314262817E+01  1.314262817E+01  0.000000000E+00  0.00000E+00  9.000E+00
      21    -1     0     0   501   511  0.000000000E+00  0.000000000E+00 -9.661840968E+02  9.661840968E+02  0.000000000E+00  0.00000E+00  9.000E+00
      25     1     1     2     0     0 -4.944217523E+00  3.599540931E-01 -3.001945846E+02  3.252156775E+02  1.249954936E+02  0.00000E+00  9.000E+00
       5     1     1     2   501     0  1.432906650E+01 -5.327924158E+00 -4.523596939E+02  4.526428659E+02  4.750000000E+00  0.00000E+00  9.000E+00
      -5     1     1     2     0   503 -1.485609461E+00 -4.097180349E+00 -3.855590157E+01  3.909109833E+01  4.750000000E+00  0.00000E+00  9.000E+00
      21     1     1     2   502   511 -7.899239516E+00  9.065150414E+00 -1.619312886E+02  1.623770832E+02  1.907348633E-06  0.00000E+00  9.000E+00
#rwgt            1           9   1.2995989774357002E-002          10     2288273           0
</event>
<event>
      6   9999  3.45752E-01  7.74839E+00 -1.00000E+00  1.99673E-01
      21    -1     0     0   501   512  0.000000000E+00  0.000000000E+00  8.423606317E+00  8.423606317E+00  0.000000000E+00  0.00000E+00  9.000E+00
      21    -1     0     0   502   503  0.000000000E+00  0.000000000E+00 -7.220071705E+02  7.220071705E+02  0.000000000E+00  0.00000E+00  9.000E+00
      25     1     1     2     0     0 -5.474269619E+00 -7.111399569E+00 -6.471458417E+02  6.591801425E+02  1.250607058E+02  0.00000E+00  9.000E+00
       5     1     1     2   501     0 -1.346058729E-02 -3.029645836E-01 -9.985591245E+00  1.106193931E+01  4.750000000E+00  0.00000E+00  9.000E+00
      -5     1     1     2     0   503  2.766084557E-01  1.680107811E+00 -4.956720209E+01  4.982338103E+01  4.750000000E+00  0.00000E+00  9.000E+00
      21     1     1     2   502   512  5.211121751E+00  5.734256342E+00 -6.884929165E+00  1.036531405E+01  3.153981341E-07  0.00000E+00  9.000E+00
#rwgt            1           9   1.4687622388503632E-004          10     2290412           0
</event>
<event>
      6   9999  3.45752E-01  5.79579E+00 -1.00000E+00  2.16174E-01
      21    -1     0     0   501   502  0.000000000E+00  0.000000000E+00  9.277837123E+00  9.277837123E+00  0.000000000E+00  0.00000E+00  9.000E+00
       2    -1     0     0   502     0  0.000000000E+00  0.000000000E+00 -8.865859368E+02  8.865859368E+02  0.000000000E+00  0.00000E+00  9.000E+00
      25     1     1     2     0     0 -2.484188506E+00 -6.349261095E+00 -5.886049374E+02  6.017746346E+02  1.250218150E+02  0.00000E+00  9.000E+00
       5     1     1     2   501     0  3.138727776E-01 -1.932851601E-01  3.762643845E-01  4.779116044E+00  4.750000000E+00  0.00000E+00  9.000E+00
      -5     1     1     2     0   503 -1.746711758E+00  2.270768384E+00 -1.686720837E+02  1.687632712E+02  4.750000000E+00  0.00000E+00  9.000E+00
       2     1     1     2   503     0  3.917027486E+00  4.271777871E+00 -1.204073430E+02  1.205467521E+02  2.336015456E-06  0.00000E+00  9.000E+00
#rwgt            1           9   2.1329962020516982E-004          10     2292733           0
</event>
<event>
      6   9999  3.45752E-01  1.04465E+01 -1.00000E+00  1.85217E-01
      21    -1     0     0   501   511  0.000000000E+00  0.000000000E+00  1.391948948E+02  1.391948948E+02  0.000000000E+00  0.00000E+00  9.000E+00
      21    -1     0     0   502   503  0.000000000E+00  0.000000000E+00 -6.096834112E+02  6.096834112E+02  0.000000000E+00  0.00000E+00  9.000E+00
      25     1     1     2     0     0 -9.939273442E+00 -3.918093225E+01 -2.435519575E+02  2.767239101E+02  1.249985273E+02  0.00000E+00  9.000E+00
       5     1     1     2   501     0  4.173676451E+00 -3.291750117E+00  3.796014054E+01  3.862369692E+01  4.750000000E+00  0.00000E+00  9.000E+00
      -5     1     1     2     0   503  3.000554610E+00  3.239871226E+01 -3.481123473E+02  3.496619063E+02  4.750000000E+00  0.00000E+00  9.000E+00
      21     1     1     2   502   511  2.765042381E+00  1.007397011E+01  8.321564782E+01  8.386879262E+01  9.536743164E-07  0.00000E+00  9.000E+00
#rwgt            1           9   6.5243710423402157E-003          10     2296005           0
</event>
<event>
      6   9999  3.45752E-01  6.47832E+00 -1.00000E+00  2.09521E-01
      -1    -1     0     0     0   502  0.000000000E+00  0.000000000E+00  1.096903365E+02  1.096903365E+02  0.000000000E+00  0.00000E+00  9.000E+00
      21    -1     0     0   502   503  0.000000000E+00  0.000000000E+00 -9.162730783E+02  9.162730783E+02  0.000000000E+00  0.00000E+00  9.000E+00
      25     1     1     2     0     0  2.409201509E+01  2.412425261E+01 -4.336690936E+02  4.526072797E+02  1.249882480E+02  0.00000E+00  9.000E+00
       5     1     1     2   501     0  2.961090089E+00 -2.974589655E+00  6.174475605E+00  8.848891859E+00  4.750000000E+00  0.00000E+00  9.000E+00
      -5     1     1     2     0   503 -2.243234519E+01 -2.569027684E+01 -4.710552653E+02  4.723122124E+02  4.750000000E+00  0.00000E+00  9.000E+00
      -1     1     1     2     0   501 -4.620759988E+00  4.540613892E+00  9.196714156E+01  9.219503090E+01  3.015782986E-06  0.00000E+00  9.000E+00
#rwgt            1           9   3.2885199551775063E-003          10     2299495           0
</event>
<event>
      6   9999  3.45752E-01  1.00112E+01 -1.00000E+00  1.87143E-01
      21    -1     0     0   501   502  0.000000000E+00  0.000000000E+00  4.449839390E+01  4.449839390E+01  0.000000000E+00  0.00000E+00  9.000E+00
       2    -1     0     0   502     0  0.000000000E+00  0.000000000E+00 -3.698993290E+03  3.698993290E+03  0.000000000E+00  0.00000E+00  9.000E+00
      25     1     1     2     0     0  1.686756269E+01 -1.123856259E+01 -1.030774085E+02  1.632793249E+02  1.249974634E+02  0.00000E+00  9.000E+00
       5     1     1     2   501     0  7.319914987E-01  2.633414482E+00  1.268745563E+01  1.382044550E+01  4.750000000E+00  0.00000E+00  9.000E+00
      -5     1     1     2     0   503 -1.751485069E+01  1.861597101E+01 -1.475867427E+02  1.498590455E+02  4.750000000E+00  0.00000E+00  9.000E+00
       2     1     1     2   503     0 -8.470348974E-02 -1.001082291E+01 -3.416518201E+03  3.416532868E+03  4.315837288E-05  0.00000E+00  9.000E+00
#rwgt            1           9  0.10009785631708062               10     2303145           0
</event>
<event>
      6   9999  3.45752E-01  9.10561E+00 -1.00000E+00  1.91584E-01
      21    -1     0     0   511   502  0.000000000E+00  0.000000000E+00  8.122767831E+01  8.122767831E+01  0.000000000E+00  0.00000E+00  9.000E+00
      21    -1     0     0   502   503  0.000000000E+00  0.000000000E+00 -2.834371645E+02  2.834371645E+02  0.000000000E+00  0.00000E+00  9.000E+00
      25     1     1     2     0     0  8.282973618E+00  5.212896738E+00 -2.338424251E+02  2.653359725E+02  1.250004665E+02  0.00000E+00  9.000E+00
       5     1     1     2   501     0  1.921531781E+00 -2.057660810E+00  4.815641178E+01  4.847193773E+01  4.750000000E+00  0.00000E+00  9.000E+00
      -5     1     1     2     0   503 -6.787851462E+00  5.285060582E+00 -3.168352011E+01  3.317249975E+01  4.750000000E+00  0.00000E+00  9.000E+00
      21     1     1     2   511   501 -3.416653937E+00 -8.440296510E+00  1.516004725E+01  1.768443276E+01  2.920019320E-07  0.00000E+00  9.000E+00
#rwgt            1           9   24.291971177191030               10     2306008           0
</event>
<event>
      6   9999  3.45752E-01  3.25503E+00 -1.00000E+00  2.67961E-01
      21    -1     0     0   501   502  0.000000000E+00  0.000000000E+00  3.868706052E+03  3.868706052E+03  0.000000000E+00  0.00000E+00  9.000E+00
      21    -1     0     0   512   503  0.000000000E+00  0.000000000E+00 -1.606357370E+00  1.606357370E+00  0.000000000E+00  0.00000E+00  9.000E+00
      25     1     1     2     0     0 -3.651477232E+00  1.155690037E+01  3.170311139E+03  3.172797667E+03  1.250016917E+02  0.00000E+00  9.000E+00
       5     1     1     2   501     0 -6.137328804E-03  2.831148259E-01  5.366547807E+02  5.366758764E+02  4.750000000E+00  0.00000E+00  9.000E+00
      -5     1     1     2     0   503  5.835902981E-01 -1.076968829E+01  1.240050467E+02  1.245638024E+02  4.750000000E+00  0.00000E+00  9.000E+00
      21     1     1     2   512   502  3.074024263E+00 -1.070326902E+00  3.612872835E+01  3.627506357E+01  0.000000000E+00  0.00000E+00  9.000E+00
#rwgt            1           9  0.52734522133396089               10     2308973           0
</event>
<event>
      6   9999 -3.45752E-01  1.13768E+01 -1.00000E+00  1.81480E-01
      21    -1     0     0   501   511  0.000000000E+00  0.000000000E+00  4.895808781E+00  4.895808781E+00  0.000000000E+00  0.00000E+00  9.000E+00
      21    -1     0     0   502   503  0.000000000E+00  0.000000000E+00 -1.330952993E+03  1.330952993E+03  0.000000000E+00  0.00000E+00  9.000E+00
      25     1     1     2     0     0 -7.649316704E-01  1.487729788E+01 -1.035663631E+03  1.043285973E+03  1.249981801E+02  0.00000E+00  9.000E+00
       5     1     1     2   501     0  9.714782976E-03  3.344931115E-01 -3.499828013E+01  3.532073176E+01  4.750000000E+00  0.00000E+00  9.000E+00
      -5     1     1     2     0   503  1.267010926E+00 -3.846542636E+00 -2.194638712E+02  2.195526235E+02  4.750000000E+00  0.00000E+00  9.000E+00
      21     1     1     2   502   511 -5.117940381E-01 -1.136524836E+01 -3.593140219E+01  3.768947422E+01  9.536743164E-07  0.00000E+00  9.000E+00
#rwgt            1           9  -5.3232862485417973E-005          10     2313531           0
</event>
<event>
      6   9999  3.45752E-01  6.13068E+01 -1.00000E+00  1.30215E-01
      21    -1     0     0   501   502  0.000000000E+00  0.000000000E+00  6.420502244E+00  6.420502244E+00  0.000000000E+00  0.00000E+00  9.000E+00
      21    -1     0     0   502   512  0.000000000E+00  0.000000000E+00 -2.246475692E+03  2.246475692E+03  0.000000000E+00  0.00000E+00  9.000E+00
      25     1     1     2     0     0 -4.178718723E+01 -3.908003255E+01 -1.054614475E+03  1.063536898E+03  1.250024971E+02  0.00000E+00  9.000E+00
       5     1     1     2   501     0  8.773186021E+00  3.214290374E-01 -6.988224285E+01  7.059151843E+01  4.750000000E+00  0.00000E+00  9.000E+00
      -5     1     1     2     0   503 -1.200539480E+01 -2.856025870E+00 -4.976022472E+02  4.977779076E+02  4.750000000E+00  0.00000E+00  9.000E+00
      21     1     1     2   503   512  4.501939600E+01  4.161462938E+01 -6.179562250E+02  6.209898707E+02  7.629394531E-06  0.00000E+00  9.000E+00
#rwgt            1           9   4916.9606271401972               10     2315548           0
</event>
<event>
      6   9999 -3.45752E-01  7.43691E+00 -1.00000E+00  2.01844E-01
      21    -1     0     0   501   511  0.000000000E+00  0.000000000E+00  4.209847930E+01  4.209847930E+01  0.000000000E+00  0.00000E+00  9.000E+00
      21    -1     0     0   502   503  0.000000000E+00  0.000000000E+00 -1.229506796E+03  1.229506796E+03  0.000000000E+00  0.00000E+00  9.000E+00
      25     1     1     2     0     0  4.029206526E+01  1.291641491E+02 -4.073966416E+02  4.471075883E+02  1.250053758E+02  0.00000E+00  9.000E+00
       5     1     1     2   501     0 -1.010400271E+00  3.182668932E+00  1.017812795E+01  1.171781032E+01  4.750000000E+00  0.00000E+00  9.000E+00
      -5     1     1     2     0   503 -3.283422927E+01 -1.286403072E+02 -7.935683400E+02  8.046115137E+02  4.750000000E+00  0.00000E+00  9.000E+00
      21     1     1     2   502   511 -6.447435718E+00 -3.706510780E+00  3.378536618E+00  8.168363311E+00  1.976862425E-07  0.00000E+00  9.000E+00
#rwgt            1           9  -1.2632084514284940E-003          10     2315941           0
</event>
<event>
      6   9999 -3.45752E-01  5.40248E+00 -1.00000E+00  2.20607E-01
      21    -1     0     0   501   502  0.000000000E+00  0.000000000E+00  1.296226732E+01  1.296226732E+01  0.000000000E+00  0.00000E+00  9.000E+00
      21    -1     0     0   502   512  0.000000000E+00  0.000000000E+00 -9.475873771E+02  9.475873771E+02  0.000000000E+00  0.00000E+00  9.000E+00
      25     1     1     2     0     0 -4.081884993E+01 -4.593882741E+00 -5.196092908E+02  5.360079071E+02  1.249935165E+02  0.00000E+00  9.000E+00
       5     1     1     2   501     0 -5.732878008E-01  7.020818930E-01  2.063819315E+00  5.257701784E+00  4.750000000E+00  0.00000E+00  9.000E+00
      -5     1     1     2     0   503  3.606917557E+01  2.968270595E+00 -3.244097524E+02  3.264568058E+02  4.750000000E+00  0.00000E+00  9.000E+00
      21     1     1     2   503   512  5.322962169E+00  9.235302529E-01 -9.266988589E+01  9.282722976E+01  1.348699152E-06  0.00000E+00  9.000E+00
#rwgt            1           9  -2.3605694482780348E-003          10     2320009           0
</event>
<event>
      6   9999  3.45752E-01  1.71429E+01 -1.00000E+00  1.65494E-01
      21    -1     0     0   501   502  0.000000000E+00  0.000000000E+00  3.758565732E+01  3.758565732E+01  0.000000000E+00  0.00000E+00  9.000E+00
      21    -1     0     0   502   511  0.000000000E+00  0.000000000E+00 -1.610828973E+03  1.610828973E+03  0.000000000E+00  0.00000E+00  9.000E+00
      25     1     1     2     0     0 -7.273391008E+01  3.397275367E+01 -4.850833276E+02  5.073221464E+02  1.250022233E+02  0.00000E+00  9.000E+00
       5     1     1     2   501     0  1.768831425E+00 -5.234949229E+00  2.417027289E+01  2.524476282E+01  4.750000000E+00  0.00000E+00  9.000E+00
      -5     1     1     2     0   503  5.584628987E+01 -3.681861833E+01 -7.121247311E+02  7.152752015E+02  4.750000000E+00  0.00000E+00  9.000E+00
      21     1     1     2   503   511  1.511878878E+01  8.080813880E+00 -4.002055303E+02  4.005725200E+02  7.629394531E-06  0.00000E+00  9.000E+00
#rwgt            1           9   1.8018124716882346E-004          10     2323853           0
</event>
<event>
      6   9999  3.45752E-01  7.70961E+00 -1.00000E+00  1.99936E-01
      21    -1     0     0   501   502  0.000000000E+00  0.000000000E+00  1.834642904E+01  1.834642904E+01  0.000000000E+00  0.00000E+00  9.000E+00
      21    -1     0     0   502   512  0.000000000E+00  0.000000000E+00 -9.822096979E+02  9.822096979E+02  0.000000000E+00  0.00000E+00  9.000E+00
      25     1     1     2     0     0 -3.390423898E+00  5.292363672E+01 -4.665997450E+02  4.859566685E+02  1.250046213E+02  0.00000E+00  9.000E+00
       5     1     1     2   501     0 -2.847492916E+00  6.830719993E-01  6.095484434E+00  8.263911528E+00  4.750000000E+00  0.00000E+00  9.000E+00
      -5     1     1     2     0   503  4.308599895E+00 -4.614240581E+01 -4.037778564E+02  4.064564004E+02  4.750000000E+00  0.00000E+00  9.000E+00
      21     1     1     2   503   512  1.929316919E+00 -7.464302904E+00 -9.958115196E+01  9.987914651E+01  0.000000000E+00  0.00000E+00  9.000E+00
#rwgt            1           9   1.7096546242054982E-004          10     2326270           0
</event>
<event>
      6   9999  3.45752E-01  3.16600E+01 -1.00000E+00  1.46341E-01
      21    -1     0     0   511   502  0.000000000E+00  0.000000000E+00  3.123330055E+01  3.123330055E+01  0.000000000E+00  0.00000E+00  9.000E+00
      21    -1     0     0   502   503  0.000000000E+00  0.000000000E+00 -1.067205399E+03  1.067205399E+03  0.000000000E+00  0.00000E+00  9.000E+00
      25     1     1     2     0     0  5.745518670E+01 -1.770005459E+01 -7.829748294E+02  7.951676263E+02  1.250103197E+02  0.00000E+00  9.000E+00
       5     1     1     2   501     0  8.181490720E+00  2.353220850E+00  1.394519849E+01  1.701486115E+01  4.750000000E+00  0.00000E+00  9.000E+00
      -5     1     1     2     0   503 -3.400931637E+01  1.391039553E+01 -2.448808288E+02  2.476677523E+02  4.750000000E+00  0.00000E+00  9.000E+00
      21     1     1     2   511   501 -3.162736105E+01  1.436438219E+00 -2.206163855E+01  3.858845964E+01  6.743495762E-07  0.00000E+00  9.000E+00
#rwgt            1           9   1.1957180902979595E-004          10     2329789           0
</event>
<event>
      6   9999  3.45752E-01  4.30226E+01 -1.00000E+00  1.38375E-01
      21    -1     0     0   512   502  0.000000000E+00  0.000000000E+00  1.662761023E+02  1.662761023E+02  0.000000000E+00  0.00000E+00  9.000E+00
      21    -1     0     0   502   503  0.000000000E+00  0.000000000E+00 -1.412399564E+02  1.412399564E+02  0.000000000E+00  0.00000E+00  9.000E+00
      25     1     1     2     0     0  2.985656449E+01 -2.062720538E+01 -9.829121644E+01  1.631048733E+02  1.250005617E+02  0.00000E+00  9.000E+00
       5     1     1     2   501     0  3.855942218E+00 -2.167664196E+00  5.408124712E+00  8.448512967E+00  4.750000000E+00  0.00000E+00  9.000E+00
      -5     1     1     2     0   503  2.400447264E+00 -5.888853285E-01 -3.994516439E+00  6.680388804E+00  4.750000000E+00  0.00000E+00  9.000E+00
      21     1     1     2   512   501 -3.611295397E+01  2.338375490E+01  1.219137541E+02  1.292822837E+02  1.348699152E-06  0.00000E+00  9.000E+00
#rwgt            1           9  0.14036360899968545               10     2331118           0
</event>
<event>
      6   9999  3.45752E-01  6.00707E+00 -1.00000E+00  2.13987E-01
      21    -1     0     0   501   502  0.000000000E+00  0.000000000E+00  1.455774474E+02  1.455774474E+02  0.000000000E+00  0.00000E+00  9.000E+00
      21    -1     0     0   511   503  0.000000000E+00  0.000000000E+00 -7.060036096E+02  7.060036096E+02  0.000000000E+00  0.00000E+00  9.000E+00
      25     1     1     2     0     0 -3.105953646E+01 -4.512344046E+01 -2.222973776E+02  2.608494098E+02  1.250018834E+02  0.00000E+00  9.000E+00
       5     1     1     2   501     0  5.775414334E+00 -3.843716832E+00  1.136881720E+02  1.139986514E+02  4.750000000E+00  0.00000E+00  9.000E+00
      -5     1     1     2     0   503  2.704923941E+01  4.322526709E+01 -4.028637062E+01  6.515856986E+01  4.750000000E+00  0.00000E+00  9.000E+00
      21     1     1     2   511   502 -1.765117284E+00  5.741890206E+00 -4.115305860E+02  4.115744260E+02  5.394796609E-06  0.00000E+00  9.000E+00
#rwgt            1           9   2.0655988189985449E-003          10     2331996           0
</event>
<event>
      6   9999  3.45752E-01  1.46805E+01 -1.00000E+00  1.71186E-01
      21    -1     0     0   512   502  0.000000000E+00  0.000000000E+00  1.549166535E+01  1.549166535E+01  0.000000000E+00  0.00000E+00  9.000E+00
      21    -1     0     0   502   503  0.000000000E+00  0.000000000E+00 -8.791517578E+02  8.791517578E+02  0.000000000E+00  0.00000E+00  9.000E+00
      25     1     1     2     0     0 -4.595508161E+01  9.232421622E+00 -7.580456302E+02  7.697117556E+02  1.250036083E+02  0.00000E+00  9.000E+00
       5     1     1     2   501     0 -1.580837902E+00 -2.149935631E-02  1.769048241E+00  5.309570828E+00  4.750000000E+00  0.00000E+00  9.000E+00
      -5     1     1     2     0   503  3.751435074E+01  1.516868383E+00 -7.271856495E+01  8.197670150E+01  4.750000000E+00  0.00000E+00  9.000E+00
      21     1     1     2   512   501  1.002156878E+01 -1.072779065E+01 -3.466494561E+01  3.764539530E+01  4.768371582E-07  0.00000E+00  9.000E+00
#rwgt            1           9   7.4817684490461150E-005          10     2337143           0
</event>
<event>
      6   9999  3.45752E-01  3.50465E+00 -1.00000E+00  2.60366E-01
      21    -1     0     0   501   511  0.000000000E+00  0.000000000E+00  7.332122215E+02  7.332122215E+02  0.000000000E+00  0.00000E+00  9.000E+00
      21    -1     0     0   502   503  0.000000000E+00  0.000000000E+00 -1.147015504E+02  1.147015504E+02  0.000000000E+00  0.00000E+00  9.000E+00
      25     1     1     2     0     0 -1.180963949E+01 -1.808367754E+00 -7.329316840E+01  1.453864643E+02  1.249903904E+02  0.00000E+00  9.000E+00
       5     1     1     2   501     0 -2.086483331E-02 -1.586297351E+00  2.613612969E+01  2.661158676E+01  4.750000000E+00  0.00000E+00  9.000E+00
      -5     1     1     2     0   503  9.934113094E+00  4.474158584E-01  8.114637004E-01  1.105023788E+01  4.750000000E+00  0.00000E+00  9.000E+00
      21     1     1     2   502   511  1.896391231E+00  2.947249246E+00  6.648562460E+02  6.648654830E+02  1.078959322E-05  0.00000E+00  9.000E+00
#rwgt            1           9   1.7514126893479961E-004          10     2339097           0
</event>
<event>
      6   9999  3.45752E-01  4.59747E+00 -1.00000E+00  2.35967E-01
      21    -1     0     0   512   502  0.000000000E+00  0.000000000E+00  4.050397002E+00  4.050397002E+00  0.000000000E+00  0.00000E+00  9.000E+00
      21    -1     0     0   502   503  0.000000000E+00  0.000000000E+00 -2.958489274E+03  2.958489274E+03  0.000000000E+00  0.00000E+00  9.000E+00
      25     1     1     2     0     0 -1.944634324E+01  1.484675770E+01 -1.992441054E+03  1.996507972E+03  1.249965728E+02  0.00000E+00  9.000E+00
       5     1     1     2   501     0 -3.914382203E-02  2.311347008E+00 -4.402522452E+00  6.876667883E+00  4.750000000E+00  0.00000E+00  9.000E+00
      -5     1     1     2     0   503  1.591322764E+01 -1.426402819E+01 -9.501666315E+02  9.504187937E+02  4.750000000E+00  0.00000E+00  9.000E+00
      21     1     1     2   512   501  3.572259426E+00 -2.894076520E+00 -7.428669347E+00  8.736237438E+00  6.951036328E-07  0.00000E+00  9.000E+00
#rwgt            1           9   1.8051746918951887E-002          10     2344379           0
</event>
<event>
      6   9999 -3.45752E-01  6.31561E+00 -1.00000E+00  2.11003E-01
      21    -1     0     0   511   502  0.000000000E+00  0.000000000E+00  1.038226967E+02  1.038226967E+02  0.000000000E+00  0.00000E+00  9.000E+00
      21    -1     0     0   502   503  0.000000000E+00  0.000000000E+00 -2.035946667E+02  2.035946667E+02  0.000000000E+00  0.00000E+00  9.000E+00
      25     1     1     2     0     0 -2.978969786E+00 -7.075729977E+00  5.921013162E+01  1.384970301E+02  1.249665853E+02  0.00000E+00  9.000E+00
       5     1     1     2   501     0  7.417938466E-05 -1.955940463E-02  2.910385763E-01  4.758947996E+00  4.750000000E+00  0.00000E+00  9.000E+00
      -5     1     1     2     0   503 -3.285463654E+00  7.898255082E+00 -1.572145469E+02  1.575187385E+02  4.750000000E+00  0.00000E+00  9.000E+00
      21     1     1     2   511   501  6.264359260E+00 -8.029657003E-01 -2.058593280E+00  6.642646848E+00  8.940696716E-08  0.00000E+00  9.000E+00
#rwgt            1           9  -84.588824411612038               10     2348521           0
</event>
<event>
      6   9999  3.45752E-01  4.41961E+01 -1.00000E+00  1.37719E-01
      21    -1     0     0   512   502  0.000000000E+00  0.000000000E+00  1.176064550E+02  1.176064550E+02  0.000000000E+00  0.00000E+00  9.000E+00
      21    -1     0     0   502   503  0.000000000E+00  0.000000000E+00 -1.392234952E+03  1.392234952E+03  0.000000000E+00  0.00000E+00  9.000E+00
      25     1     1     2     0     0 -3.097485356E+01 -5.657291498E+00 -8.978448048E+02  9.070509796E+02  1.249989579E+02  0.00000E+00  9.000E+00
       5     1     1     2   501     0  5.836672626E+00  1.622676528E+01  4.457666138E+01  4.803140533E+01  4.750000000E+00  0.00000E+00  9.000E+00
      -5     1     1     2     0   503  2.692879017E+01  3.359036731E+01 -4.796538854E+02  4.816055282E+02  4.750000000E+00  0.00000E+00  9.000E+00
      21     1     1     2   512   501 -1.790609237E+00 -4.415984109E+01  5.829353169E+01  7.315349399E+01  1.168007728E-06  0.00000E+00  9.000E+00
#rwgt            1           9   6.9957778014156544E-004          10     2353259           0
</event>
<event>
      6   9999 -3.45752E-01  7.42982E+00 -1.00000E+00  2.01895E-01
      21    -1     0     0   511   502  0.000000000E+00  0.000000000E+00  2.737993383E+01  2.737993383E+01  0.000000000E+00  0.00000E+00  9.000E+00
      21    -1     0     0   502   503  0.000000000E+00  0.000000000E+00 -9.057369232E+02  9.057369232E+02  0.000000000E+00  0.00000E+00  9.000E+00
      25     1     1     2     0     0  1.245880272E+01  1.471861772E+01 -8.866581215E+02  8.956333406E+02  1.249983878E+02  0.00000E+00  9.000E+00
       5     1     1     2   501     0  3.779103544E+00  4.681053663E-04  1.024450583E+01  1.190772957E+01  4.750000000E+00  0.00000E+00  9.000E+00
      -5     1     1     2     0   503 -1.127593132E+01 -9.189071084E+00 -6.752293141E+00  1.672547809E+01  4.750000000E+00  0.00000E+00  9.000E+00
      21     1     1     2   511   501 -4.961974947E+00 -5.530014737E+00  4.808919451E+00  8.850308732E+00  3.625608999E-07  0.00000E+00  9.000E+00
#rwgt            1           9  -6.9590864137717015E-003          10     2354982           0
</event>
<event>
      6   9999 -3.45752E-01  1.16152E+01 -1.00000E+00  1.80595E-01
      21    -1     0     0   501   502  0.000000000E+00  0.000000000E+00  7.137029144E+00  7.137029144E+00  0.000000000E+00  0.00000E+00  9.000E+00
      21    -1     0     0   502   512  0.000000000E+00  0.000000000E+00 -8.866297276E+02  8.866297276E+02  0.000000000E+00  0.00000E+00  9.000E+00
      25     1     1     2     0     0 -1.771986448E+00 -1.079891762E+01 -6.241539739E+02  6.366425179E+02  1.250030234E+02  0.00000E+00  9.000E+00
       5     1     1     2   501     0 -3.339036126E-01 -4.805471157E-01 -9.721256082E+00  1.083548508E+01  4.750000000E+00  0.00000E+00  9.000E+00
      -5     1     1     2     0   503 -3.856466038E+00  1.311354820E+00 -6.593306834E+01  6.622932872E+01  4.750000000E+00  0.00000E+00  9.000E+00
      21     1     1     2   503   512  5.962356099E+00  9.968109919E+00 -1.796844002E+02  1.800594251E+02  1.907348633E-06  0.00000E+00  9.000E+00
#rwgt            1           9  -2.3730400660943438E-003          10     2358723           0
</event>
<event>
      6   9999  3.45752E-01  1.12255E+01 -1.00000E+00  1.82056E-01
      21    -1     0     0   511   502  0.000000000E+00  0.000000000E+00  2.545852614E+01  2.545852614E+01  0.000000000E+00  0.00000E+00  9.000E+00
      21    -1     0     0   502   503  0.000000000E+00  0.000000000E+00 -7.792302331E+02  7.792302331E+02  0.000000000E+00  0.00000E+00  9.000E+00
      25     1     1     2     0     0  9.210323832E+00  2.939202202E+00 -7.270709517E+02  7.378013531E+02  1.250007954E+02  0.00000E+00  9.000E+00
       5     1     1     2   501     0  3.740095711E-01 -1.143763413E+00  2.374607632E+00  5.445120688E+00  4.750000000E+00  0.00000E+00  9.000E+00
      -5     1     1     2     0   503  7.499957425E-01 -6.178725717E+00 -4.291446513E+01  4.362284909E+01  4.750000000E+00  0.00000E+00  9.000E+00
      21     1     1     2   511   501 -1.033432915E+01  4.383286928E+00  1.383910221E+01  1.781943639E+01  7.152557373E-07  0.00000E+00  9.000E+00
#rwgt            1           9   1.0693921649060751E-003          10     2360505           0
</event>
<event>
      6   9999 -3.45752E-01  5.14447E+01 -1.00000E+00  1.34129E-01
      21    -1     0     0   501   502  0.000000000E+00  0.000000000E+00  1.913135375E+02  1.913135375E+02  0.000000000E+00  0.00000E+00  9.000E+00
       2    -1     0     0   502     0  0.000000000E+00  0.000000000E+00 -3.930454189E+03  3.930454189E+03  0.000000000E+00  0.00000E+00  9.000E+00
      25     1     1     2     0     0 -4.426033487E+01 -3.178368348E+01 -3.232577454E+02  3.508265843E+02  1.249581631E+02  0.00000E+00  9.000E+00
       5     1     1     2   501     0  1.400249958E+01  2.140159646E+01  1.390216646E+02  1.414343808E+02  4.750000000E+00  0.00000E+00  9.000E+00
      -5     1     1     2     0   503  4.044374626E+01  6.080830348E+01  1.038633689E+00  7.319144515E+01  4.750000000E+00  0.00000E+00  9.000E+00
       2     1     1     2   503     0 -1.018591097E+01 -5.042621646E+01 -3.555943205E+03  3.556315317E+03  0.000000000E+00  0.00000E+00  9.000E+00
#rwgt            1           9  -1.1114233480494973E-003          10     2362942           0
</event>
<event>
      6   9999  3.45752E-01  2.39023E+01 -1.00000E+00  1.54518E-01
      21    -1     0     0   501   502  0.000000000E+00  0.000000000E+00  8.843943006E+01  8.843943006E+01  0.000000000E+00  0.00000E+00  9.000E+00
      21    -1     0     0   511   503  0.000000000E+00  0.000000000E+00 -1.652700429E+03  1.652700429E+03  0.000000000E+00  0.00000E+00  9.000E+00
      25     1     1     2     0     0 -1.298315753E+01 -3.199606979E+01 -9.982077471E+02  1.006596662E+03  1.250032946E+02  0.00000E+00  9.000E+00
       5     1     1     2   501     0  3.912642509E+00  5.989996339E+00  8.180760718E+01  8.225713294E+01  4.750000000E+00  0.00000E+00  9.000E+00
      -5     1     1     2     0   503  2.274575822E-01  3.799809066E+00 -5.850396674E+02  5.850713335E+02  4.750000000E+00  0.00000E+00  9.000E+00
      21     1     1     2   511   502  8.843057437E+00  2.220626438E+01 -6.282119192E+01  6.721473050E+01  1.168007728E-06  0.00000E+00  9.000E+00
#rwgt            1           9   1.1201212328523469E-004          10     2364402           0
</event>
<event>
      6   9999  3.45752E-01  6.61369E+01 -1.00000E+00  1.28594E-01
      -2    -1     0     0     0   502  0.000000000E+00  0.000000000E+00  7.918537814E+02  7.918537814E+02  0.000000000E+00  0.00000E+00  9.000E+00
      21    -1     0     0   501   512  0.000000000E+00  0.000000000E+00 -5.742522570E+01  5.742522570E+01  0.000000000E+00  0.00000E+00  9.000E+00
      25     1     1     2     0     0  6.480160604E+01 -1.239266254E+01  2.748994110E+02  3.091075639E+02  1.249998948E+02  0.00000E+00  9.000E+00
       5     1     1     2   501     0 -2.977752663E+01  5.444799405E+01  3.483977160E+01  7.132781598E+01  4.750000000E+00  0.00000E+00  9.000E+00
      -5     1     1     2     0   502 -7.803782111E+01 -9.229379485E+01  1.918829630E+02  2.268252192E+02  4.750000000E+00  0.00000E+00  9.000E+00
      -2     1     1     2     0   512  4.301374170E+01  5.023846334E+01  2.328064102E+02  2.420184080E+02  0.000000000E+00  0.00000E+00  9.000E+00
#rwgt            1           3   1.2606947193138252E-003          10     2367011           0
</event>
<event>
      6   9999 -3.45752E-01  2.07808E+01 -1.00000E+00  1.58951E-01
      21    -1     0     0   501   502  0.000000000E+00  0.000000000E+00  1.152798406E+01  1.152798406E+01  0.000000000E+00  0.00000E+00  9.000E+00
       1    -1     0     0   502     0  0.000000000E+00  0.000000000E+00 -3.108289015E+03  3.108289015E+03  0.000000000E+00  0.00000E+00  9.000E+00
      25     1     1     2     0     0  5.982928210E+00  1.008980295E+01 -7.131526117E+02  7.241201502E+02  1.250029789E+02  0.00000E+00  9.000E+00
       5     1     1     2   501     0  2.498407167E+01 -1.643880023E+01 -4.954658732E+01  5.806776046E+01  4.750000000E+00  0.00000E+00  9.000E+00
      -5     1     1     2     0   503 -1.020229795E+01  5.531634764E+00 -2.089577849E+01  2.436969276E+01  4.750000000E+00  0.00000E+00  9.000E+00
       1     1     1     2   503     0 -2.076470193E+01  8.173625085E-01 -2.313166053E+03  2.313259396E+03  0.000000000E+00  0.00000E+00  9.000E+00
#rwgt            1           9  -7.0604930513312079               10     2368290           0
</event>
<event>
      6   9999  3.45752E-01  3.64542E+00 -1.00000E+00  2.56500E-01
      -4    -1     0     0     0   502  0.000000000E+00  0.000000000E+00  8.603951220E+00  8.603951220E+00  0.000000000E+00  0.00000E+00  9.000E+00
      21    -1     0     0   502   503  0.000000000E+00  0.000000000E+00 -4.315654140E+03  4.315654140E+03  0.000000000E+00  0.00000E+00  9.000E+00
      25     1     1     2     0     0  1.869709790E+00  1.622784315E+00 -3.263053719E+03  3.265447955E+03  1.249985782E+02  0.00000E+00  9.000E+00
       5     1     1     2   501     0  4.183294707E-01 -1.602523641E-01 -3.651145927E+01  3.682186630E+01  4.750000000E+00  0.00000E+00  9.000E+00
      -5     1     1     2     0   503 -2.250013034E+00 -5.107755260E+00 -1.014264421E+03  1.014290900E+03  4.750000000E+00  0.00000E+00  9.000E+00
      -4     1     1     2     0   501 -3.802622682E-02  3.645223309E+00  6.779410389E+00  7.697369953E+00  1.675304094E-06  0.00000E+00  9.000E+00
#rwgt            1           9   1.4592918076978908E-004          10     2369644           0
</event>
<event>
      6   9999  3.45752E-01  3.22149E+01 -1.00000E+00  1.45864E-01
      21    -1     0     0   501   502  0.000000000E+00  0.000000000E+00  1.445299956E+01  1.445299956E+01  0.000000000E+00  0.00000E+00  9.000E+00
      21    -1     0     0   511   503  0.000000000E+00  0.000000000E+00 -1.164423851E+03  1.164423851E+03  0.000000000E+00  0.00000E+00  9.000E+00
      25     1     1     2     0     0 -2.361378857E+01  5.082904573E+01 -4.874970188E+02  5.063788899E+02  1.250001356E+02  0.00000E+00  9.000E+00
       5     1     1     2   501     0 -3.617233422E+00  3.613197418E+00  2.487979674E-02  6.978731419E+00  4.750000000E+00  0.00000E+00  9.000E+00
      -5     1     1     2     0   503  1.085466826E+01 -2.670031995E+01 -3.969995833E+02  3.980728106E+02  4.750000000E+00  0.00000E+00  9.000E+00
      21     1     1     2   511   502  1.637635373E+01 -2.774192320E+01 -2.654991293E+02  2.674464188E+02  0.000000000E+00  0.00000E+00  9.000E+00
#rwgt            1           9   1.4191500283965373E-002          10     2373532           0
</event>
<event>
      6   9999  3.45752E-01  2.90648E+00 -1.00000E+00  2.80559E-01
      21    -1     0     0   512   502  0.000000000E+00  0.000000000E+00  1.983122632E+02  1.983122632E+02  0.000000000E+00  0.00000E+00  9.000E+00
      21    -1     0     0   502   503  0.000000000E+00  0.000000000E+00 -1.108138370E+03  1.108138370E+03  0.000000000E+00  0.00000E+00  9.000E+00
      25     1     1     2     0     0  3.412636842E+00 -1.749192103E+01 -1.028142223E+03  1.035867295E+03  1.250080324E+02  0.00000E+00  9.000E+00
       5     1     1     2   501     0 -2.313669371E-01  6.728292854E+00  2.360740475E+01  2.500390998E+01  4.750000000E+00  0.00000E+00  9.000E+00
      -5     1     1     2     0   503 -2.371005003E+00  7.972379289E+00 -7.511882812E+01  7.572701853E+01  4.750000000E+00  0.00000E+00  9.000E+00
      21     1     1     2   512   501 -8.102649017E-01  2.791248886E+00  1.698275401E+02  1.698524094E+02  1.907348633E-06  0.00000E+00  9.000E+00
#rwgt            1           9   1.6172353205418108E-004          10     2374736           0
</event>
<event>
      6   9999  3.45752E-01  6.74955E+00 -1.00000E+00  2.07176E-01
      21    -1     0     0   501   502  0.000000000E+00  0.000000000E+00  1.178102843E+01  1.178102843E+01  0.000000000E+00  0.00000E+00  9.000E+00
      21    -1     0     0   502   511  0.000000000E+00  0.000000000E+00 -1.076729613E+03  1.076729613E+03  0.000000000E+00  0.00000E+00  9.000E+00
      25     1     1     2     0     0  3.646011800E+00 -3.585216407E+00 -3.608655004E+02  3.819164106E+02  1.249403384E+02  0.00000E+00  9.000E+00
       5     1     1     2   501     0  2.681033973E-01 -8.115729187E-02 -5.952017092E+00  7.620201664E+00  4.750000000E+00  0.00000E+00  9.000E+00
      -5     1     1     2     0   503 -3.663682001E-02 -1.858257774E+00 -1.566326103E+01  1.647284767E+01  4.750000000E+00  0.00000E+00  9.000E+00
      21     1     1     2   503   511 -3.877478377E+00  5.524631473E+00 -6.824678065E+02  6.825011819E+02  0.000000000E+00  0.00000E+00  9.000E+00
#rwgt            1           9   8.8130515281823623E-005          10     2382723           0
</event>
<event>
      6   9999  3.45752E-01  8.78009E+00 -1.00000E+00  1.93349E-01
      21    -1     0     0   501   502  0.000000000E+00  0.000000000E+00  1.677013857E+01  1.677013857E+01  0.000000000E+00  0.00000E+00  9.000E+00
      21    -1     0     0   512   503  0.000000000E+00  0.000000000E+00 -2.085738680E+03  2.085738680E+03  0.000000000E+00  0.00000E+00  9.000E+00
      25     1     1     2     0     0  1.312601225E+02  6.164212988E+01 -9.795268183E+02  9.980615114E+02  1.250000831E+02  0.00000E+00  9.000E+00
       5     1     1     2   501     0 -8.746287684E-01  8.055969469E-01 -2.559948673E+00  5.525377737E+00  4.750000000E+00  0.00000E+00  9.000E+00
      -5     1     1     2     0   503 -1.351641839E+02 -5.508199416E+01 -8.946916235E+02  9.065313267E+02  4.750000000E+00  0.00000E+00  9.000E+00
      21     1     1     2   512   502  4.778690110E+00 -7.365732663E+00 -1.921901513E+02  1.923906030E+02  3.814697266E-06  0.00000E+00  9.000E+00
#rwgt            1           9   4.4435328763449303E-004          10     2386155           0
</event>
<event>
      6   9999  3.45752E-01  1.12628E+01 -1.00000E+00  1.81913E-01
      21    -1     0     0   501   511  0.000000000E+00  0.000000000E+00  1.795572532E+01  1.795572532E+01  0.000000000E+00  0.00000E+00  9.000E+00
      21    -1     0     0   502   503  0.000000000E+00  0.000000000E+00 -1.568790898E+03  1.568790898E+03  0.000000000E+00  0.00000E+00  9.000E+00
      25     1     1     2     0     0  9.277914098E+00 -1.088962495E+01 -1.496972785E+03  1.502250558E+03  1.249982168E+02  0.00000E+00  9.000E+00
       5     1     1     2   501     0 -3.254424355E+00  2.290187620E+00  2.773265317E+00  6.788942313E+00  4.750000000E+00  0.00000E+00  9.000E+00
      -5     1     1     2     0   503 -1.671345131E+01  5.053327944E+00 -6.245937361E+01  6.502777430E+01  4.750000000E+00  0.00000E+00  9.000E+00
      21     1     1     2   502   511  1.068996157E+01  3.546109385E+00  5.823720883E+00  1.267934916E+01  8.760057960E-07  0.00000E+00  9.000E+00
#rwgt            1           9   1.6143672450193531E-003          10     2389711           0
</event>
<event>
      6   9999  3.45752E-01  1.18934E+01 -1.00000E+00  1.79595E-01
      21    -1     0     0   501   502  0.000000000E+00  0.000000000E+00  7.069374300E+01  7.069374300E+01  0.000000000E+00  0.00000E+00  9.000E+00
      21    -1     0     0   502   512  0.000000000E+00  0.000000000E+00 -4.646390554E+02  4.646390554E+02  0.000000000E+00  0.00000E+00  9.000E+00
      25     1     1     2     0     0  5.169265270E+00 -1.115255402E+01 -3.976897606E+02  4.170542046E+02  1.250038525E+02  0.00000E+00  9.000E+00
       5     1     1     2   501     0 -1.653518619E+00 -8.566600190E-03  5.868257683E+01  5.889772084E+01  4.750000000E+00  0.00000E+00  9.000E+00
      -5     1     1     2     0   503 -5.293650121E+00 -5.986506983E-01 -3.811892575E+01  3.878138876E+01  4.750000000E+00  0.00000E+00  9.000E+00
      21     1     1     2   503   512  1.777903470E+00  1.175977131E+01 -1.681920283E+01  2.059948411E+01  2.384185791E-07  0.00000E+00  9.000E+00
#rwgt            1           9  0.19527738462079192               10     2392441           0
</event>
<event>
      6   9999 -3.45752E-01  1.02163E+01 -1.00000E+00  1.86220E-01
      21    -1     0     0   501   502  0.000000000E+00  0.000000000E+00  8.560182271E+00  8.560182271E+00  0.000000000E+00  0.00000E+00  9.000E+00
      21    -1     0     0   502   511  0.000000000E+00  0.000000000E+00 -9.914849791E+02  9.914849791E+02  0.000000000E+00  0.00000E+00  9.000E+00
      25     1     1     2     0     0  4.088554904E+00 -1.616572814E+01 -7.828746528E+02  7.929658511E+02  1.249962878E+02  0.00000E+00  9.000E+00
       5     1     1     2   501     0  6.485587468E-02 -2.720697846E+00  1.305090909E-01  5.475941533E+00  4.750000000E+00  0.00000E+00  9.000E+00
      -5     1     1     2     0   503  6.673390571E-01  9.879003332E+00 -5.633805843E+01  5.739842660E+01  4.750000000E+00  0.00000E+00  9.000E+00
      21     1     1     2   503   511 -4.820749835E+00  9.007422655E+00 -1.438425946E+02  1.442049421E+02  1.907348633E-06  0.00000E+00  9.000E+00
#rwgt            1           9 -0.19189657897863552               10     2395329           0
</event>
<event>
      6   9999  3.45752E-01  1.34922E+01 -1.00000E+00  1.74458E-01
      21    -1     0     0   501   502  0.000000000E+00  0.000000000E+00  4.671818012E+01  4.671818012E+01  0.000000000E+00  0.00000E+00  9.000E+00
      21    -1     0     0   502   512  0.000000000E+00  0.000000000E+00 -5.787571354E+02  5.787571354E+02  0.000000000E+00  0.00000E+00  9.000E+00
      25     1     1     2     0     0 -9.407165491E+01  4.321571159E+01 -3.310126101E+02  3.686778712E+02  1.250477935E+02  0.00000E+00  9.000E+00
       5     1     1     2   501     0  1.365037760E+00  1.011422300E+00  6.286289076E+00  8.060163367E+00  4.750000000E+00  0.00000E+00  9.000E+00
      -5     1     1     2     0   503  9.520311823E+01 -3.096790143E+01 -1.035839778E+02  1.441348244E+02  4.750000000E+00  0.00000E+00  9.000E+00
      21     1     1     2   503   512 -2.496501076E+00 -1.325923246E+01 -1.037286564E+02  1.046024565E+02  1.348699152E-06  0.00000E+00  9.000E+00
#rwgt            1           9   1.2604535510645919E-003          10     2397622           0
</event>
<event>
      6   9999 -3.45752E-01  2.92212E+00 -1.00000E+00  2.79934E-01
      21    -1     0     0   502   503  0.000000000E+00  0.000000000E+00  8.552699106E+00  8.552699106E+00  0.000000000E+00  0.00000E+00  9.000E+00
      21    -1     0     0   511   502  0.000000000E+00  0.000000000E+00 -1.973711413E+03  1.973711413E+03  0.000000000E+00  0.00000E+00  9.000E+00
      25     1     1     2     0     0 -1.056157061E+01  8.067048047E-01 -4.692226102E+02  4.857033773E+02  1.250028613E+02  0.00000E+00  9.000E+00
       5     1     1     2   501     0  6.686242426E+00 -5.968196640E+00 -2.500126131E+02  2.502182935E+02  4.750000000E+00  0.00000E+00  9.000E+00
      -5     1     1     2     0   503  2.097137225E+00  2.842693899E+00 -4.196973750E+01  4.238514196E+01  4.750000000E+00  0.00000E+00  9.000E+00
      21     1     1     2   511   501  1.778190956E+00  2.318797937E+00 -1.203953754E+03  1.203957300E+03  1.525878906E-05  0.00000E+00  9.000E+00
#rwgt            1           9  -1.6087059617268282E-002          10     2400173           0
</event>
<event>
      6   9999  3.45752E-01  8.70622E+00 -1.00000E+00  1.93763E-01
      21    -1     0     0   501   502  0.000000000E+00  0.000000000E+00  1.207356748E+01  1.207356748E+01  0.000000000E+00  0.00000E+00  9.000E+00
      21    -1     0     0   512   503  0.000000000E+00  0.000000000E+00 -1.212052764E+03  1.212052764E+03  0.000000000E+00  0.00000E+00  9.000E+00
      25     1     1     2     0     0 -9.261537216E-02 -2.095335423E+00 -7.299903420E+02  7.406187990E+02  1.250036281E+02  0.00000E+00  9.000E+00
       5     1     1     2   501     0  3.762348969E+00 -3.308439534E+00  4.844244967E+00  8.433875220E+00  4.750000000E+00  0.00000E+00  9.000E+00
      -5     1     1     2     0   503  7.767263414E-01 -2.081361652E+00 -9.816955363E+01  9.830950682E+01  4.750000000E+00  0.00000E+00  9.000E+00
      21     1     1     2   512   502 -4.446459938E+00  7.485136609E+00 -3.766635460E+02  3.767641506E+02  5.394796609E-06  0.00000E+00  9.000E+00
#rwgt            1           9   3.0495706143747974E-004          10     2405743           0
</event>
<event>
      6   9999  3.45752E-01  3.08812E+01 -1.00000E+00  1.47029E-01
      21    -1     0     0   501   511  0.000000000E+00  0.000000000E+00  2.572061770E+02  2.572061770E+02  0.000000000E+00  0.00000E+00  9.000E+00
      21    -1     0     0   502   503  0.000000000E+00  0.000000000E+00 -3.017891553E+02  3.017891553E+02  0.000000000E+00  0.00000E+00  9.000E+00
      25     1     1     2     0     0  1.967229501E+01  3.166614183E+00 -2.553490198E+02  2.849999201E+02  1.249992235E+02  0.00000E+00  9.000E+00
       5     1     1     2   501     0  1.005154774E+01  1.253747199E+01  5.035230605E+01  5.306730670E+01  4.750000000E+00  0.00000E+00  9.000E+00
      -5     1     1     2     0   503 -4.513001239E+00  2.130264627E+00 -2.859496168E+01  2.941325451E+01  4.750000000E+00  0.00000E+00  9.000E+00
      21     1     1     2   502   511 -2.521084152E+01 -1.783435080E+01  1.890086971E+02  1.915148511E+02  2.697398305E-06  0.00000E+00  9.000E+00
#rwgt            1           9   1.3240951470006317E-003          10     2408403           0
</event>
<event>
      6   9999  3.45752E-01  5.37963E+00 -1.00000E+00  2.20880E-01
      21    -1     0     0   502   503  0.000000000E+00  0.000000000E+00  6.421099837E+01  6.421099837E+01  0.000000000E+00  0.00000E+00  9.000E+00
      21    -1     0     0   501   512  0.000000000E+00  0.000000000E+00 -9.864013980E+01  9.864013980E+01  0.000000000E+00  0.00000E+00  9.000E+00
      25     1     1     2     0     0  4.387953035E+00 -7.916575548E-01 -4.090027603E+00  1.251437325E+02  1.249973784E+02  0.00000E+00  9.000E+00
       5     1     1     2   501     0 -5.401756060E-02 -1.656333807E+00 -4.965737067E+00  7.068762565E+00  4.750000000E+00  0.00000E+00  9.000E+00
      -5     1     1     2     0   503  3.920127133E-01 -1.221858508E-01 -6.845405934E-02  4.768206089E+00  4.750000000E+00  0.00000E+00  9.000E+00
      21     1     1     2   502   512 -4.725948188E+00  2.570177213E+00 -2.530492269E+01  2.587043698E+01  0.000000000E+00  0.00000E+00  9.000E+00
#rwgt            1           9   1.3912299367723082               10     2409739           0
</event>
<event>
      6   9999  3.45752E-01  4.23883E+00 -1.00000E+00  2.42750E-01
      21    -1     0     0   501   502  0.000000000E+00  0.000000000E+00  6.989815447E+01  6.989815447E+01  0.000000000E+00  0.00000E+00  9.000E+00
      21    -1     0     0   511   503  0.000000000E+00  0.000000000E+00 -3.296366622E+02  3.296366622E+02  0.000000000E+00  0.00000E+00  9.000E+00
      25     1     1     2     0     0 -1.938994647E+01 -5.396324430E+01 -1.694412027E+02  2.182236515E+02  1.249929564E+02  0.00000E+00  9.000E+00
       5     1     1     2   501     0  2.275613049E+00  8.940398364E-01  3.264396695E+01  3.307822244E+01  4.750000000E+00  0.00000E+00  9.000E+00
      -5     1     1     2     0   503  1.679354395E+01  5.729587380E+01 -5.873881933E+01  8.389071265E+01  4.750000000E+00  0.00000E+00  9.000E+00
      21     1     1     2   511   502  3.207894715E-01 -4.226669338E+00 -6.420245270E+01  6.434223008E+01  0.000000000E+00  0.00000E+00  9.000E+00
#rwgt            1           9   1.6282757076131429E-004          10     2413636           0
</event>
<event>
      6   9999  3.45752E-01  8.85313E+00 -1.00000E+00  1.92944E-01
      21    -1     0     0   501   502  0.000000000E+00  0.000000000E+00  1.729842078E+01  1.729842078E+01  0.000000000E+00  0.00000E+00  9.000E+00
      21    -1     0     0   502   512  0.000000000E+00  0.000000000E+00 -1.365046834E+03  1.365046834E+03  0.000000000E+00  0.00000E+00  9.000E+00
      25     1     1     2     0     0  1.040689230E+01  6.377863886E-01 -9.141243392E+02  9.226868122E+02  1.249757408E+02  0.00000E+00  9.000E+00
       5     1     1     2   501     0 -4.521076157E-01  5.664937055E-01  1.226248404E+01  1.317028212E+01  4.750000000E+00  0.00000E+00  9.000E+00
      -5     1     1     2     0   503 -1.246417412E+00  3.901581069E-01 -2.359356805E+01  2.410238024E+01  4.750000000E+00  0.00000E+00  9.000E+00
      21     1     1     2   503   512 -8.708367274E+00 -1.594438201E+00 -4.222929903E+02  4.223857805E+02  5.394796609E-06  0.00000E+00  9.000E+00
#rwgt            1           9   1.0253162451559191E-005          10     2418745           0
</event>
<event>
      6   9999  3.45752E-01  1.11554E+01 -1.00000E+00  1.82327E-01
      21    -1     0     0   501   502  0.000000000E+00  0.000000000E+00  3.229331072E+01  3.229331072E+01  0.000000000E+00  0.00000E+00  9.000E+00
      21    -1     0     0   502   511  0.000000000E+00  0.000000000E+00 -4.760078523E+03  4.760078523E+03  0.000000000E+00  0.00000E+00  9.000E+00
      25     1     1     2     0     0 -2.859489163E+01  7.260716977E+00 -3.731559419E+03  3.733768790E+03  1.249931655E+02  0.00000E+00  9.000E+00
       5     1     1     2   501     0  2.005377911E+01 -1.017756503E+01  2.674409537E+01  3.526394793E+01  4.750000000E+00  0.00000E+00  9.000E+00
      -5     1     1     2     0   503  1.047105545E+01 -8.070378505E+00 -7.638888123E+02  7.640179671E+02  4.750000000E+00  0.00000E+00  9.000E+00
      21     1     1     2   503   511 -1.929942932E+00  1.098722656E+01 -2.590810768E+02  2.593211294E+02  0.000000000E+00  0.00000E+00  9.000E+00
#rwgt            1           9   1.3855457656234506E-002          10     2421589           0
</event>
<event>
      6   9999  3.45752E-01  5.19215E+00 -1.00000E+00  2.23197E-01
      21    -1     0     0   501   502  0.000000000E+00  0.000000000E+00  1.918032800E+01  1.918032800E+01  0.000000000E+00  0.00000E+00  9.000E+00
      21    -1     0     0   512   503  0.000000000E+00  0.000000000E+00 -1.019938877E+03  1.019938877E+03  0.000000000E+00  0.00000E+00  9.000E+00
      25     1     1     2     0     0  6.124175058E+01  6.106860871E-01 -4.464634879E+02  4.676598032E+02  1.250004819E+02  0.00000E+00  9.000E+00
       5     1     1     2   501     0 -3.200426266E-01  2.117519748E-01  5.476790999E+00  7.259821336E+00  4.750000000E+00  0.00000E+00  9.000E+00
      -5     1     1     2     0   503 -6.514210529E+01  2.201909235E+00 -5.177823136E+02  5.218902462E+02  4.750000000E+00  0.00000E+00  9.000E+00
      21     1     1     2   512   502  4.220397341E+00 -3.024347297E+00 -4.198953880E+01  4.230933466E+01  6.743495762E-07  0.00000E+00  9.000E+00
#rwgt            1           9  0.38816126356084080               10     2425667           0
</event>
<event>
      6   9999  3.45752E-01  1.57044E+01 -1.00000E+00  1.68662E-01
      21    -1     0     0   501   502  0.000000000E+00  0.000000000E+00  2.025167633E+03  2.025167633E+03  0.000000000E+00  0.00000E+00  9.000E+00
      21    -1     0     0   511   503  0.000000000E+00  0.000000000E+00 -4.524549107E+00  4.524549107E+00  0.000000000E+00  0.00000E+00  9.000E+00
      25     1     1     2     0     0 -1.802769372E+01  7.630638148E+00  1.089418488E+03  1.096740695E+03  1.249971427E+02  0.00000E+00  9.000E+00
       5     1     1     2   501     0 -1.300604594E+00  2.597679289E+00  7.097693489E+02  7.097911881E+02  4.750000000E+00  0.00000E+00  9.000E+00
      -5     1     1     2     0   503  8.334069003E+00  9.857008552E-01  1.307891994E+02  1.311442164E+02  4.750000000E+00  0.00000E+00  9.000E+00
      21     1     1     2   511   502  1.099422931E+01 -1.121401829E+01  9.066604783E+01  9.201608291E+01  1.348699152E-06  0.00000E+00  9.000E+00
#rwgt            1           9   45.758926906330039               10     2430104           0
</event>
<event>
      6   9999  3.45752E-01  1.07916E+01 -1.00000E+00  1.83775E-01
      21    -1     0     0   501   512  0.000000000E+00  0.000000000E+00  1.409804175E+02  1.409804175E+02  0.000000000E+00  0.00000E+00  9.000E+00
      21    -1     0     0   502   503  0.000000000E+00  0.000000000E+00 -2.877805695E+02  2.877805695E+02  0.000000000E+00  0.00000E+00  9.000E+00
      25     1     1     2     0     0 -1.814282276E+01  1.014909497E+01 -2.147329825E+02  2.493329815E+02  1.249980629E+02  0.00000E+00  9.000E+00
       5     1     1     2   501     0  3.073907470E+00 -9.022231916E+00 -3.513834854E+01  3.671669394E+01  4.750000000E+00  0.00000E+00  9.000E+00
      -5     1     1     2     0   503  5.662235155E+00  4.162039531E+00 -1.866281769E+01  2.049992059E+01  4.750000000E+00  0.00000E+00  9.000E+00
      21     1     1     2   502   512  9.406680139E+00 -5.288902583E+00  1.217339967E+02  1.222113910E+02  2.336015456E-06  0.00000E+00  9.000E+00
#rwgt            1           9  0.56208848329618177               10     2431433           0
</event>
<event>
      6   9999  3.45752E-01  1.06291E+01 -1.00000E+00  1.84445E-01
      21    -1     0     0   501   511  0.000000000E+00  0.000000000E+00  7.084041259E+01  7.084041259E+01  0.000000000E+00  0.00000E+00  9.000E+00
      21    -1     0     0   502   503  0.000000000E+00  0.000000000E+00 -1.919466981E+02  1.919466981E+02  0.000000000E+00  0.00000E+00  9.000E+00
      25     1     1     2     0     0 -8.600239678E+00  1.929859569E+01 -8.500854011E+01  1.526394503E+02  1.250037999E+02  0.00000E+00  9.000E+00
       5     1     1     2   501     0 -2.692183011E+00 -7.225919345E-01  1.252049654E+01  1.367827920E+01  4.750000000E+00  0.00000E+00  9.000E+00
      -5     1     1     2     0   503  8.912568268E-01 -2.076553240E+01 -6.968469875E+01  7.287332443E+01  4.750000000E+00  0.00000E+00  9.000E+00
      21     1     1     2   502   511  1.040116586E+01  2.189528648E+00  2.106645686E+01  2.359605670E+01  2.384185791E-07  0.00000E+00  9.000E+00
#rwgt            1           9   1.2470454155711470E-004          10     2433594           0
</event>
<event>
      6   9999  3.45752E-01  2.29926E+01 -1.00000E+00  1.55722E-01
      21    -1     0     0   501   502  0.000000000E+00  0.000000000E+00  5.577212111E+01  5.577212111E+01  0.000000000E+00  0.00000E+00  9.000E+00
      21    -1     0     0   502   512  0.000000000E+00  0.000000000E+00 -1.390398358E+03  1.390398358E+03  0.000000000E+00  0.00000E+00  9.000E+00
      25     1     1     2     0     0  7.516034143E+01 -1.100967156E+02 -1.634823489E+02  2.452000516E+02  1.250048927E+02  0.00000E+00  9.000E+00
       5     1     1     2   501     0 -5.967407621E-01  5.534761256E-01  9.363636452E+00  1.053103143E+01  4.750000000E+00  0.00000E+00  9.000E+00
      -5     1     1     2     0   503 -8.250983838E+01  8.796739657E+01 -1.103251437E+03  1.109834416E+03  4.750000000E+00  0.00000E+00  9.000E+00
      21     1     1     2   503   512  7.946237715E+00  2.157584289E+01 -7.725608824E+01  8.060498037E+01  9.536743164E-07  0.00000E+00  9.000E+00
#rwgt            1           9   7.2850653196069421E-004          10     2435931           0
</event>
<event>
      6   9999  3.45752E-01  1.40959E+01 -1.00000E+00  1.72745E-01
      21    -1     0     0   501   502  0.000000000E+00  0.000000000E+00  9.218594752E+00  9.218594752E+00  0.000000000E+00  0.00000E+00  9.000E+00
      21    -1     0     0   502   511  0.000000000E+00  0.000000000E+00 -7.737427312E+02  7.737427312E+02  0.000000000E+00  0.00000E+00  9.000E+00
      25     1     1     2     0     0  3.301842049E+01 -4.830911505E+00 -5.924596373E+02  6.064215647E+02  1.250005543E+02  0.00000E+00  9.000E+00
       5     1     1     2   501     0 -6.214631109E+00  2.392283989E-02 -3.906154747E+01  3.983703305E+01  4.750000000E+00  0.00000E+00  9.000E+00
      -5     1     1     2     0   503 -1.301316532E+01  7.724736198E+00 -4.837589984E+01  5.090976533E+01  4.750000000E+00  0.00000E+00  9.000E+00
      21     1     1     2   503   511 -1.379062406E+01 -2.917747533E+00 -8.462705191E+01  8.579296287E+01  9.536743164E-07  0.00000E+00  9.000E+00
#rwgt            1           9   4.5416879216560641E-004          10     2438168           0
</event>
<event>
      6   9999  3.45752E-01  3.90018E+00 -1.00000E+00  2.50144E-01
      21    -1     0     0   501   512  0.000000000E+00  0.000000000E+00  9.217733323E+01  9.217733323E+01  0.000000000E+00  0.00000E+00  9.000E+00
      21    -1     0     0   502   503  0.000000000E+00  0.000000000E+00 -9.785890599E+02  9.785890599E+02  0.000000000E+00  0.00000E+00  9.000E+00
      25     1     1     2     0     0  6.827488678E+00  1.258441589E+00 -9.374552240E+02  9.457773662E+02  1.249973249E+02  0.00000E+00  9.000E+00
       5     1     1     2   501     0  3.780693869E-01  1.669840921E+00  9.234623637E+00  1.052483154E+01  4.750000000E+00  0.00000E+00  9.000E+00
      -5     1     1     2     0   503 -5.913567858E+00  7.516883502E-01 -3.587838365E+01  3.667909804E+01  4.750000000E+00  0.00000E+00  9.000E+00
      21     1     1     2   502   512 -1.291990207E+00 -3.679970860E+00  7.768725730E+01  7.778509735E+01  0.000000000E+00  0.00000E+00  9.000E+00
#rwgt            1           9   2.2331374790307706E-002          10     2439671           0
</event>
<event>
      6   9999 -3.45752E-01  6.18149E+00 -1.00000E+00  2.12271E-01
      21    -1     0     0   501   502  0.000000000E+00  0.000000000E+00  1.400129799E+01  1.400129799E+01  0.000000000E+00  0.00000E+00  9.000E+00
       2    -1     0     0   502     0  0.000000000E+00  0.000000000E+00 -2.313374078E+03  2.313374078E+03  0.000000000E+00  0.00000E+00  9.000E+00
      25     1     1     2     0     0 -1.028387068E+01 -1.107604680E+01 -8.116599602E+02  8.213673628E+02  1.249960675E+02  0.00000E+00  9.000E+00
       5     1     1     2   501     0  4.078211262E-01 -1.973902073E+00  6.081823359E+00  7.975818631E+00  4.750000000E+00  0.00000E+00  9.000E+00
      -5     1     1     2     0   503  1.528016698E+01  1.605101172E+01 -5.868948775E+01  6.291372627E+01  4.750000000E+00  0.00000E+00  9.000E+00
       2     1     1     2   503     0 -5.404117434E+00 -3.001062849E+00 -1.435105155E+03  1.435118468E+03  1.525878906E-05  0.00000E+00  9.000E+00
#rwgt            1           9  -6.7123465343303442E-005          10     2444655           0
</event>
<event>
      6   9999  3.45752E-01  4.89807E+01 -1.00000E+00  1.35268E-01
      21    -1     0     0   501   511  0.000000000E+00  0.000000000E+00  7.446741780E+01  7.446741780E+01  0.000000000E+00  0.00000E+00  9.000E+00
      21    -1     0     0   502   503  0.000000000E+00  0.000000000E+00 -1.431677051E+03  1.431677051E+03  0.000000000E+00  0.00000E+00  9.000E+00
      25     1     1     2     0     0 -1.451325102E+02  9.332014413E+01 -7.219311268E+02  7.527161457E+02  1.249997973E+02  0.00000E+00  9.000E+00
       5     1     1     2   501     0  2.266125781E+02 -1.352621746E+02 -4.328890711E+02  5.070154108E+02  4.750000000E+00  0.00000E+00  9.000E+00
      -5     1     1     2     0   503 -3.723115563E+01  2.093870486E+01 -1.914640890E+02  1.962285611E+02  4.750000000E+00  0.00000E+00  9.000E+00
      21     1     1     2   502   511 -4.424891227E+01  2.100332562E+01 -1.092534645E+01  5.018435134E+01  3.153981341E-07  0.00000E+00  9.000E+00
#rwgt            1           9   1.2154070944632458E-003          10     2448423           0
</event>
<event>
      6   9999  3.45752E-01  5.00307E+00 -1.00000E+00  2.25675E-01
      21    -1     0     0   502   503  0.000000000E+00  0.000000000E+00  9.254610952E+02  9.254610952E+02  0.000000000E+00  0.00000E+00  9.000E+00
      21    -1     0     0   501   512  0.000000000E+00  0.000000000E+00 -9.089912020E+00  9.089912020E+00  0.000000000E+00  0.00000E+00  9.000E+00
      25     1     1     2     0     0  9.921922967E+00 -1.858212933E+01  7.666712739E+02  7.770847568E+02  1.250285444E+02  0.00000E+00  9.000E+00
       5     1     1     2   501     0 -8.258415041E-02  4.355502513E+00  8.933900993E+00  1.101609319E+01  4.750000000E+00  0.00000E+00  9.000E+00
      -5     1     1     2     0   503 -9.093164699E+00  1.917373571E+01  1.396385374E+02  1.413216241E+02  4.750000000E+00  0.00000E+00  9.000E+00
      21     1     1     2   502   512 -7.461741180E-01 -4.947108888E+00  1.127470828E+00  5.128533185E+00  1.021572143E-07  0.00000E+00  9.000E+00
#rwgt            1           9   13495.271187955910               10     2449673           0
</event>
<event>
      6   9999  3.45752E-01  5.10438E+00 -1.00000E+00  2.24329E-01
      21    -1     0     0   511   502  0.000000000E+00  0.000000000E+00  1.184394816E+02  1.184394816E+02  0.000000000E+00  0.00000E+00  9.000E+00
      21    -1     0     0   502   503  0.000000000E+00  0.000000000E+00 -9.726727564E+02  9.726727564E+02  0.000000000E+00  0.00000E+00  9.000E+00
      25     1     1     2     0     0  3.747996866E+01 -1.395711368E+01 -7.245966327E+02  7.363863727E+02  1.250002427E+02  0.00000E+00  9.000E+00
       5     1     1     2   501     0 -1.280173494E+00 -3.448466546E+00  6.283151437E+00  8.693173049E+00  4.750000000E+00  0.00000E+00  9.000E+00
      -5     1     1     2     0   503 -4.109406906E+01  1.595617618E+01 -2.388729778E+02  2.429530491E+02  4.750000000E+00  0.00000E+00  9.000E+00
      21     1     1     2   511   501  4.894273894E+00  1.449404041E+00  1.029531842E+02  1.030796431E+02  4.672030912E-06  0.00000E+00  9.000E+00
#rwgt            1           9   7.8450092451699972E-003          10     2453432           0
</event>
<event>
      6   9999  3.45752E-01  6.60134E+01 -1.00000E+00  1.28633E-01
      21    -1     0     0   502   503  0.000000000E+00  0.000000000E+00  4.129010014E+02  4.129010014E+02  0.000000000E+00  0.00000E+00  9.000E+00
       2    -1     0     0   501     0  0.000000000E+00  0.000000000E+00 -7.678500729E+02  7.678500729E+02  0.000000000E+00  0.00000E+00  9.000E+00
      25     1     1     2     0     0 -6.327278738E+01 -1.428574299E+02  2.294770339E+01  2.013988802E+02  1.249928836E+02  0.00000E+00  9.000E+00
       5     1     1     2   501     0  1.333600676E+02 -1.009756269E+02 -1.731562026E+02  2.408041068E+02  4.750000000E+00  0.00000E+00  9.000E+00
      -5     1     1     2     0   503 -9.263583788E+00  2.694894272E+02  1.953752773E+02  3.330231626E+02  4.750000000E+00  0.00000E+00  9.000E+00
       2     1     1     2   502     0 -6.082369640E+01 -2.565637046E+01 -4.001158497E+02  4.055249247E+02  5.394796609E-06  0.00000E+00  9.000E+00
#rwgt            1           9   4.2085902646908417E-002          10     2458039           0
</event>
<event>
      6   9999  3.45752E-01  1.48307E+01 -1.00000E+00  1.70800E-01
      21    -1     0     0   501   502  0.000000000E+00  0.000000000E+00  1.135077875E+01  1.135077875E+01  0.000000000E+00  0.00000E+00  9.000E+00
       1    -1     0     0   502     0  0.000000000E+00  0.000000000E+00 -2.310716639E+03  2.310716639E+03  0.000000000E+00  0.00000E+00  9.000E+00
      25     1     1     2     0     0  2.051017381E+01 -6.986063957E+00 -6.901666683E+02  7.017167633E+02  1.249276331E+02  0.00000E+00  9.000E+00
       5     1     1     2   501     0 -1.725955070E+00  4.501030018E+00  1.965040363E+00  7.047132449E+00  4.750000000E+00  0.00000E+00  9.000E+00
      -5     1     1     2     0   503 -2.823120087E+01  1.391759185E+01 -2.450526272E+02  2.471114175E+02  4.750000000E+00  0.00000E+00  9.000E+00
       1     1     1     2   503     0  9.446982129E+00 -1.143255791E+01 -1.366111606E+03  1.366192105E+03  1.525878906E-05  0.00000E+00  9.000E+00
#rwgt            1           9  0.35224895214306945               10     2459620           0
</event>
<event>
      6   9999 -3.45752E-01  9.54695E+00 -1.00000E+00  1.89340E-01
      21    -1     0     0   501   502  0.000000000E+00  0.000000000E+00  1.494009120E+01  1.494009120E+01  0.000000000E+00  0.00000E+00  9.000E+00
      21    -1     0     0   502   511  0.000000000E+00  0.000000000E+00 -1.208325567E+03  1.208325567E+03  0.000000000E+00  0.00000E+00  9.000E+00
      25     1     1     2     0     0  2.026475248E+00 -1.007686540E+01 -8.865430904E+02  8.953716823E+02  1.250045936E+02  0.00000E+00  9.000E+00
       5     1     1     2   501     0  3.337974547E-02  1.013199106E+00  9.484984482E+00  1.065622434E+01  4.750000000E+00  0.00000E+00  9.000E+00
      -5     1     1     2     0   503  4.191050600E+00  1.847681776E+00 -2.857224623E+01  2.932430029E+01  4.750000000E+00  0.00000E+00  9.000E+00
      21     1     1     2   503   511 -6.250905593E+00  7.215984519E+00 -2.877551234E+02  2.879134511E+02  3.814697266E-06  0.00000E+00  9.000E+00
#rwgt            1           9  -4.3454891605787122E-006          10     2462239           0
</event>
<event>
      6   9999  3.45752E-01  1.40109E+01 -1.00000E+00  1.72979E-01
      21    -1     0     0   501   502  0.000000000E+00  0.000000000E+00  8.191807558E+01  8.191807558E+01  0.000000000E+00  0.00000E+00  9.000E+00
      21    -1     0     0   512   503  0.000000000E+00  0.000000000E+00 -1.188840494E+03  1.188840494E+03  0.000000000E+00  0.00000E+00  9.000E+00
      25     1     1     2     0     0 -1.476973913E+02 -1.707004212E+02 -3.540639554E+02  4.381089364E+02  1.250000098E+02  0.00000E+00  9.000E+00
       5     1     1     2   501     0  1.580049340E+00 -2.911290150E+00  2.326261452E+01  2.397256558E+01  4.750000000E+00  0.00000E+00  9.000E+00
      -5     1     1     2     0   503  1.356588431E+02  1.642883488E+02 -7.254603421E+02  7.561145771E+02  4.750000000E+00  0.00000E+00  9.000E+00
      21     1     1     2   512   502  1.045849894E+01  9.323362576E+00 -5.066073531E+01  5.256249035E+01  1.348699152E-06  0.00000E+00  9.000E+00
#rwgt            1           9   8.7914465594884981E-004          10     2465456           0
</event>
<event>
      6   9999  3.45752E-01  2.15607E+02 -1.00000E+00  1.07777E-01
      21    -1     0     0   511   502  0.000000000E+00  0.000000000E+00  2.377293135E+01  2.377293135E+01  0.000000000E+00  0.00000E+00  9.000E+00
       2    -1     0     0   501     0  0.000000000E+00  0.000000000E+00 -3.276482005E+03  3.276482005E+03  0.000000000E+00  0.00000E+00  9.000E+00
      25     1     1     2     0     0  1.872518066E+00  9.829117653E+01 -5.318877116E+02  5.551657233E+02  1.250591094E+02  0.00000E+00  9.000E+00
       5     1     1     2   501     0  1.083561917E+00  1.962116770E+01 -3.511577735E+01  4.051968222E+01  4.750000000E+00  0.00000E+00  9.000E+00
      -5     1     1     2     0   502  1.822319102E+01  9.665148474E+01 -6.395741806E+02  6.471099514E+02  4.750000000E+00  0.00000E+00  9.000E+00
       2     1     1     2   511     0 -2.117927101E+01 -2.145638290E+02 -2.046131404E+03  2.057459579E+03  2.157918644E-05  0.00000E+00  9.000E+00
#rwgt            1           3   6.9678646962788031E-007          10     2468798           0
</event>
<event>
      6   9999  3.45752E-01  7.09022E+00 -1.00000E+00  2.04432E-01
      21    -1     0     0   501   502  0.000000000E+00  0.000000000E+00  1.211312880E+01  1.211312880E+01  0.000000000E+00  0.00000E+00  9.000E+00
      21    -1     0     0   502   512  0.000000000E+00  0.000000000E+00 -8.693136993E+02  8.693136993E+02  0.000000000E+00  0.00000E+00  9.000E+00
      25     1     1     2     0     0  1.439383379E+00 -3.493613469E+00 -7.781878787E+02  7.881678610E+02  1.249716984E+02  0.00000E+00  9.000E+00
       5     1     1     2   501     0  3.765293601E+00  1.149403745E+00  4.058680101E+00  7.384710491E+00  4.750000000E+00  0.00000E+00  9.000E+00
      -5     1     1     2     0   503  1.881402689E+00  2.586617741E+00 -5.371255836E+00  7.851315601E+00  4.750000000E+00  0.00000E+00  9.000E+00
      21     1     1     2   503   512 -7.086079669E+00 -2.424080167E-01 -7.770011602E+01  7.802294096E+01  9.536743164E-07  0.00000E+00  9.000E+00
#rwgt            1           9   2.5146931178961402E-002          10     2469171           0
</event>
<event>
      6   9999  3.45752E-01  2.96417E+01 -1.00000E+00  1.48176E-01
      21    -1     0     0   511   502  0.000000000E+00  0.000000000E+00  7.780303706E+01  7.780303706E+01  0.000000000E+00  0.00000E+00  9.000E+00
      21    -1     0     0   502   503  0.000000000E+00  0.000000000E+00 -1.452819072E+03  1.452819072E+03  0.000000000E+00  0.00000E+00  9.000E+00
      25     1     1     2     0     0  4.243183596E+01  6.313013099E+01 -1.057339557E+03  1.067416223E+03  1.249983195E+02  0.00000E+00  9.000E+00
       5     1     1     2   501     0  3.695095622E+00 -2.331006867E+01  5.201750406E+01  5.731837630E+01  4.750000000E+00  0.00000E+00  9.000E+00
      -5     1     1     2     0   503 -5.444638481E+01 -6.827027642E+01 -3.656605858E+02  3.759726931E+02  4.750000000E+00  0.00000E+00  9.000E+00
      21     1     1     2   511   501  8.319453228E+00  2.845021411E+01 -4.033396333E+00  2.991481691E+01  4.460403188E-07  0.00000E+00  9.000E+00
#rwgt            1           9   3.3876464699608276E-004          10     2472106           0
</event>
<event>
      6   9999  3.45752E-01  5.67971E+00 -1.00000E+00  2.17431E-01
      21    -1     0     0   501   502  0.000000000E+00  0.000000000E+00  3.297976844E+01  3.297976844E+01  0.000000000E+00  0.00000E+00  9.000E+00
      21    -1     0     0   512   503  0.000000000E+00  0.000000000E+00 -1.285581211E+03  1.285581211E+03  0.000000000E+00  0.00000E+00  9.000E+00
      25     1     1     2     0     0  1.962929941E+01  6.416770253E+00 -4.728907590E+02  4.895688260E+02  1.250019246E+02  0.00000E+00  9.000E+00
       5     1     1     2   501     0  2.748124308E+00  3.516927114E+00  2.397187612E+01  2.484218808E+01  4.750000000E+00  0.00000E+00  9.000E+00
      -5     1     1     2     0   503 -1.716579745E+01 -1.219157776E+01 -5.994646259E+02  5.998530648E+02  4.750000000E+00  0.00000E+00  9.000E+00
      21     1     1     2   512   502 -5.211626265E+00  2.257880388E+00 -2.042179337E+02  2.042969004E+02  3.814697266E-06  0.00000E+00  9.000E+00
#rwgt            1           9   5.6590084315589068E-002          10     2474250           0
</event>
<event>
      6   9999  3.45752E-01  1.25765E+01 -1.00000E+00  1.77282E-01
      21    -1     0     0   501   502  0.000000000E+00  0.000000000E+00  9.201143551E+02  9.201143551E+02  0.000000000E+00  0.00000E+00  9.000E+00
      21    -1     0     0   511   503  0.000000000E+00  0.000000000E+00 -1.495406394E+02  1.495406394E+02  0.000000000E+00  0.00000E+00  9.000E+00
      25     1     1     2     0     0 -9.396640903E+01  8.964379862E+01  1.522874111E+02  2.359873585E+02  1.250315205E+02  0.00000E+00  9.000E+00
       5     1     1     2   501     0  6.224137798E-01  1.148000824E+00  5.145183023E+02  5.145418847E+02  4.750000000E+00  0.00000E+00  9.000E+00
      -5     1     1     2     0   503  1.007530986E+02 -1.009541762E+02  1.868408238E+02  2.351063345E+02  4.750000000E+00  0.00000E+00  9.000E+00
      21     1     1     2   511   502 -7.409103377E+00  1.016237675E+01 -8.307282157E+01  8.401941679E+01  9.536743164E-07  0.00000E+00  9.000E+00
#rwgt            1           9  0.97360598038280943               10     2479644           0
</event>
<event>
      6   9999  3.45752E-01  2.21018E+01 -1.00000E+00  1.56967E-01
      -4    -1     0     0     0   502  0.000000000E+00  0.000000000E+00  1.928598714E+02  1.928598714E+02  0.000000000E+00  0.00000E+00  9.000E+00
      21    -1     0     0   502   503  0.000000000E+00  0.000000000E+00 -6.078576074E+02  6.078576074E+02  0.000000000E+00  0.00000E+00  9.000E+00
      25     1     1     2     0     0  1.457615945E+01 -7.153348960E+00 -4.311762961E+02  4.492283568E+02  1.250179322E+02  0.00000E+00  9.000E+00
       5     1     1     2   501     0  6.345090494E+00  6.861947288E-01  7.866656755E+00  1.118828964E+01  4.750000000E+00  0.00000E+00  9.000E+00
      -5     1     1     2     0   503 -1.578173318E-01 -1.107049180E+00 -1.652576856E+02  1.653297178E+02  4.750000000E+00  0.00000E+00  9.000E+00
      -4     1     1     2     0   501 -2.076343261E+01  7.574203411E+00  1.735695890E+02  1.749711145E+02  2.697398305E-06  0.00000E+00  9.000E+00
#rwgt            1           9   55.162604764333132               10     2484240           0
</event>
<event>
      6   9999  3.45752E-01  3.33538E+01 -1.00000E+00  1.44921E-01
      21    -1     0     0   501   502  0.000000000E+00  0.000000000E+00  1.343376531E+01  1.343376531E+01  0.000000000E+00  0.00000E+00  9.000E+00
      21    -1     0     0   502   511  0.000000000E+00  0.000000000E+00 -1.059996192E+03  1.059996192E+03  0.000000000E+00  0.00000E+00  9.000E+00
      25     1     1     2     0     0 -4.064506426E+01 -1.813039841E+00 -8.100674884E+02  8.206639755E+02  1.249988661E+02  0.00000E+00  9.000E+00
       5     1     1     2   501     0 -3.444072695E+00 -7.248771484E-01  1.222281183E+00  6.036849750E+00  4.750000000E+00  0.00000E+00  9.000E+00
      -5     1     1     2     0   503  1.092435903E+01 -1.008006747E+00 -7.509719725E+00  1.411793498E+01  4.750000000E+00  0.00000E+00  9.000E+00
      21     1     1     2   503   511  3.316477793E+01  3.545923736E+00 -2.302075000E+02  2.326111973E+02  2.697398305E-06  0.00000E+00  9.000E+00
#rwgt            1           9   3.3821969856144157E-003          10     2485895           0
</event>
<event>
      6   9999  3.45752E-01  9.82979E+00 -1.00000E+00  1.87982E-01
      21    -1     0     0   501   502  0.000000000E+00  0.000000000E+00  1.018568795E+01  1.018568795E+01  0.000000000E+00  0.00000E+00  9.000E+00
      21    -1     0     0   502   512  0.000000000E+00  0.000000000E+00 -9.341187587E+02  9.341187587E+02  0.000000000E+00  0.00000E+00  9.000E+00
      25     1     1     2     0     0 -1.065662728E+01 -1.194128013E+01 -6.387163962E+02  6.510316628E+02  1.250097326E+02  0.00000E+00  9.000E+00
       5     1     1     2   501     0 -1.410232548E+01  1.177687248E+01 -4.898937017E+01  5.253657011E+01  4.750000000E+00  0.00000E+00  9.000E+00
      -5     1     1     2     0   503  2.566935420E+01  9.951949904E+00 -9.137016237E+01  9.554593725E+01  4.750000000E+00  0.00000E+00  9.000E+00
      21     1     1     2   503   512 -9.104014361E-01 -9.787542259E+00 -1.448571420E+02  1.451902765E+02  2.697398305E-06  0.00000E+00  9.000E+00
#rwgt            1           9   2.5202694260316297E-002          10     2487033           0
</event>
<event>
      6   9999  3.45752E-01  2.43327E+01 -1.00000E+00  1.53971E-01
      21    -1     0     0   501   511  0.000000000E+00  0.000000000E+00  7.584204185E+01  7.584204185E+01  0.000000000E+00  0.00000E+00  9.000E+00
      21    -1     0     0   502   503  0.000000000E+00  0.000000000E+00 -7.740350713E+02  7.740350713E+02  0.000000000E+00  0.00000E+00  9.000E+00
      25     1     1     2     0     0  1.442006352E+01  6.086858115E+00 -7.058594280E+02  7.170165021E+02  1.250205748E+02  0.00000E+00  9.000E+00
       5     1     1     2   501     0  3.808770243E+00 -1.820672931E+00  2.053821403E-01  6.358165027E+00  4.750000000E+00  0.00000E+00  9.000E+00
      -5     1     1     2     0   503  6.093084478E+00 -4.991979972E+00 -5.692944852E+01  5.766775660E+01  4.750000000E+00  0.00000E+00  9.000E+00
      21     1     1     2   502   511 -2.432191824E+01  7.257947875E-01  6.439046496E+01  6.883468938E+01  0.000000000E+00  0.00000E+00  9.000E+00
#rwgt            1           9   2.3529099389592652E-003          10     2489710           0
</event>
<event>
      6   9999  3.45752E-01  2.23250E+01 -1.00000E+00  1.56648E-01
      21    -1     0     0   501   502  0.000000000E+00  0.000000000E+00  1.102826687E+02  1.102826687E+02  0.000000000E+00  0.00000E+00  9.000E+00
      21    -1     0     0   512   503  0.000000000E+00  0.000000000E+00 -3.518584791E+02  3.518584791E+02  0.000000000E+00  0.00000E+00  9.000E+00
      25     1     1     2     0     0  4.867208151E+01  6.562445790E-01 -1.506038519E+01  1.349877467E+02  1.250018975E+02  0.00000E+00  9.000E+00
       5     1     1     2   501     0  1.559758574E+00 -1.186518622E+00  4.409336010E+01  4.439175124E+01  4.750000000E+00  0.00000E+00  9.000E+00
      -5     1     1     2     0   503 -3.645265862E+01 -1.703498074E+01 -6.973128589E+01  8.064739066E+01  4.750000000E+00  0.00000E+00  9.000E+00
      21     1     1     2   512   502 -1.377918146E+01  1.756525478E+01 -2.008774994E+02  2.021142592E+02  2.697398305E-06  0.00000E+00  9.000E+00
#rwgt            1           9   2.3772780557423942E-003          10     2490833           0
</event>
<event>
      6   9999  3.45752E-01  7.99442E+00 -1.00000E+00  1.98051E-01
      21    -1     0     0   501   511  0.000000000E+00  0.000000000E+00  1.928021091E+02  1.928021091E+02  0.000000000E+00  0.00000E+00  9.000E+00
      21    -1     0     0   502   503  0.000000000E+00  0.000000000E+00 -2.980300981E+02  2.980300981E+02  0.000000000E+00  0.00000E+00  9.000E+00
      25     1     1     2     0     0 -2.720845525E+00  5.349243683E+01 -8.178061708E+00  1.362405162E+02  1.250030150E+02  0.00000E+00  9.000E+00
       5     1     1     2   501     0 -1.557005347E+00 -1.408700800E+00  2.118357243E+01  2.181089051E+01  4.750000000E+00  0.00000E+00  9.000E+00
      -5     1     1     2     0   503  6.838890549E+00 -5.965683214E+01 -2.213272929E+02  2.293775079E+02  4.750000000E+00  0.00000E+00  9.000E+00
      21     1     1     2   502   511 -2.561039677E+00  7.573096111E+00  1.030937932E+02  1.034032925E+02  0.000000000E+00  0.00000E+00  9.000E+00
#rwgt            1           9   4.5657481548437517E-002          10     2492391           0
</event>
<event>
      6   9999  3.45752E-01  5.62986E+01 -1.00000E+00  1.32087E-01
      21    -1     0     0   501   502  0.000000000E+00  0.000000000E+00  2.578350811E+02  2.578350811E+02  0.000000000E+00  0.00000E+00  9.000E+00
      21    -1     0     0   512   503  0.000000000E+00  0.000000000E+00 -2.883647647E+03  2.883647647E+03  0.000000000E+00  0.00000E+00  9.000E+00
      25     1     1     2     0     0  5.871248738E+01 -1.092129236E+01 -2.508990290E+03  2.512811981E+03  1.250013847E+02  0.00000E+00  9.000E+00
       5     1     1     2   501     0 -4.172263116E+01  5.053980345E+01  2.451373325E+02  2.537911030E+02  4.750000000E+00  0.00000E+00  9.000E+00
      -5     1     1     2     0   503 -3.029682673E+01  1.508482200E+01 -2.112756085E+02  2.140219493E+02  4.750000000E+00  0.00000E+00  9.000E+00
      21     1     1     2   512   502  1.330697051E+01 -5.470333309E+01 -1.506840002E+02  1.608576950E+02  1.907348633E-06  0.00000E+00  9.000E+00
#rwgt            1           9   1.3101110730830400E-004          10     2496006           0
</event>
<event>
      6   9999  3.45752E-01  6.67907E+00 -1.00000E+00  2.07771E-01
      21    -1     0     0   502   511  0.000000000E+00  0.000000000E+00  9.786413607E+01  9.786413607E+01  0.000000000E+00  0.00000E+00  9.000E+00
      21    -1     0     0   501   502  0.000000000E+00  0.000000000E+00 -7.552099370E+02  7.552099370E+02  0.000000000E+00  0.00000E+00  9.000E+00
      25     1     1     2     0     0  4.889928797E+00  2.737490628E+00 -5.036117070E+02  5.189310987E+02  1.250333099E+02  0.00000E+00  9.000E+00
       5     1     1     2   501     0  9.175521319E-01  3.683244939E+00 -2.352597605E+02  2.353383216E+02  4.750000000E+00  0.00000E+00  9.000E+00
      -5     1     1     2     0   503 -2.235648019E+00 -7.769795724E-01 -7.687722297E+00  9.341594802E+00  4.750000000E+00  0.00000E+00  9.000E+00
      21     1     1     2   503   511 -3.571832910E+00 -5.643755995E+00  8.921338888E+01  8.946305789E+01  2.132480600E-06  0.00000E+00  9.000E+00
#rwgt            1           9   4.2114585738216762E-002          10     2498227           0
</event>
<event>
      6   9999  3.45752E-01  4.19480E+01 -1.00000E+00  1.38999E-01
      21    -1     0     0   512   502  0.000000000E+00  0.000000000E+00  4.003806575E+01  4.003806575E+01  0.000000000E+00  0.00000E+00  9.000E+00
      21    -1     0     0   502   503  0.000000000E+00  0.000000000E+00 -9.566705570E+02  9.566705570E+02  0.000000000E+00  0.00000E+00  9.000E+00
      25     1     1     2     0     0 -4.772850456E+01  3.846316554E+01 -5.742909324E+02  5.909254299E+02  1.250014539E+02  0.00000E+00  9.000E+00
       5     1     1     2   501     0  3.425993899E+01 -4.028369932E+01 -1.474875231E+02  1.567534747E+02  4.750000000E+00  0.00000E+00  9.000E+00
      -5     1     1     2     0   503  5.383994741E+01 -9.571915394E+00 -1.994177792E+02  2.068341719E+02  4.750000000E+00  0.00000E+00  9.000E+00
      21     1     1     2   512   501 -4.037138184E+01  1.139244917E+01  4.563743427E+00  4.219554625E+01  1.510245736E-06  0.00000E+00  9.000E+00
#rwgt            1           9   8.7559774839620816E-005          10     2501214           0
</event>
<event>
      6   9999  3.45752E-01  1.08810E+01 -1.00000E+00  1.83412E-01
      21    -1     0     0   511   502  0.000000000E+00  0.000000000E+00  5.771025931E+02  5.771025931E+02  0.000000000E+00  0.00000E+00  9.000E+00
      21    -1     0     0   502   503  0.000000000E+00  0.000000000E+00 -2.837335591E+03  2.837335591E+03  0.000000000E+00  0.00000E+00  9.000E+00
      25     1     1     2     0     0 -2.868077944E+02 -6.019285745E+01  8.015759032E+00  3.187024691E+02  1.250004817E+02  0.00000E+00  9.000E+00
       5     1     1     2   501     0 -2.361686318E+01  1.531449382E+01  4.007431244E+02  4.017585148E+02  4.750000000E+00  0.00000E+00  9.000E+00
      -5     1     1     2     0   503  3.040967384E+02  3.602663564E+01 -2.664761239E+03  2.682302699E+03  4.750000000E+00  0.00000E+00  9.000E+00
      21     1     1     2   511   501  6.327919180E+00  8.851727987E+00 -4.230642440E+00  1.167450149E+01  2.230201594E-07  0.00000E+00  9.000E+00
#rwgt            1           9   2.6563947009026461E-003          10     2502373           0
</event>
<event>
      6   9999  3.45752E-01  1.76005E+01 -1.00000E+00  1.64566E-01
      21    -1     0     0   501   502  0.000000000E+00  0.000000000E+00  4.992731008E+01  4.992731008E+01  0.000000000E+00  0.00000E+00  9.000E+00
      21    -1     0     0   512   503  0.000000000E+00  0.000000000E+00 -1.610875605E+03  1.610875605E+03  0.000000000E+00  0.00000E+00  9.000E+00
      25     1     1     2     0     0 -5.174199263E+01  7.745662307E+01 -1.077633262E+03  1.088848434E+03  1.249828159E+02  0.00000E+00  9.000E+00
       5     1     1     2   501     0  1.278409006E+01  3.632335323E+00  3.333671223E+01  3.620118369E+01  4.750000000E+00  0.00000E+00  9.000E+00
      -5     1     1     2     0   503  4.987859494E+01 -6.728616977E+01 -1.794369014E+02  1.980794461E+02  4.750000000E+00  0.00000E+00  9.000E+00
      21     1     1     2   512   502 -1.092069237E+01 -1.380278863E+01 -3.372148441E+02  3.376738509E+02  3.814697266E-06  0.00000E+00  9.000E+00
#rwgt            1           9   3.1108219219543157E-004          10     2510408           0
</event>
<event>
      6   9999  3.45752E-01  4.42439E+01 -1.00000E+00  1.37692E-01
      21    -1     0     0   501   511  0.000000000E+00  0.000000000E+00  3.271564088E+03  3.271564088E+03  0.000000000E+00  0.00000E+00  9.000E+00
      21    -1     0     0   502   503  0.000000000E+00  0.000000000E+00 -2.595992712E+01  2.595992712E+01  0.000000000E+00  0.00000E+00  9.000E+00
      25     1     1     2     0     0 -6.589220195E+00 -2.771631848E+01  1.770429045E+02  2.185878726E+02  1.249994234E+02  0.00000E+00  9.000E+00
       5     1     1     2   501     0  2.142048138E+01  1.996031477E+01  2.632590255E+03  2.632757350E+03  4.750000000E+00  0.00000E+00  9.000E+00
      -5     1     1     2     0   503  9.142835660E+00  4.494160159E+01  1.538803549E+02  1.606395503E+02  4.750000000E+00  0.00000E+00  9.000E+00
      21     1     1     2   502   511 -2.397409685E+01 -3.718559787E+01  2.820906469E+02  2.855392426E+02  0.000000000E+00  0.00000E+00  9.000E+00
#rwgt            1           9   2.9739195344471669               10     2513363           0
</event>
<event>
      6   9999  3.45752E-01  1.66308E+01 -1.00000E+00  1.66576E-01
      21    -1     0     0   502   503  0.000000000E+00  0.000000000E+00  1.326470788E+01  1.326470788E+01  0.000000000E+00  0.00000E+00  9.000E+00
      21    -1     0     0   501   512  0.000000000E+00  0.000000000E+00 -1.076600431E+03  1.076600431E+03  0.000000000E+00  0.00000E+00  9.000E+00
      25     1     1     2     0     0  3.081200834E+01  8.851163610E+00 -7.588709931E+02  7.697655090E+02  1.250041267E+02  0.00000E+00  9.000E+00
       5     1     1     2   501     0  4.209556498E+00 -2.508015304E+00 -7.109113754E+01  7.141794483E+01  4.750000000E+00  0.00000E+00  9.000E+00
      -5     1     1     2     0   503 -2.467099004E+01  6.674109796E+00 -1.568945282E+01  3.036318364E+01  4.750000000E+00  0.00000E+00  9.000E+00
      21     1     1     2   502   512 -1.035057480E+01 -1.301725810E+01 -2.176841398E+02  2.183185015E+02  2.697398305E-06  0.00000E+00  9.000E+00
#rwgt            1           9  0.20265082041345356               10     2514553           0
</event>
<event>
      6   9999  3.45752E-01  1.82493E+01 -1.00000E+00  1.63308E-01
      21    -1     0     0   502   503  0.000000000E+00  0.000000000E+00  7.953421206E+01  7.953421206E+01  0.000000000E+00  0.00000E+00  9.000E+00
      21    -1     0     0   501   511  0.000000000E+00  0.000000000E+00 -3.165009062E+02  3.165009062E+02  0.000000000E+00  0.00000E+00  9.000E+00
      25     1     1     2     0     0  5.411267813E+00 -9.500444840E+00 -4.702521239E+01  1.340237151E+02  1.250257787E+02  0.00000E+00  9.000E+00
       5     1     1     2   501     0  1.724912083E-01  4.619384567E-01  4.080124443E+00  6.281166757E+00  4.750000000E+00  0.00000E+00  9.000E+00
      -5     1     1     2     0   503  4.423247259E+00  2.429945141E+01  2.528595428E+01  3.566469457E+01  4.750000000E+00  0.00000E+00  9.000E+00
      21     1     1     2   502   511 -1.000700628E+01 -1.526094502E+01 -2.193075605E+02  2.200655418E+02  3.814697266E-06  0.00000E+00  9.000E+00
#rwgt            1           9   3.1321256653402002E-005          10     2516331           0
</event>
<event>
      6   9999  3.45752E-01  1.27693E+01 -1.00000E+00  1.76663E-01
      21    -1     0     0   501   512  0.000000000E+00  0.000000000E+00  2.359833063E+01  2.359833063E+01  0.000000000E+00  0.00000E+00  9.000E+00
      21    -1     0     0   502   503  0.000000000E+00  0.000000000E+00 -1.028188228E+03  1.028188228E+03  0.000000000E+00  0.00000E+00  9.000E+00
      25     1     1     2     0     0 -1.130352743E+01 -4.002777245E+01 -6.524426536E+02  6.656150200E+02  1.250277825E+02  0.00000E+00  9.000E+00
       5     1     1     2   501     0 -8.867723560E+00 -1.198856243E+00  1.185494632E+01  1.559410240E+01  4.750000000E+00  0.00000E+00  9.000E+00
      -5     1     1     2     0   503  7.871154147E+00  3.779680668E+01 -3.477019397E+02  3.498710548E+02  4.750000000E+00  0.00000E+00  9.000E+00
      21     1     1     2   502   512  1.230009684E+01  3.429822010E+00 -1.630025020E+01  2.070638109E+01  2.384185791E-07  0.00000E+00  9.000E+00
#rwgt            1           9   7.4622379554707452E-005          10     2518426           0
</event>
<event>
      6   9999 -3.45752E-01  2.69365E+01 -1.00000E+00  1.50929E-01
      21    -1     0     0   501   502  0.000000000E+00  0.000000000E+00  2.754584880E+01  2.754584880E+01  0.000000000E+00  0.00000E+00  9.000E+00
      21    -1     0     0   502   511  0.000000000E+00  0.000000000E+00 -6.102077265E+02  6.102077265E+02  0.000000000E+00  0.00000E+00  9.000E+00
      25     1     1     2     0     0 -2.392250808E+01 -1.912721032E+01 -3.224139566E+02  3.471525671E+02  1.250040355E+02  0.00000E+00  9.000E+00
       5     1     1     2   501     0 -4.299780961E+00 -1.250246254E+00  1.209759422E+01  1.374647292E+01  4.750000000E+00  0.00000E+00  9.000E+00
      -5     1     1     2     0   503  4.826175046E+00  7.028377576E+00 -1.375980990E+01  1.686964509E+01  4.750000000E+00  0.00000E+00  9.000E+00
      21     1     1     2   503   511  2.339611400E+01  1.334907899E+01 -2.585857054E+02  2.599848902E+02  5.394796609E-06  0.00000E+00  9.000E+00
#rwgt            1           9  -1.4889771779177293E-002          10     2521064           0
</event>
<event>
      6   9999  3.45752E-01  1.36618E+01 -1.00000E+00  1.73965E-01
      21    -1     0     0   501   512  0.000000000E+00  0.000000000E+00  8.199358733E+01  8.199358733E+01  0.000000000E+00  0.00000E+00  9.000E+00
      21    -1     0     0   502   503  0.000000000E+00  0.000000000E+00 -7.722753920E+02  7.722753920E+02  0.000000000E+00  0.00000E+00  9.000E+00
      25     1     1     2     0     0  3.487643792E+01  4.055289872E+01 -6.035136037E+02  6.186241887E+02  1.249252315E+02  0.00000E+00  9.000E+00
       5     1     1     2   501     0 -7.177329519E+00 -3.553133865E+00  6.068933223E+01  6.139948180E+01  4.750000000E+00  0.00000E+00  9.000E+00
      -5     1     1     2     0   503 -2.954811366E+01 -5.053590276E+01 -1.493214280E+02  1.604569096E+02  4.750000000E+00  0.00000E+00  9.000E+00
      21     1     1     2   502   512  1.849005261E+00  1.353613790E+01  1.863894767E+00  1.378839924E+01  1.192092896E-07  0.00000E+00  9.000E+00
#rwgt            1           9   1.9798436788161840E-003          10     2522126           0
</event>
<event>
      6   9999  3.45752E-01  3.13249E+01 -1.00000E+00  1.46634E-01
      21    -1     0     0   502   503  0.000000000E+00  0.000000000E+00  2.265175845E+03  2.265175845E+03  0.000000000E+00  0.00000E+00  9.000E+00
      21    -1     0     0   511   502  0.000000000E+00  0.000000000E+00 -6.129877061E+01  6.129877061E+01  0.000000000E+00  0.00000E+00  9.000E+00
      25     1     1     2     0     0  1.127693032E+00 -3.737386748E+01  2.128722110E+03  2.132715739E+03  1.249820995E+02  0.00000E+00  9.000E+00
       5     1     1     2   501     0 -3.449099371E+00 -2.308025646E-02  5.756522329E+01  5.786375594E+01  4.750000000E+00  0.00000E+00  9.000E+00
      -5     1     1     2     0   503 -3.936735104E+00  6.703556184E+00  7.228928465E+01  7.286109198E+01  4.750000000E+00  0.00000E+00  9.000E+00
      21     1     1     2   511   501  6.258141443E+00  3.069339155E+01 -5.469954380E+01  6.303402820E+01  4.473129043E-06  0.00000E+00  9.000E+00
#rwgt            1           9   2.7286053048267797E-002          10     2525070           0
</event>
<event>
      6   9999  3.45752E-01  2.73190E+02 -1.00000E+00  1.04405E-01
      21    -1     0     0   512   502  0.000000000E+00  0.000000000E+00  1.103183566E+03  1.103183566E+03  0.000000000E+00  0.00000E+00  9.000E+00
       2    -1     0     0   501     0  0.000000000E+00  0.000000000E+00 -1.426938151E+03  1.426938151E+03  0.000000000E+00  0.00000E+00  9.000E+00
      25     1     1     2     0     0 -7.809256388E+01  1.675172903E+02  4.346981376E+02  4.886188006E+02  1.250014816E+02  0.00000E+00  9.000E+00
       5     1     1     2   501     0  1.259748143E+01  1.331737727E+01  1.447186152E+02  1.459523524E+02  4.750000000E+00  0.00000E+00  9.000E+00
      -5     1     1     2     0   502  2.623363013E+02  8.602812541E+00  4.467993425E+02  5.182147801E+02  4.750000000E+00  0.00000E+00  9.000E+00
       2     1     1     2   512     0 -1.968412188E+02 -1.894374801E+02 -1.349970680E+03  1.377335784E+03  1.525878906E-05  0.00000E+00  9.000E+00
#rwgt            1           3   3.5396131039690448E-006          10     2526077           0
</event>
<event>
      6   9999  3.45752E-01  6.08834E+00 -1.00000E+00  2.13178E-01
      21    -1     0     0   501   502  0.000000000E+00  0.000000000E+00  7.930306941E+01  7.930306941E+01  0.000000000E+00  0.00000E+00  9.000E+00
      21    -1     0     0   511   503  0.000000000E+00  0.000000000E+00 -8.794902122E+01  8.794902122E+01  0.000000000E+00  0.00000E+00  9.000E+00
      25     1     1     2     0     0  9.833717789E+00  2.836971274E+00 -1.279174663E+01  1.260833163E+02  1.250144930E+02  0.00000E+00  9.000E+00
       5     1     1     2   501     0 -9.087313462E-01  1.414520050E-01  1.438843899E+01  1.518010138E+01  4.750000000E+00  0.00000E+00  9.000E+00
      -5     1     1     2     0   503 -1.323248782E+01 -7.281127123E+00 -2.327653368E+00  1.600293774E+01  4.750000000E+00  0.00000E+00  9.000E+00
      21     1     1     2   511   502  4.307501373E+00  4.302703844E+00 -7.914990805E+00  9.985735220E+00  1.685873940E-07  0.00000E+00  9.000E+00
#rwgt            1           9   3.4077984412539300E-004          10     2526655           0
</event>
<event>
      6   9999 -3.45752E-01  6.75636E+00 -1.00000E+00  2.07119E-01
      21    -1     0     0   501   502  0.000000000E+00  0.000000000E+00  3.711989796E+01  3.711989796E+01  0.000000000E+00  0.00000E+00  9.000E+00
      21    -1     0     0   512   503  0.000000000E+00  0.000000000E+00 -1.436372363E+03  1.436372363E+03  0.000000000E+00  0.00000E+00  9.000E+00
      25     1     1     2     0     0  5.200548408E+01  2.212565102E+01 -1.508626324E+02  2.039096435E+02  1.250019762E+02  0.00000E+00  9.000E+00
       5     1     1     2   501     0  2.263325895E+00 -2.044782369E+00  9.107902428E+00  1.071541720E+01  4.750000000E+00  0.00000E+00  9.000E+00
      -5     1     1     2     0   503 -4.857433802E+01 -1.644473663E+01 -1.054305178E+03  1.055562346E+03  4.750000000E+00  0.00000E+00  9.000E+00
      21     1     1     2   512   502 -5.694471965E+00 -3.636132025E+00 -2.031925569E+02  2.033048540E+02  3.814697266E-06  0.00000E+00  9.000E+00
#rwgt            1           9  -2.9389959414478847E-003          10     2530014           0
</event>
<event>
      6   9999  3.45752E-01  4.21998E+00 -1.00000E+00  2.43134E-01
      21    -1     0     0   511   502  0.000000000E+00  0.000000000E+00  6.983432658E+01  6.983432658E+01  0.000000000E+00  0.00000E+00  9.000E+00
      21    -1     0     0   502   503  0.000000000E+00  0.000000000E+00 -1.332813409E+03  1.332813409E+03  0.000000000E+00  0.00000E+00  9.000E+00
      25     1     1     2     0     0  5.530762748E+01 -1.153922784E+02 -6.918525695E+02  7.146033940E+02  1.249948844E+02  0.00000E+00  9.000E+00
       5     1     1     2   501     0  4.108624844E+00  5.967060094E+00  3.255550657E+01  3.368842698E+01  4.750000000E+00  0.00000E+00  9.000E+00
      -5     1     1     2     0   503 -5.551644980E+01  1.078128265E+02 -6.229346510E+02  6.346462193E+02  4.750000000E+00  0.00000E+00  9.000E+00
      21     1     1     2   511   501 -3.899802527E+00  1.612391870E+00  1.925263156E+01  1.970969531E+01  6.743495762E-07  0.00000E+00  9.000E+00
#rwgt            1           9   6.5896352397478851E-004          10     2535250           0
</event>
<event>
      6   9999  3.45752E-01  5.42492E+00 -1.00000E+00  2.20340E-01
      21    -1     0     0   501   502  0.000000000E+00  0.000000000E+00  1.418735818E+03  1.418735818E+03  0.000000000E+00  0.00000E+00  9.000E+00
      21    -1     0     0   512   503  0.000000000E+00  0.000000000E+00 -1.166851266E+01  1.166851266E+01  0.000000000E+00  0.00000E+00  9.000E+00
      25     1     1     2     0     0 -3.002730587E+00  2.011766474E+00  1.222852775E+03  1.229230237E+03  1.250000071E+02  0.00000E+00  9.000E+00
       5     1     1     2   501     0 -1.509449804E-02  4.575892107E-01  1.753646017E+02  1.754295176E+02  4.750000000E+00  0.00000E+00  9.000E+00
      -5     1     1     2     0   503 -1.007638327E+00  1.167324676E+00  1.600465206E+01  1.676572007E+01  4.750000000E+00  0.00000E+00  9.000E+00
      21     1     1     2   512   502  4.025463413E+00 -3.636680361E+00 -7.154723241E+00  8.978856519E+00  8.301966356E-07  0.00000E+00  9.000E+00
#rwgt            1           9  0.12537515429071466               10     2542128           0
</event>
<event>
      6   9999  3.45752E-01  1.15447E+01 -1.00000E+00  1.80854E-01
      21    -1     0     0   501   511  0.000000000E+00  0.000000000E+00  1.276154851E+02  1.276154851E+02  0.000000000E+00  0.00000E+00  9.000E+00
      21    -1     0     0   502   503  0.000000000E+00  0.000000000E+00 -8.481476745E+01  8.481476745E+01  0.000000000E+00  0.00000E+00  9.000E+00
      25     1     1     2     0     0  1.839389079E+00  7.989909827E+00 -3.280197808E+01  1.294990919E+02  1.250072919E+02  0.00000E+00  9.000E+00
       5     1     1     2   501     0  3.264479177E-01  6.472931819E-01  3.520772754E+00  5.956836198E+00  4.750000000E+00  0.00000E+00  9.000E+00
      -5     1     1     2     0   503  3.566940526E+00  1.383549573E+00  2.754630858E+00  6.692366196E+00  4.750000000E+00  0.00000E+00  9.000E+00
      21     1     1     2   502   511 -5.732777523E+00 -1.002075258E+01  6.932729213E+01  7.028195824E+01  0.000000000E+00  0.00000E+00  9.000E+00
#rwgt            1           9   2.1469872153473875E-006          10     2545496           0
</event>
<event>
      6   9999  3.45752E-01  3.07614E+01 -1.00000E+00  1.47137E-01
      21    -1     0     0   501   512  0.000000000E+00  0.000000000E+00  1.349110482E+02  1.349110482E+02  0.000000000E+00  0.00000E+00  9.000E+00
      21    -1     0     0   502   503  0.000000000E+00  0.000000000E+00 -8.961473810E+02  8.961473810E+02  0.000000000E+00  0.00000E+00  9.000E+00
      25     1     1     2     0     0 -5.741424596E+01 -4.276623152E+00 -6.905245170E+02  7.041300944E+02  1.251415041E+02  0.00000E+00  9.000E+00
       5     1     1     2   501     0  2.874528785E+01  2.282983054E+00 -7.053271910E+01  7.634743315E+01  4.750000000E+00  0.00000E+00  9.000E+00
      -5     1     1     2     0   503  3.342520362E+01 -2.839786714E+01 -1.194870467E+02  1.273711110E+02  4.750000000E+00  0.00000E+00  9.000E+00
      21     1     1     2   502   512 -4.756245504E+00  3.039150724E+01  1.193079500E+02  1.232097907E+02  3.568322551E-06  0.00000E+00  9.000E+00
#rwgt            1           9   1.0892403469920386E-003          10     2548427           0
</event>
<event>
      6   9999  3.45752E-01  8.09481E+00 -1.00000E+00  1.97411E-01
      21    -1     0     0   501   511  0.000000000E+00  0.000000000E+00  6.705436862E+01  6.705436862E+01  0.000000000E+00  0.00000E+00  9.000E+00
      21    -1     0     0   502   503  0.000000000E+00  0.000000000E+00 -1.435505198E+03  1.435505198E+03  0.000000000E+00  0.00000E+00  9.000E+00
      25     1     1     2     0     0  5.571862581E+00 -1.003028561E+02 -1.960028298E+02  2.532445406E+02  1.249959177E+02  0.00000E+00  9.000E+00
       5     1     1     2   501     0  5.401541284E-01  4.097370396E-01  3.194989817E+01  3.230817457E+01  4.750000000E+00  0.00000E+00  9.000E+00
      -5     1     1     2     0   503  7.323219242E-01  9.557097600E+01 -1.205089277E+03  1.208882573E+03  4.750000000E+00  0.00000E+00  9.000E+00
      21     1     1     2   502   511 -6.844338633E+00  4.322143028E+00  6.913793048E-01  8.124278246E+00  2.302458456E-07  0.00000E+00  9.000E+00
#rwgt            1           9   2.1209451948592806E-003          10     2549732           0
</event>
<event>
      6   9999  3.45752E-01  6.22236E+00 -1.00000E+00  2.11880E-01
      21    -1     0     0   501   502  0.000000000E+00  0.000000000E+00  5.477271916E+01  5.477271916E+01  0.000000000E+00  0.00000E+00  9.000E+00
      21    -1     0     0   502   512  0.000000000E+00  0.000000000E+00 -1.412770174E+03  1.412770174E+03  0.000000000E+00  0.00000E+00  9.000E+00
      25     1     1     2     0     0  1.890995296E+01  3.302434927E+00 -1.340702222E+03  1.346653457E+03  1.249983769E+02  0.00000E+00  9.000E+00
       5     1     1     2   501     0  4.464096758E-01 -5.257978706E+00  4.921808394E+01  4.972753673E+01  4.750000000E+00  0.00000E+00  9.000E+00
      -5     1     1     2     0   503 -1.332516683E+01  3.486046279E+00 -2.314149126E+01  2.734599984E+01  4.750000000E+00  0.00000E+00  9.000E+00
      21     1     1     2   503   512 -6.031195806E+00 -1.530502500E+00 -4.337182609E+01  4.381589962E+01  4.768371582E-07  0.00000E+00  9.000E+00
#rwgt            1           9   2.5623039903262339E-003          10     2554871           0
</event>
<event>
      6   9999  3.45752E-01  2.42178E+01 -1.00000E+00  1.54116E-01
      21    -1     0     0   501   502  0.000000000E+00  0.000000000E+00  1.097653970E+02  1.097653970E+02  0.000000000E+00  0.00000E+00  9.000E+00
      21    -1     0     0   511   503  0.000000000E+00  0.000000000E+00 -1.668688435E+03  1.668688435E+03  0.000000000E+00  0.00000E+00  9.000E+00
      25     1     1     2     0     0  2.430873048E+02 -1.650801373E+02 -4.690411283E+02  5.674235326E+02  1.250079829E+02  0.00000E+00  9.000E+00
       5     1     1     2   501     0 -4.758361445E+00 -1.676290419E+00  4.169377207E+01  4.226564896E+01  4.750000000E+00  0.00000E+00  9.000E+00
      -5     1     1     2     0   503 -2.206600253E+02  1.501941147E+02 -1.063974332E+03  1.096956271E+03  4.750000000E+00  0.00000E+00  9.000E+00
      21     1     1     2   511   502 -1.766891803E+01  1.656231302E+01 -6.760134936E+01  7.180837912E+01  1.348699152E-06  0.00000E+00  9.000E+00
#rwgt            1           9   1.1449621093967317E-003          10     2560885           0
</event>
<event>
      6   9999  3.45752E-01  2.82051E+01 -1.00000E+00  1.49592E-01
      21    -1     0     0   501   502  0.000000000E+00  0.000000000E+00  1.282932341E+03  1.282932341E+03  0.000000000E+00  0.00000E+00  9.000E+00
      21    -1     0     0   502   512  0.000000000E+00  0.000000000E+00 -8.728112217E+00  8.728112217E+00  0.000000000E+00  0.00000E+00  9.000E+00
      25     1     1     2     0     0  3.073228370E+01  9.190789911E+00  6.961698863E+02  7.080423819E+02  1.250702207E+02  0.00000E+00  9.000E+00
       5     1     1     2   501     0 -3.262937462E+00 -4.260601534E+00  1.724132619E+02  1.725621478E+02  4.750000000E+00  0.00000E+00  9.000E+00
      -5     1     1     2     0   503 -2.663087273E+00  8.492813943E+00  3.329570326E+02  3.331098437E+02  4.750000000E+00  0.00000E+00  9.000E+00
      21     1     1     2   503   512 -2.480625897E+01 -1.342300232E+01  7.266404753E+01  7.794607930E+01  1.907348633E-06  0.00000E+00  9.000E+00
#rwgt            1           9  0.49837830275106115               10     2563748           0
</event>
<event>
      6   9999  3.45752E-01  1.66738E+01 -1.00000E+00  1.66484E-01
      21    -1     0     0   501   502  0.000000000E+00  0.000000000E+00  1.025584091E+03  1.025584091E+03  0.000000000E+00  0.00000E+00  9.000E+00
      21    -1     0     0   511   503  0.000000000E+00  0.000000000E+00 -6.383300811E+01  6.383300811E+01  0.000000000E+00  0.00000E+00  9.000E+00
      25     1     1     2     0     0  7.707760563E+01 -6.098009656E+01  2.461136413E+02  2.930130438E+02  1.250007596E+02  0.00000E+00  9.000E+00
       5     1     1     2   501     0 -3.265099618E+00 -1.132762301E+01  6.872106218E+02  6.873281437E+02  4.750000000E+00  0.00000E+00  9.000E+00
      -5     1     1     2     0   503 -6.760717311E+01  5.683164327E+01  2.624418080E+01  9.225987784E+01  4.750000000E+00  0.00000E+00  9.000E+00
      21     1     1     2   511   502 -6.205332900E+00  1.547607629E+01  2.182639434E+00  1.681603428E+01  3.625608999E-07  0.00000E+00  9.000E+00
#rwgt            1           9   9.3725389724323076               10     2564882           0
</event>
<event>
      6   9999 -3.45752E-01  2.05628E+01 -1.00000E+00  1.59296E-01
      21    -1     0     0   501   512  0.000000000E+00  0.000000000E+00  1.575086602E+02  1.575086602E+02  0.000000000E+00  0.00000E+00  9.000E+00
      21    -1     0     0   502   503  0.000000000E+00  0.000000000E+00 -2.409637994E+02  2.409637994E+02  0.000000000E+00  0.00000E+00  9.000E+00
      25     1     1     2     0     0 -4.179247847E+01  4.734990243E+01 -1.710061492E+02  2.210393606E+02  1.250066852E+02  0.00000E+00  9.000E+00
       5     1     1     2   501     0 -8.711572869E-01  1.446117446E+00  8.893132279E+01  8.907408626E+01  4.750000000E+00  0.00000E+00  9.000E+00
      -5     1     1     2     0   503  2.216168723E+01 -4.721550122E+01 -2.415443634E+01  5.767532602E+01  4.750000000E+00  0.00000E+00  9.000E+00
      21     1     1     2   502   512  2.050194853E+01 -1.580518652E+00  2.277412347E+01  3.068368675E+01  3.371747881E-07  0.00000E+00  9.000E+00
#rwgt            1           9  -8.0901361253896839E-002          10     2567579           0
</event>
<event>
      6   9999  3.45752E-01  3.65831E+00 -1.00000E+00  2.56160E-01
      21    -1     0     0   511   502  0.000000000E+00  0.000000000E+00  8.132382501E+00  8.132382501E+00  0.000000000E+00  0.00000E+00  9.000E+00
      21    -1     0     0   502   503  0.000000000E+00  0.000000000E+00 -9.188791540E+02  9.188791540E+02  0.000000000E+00  0.00000E+00  9.000E+00
      25     1     1     2     0     0  6.713170076E+00 -2.089870647E+01 -7.492781806E+02  7.599500178E+02  1.249976602E+02  0.00000E+00  9.000E+00
       5     1     1     2   501     0 -3.271857824E+00  3.427742797E+00 -2.985667695E+01  3.060127665E+01  4.750000000E+00  0.00000E+00  9.000E+00
      -5     1     1     2     0   503  1.214538634E-01  1.664035397E+01 -1.316691170E+02  1.328014872E+02  4.750000000E+00  0.00000E+00  9.000E+00
      21     1     1     2   511   501 -3.562766115E+00  8.306097004E-01  5.720304961E-02  3.658754850E+00  1.952626111E-07  0.00000E+00  9.000E+00
#rwgt            1           9   168.67306664761426               10     2569585           0
</event>
<event>
      6   9999 -3.45752E-01  6.90329E+00 -1.00000E+00  2.05912E-01
      21    -1     0     0   512   502  0.000000000E+00  0.000000000E+00  3.816367780E+01  3.816367780E+01  0.000000000E+00  0.00000E+00  9.000E+00
      21    -1     0     0   502   503  0.000000000E+00  0.000000000E+00 -1.215815276E+03  1.215815276E+03  0.000000000E+00  0.00000E+00  9.000E+00
      25     1     1     2     0     0  1.324641940E+01  1.219244906E+01 -1.056463797E+03  1.063984853E+03  1.249955630E+02  0.00000E+00  9.000E+00
       5     1     1     2   501     0 -1.999017475E+00 -2.959549404E+00  3.256292511E+01  3.310077938E+01  4.750000000E+00  0.00000E+00  9.000E+00
      -5     1     1     2     0   503 -1.373710953E+01 -2.794211437E+00 -1.449711310E+02  1.457247650E+02  4.750000000E+00  0.00000E+00  9.000E+00
      21     1     1     2   512   501  2.489707599E+00 -6.438688215E+00 -8.779595742E+00  1.116855636E+01  1.685873940E-07  0.00000E+00  9.000E+00
#rwgt            1           9  -3.4435014499173595E-005          10     2574140           0
</event>
<event>
      6   9999 -3.45752E-01  6.77587E+01 -1.00000E+00  1.28085E-01
       2    -1     0     0   502     0  0.000000000E+00  0.000000000E+00  1.969421143E+02  1.969421143E+02  0.000000000E+00  0.00000E+00  9.000E+00
      21    -1     0     0   501   502  0.000000000E+00  0.000000000E+00 -1.047510402E+03  1.047510402E+03  0.000000000E+00  0.00000E+00  9.000E+00
      25     1     1     2     0     0 -3.681153030E+01  4.265984271E+01 -2.621827736E+02  2.958726416E+02  1.250034493E+02  0.00000E+00  9.000E+00
       5     1     1     2   501     0 -1.093220753E+00 -3.484607841E+00 -6.830890117E+02  6.831152890E+02  4.750000000E+00  0.00000E+00  9.000E+00
      -5     1     1     2     0   503 -2.917653077E+01 -2.961772874E+01 -7.324886167E+01  8.435898315E+01  4.750000000E+00  0.00000E+00  9.000E+00
       2     1     1     2   503     0  6.708128182E+01 -9.557506129E+00  1.679523593E+02  1.811056026E+02  1.907348633E-06  0.00000E+00  9.000E+00
#rwgt            1           9 -0.26453734362529746               10     2579146           0
</event>
<event>
      6   9999  3.45752E-01  4.50172E+00 -1.00000E+00  2.37686E-01
      21    -1     0     0   501   502  0.000000000E+00  0.000000000E+00  8.130978939E+00  8.130978939E+00  0.000000000E+00  0.00000E+00  9.000E+00
      21    -1     0     0   502   511  0.000000000E+00  0.000000000E+00 -9.451867249E+02  9.451867249E+02  0.000000000E+00  0.00000E+00  9.000E+00
      25     1     1     2     0     0 -9.578367746E-01 -1.690182578E+00 -6.801604959E+02  6.915540452E+02  1.249996927E+02  0.00000E+00  9.000E+00
       5     1     1     2   501     0  1.448828458E+00 -8.522910376E-01 -5.705366449E-01  5.070849631E+00  4.750000000E+00  0.00000E+00  9.000E+00
      -5     1     1     2     0   503  2.721824390E+00 -6.108275566E-01 -4.730853894E+01  4.762816179E+01  4.750000000E+00  0.00000E+00  9.000E+00
      21     1     1     2   503   511 -3.212816074E+00  3.153301172E+00 -2.090161745E+02  2.090646472E+02  2.697398305E-06  0.00000E+00  9.000E+00
#rwgt            1           9   6.8274526095734716E-005          10     2579753           0
</event>
<event>
      6   9999  3.45752E-01  4.97790E+00 -1.00000E+00  2.29701E-01
      21    -1     0     0   501   512  0.000000000E+00  0.000000000E+00  3.394200210E+01  3.394200210E+01  0.000000000E+00  0.00000E+00  9.000E+00
      21    -1     0     0   502   503  0.000000000E+00  0.000000000E+00 -1.334093869E+03  1.334093869E+03  0.000000000E+00  0.00000E+00  9.000E+00
      25     1     1     2     0     0 -1.203014704E+02 -2.015178073E+01 -9.735993047E+02  9.891405987E+02  1.249999194E+02  0.00000E+00  9.000E+00
       5     1     1     2   501     0 -2.014585856E+00 -3.130092317E+00  1.365951552E+01  1.493321460E+01  4.750000000E+00  0.00000E+00  9.000E+00
      -5     1     1     2     0   503  1.178790004E+02  2.102531893E+01 -3.378097143E+02  3.584347756E+02  4.750000000E+00  0.00000E+00  9.000E+00
      21     1     1     2   502   512  4.437055843E+00  2.256554112E+00 -2.402363766E+00  5.527282576E+00  1.332800375E-07  0.00000E+00  9.000E+00
#rwgt            1           9   2.4149346975540625E-004          10     2583477           0
</event>
<event>
      6   9999  3.45752E-01  6.35267E+00 -1.00000E+00  2.10660E-01
      21    -1     0     0   511   503  0.000000000E+00  0.000000000E+00  1.280232590E+01  1.280232590E+01  0.000000000E+00  0.00000E+00  9.000E+00
      21    -1     0     0   501   502  0.000000000E+00  0.000000000E+00 -7.705075697E+02  7.705075697E+02  0.000000000E+00  0.00000E+00  9.000E+00
      25     1     1     2     0     0  2.604200881E+01 -2.364509491E+01 -4.722454879E+02  4.897734335E+02  1.249997542E+02  0.00000E+00  9.000E+00
       5     1     1     2   501     0 -2.310216085E+01  2.969675122E+01 -2.662220270E+02  2.689095332E+02  4.750000000E+00  0.00000E+00  9.000E+00
      -5     1     1     2     0   503 -2.714206670E-01 -2.865934096E-01 -1.736016750E+01  1.800260316E+01  4.750000000E+00  0.00000E+00  9.000E+00
      21     1     1     2   511   502 -2.668427292E+00 -5.765062897E+00 -1.877561271E+00  6.624325682E+00  6.989264130E-08  0.00000E+00  9.000E+00
#rwgt            1           9   3.8602960941161424E-004          10     2588850           0
</event>
<event>
      6   9999  3.45752E-01  2.78082E+00 -1.00000E+00  2.85823E-01
      21    -1     0     0   501   502  0.000000000E+00  0.000000000E+00  1.039452807E+01  1.039452807E+01  0.000000000E+00  0.00000E+00  9.000E+00
      21    -1     0     0   512   503  0.000000000E+00  0.000000000E+00 -9.125060198E+02  9.125060198E+02  0.000000000E+00  0.00000E+00  9.000E+00
      25     1     1     2     0     0  7.273172695E+00  2.436833219E+01 -7.231800276E+02  7.343440507E+02  1.250004711E+02  0.00000E+00  9.000E+00
       5     1     1     2   501     0 -8.248336793E-01 -4.125563935E-01  3.591670345E-01  4.852015492E+00  4.750000000E+00  0.00000E+00  9.000E+00
      -5     1     1     2     0   503 -8.235693886E+00 -2.608611031E+01 -8.596549856E+01  9.033792807E+01  4.750000000E+00  0.00000E+00  9.000E+00
      21     1     1     2   512   502  1.787354870E+00  2.130334515E+00 -9.332513257E+01  9.336655361E+01  1.348699152E-06  0.00000E+00  9.000E+00
#rwgt            1           9   7.0822838811595331E-004          10     2591899           0
</event>
<event>
      6   9999  3.45752E-01  1.22166E+01 -1.00000E+00  1.78477E-01
       1    -1     0     0   501     0  0.000000000E+00  0.000000000E+00  1.487590812E+02  1.487590812E+02  0.000000000E+00  0.00000E+00  9.000E+00
      21    -1     0     0   502   503  0.000000000E+00  0.000000000E+00 -2.062587277E+02  2.062587277E+02  0.000000000E+00  0.00000E+00  9.000E+00
      25     1     1     2     0     0 -1.377451381E-02 -1.293341011E+01 -1.748241775E+02  2.153055695E+02  1.250028876E+02  0.00000E+00  9.000E+00
       5     1     1     2   501     0  3.815835501E+00 -2.106884400E+00  2.932561685E+01  3.002588660E+01  4.750000000E+00  0.00000E+00  9.000E+00
      -5     1     1     2     0   503 -7.497521414E-01  3.211183175E+00 -9.664257707E+00  1.126206920E+01  4.750000000E+00  0.00000E+00  9.000E+00
       1     1     1     2   502     0 -3.052308846E+00  1.182911134E+01  9.766317183E+01  9.842428357E+01  1.907348633E-06  0.00000E+00  9.000E+00
#rwgt            1           9   5.7687164743977799E-003          10     2598511           0
</event>
<event>
      6   9999  3.45752E-01  1.32526E+01 -1.00000E+00  1.75169E-01
      21    -1     0     0   511   502  0.000000000E+00  0.000000000E+00  8.183519705E+00  8.183519705E+00  0.000000000E+00  0.00000E+00  9.000E+00
      21    -1     0     0   502   503  0.000000000E+00  0.000000000E+00 -7.517080322E+02  7.517080322E+02  0.000000000E+00  0.00000E+00  9.000E+00
      25     1     1     2     0     0  9.883129773E+00  5.253041262E+00 -6.543343276E+02  6.662602196E+02  1.249959886E+02  0.00000E+00  9.000E+00
       5     1     1     2   501     0 -3.947670200E+00  7.016512675E+00 -2.487601123E+01  2.657431062E+01  4.750000000E+00  0.00000E+00  9.000E+00
      -5     1     1     2     0   503  1.325118716E-01 -4.877184183E-01 -2.790562921E+01  2.831151833E+01  4.750000000E+00  0.00000E+00  9.000E+00
      21     1     1     2   511   501 -6.067971445E+00 -1.178183552E+01 -3.640854449E+01  3.874550345E+01  6.743495762E-07  0.00000E+00  9.000E+00
#rwgt            1           9   1.6671268756996605E-003          10     2601445           0
</event>
<event>
      6   9999 -3.45752E-01  4.42683E+01 -1.00000E+00  1.37679E-01
      21    -1     0     0   512   503  0.000000000E+00  0.000000000E+00  4.470706166E+01  4.470706166E+01  0.000000000E+00  0.00000E+00  9.000E+00
      21    -1     0     0   501   502  0.000000000E+00  0.000000000E+00 -1.034940054E+03  1.034940054E+03  0.000000000E+00  0.00000E+00  9.000E+00
      25     1     1     2     0     0 -3.018876805E+01 -9.690743708E+01 -6.187637505E+02  6.393498342E+02  1.248888241E+02  0.00000E+00  9.000E+00
       5     1     1     2   501     0 -4.206718628E+01  3.018282662E+01 -3.217474573E+02  3.259212174E+02  4.750000000E+00  0.00000E+00  9.000E+00
      -5     1     1     2     0   503  4.585928086E+01  3.118738546E+01 -4.130753872E+01  6.931523576E+01  4.750000000E+00  0.00000E+00  9.000E+00
      21     1     1     2   512   502  2.639667346E+01  3.553722499E+01 -8.414245970E+00  4.506082850E+01  9.610960183E-07  0.00000E+00  9.000E+00
#rwgt            1           9 -0.18204439081337770               10     2603248           0
</event>
<event>
      6   9999  3.45752E-01  2.32693E+00 -1.00000E+00  3.09363E-01
      21    -1     0     0   501   502  0.000000000E+00  0.000000000E+00  3.616452165E+01  3.616452165E+01  0.000000000E+00  0.00000E+00  9.000E+00
      21    -1     0     0   511   503  0.000000000E+00  0.000000000E+00 -1.712845547E+03  1.712845547E+03  0.000000000E+00  0.00000E+00  9.000E+00
      25     1     1     2     0     0  2.278671743E+00 -3.742600426E+00 -1.512604459E+03  1.517767218E+03  1.250035212E+02  0.00000E+00  9.000E+00
       5     1     1     2   501     0 -7.710414964E-01  1.068707905E+01  3.228183163E+01  3.434366488E+01  4.750000000E+00  0.00000E+00  9.000E+00
      -5     1     1     2     0   503 -2.008692676E+00 -9.216816254E+00 -1.851916203E+02  1.854925424E+02  4.750000000E+00  0.00000E+00  9.000E+00
      21     1     1     2   511   502  5.010624295E-01  2.272337629E+00 -1.116677830E+01  1.140664366E+01  1.192092896E-07  0.00000E+00  9.000E+00
#rwgt            1           9   1.1952280492221601E-002          10     2604233           0
</event>
<event>
      6   9999  3.45752E-01  2.61246E+01 -1.00000E+00  1.51832E-01
      21    -1     0     0   501   512  0.000000000E+00  0.000000000E+00  1.714358909E+02  1.714358909E+02  0.000000000E+00  0.00000E+00  9.000E+00
      21    -1     0     0   502   503  0.000000000E+00  0.000000000E+00 -1.069715833E+03  1.069715833E+03  0.000000000E+00  0.00000E+00  9.000E+00
      25     1     1     2     0     0 -1.212012915E+01  1.942433470E+01 -1.986249626E+02  2.357980605E+02  1.249985890E+02  0.00000E+00  9.000E+00
       5     1     1     2   501     0 -4.535382391E-01 -2.053726505E-01 -1.239418360E+01  1.328255103E+01  4.750000000E+00  0.00000E+00  9.000E+00
      -5     1     1     2     0   503 -1.081614015E+01 -3.085555136E+01 -8.382185711E+02  8.388694710E+02  4.750000000E+00  0.00000E+00  9.000E+00
      21     1     1     2   502   512  2.338980754E+01  1.163658931E+01  1.509577747E+02  1.532016418E+02  0.000000000E+00  0.00000E+00  9.000E+00
#rwgt            1           9   2.2672194114258123E-004          10     2614923           0
</event>
<event>
      6   9999  3.45752E-01  7.10664E+00 -1.00000E+00  2.04305E-01
      21    -1     0     0   501   511  0.000000000E+00  0.000000000E+00  1.429331701E+01  1.429331701E+01  0.000000000E+00  0.00000E+00  9.000E+00
      21    -1     0     0   502   503  0.000000000E+00  0.000000000E+00 -8.343486262E+02  8.343486262E+02  0.000000000E+00  0.00000E+00  9.000E+00
      25     1     1     2     0     0  1.609111559E+01  3.601815478E+00 -6.335345541E+02  6.459589553E+02  1.250001744E+02  0.00000E+00  9.000E+00
       5     1     1     2   501     0  6.292145756E-01  2.780186669E+00  4.672193884E+00  7.246878265E+00  4.750000000E+00  0.00000E+00  9.000E+00
      -5     1     1     2     0   503 -1.153125665E+01 -1.526299231E+00 -1.864933312E+02  1.869160896E+02  4.750000000E+00  0.00000E+00  9.000E+00
      21     1     1     2   502   511 -5.189073518E+00 -4.855702917E+00 -4.699617807E+00  8.520020089E+00  1.460009660E-07  0.00000E+00  9.000E+00
#rwgt            1           9   2.2373936607092276E-003          10     2616385           0
</event>
<event>
      6   9999  3.45752E-01  6.30171E+01 -1.00000E+00  1.29622E-01
      21    -1     0     0   512   502  0.000000000E+00  0.000000000E+00  1.292166950E+02  1.292166950E+02  0.000000000E+00  0.00000E+00  9.000E+00
      21    -1     0     0   502   503  0.000000000E+00  0.000000000E+00 -4.344566386E+02  4.344566386E+02  0.000000000E+00  0.00000E+00  9.000E+00
      25     1     1     2     0     0  3.780318148E+00 -3.264408100E+01 -3.169889797E+02  3.423270787E+02  1.250035549E+02  0.00000E+00  9.000E+00
       5     1     1     2   501     0  2.880831026E+01 -2.144115760E+01 -7.697737877E+01  8.507479839E+01  4.750000000E+00  0.00000E+00  9.000E+00
      -5     1     1     2     0   503  1.446784395E+00  1.049920300E+00 -1.448186242E+01  1.534543440E+01  4.750000000E+00  0.00000E+00  9.000E+00
      21     1     1     2   512   501 -3.403541280E+01  5.303531830E+01  1.032082773E+02  1.209260221E+02  1.348699152E-06  0.00000E+00  9.000E+00
#rwgt            1           9  0.12616474410927100               10     2619575           0
</event>
<event>
      6   9999  3.45752E-01  6.18237E+00 -1.00000E+00  2.12262E-01
      21    -1     0     0   501   511  0.000000000E+00  0.000000000E+00  3.770385048E+01  3.770385048E+01  0.000000000E+00  0.00000E+00  9.000E+00
      21    -1     0     0   502   503  0.000000000E+00  0.000000000E+00 -3.755668008E+02  3.755668008E+02  0.000000000E+00  0.00000E+00  9.000E+00
      25     1     1     2     0     0  4.545620264E-01 -7.172128160E+00 -3.468991557E+02  3.688018623E+02  1.249965734E+02  0.00000E+00  9.000E+00
       5     1     1     2   501     0  1.128230696E-01 -1.376257534E-01 -2.520797798E+00  5.380389524E+00  4.750000000E+00  0.00000E+00  9.000E+00
      -5     1     1     2     0   503 -1.342899876E+00  1.176214295E+00 -1.289996485E+01  1.386212297E+01  4.750000000E+00  0.00000E+00  9.000E+00
      21     1     1     2   502   511  7.755147795E-01  6.133539619E+00  2.445696812E+01  2.522627640E+01  1.118282261E-06  0.00000E+00  9.000E+00
#rwgt            1           9   8.6613426076440590E-004          10     2620213           0
</event>
<event>
      6   9999 -3.45752E-01  3.54776E+01 -1.00000E+00  1.43276E-01
      21    -1     0     0   501   502  0.000000000E+00  0.000000000E+00  2.662100071E+01  2.662100071E+01  0.000000000E+00  0.00000E+00  9.000E+00
      21    -1     0     0   502   512  0.000000000E+00  0.000000000E+00 -1.341882503E+03  1.341882503E+03  0.000000000E+00  0.00000E+00  9.000E+00
      25     1     1     2     0     0  4.889931993E+01 -8.628233085E+01 -8.778699779E+02  8.922533591E+02  1.249982987E+02  0.00000E+00  9.000E+00
       5     1     1     2   501     0 -3.252751270E+00 -1.923071397E+00  8.813565483E+00  1.070140322E+01  4.750000000E+00  0.00000E+00  9.000E+00
      -5     1     1     2     0   503 -7.125579344E+01  6.365279878E+01 -2.902306985E+02  3.055903921E+02  4.750000000E+00  0.00000E+00  9.000E+00
      21     1     1     2   503   512  2.560922478E+01  2.455260347E+01 -1.559743909E+02  1.599583488E+02  1.907348633E-06  0.00000E+00  9.000E+00
#rwgt            1           9  -5.3006997288180431E-003          10     2623757           0
</event>
<event>
      6   9999  3.45752E-01  1.08532E+01 -1.00000E+00  1.83524E-01
      21    -1     0     0   501   502  0.000000000E+00  0.000000000E+00  3.648021395E+02  3.648021395E+02  0.000000000E+00  0.00000E+00  9.000E+00
       2    -1     0     0   502     0  0.000000000E+00  0.000000000E+00 -9.368748707E+02  9.368748707E+02  0.000000000E+00  0.00000E+00  9.000E+00
      25     1     1     2     0     0 -7.641884908E+00  7.185166189E+00  2.832386222E+02  3.097712424E+02  1.249963220E+02  0.00000E+00  9.000E+00
       5     1     1     2   501     0 -4.567504716E-01  4.417846673E-01  5.950143246E+01  5.969410992E+01  4.750000000E+00  0.00000E+00  9.000E+00
      -5     1     1     2     0   503  1.104935378E+00  6.724424626E-01  7.968491477E+00  9.366558465E+00  4.750000000E+00  0.00000E+00  9.000E+00
       2     1     1     2   503     0  6.993700001E+00 -8.299393319E+00 -9.227812773E+02  9.228450994E+02  1.525878906E-05  0.00000E+00  9.000E+00
#rwgt            1           9   1.1175397974256139E-003          10     2625059           0
</event>
<event>
      6   9999  3.45752E-01  2.95185E+00 -1.00000E+00  2.78762E-01
      21    -1     0     0   501   511  0.000000000E+00  0.000000000E+00  9.491965927E+00  9.491965927E+00  0.000000000E+00  0.00000E+00  9.000E+00
      21    -1     0     0   502   503  0.000000000E+00  0.000000000E+00 -7.797183570E+02  7.797183570E+02  0.000000000E+00  0.00000E+00  9.000E+00
      25     1     1     2     0     0  8.509044709E+00  5.892519527E+00 -6.045843724E+02  6.174584976E+02  1.250024289E+02  0.00000E+00  9.000E+00
       5     1     1     2   501     0  2.300193830E-01  1.487627003E+00  4.152767780E-01  5.000089781E+00  4.750000000E+00  0.00000E+00  9.000E+00
      -5     1     1     2     0   503 -6.257108324E+00 -5.782231932E+00 -1.550182242E+02  1.553248143E+02  4.750000000E+00  0.00000E+00  9.000E+00
      21     1     1     2   502   511 -2.481955768E+00 -1.597914598E+00 -1.103907120E+01  1.142692122E+01  1.685873940E-07  0.00000E+00  9.000E+00
#rwgt            1           9   3.2363204387798921E-004          10     2626759           0
</event>
<event>
      6   9999 -3.45752E-01  1.55448E+01 -1.00000E+00  1.69040E-01
      21    -1     0     0   501   502  0.000000000E+00  0.000000000E+00  1.474044630E+01  1.474044630E+01  0.000000000E+00  0.00000E+00  9.000E+00
      21    -1     0     0   512   503  0.000000000E+00  0.000000000E+00 -1.089457188E+03  1.089457188E+03  0.000000000E+00  0.00000E+00  9.000E+00
      25     1     1     2     0     0  2.558267652E+00  2.430074774E+01 -9.559970808E+02  9.644445333E+02  1.250030732E+02  0.00000E+00  9.000E+00
       5     1     1     2   501     0 -5.249272555E-01  4.398439304E+00  6.757084281E+00  9.372433244E+00  4.750000000E+00  0.00000E+00  9.000E+00
      -5     1     1     2     0   503  3.531972377E+00 -1.418480422E+01 -3.064749100E+01  3.428577991E+01  4.750000000E+00  0.00000E+00  9.000E+00
      21     1     1     2   512   502 -5.565312774E+00 -1.451438283E+01 -9.482925379E+01  9.609488743E+01  1.348699152E-06  0.00000E+00  9.000E+00
#rwgt            1           9  -2.0538800495278510E-004          10     2632800           0
</event>
<event>
      6   9999  3.45752E-01  2.38939E+01 -1.00000E+00  1.54529E-01
      21    -1     0     0   501   502  0.000000000E+00  0.000000000E+00  2.665523454E+02  2.665523454E+02  0.000000000E+00  0.00000E+00  9.000E+00
      21    -1     0     0   502   511  0.000000000E+00  0.000000000E+00 -3.544905427E+02  3.544905427E+02  0.000000000E+00  0.00000E+00  9.000E+00
      25     1     1     2     0     0 -2.053558655E+01 -9.098329521E+00  1.951795557E+02  2.328653497E+02  1.250068887E+02  0.00000E+00  9.000E+00
       5     1     1     2   501     0 -2.109364659E+00 -4.589416205E-01  3.864028679E+01  3.899095164E+01  4.750000000E+00  0.00000E+00  9.000E+00
      -5     1     1     2     0   503  8.463715933E-01 -2.274452120E-01  1.284932495E+01  1.372718936E+01  4.750000000E+00  0.00000E+00  9.000E+00
      21     1     1     2   503   511  2.179857962E+01  9.784716353E+00 -3.346073647E+02  3.354593973E+02  5.394796609E-06  0.00000E+00  9.000E+00
#rwgt            1           9   7.9767416671540404E-006          10     2635013           0
</event>
<event>
      6   9999  3.45752E-01  5.39750E+00 -1.00000E+00  2.20666E-01
      21    -1     0     0   512   502  0.000000000E+00  0.000000000E+00  4.600807997E+01  4.600807997E+01  0.000000000E+00  0.00000E+00  9.000E+00
      21    -1     0     0   502   503  0.000000000E+00  0.000000000E+00 -1.340847891E+03  1.340847891E+03  0.000000000E+00  0.00000E+00  9.000E+00
      25     1     1     2     0     0  1.215533665E+01 -4.332416606E+01 -7.927450409E+02  8.037997983E+02  1.249987212E+02  0.00000E+00  9.000E+00
       5     1     1     2   501     0  4.209460006E+00  9.466217011E-01  5.384055533E+00  8.376526737E+00  4.750000000E+00  0.00000E+00  9.000E+00
      -5     1     1     2     0   503 -1.179234271E+01  3.950950925E+01 -5.400609670E+02  5.416534604E+02  4.750000000E+00  0.00000E+00  9.000E+00
      21     1     1     2   512   501 -4.572453948E+00  2.868035104E+00  3.258214157E+01  3.302618522E+01  1.651812370E-06  0.00000E+00  9.000E+00
#rwgt            1           9   4.9633428534955081E-004          10     2636069           0
</event>
<event>
      6   9999  3.45752E-01  3.18962E+00 -1.00000E+00  2.70130E-01
      21    -1     0     0   501   511  0.000000000E+00  0.000000000E+00  2.127927129E+03  2.127927129E+03  0.000000000E+00  0.00000E+00  9.000E+00
      21    -1     0     0   502   503  0.000000000E+00  0.000000000E+00 -2.237263259E+02  2.237263259E+02  0.000000000E+00  0.00000E+00  9.000E+00
      25     1     1     2     0     0  1.960914152E+00 -2.287225909E+01 -1.389974301E+02  1.883366161E+02  1.249936397E+02  0.00000E+00  9.000E+00
       5     1     1     2   501     0  3.420686691E-01  5.892334837E-01  9.228962081E+00  1.040194444E+01  4.750000000E+00  0.00000E+00  9.000E+00
      -5     1     1     2     0   503 -3.579747306E+00  2.520596061E+01 -5.665210810E+01  6.229108197E+01  4.750000000E+00  0.00000E+00  9.000E+00
      21     1     1     2   502   511  1.276764485E+00 -2.922934998E+00  2.090621379E+03  2.090623812E+03  0.000000000E+00  0.00000E+00  9.000E+00
#rwgt            1           9   6.8203067556076727E-003          10     2640395           0
</event>
<event>
      6   9999  3.45752E-01  7.61028E+00 -1.00000E+00  2.00618E-01
      21    -1     0     0   501   502  0.000000000E+00  0.000000000E+00  2.925544898E+01  2.925544898E+01  0.000000000E+00  0.00000E+00  9.000E+00
      21    -1     0     0   502   512  0.000000000E+00  0.000000000E+00 -2.644016221E+03  2.644016221E+03  0.000000000E+00  0.00000E+00  9.000E+00
      25     1     1     2     0     0 -1.086261571E+02 -1.575067900E+02 -6.576767508E+02  6.962555881E+02  1.250004177E+02  0.00000E+00  9.000E+00
       5     1     1     2   501     0  9.690939151E-01 -2.739677901E+00  3.737587691E+00  6.706492359E+00  4.750000000E+00  0.00000E+00  9.000E+00
      -5     1     1     2     0   503  1.038158881E+02  1.536767108E+02 -1.883048127E+03  1.892164655E+03  4.750000000E+00  0.00000E+00  9.000E+00
      21     1     1     2   503   512  3.841175070E+00  6.569757090E+00 -7.777348149E+01  7.814493430E+01  9.536743164E-07  0.00000E+00  9.000E+00
#rwgt            1           9   3.4237616711961880E-003          10     2646173           0
</event>
<event>
      6   9999  3.45752E-01  2.54489E+01 -1.00000E+00  1.52614E-01
      21    -1     0     0   511   502  0.000000000E+00  0.000000000E+00  3.292217819E+01  3.292217819E+01  0.000000000E+00  0.00000E+00  9.000E+00
      21    -1     0     0   502   503  0.000000000E+00  0.000000000E+00 -1.160700995E+03  1.160700995E+03  0.000000000E+00  0.00000E+00  9.000E+00
      25     1     1     2     0     0 -2.715797383E+01  9.337931207E+01 -5.567604282E+02  5.788475399E+02  1.250001942E+02  0.00000E+00  9.000E+00
       5     1     1     2   501     0  9.535184535E-01  2.312882219E+00  1.324532842E+01  1.429195041E+01  4.750000000E+00  0.00000E+00  9.000E+00
      -5     1     1     2     0   503  4.859909985E+01 -8.360400394E+01 -5.460785848E+02  5.545952445E+02  4.750000000E+00  0.00000E+00  9.000E+00
      21     1     1     2   511   501 -2.239464448E+01 -1.208819035E+01 -3.818513179E+01  4.588843795E+01  4.768371582E-07  0.00000E+00  9.000E+00
#rwgt            1           9   7.6260191139175551E-005          10     2650825           0
</event>
<event>
      6   9999  3.45752E-01  1.68760E+01 -1.00000E+00  1.66052E-01
      21    -1     0     0   501   502  0.000000000E+00  0.000000000E+00  8.770180903E+00  8.770180903E+00  0.000000000E+00  0.00000E+00  9.000E+00
       1    -1     0     0   502     0  0.000000000E+00  0.000000000E+00 -2.597971016E+03  2.597971016E+03  0.000000000E+00  0.00000E+00  9.000E+00
      25     1     1     2     0     0  9.849216585E+00  3.857033720E+00 -7.278040246E+02  7.385368186E+02  1.250042017E+02  0.00000E+00  9.000E+00
       5     1     1     2   501     0  2.597810383E+00  2.355988754E-02  3.462320799E-01  5.425085299E+00  4.750000000E+00  0.00000E+00  9.000E+00
      -5     1     1     2     0   503  4.040389434E+00 -2.801816044E-01 -1.983759420E+01  2.079653558E+01  4.750000000E+00  0.00000E+00  9.000E+00
       1     1     1     2   503     0 -1.648741640E+01 -3.600412004E+00 -1.841905449E+03  1.841982758E+03  2.157918644E-05  0.00000E+00  9.000E+00
#rwgt            1           9   3.6108400294809680E-004          10     2652510           0
</event>
<event>
      6   9999  3.45752E-01  7.85161E+00 -1.00000E+00  1.98983E-01
      21    -1     0     0   511   502  0.000000000E+00  0.000000000E+00  2.612557345E+01  2.612557345E+01  0.000000000E+00  0.00000E+00  9.000E+00
      21    -1     0     0   502   503  0.000000000E+00  0.000000000E+00 -7.380182923E+02  7.380182923E+02  0.000000000E+00  0.00000E+00  9.000E+00
      25     1     1     2     0     0  1.127630324E+01 -5.439360975E+00 -6.212778517E+02  6.338506691E+02  1.249950401E+02  0.00000E+00  9.000E+00
       5     1     1     2   501     0  2.586572368E-01 -6.933048754E-02 -1.394399657E+00  4.957676945E+00  4.750000000E+00  0.00000E+00  9.000E+00
      -5     1     1     2     0   503 -3.915545601E+00  3.613337581E+00 -1.062991135E+02  1.065384988E+02  4.750000000E+00  0.00000E+00  9.000E+00
      21     1     1     2   511   501 -7.619414876E+00  1.895353881E+00  1.707864592E+01  1.879702093E+01  7.907449699E-07  0.00000E+00  9.000E+00
#rwgt            1           9   1.0876544600592049E-003          10     2653819           0
</event>
<event>
      6   9999  3.45752E-01  1.53342E+01 -1.00000E+00  1.69546E-01
      21    -1     0     0   501   512  0.000000000E+00  0.000000000E+00  1.283145868E+02  1.283145868E+02  0.000000000E+00  0.00000E+00  9.000E+00
      21    -1     0     0   502   503  0.000000000E+00  0.000000000E+00 -2.627398350E+02  2.627398350E+02  0.000000000E+00  0.00000E+00  9.000E+00
      25     1     1     2     0     0  1.268504363E+01  3.012883614E+01 -2.016445418E+02  2.394874211E+02  1.250001860E+02  0.00000E+00  9.000E+00
       5     1     1     2   501     0 -9.568813778E-02  1.424364291E+00  8.168099581E+01  8.183144595E+01  4.750000000E+00  0.00000E+00  9.000E+00
      -5     1     1     2     0   503 -2.288922377E+01 -4.291326463E+01 -2.084265418E+01  5.312667483E+01  4.750000000E+00  0.00000E+00  9.000E+00
      21     1     1     2   502   512  1.029986828E+01  1.136006420E+01  6.380951976E+00  1.660887995E+01  1.460009660E-07  0.00000E+00  9.000E+00
#rwgt            1           9  0.32809805760733091               10     2657584           0
</event>
<event>
      6   9999  3.45752E-01  6.20364E+01 -1.00000E+00  1.29959E-01
      21    -1     0     0   502   503  0.000000000E+00  0.000000000E+00  1.913467997E+02  1.913467997E+02  0.000000000E+00  0.00000E+00  9.000E+00
      21    -1     0     0   511   502  0.000000000E+00  0.000000000E+00 -4.709670389E+02  4.709670389E+02  0.000000000E+00  0.00000E+00  9.000E+00
      25     1     1     2     0     0 -1.092709428E+02 -4.806850062E+01 -2.783290199E+02  3.276334858E+02  1.250037519E+02  0.00000E+00  9.000E+00
       5     1     1     2   501     0  6.219884226E+00 -8.460984235E+00  1.785176179E+01  2.124907323E+01  4.750000000E+00  0.00000E+00  9.000E+00
      -5     1     1     2     0   503  1.650841419E+02  5.588460051E+01  8.364173083E+01  1.933762242E+02  4.750000000E+00  0.00000E+00  9.000E+00
      21     1     1     2   511   501 -6.203308325E+01  6.448843414E-01 -1.027847119E+02  1.200550553E+02  0.000000000E+00  0.00000E+00  9.000E+00
#rwgt            1           9   93.363843500916460               10     2660441           0
</event>
<event>
      6   9999  3.45752E-01  2.00678E+00 -1.00000E+00  3.32319E-01
      21    -1     0     0   512   502  0.000000000E+00  0.000000000E+00  8.504174427E+01  8.504174427E+01  0.000000000E+00  0.00000E+00  9.000E+00
      21    -1     0     0   502   503  0.000000000E+00  0.000000000E+00 -1.543371896E+03  1.543371896E+03  0.000000000E+00  0.00000E+00  9.000E+00
      25     1     1     2     0     0 -1.778221220E+01  4.487899223E+00 -1.362183422E+03  1.368030025E+03  1.250045038E+02  0.00000E+00  9.000E+00
       5     1     1     2   501     0  1.183124023E+01  1.089324229E+00  7.539510268E+01  7.647319060E+01  4.750000000E+00  0.00000E+00  9.000E+00
      -5     1     1     2     0   503  5.487173830E+00 -7.529669408E+00 -1.774051872E+02  1.777131620E+02  4.750000000E+00  0.00000E+00  9.000E+00
      21     1     1     2   512   501  4.637981385E-01  1.952445956E+00  5.863353995E+00  6.197263428E+00  2.384185791E-07  0.00000E+00  9.000E+00
#rwgt            1           9   1.2282212582772993E-004          10     2663159           0
</event>
<event>
      6   9999  3.45752E-01  1.52145E+01 -1.00000E+00  1.69839E-01
      21    -1     0     0   501   502  0.000000000E+00  0.000000000E+00  3.306690566E+02  3.306690566E+02  0.000000000E+00  0.00000E+00  9.000E+00
      21    -1     0     0   511   503  0.000000000E+00  0.000000000E+00 -1.832291431E+03  1.832291431E+03  0.000000000E+00  0.00000E+00  9.000E+00
      25     1     1     2     0     0 -1.197243246E+01  7.871066362E+00 -3.820573543E+02  4.022421635E+02  1.250025732E+02  0.00000E+00  9.000E+00
       5     1     1     2   501     0  1.284512425E+00  4.569406907E+00  3.181159561E+02  3.181868217E+02  4.750000000E+00  0.00000E+00  9.000E+00
      -5     1     1     2     0   503  1.040524411E+01  2.771419366E+00 -1.213646274E+01  1.690580072E+01  4.750000000E+00  0.00000E+00  9.000E+00
      21     1     1     2   511   502  2.826759333E-01 -1.521189264E+01 -1.425544514E+03  1.425625702E+03  2.642899792E-05  0.00000E+00  9.000E+00
#rwgt            1           9   2.4627830341143010E-004          10     2675965           0
</event>
<event>
      6   9999  3.45752E-01  1.19529E+01 -1.00000E+00  1.79386E-01
      21    -1     0     0   501   502  0.000000000E+00  0.000000000E+00  9.751173432E+00  9.751173432E+00  0.000000000E+00  0.00000E+00  9.000E+00
      21    -1     0     0   502   512  0.000000000E+00  0.000000000E+00 -9.175524734E+02  9.175524734E+02  0.000000000E+00  0.00000E+00  9.000E+00
      25     1     1     2     0     0 -9.527118212E+00  3.055987414E+01 -7.001371620E+02  7.119281228E+02  1.249997383E+02  0.00000E+00  9.000E+00
       5     1     1     2   501     0 -5.263830713E-01  1.023355067E+00 -1.105518947E+00  5.010888831E+00  4.750000000E+00  0.00000E+00  9.000E+00
      -5     1     1     2     0   503  1.212843310E+01 -1.981184383E+01 -8.579634397E+01  8.901226423E+01  4.750000000E+00  0.00000E+00  9.000E+00
      21     1     1     2   503   512 -2.074931818E+00 -1.177138537E+01 -1.207622750E+02  1.213523709E+02  0.000000000E+00  0.00000E+00  9.000E+00
#rwgt            1           9   6.2874586355836804E-003          10     2680342           0
</event>
<event>
      6   9999  3.45752E-01  1.96101E+01 -1.00000E+00  1.60866E-01
      21    -1     0     0   501   502  0.000000000E+00  0.000000000E+00  2.476412048E+01  2.476412048E+01  0.000000000E+00  0.00000E+00  9.000E+00
       2    -1     0     0   502     0  0.000000000E+00  0.000000000E+00 -3.734418977E+03  3.734418977E+03  0.000000000E+00  0.00000E+00  9.000E+00
      25     1     1     2     0     0 -5.421379062E+01  5.116718492E+01 -1.631177158E+03  1.637657344E+03  1.250017562E+02  0.00000E+00  9.000E+00
       5     1     1     2   501     0  3.955298018E+00  9.275835944E+00  1.288236800E+01  1.703535794E+01  4.750000000E+00  0.00000E+00  9.000E+00
      -5     1     1     2     0   503  4.527893050E+01 -4.147566001E+01 -1.390112118E+02  1.520430578E+02  4.750000000E+00  0.00000E+00  9.000E+00
       2     1     1     2   503     0  4.979562097E+00 -1.896736086E+01 -1.952348854E+03  1.952447338E+03  2.157918644E-05  0.00000E+00  9.000E+00
#rwgt            1           9   5.7907938741583707E-004          10     2682420           0
</event>
<event>
      6   9999  3.45752E-01  1.72353E+01 -1.00000E+00  1.65304E-01
      21    -1     0     0   501   502  0.000000000E+00  0.000000000E+00  3.007681408E+01  3.007681408E+01  0.000000000E+00  0.00000E+00  9.000E+00
      21    -1     0     0   511   503  0.000000000E+00  0.000000000E+00 -1.195955935E+03  1.195955935E+03  0.000000000E+00  0.00000E+00  9.000E+00
      25     1     1     2     0     0  1.446209258E+01 -1.109791572E+01 -1.077020594E+03  1.084403623E+03  1.250021665E+02  0.00000E+00  9.000E+00
       5     1     1     2   501     0  1.380095735E+00 -3.413793175E+00  2.294231411E+01  2.371646949E+01  4.750000000E+00  0.00000E+00  9.000E+00
      -5     1     1     2     0   503  8.033695863E-01  1.898169165E+01 -4.842406956E+01  5.223411753E+01  4.750000000E+00  0.00000E+00  9.000E+00
      21     1     1     2   511   502 -1.664555790E+01 -4.469982755E+00 -6.337677174E+01  6.567853942E+01  0.000000000E+00  0.00000E+00  9.000E+00
#rwgt            1           9   2.8711268578608166E-002          10     2684623           0
</event>
<event>
      6   9999  3.45752E-01  1.55417E+01 -1.00000E+00  1.69047E-01
      21    -1     0     0   501   502  0.000000000E+00  0.000000000E+00  1.316539477E+01  1.316539477E+01  0.000000000E+00  0.00000E+00  9.000E+00
      21    -1     0     0   512   503  0.000000000E+00  0.000000000E+00 -1.665728986E+03  1.665728986E+03  0.000000000E+00  0.00000E+00  9.000E+00
      25     1     1     2     0     0  5.128532997E+01 -2.600167182E+01 -5.049689954E+02  5.233781769E+02  1.249990310E+02  0.00000E+00  9.000E+00
       5     1     1     2   501     0  1.974703205E-01 -3.594751438E-01 -1.362114668E+00  4.958434559E+00  4.750000000E+00  0.00000E+00  9.000E+00
      -5     1     1     2     0   503 -4.604873309E+01  1.180037609E+01 -2.704258857E+02  2.746132860E+02  4.750000000E+00  0.00000E+00  9.000E+00
      21     1     1     2   512   502 -5.434067197E+00  1.456077087E+01 -8.758065957E+02  8.759444835E+02  1.525878906E-05  0.00000E+00  9.000E+00
#rwgt            1           9   8.7026859815582858E-004          10     2687122           0
</event>
<event>
      6   9999  3.45752E-01  4.33075E+00 -1.00000E+00  2.40919E-01
      21    -1     0     0   502   511  0.000000000E+00  0.000000000E+00  9.915776287E+01  9.915776287E+01  0.000000000E+00  0.00000E+00  9.000E+00
      21    -1     0     0   501   502  0.000000000E+00  0.000000000E+00 -1.978890407E+03  1.978890407E+03  0.000000000E+00  0.00000E+00  9.000E+00
      25     1     1     2     0     0  1.263223331E+02 -1.114474615E+02 -8.888844155E+01  2.278245366E+02  1.249999837E+02  0.00000E+00  9.000E+00
       5     1     1     2   501     0 -1.240861493E+02  1.119098609E+02 -1.809724555E+03  1.817428600E+03  4.750000000E+00  0.00000E+00  9.000E+00
      -5     1     1     2     0   503 -6.566717339E+00 -5.053304698E-01 -4.317247750E+00  9.196644151E+00  4.750000000E+00  0.00000E+00  9.000E+00
      21     1     1     2   503   511  4.330533540E+00  4.293107920E-02  2.319759955E+01  2.359838953E+01  5.840038640E-07  0.00000E+00  9.000E+00
#rwgt            1           9   7.0836216792690638E-003          10     2689119           0
</event>
<event>
      6   9999  3.45752E-01  6.98396E+00 -1.00000E+00  2.05266E-01
      21    -1     0     0   501   512  0.000000000E+00  0.000000000E+00  4.570096206E+01  4.570096206E+01  0.000000000E+00  0.00000E+00  9.000E+00
      21    -1     0     0   502   503  0.000000000E+00  0.000000000E+00 -1.541147945E+03  1.541147945E+03  0.000000000E+00  0.00000E+00  9.000E+00
      25     1     1     2     0     0  9.533497589E-01  1.044674867E+01 -1.334046147E+03  1.339931047E+03  1.250041787E+02  0.00000E+00  9.000E+00
       5     1     1     2   501     0  6.290773377E+00 -8.449845578E+00  1.433525646E+01  1.841292475E+01  4.750000000E+00  0.00000E+00  9.000E+00
      -5     1     1     2     0   503 -2.658853164E+00 -7.264822928E+00 -2.015543883E+02  2.017587200E+02  4.750000000E+00  0.00000E+00  9.000E+00
      21     1     1     2   502   512 -4.585269972E+00  5.267919832E+00  2.581829547E+01  2.674621583E+01  1.815741803E-06  0.00000E+00  9.000E+00
#rwgt            1           9   4.0618752568265540E-002          10     2696723           0
</event>
<event>
      6   9999  3.45752E-01  1.10894E+01 -1.00000E+00  1.82584E-01
      21    -1     0     0   501   502  0.000000000E+00  0.000000000E+00  1.694669266E+01  1.694669266E+01  0.000000000E+00  0.00000E+00  9.000E+00
      21    -1     0     0   502   511  0.000000000E+00  0.000000000E+00 -1.126168636E+03  1.126168636E+03  0.000000000E+00  0.00000E+00  9.000E+00
      25     1     1     2     0     0  8.706795291E+00 -8.241123687E+00 -9.019508255E+02  9.106499398E+02  1.249971878E+02  0.00000E+00  9.000E+00
       5     1     1     2   501     0 -1.333437644E+00 -4.884550227E-01  1.098458702E+01  1.205156821E+01  4.750000000E+00  0.00000E+00  9.000E+00
      -5     1     1     2     0   503  3.671121486E+00  7.732553804E+00 -2.512112412E+01  2.696113682E+01  4.750000000E+00  0.00000E+00  9.000E+00
      21     1     1     2   503   511 -1.104447913E+01  9.970249058E-01 -1.931345805E+02  1.934526835E+02  0.000000000E+00  0.00000E+00  9.000E+00
#rwgt            1           9   1.4100337236745562E-002          10     2701451           0
</event>
<event>
      6   9999  3.45752E-01  2.37693E+01 -1.00000E+00  1.54690E-01
      21    -1     0     0   512   502  0.000000000E+00  0.000000000E+00  1.859404111E+02  1.859404111E+02  0.000000000E+00  0.00000E+00  9.000E+00
      21    -1     0     0   502   503  0.000000000E+00  0.000000000E+00 -6.685331278E+02  6.685331278E+02  0.000000000E+00  0.00000E+00  9.000E+00
      25     1     1     2     0     0  1.381826817E+02 -6.286919172E+01 -4.253052813E+02  4.685655924E+02  1.249885726E+02  0.00000E+00  9.000E+00
       5     1     1     2   501     0  2.025882058E+00  6.760252051E+00  1.093575930E+02  1.096879704E+02  4.750000000E+00  0.00000E+00  9.000E+00
      -5     1     1     2     0   503 -1.357693410E+02  7.946004373E+01 -1.873600410E+02  2.446907435E+02  4.750000000E+00  0.00000E+00  9.000E+00
      21     1     1     2   512   501 -4.439222723E+00 -2.335110406E+01  2.071501265E+01  3.152923260E+01  5.840038640E-07  0.00000E+00  9.000E+00
#rwgt            1           9   7.6216521379390700               10     2704037           0
</event>
<event>
      6   9999  3.45752E-01  6.44841E+00 -1.00000E+00  2.09789E-01
       2    -1     0     0   501     0  0.000000000E+00  0.000000000E+00  9.355292741E+02  9.355292741E+02  0.000000000E+00  0.00000E+00  9.000E+00
      21    -1     0     0   502   503  0.000000000E+00  0.000000000E+00 -1.542902573E+02  1.542902573E+02  0.000000000E+00  0.00000E+00  9.000E+00
      25     1     1     2     0     0 -2.126919779E+00  2.128354408E-01 -1.180221084E+02  1.719261830E+02  1.249993010E+02  0.00000E+00  9.000E+00
       5     1     1     2   501     0  2.083759315E+00 -6.478917399E+00  6.773638403E+01  6.824293843E+01  4.750000000E+00  0.00000E+00  9.000E+00
      -5     1     1     2     0   503  2.260088506E+00  2.107389970E-01 -8.284889549E+00  9.816022913E+00  4.750000000E+00  0.00000E+00  9.000E+00
       2     1     1     2   502     0 -2.216928042E+00  6.055342962E+00  8.398096307E+02  8.398343871E+02  0.000000000E+00  0.00000E+00  9.000E+00
#rwgt            1           9   1.0636094246239008E-003          10     2706761           0
</event>
<event>
      6   9999  3.45752E-01  1.25978E+01 -1.00000E+00  1.77213E-01
      21    -1     0     0   511   502  0.000000000E+00  0.000000000E+00  1.306298536E+01  1.306298536E+01  0.000000000E+00  0.00000E+00  9.000E+00
      21    -1     0     0   502   503  0.000000000E+00  0.000000000E+00 -8.471046653E+02  8.471046653E+02  0.000000000E+00  0.00000E+00  9.000E+00
      25     1     1     2     0     0 -3.569095595E+00  1.660360270E+01 -6.717065767E+02  6.834497667E+02  1.250017615E+02  0.00000E+00  9.000E+00
       5     1     1     2   501     0  2.577214666E+00 -2.660129475E+00  2.687623604E+00  6.595767195E+00  4.750000000E+00  0.00000E+00  9.000E+00
      -5     1     1     2     0   503  1.318441107E+01 -1.711310563E+01 -1.434107161E+02  1.451064543E+02  4.750000000E+00  0.00000E+00  9.000E+00
      21     1     1     2   511   501 -1.219253014E+01  3.169632411E+00 -2.161201081E+01  2.501566253E+01  4.768371582E-07  0.00000E+00  9.000E+00
#rwgt            1           9   7.5341073756301832E-003          10     2710222           0
</event>
<event>
      6   9999  3.45752E-01  2.21258E+01 -1.00000E+00  1.56933E-01
      21    -1     0     0   501   512  0.000000000E+00  0.000000000E+00  4.139789544E+01  4.139789544E+01  0.000000000E+00  0.00000E+00  9.000E+00
      21    -1     0     0   502   503  0.000000000E+00  0.000000000E+00 -4.394412476E+03  4.394412476E+03  0.000000000E+00  0.00000E+00  9.000E+00
      25     1     1     2     0     0  2.245096045E+00 -1.367568425E+00 -4.008034881E+03  4.009984499E+03  1.250006445E+02  0.00000E+00  9.000E+00
       5     1     1     2   501     0  4.352537352E-01  2.196447669E+01 -2.733657519E+02  2.742882142E+02  4.750000000E+00  0.00000E+00  9.000E+00
      -5     1     1     2     0   503  4.420152798E-01  1.307501285E+00 -1.084524817E+02  1.085652256E+02  4.750000000E+00  0.00000E+00  9.000E+00
      21     1     1     2   502   512 -3.122365060E+00 -2.190440955E+01  3.683853451E+01  4.297243240E+01  5.436780096E-06  0.00000E+00  9.000E+00
#rwgt            1           9   2.1319923001859144E-003          10     2711965           0
</event>
<event>
      6   9999  3.45752E-01  1.42196E+01 -1.00000E+00  1.72407E-01
      21    -1     0     0   501   502  0.000000000E+00  0.000000000E+00  1.030836976E+01  1.030836976E+01  0.000000000E+00  0.00000E+00  9.000E+00
      21    -1     0     0   511   503  0.000000000E+00  0.000000000E+00 -9.571438877E+02  9.571438877E+02  0.000000000E+00  0.00000E+00  9.000E+00
      25     1     1     2     0     0 -1.625661639E+01 -4.873961819E+00 -6.775557772E+02  6.891984930E+02  1.249987939E+02  0.00000E+00  9.000E+00
       5     1     1     2   501     0 -3.647382834E+00  2.483408463E+00  1.257035463E+00  6.604040982E+00  4.750000000E+00  0.00000E+00  9.000E+00
      -5     1     1     2     0   503  6.301387177E+00  6.533571068E+00 -1.013719747E+02  1.018883447E+02  4.750000000E+00  0.00000E+00  9.000E+00
      21     1     1     2   511   502  1.360261205E+01 -4.143017712E+00 -1.691648015E+02  1.697613788E+02  2.697398305E-06  0.00000E+00  9.000E+00
#rwgt            1           9   7.2175976306714462E-002          10     2712877           0
</event>
<event>
      6   9999  3.45752E-01  8.13865E+00 -1.00000E+00  1.97136E-01
      21    -1     0     0   501   502  0.000000000E+00  0.000000000E+00  9.847229556E+01  9.847229556E+01  0.000000000E+00  0.00000E+00  9.000E+00
      21    -1     0     0   512   503  0.000000000E+00  0.000000000E+00 -1.090862750E+03  1.090862750E+03  0.000000000E+00  0.00000E+00  9.000E+00
      25     1     1     2     0     0 -2.728293817E+01 -5.791315609E+01 -9.217082031E+01  1.679908018E+02  1.250086278E+02  0.00000E+00  9.000E+00
       5     1     1     2   501     0 -6.381691878E-01  1.118703712E+01  5.862428132E+01  5.987425089E+01  4.750000000E+00  0.00000E+00  9.000E+00
      -5     1     1     2     0   503  3.329766737E+01  5.283597080E+01 -8.206838676E+02  8.230704390E+02  4.750000000E+00  0.00000E+00  9.000E+00
      21     1     1     2   512   502 -5.376560011E+00 -6.109851832E+00 -1.381600481E+02  1.383995541E+02  1.907348633E-06  0.00000E+00  9.000E+00
#rwgt            1           9   1.6940094108349419               10     2714432           0
</event>
<event>
      6   9999  3.45752E-01  5.98553E+00 -1.00000E+00  2.14204E-01
       2    -1     0     0   501     0  0.000000000E+00  0.000000000E+00  2.862045484E+01  2.862045484E+01  0.000000000E+00  0.00000E+00  9.000E+00
      21    -1     0     0   502   503  0.000000000E+00  0.000000000E+00 -7.871733503E+02  7.871733503E+02  0.000000000E+00  0.00000E+00  9.000E+00
      25     1     1     2     0     0 -4.536553710E+00  1.586743981E+01 -3.910623780E+02  4.108856346E+02  1.249994610E+02  0.00000E+00  9.000E+00
       5     1     1     2   501     0 -7.187410416E-01 -1.352249035E+00 -6.383338796E-02  4.991166280E+00  4.750000000E+00  0.00000E+00  9.000E+00
      -5     1     1     2     0   503  1.050806627E+00 -1.877533645E+01 -3.828665666E+02  3.833575195E+02  4.750000000E+00  0.00000E+00  9.000E+00
       2     1     1     2   502     0  4.204488125E+00  4.260145673E+00  1.543988256E+01  1.655948474E+01  4.129530925E-07  0.00000E+00  9.000E+00
#rwgt            1           9   2.4435953212146983E-003          10     2719861           0
</event>
<event>
      6   9999  3.45752E-01  2.39676E+01 -1.00000E+00  1.54434E-01
      21    -1     0     0   511   502  0.000000000E+00  0.000000000E+00  6.754411303E+01  6.754411303E+01  0.000000000E+00  0.00000E+00  9.000E+00
      21    -1     0     0   502   503  0.000000000E+00  0.000000000E+00 -9.400873802E+02  9.400873802E+02  0.000000000E+00  0.00000E+00  9.000E+00
      25     1     1     2     0     0  3.716350833E+01  2.219958622E+01 -4.526507648E+02  4.715824708E+02  1.249934555E+02  0.00000E+00  9.000E+00
       5     1     1     2   501     0 -4.598086394E+00 -1.711334012E+00  3.198360498E+00  7.540760735E+00  4.750000000E+00  0.00000E+00  9.000E+00
      -5     1     1     2     0   503 -5.557189133E+01 -2.720737651E+01 -4.709299128E+02  4.750010755E+02  4.750000000E+00  0.00000E+00  9.000E+00
      21     1     1     2   511   501  2.300646939E+01  6.719124307E+00  4.783904999E+01  5.350718614E+01  1.651812370E-06  0.00000E+00  9.000E+00
#rwgt            1           9   3.5194848070475068E-003          10     2723654           0
</event>
<event>
      6   9999  3.45752E-01  1.06074E+01 -1.00000E+00  1.84536E-01
      21    -1     0     0   512   502  0.000000000E+00  0.000000000E+00  1.883658584E+01  1.883658584E+01  0.000000000E+00  0.00000E+00  9.000E+00
      21    -1     0     0   502   503  0.000000000E+00  0.000000000E+00 -9.133332340E+02  9.133332340E+02  0.000000000E+00  0.00000E+00  9.000E+00
      25     1     1     2     0     0 -6.240654796E+01 -2.821703469E+01 -3.847427113E+02  4.102956872E+02  1.249992751E+02  0.00000E+00  9.000E+00
       5     1     1     2   501     0  6.093396995E-01  1.899123446E-01 -3.835484062E-01  4.808011122E+00  4.750000000E+00  0.00000E+00  9.000E+00
      -5     1     1     2     0   503  6.528232744E+01  3.804565213E+01 -4.778105880E+02  4.837714072E+02  4.750000000E+00  0.00000E+00  9.000E+00
      21     1     1     2   512   501 -3.485119178E+00 -1.001852978E+01 -3.155980044E+01  3.329471428E+01  5.840038640E-07  0.00000E+00  9.000E+00
#rwgt            1           9   3.3860799636156021E-005          10     2725119           0
</event>
<event>
      6   9999  3.45752E-01  2.72254E+01 -1.00000E+00  1.50617E-01
      21    -1     0     0   502   511  0.000000000E+00  0.000000000E+00  4.608784648E+01  4.608784648E+01  0.000000000E+00  0.00000E+00  9.000E+00
      21    -1     0     0   501   502  0.000000000E+00  0.000000000E+00 -1.258752221E+03  1.258752221E+03  0.000000000E+00  0.00000E+00  9.000E+00
      25     1     1     2     0     0 -1.863498261E+01 -1.490873903E+01 -8.060570996E+01  1.506363250E+02  1.249979554E+02  0.00000E+00  9.000E+00
       5     1     1     2   501     0  8.597957329E-02  1.440587292E+00 -1.111910582E+03  1.111921665E+03  4.750000000E+00  0.00000E+00  9.000E+00
      -5     1     1     2     0   503 -6.016253503E+00  1.730523879E+00  8.439461210E-01  7.903465326E+00  4.750000000E+00  0.00000E+00  9.000E+00
      21     1     1     2   503   511  2.456525654E+01  1.173762786E+01 -2.099202798E+01  3.437861218E+01  2.384185791E-07  0.00000E+00  9.000E+00
#rwgt            1           9   3.0140700252164778E-004          10     2727728           0
</event>
<event>
      6   9999 -3.45752E-01  4.53441E+00 -1.00000E+00  2.37092E-01
      21    -1     0     0   502   512  0.000000000E+00  0.000000000E+00  3.400532383E+01  3.400532383E+01  0.000000000E+00  0.00000E+00  9.000E+00
      21    -1     0     0   501   502  0.000000000E+00  0.000000000E+00 -7.660227181E+02  7.660227181E+02  0.000000000E+00  0.00000E+00  9.000E+00
      25     1     1     2     0     0 -2.804778737E+00  1.279626523E+01 -7.385413701E+02  7.491652676E+02  1.250345221E+02  0.00000E+00  9.000E+00
       5     1     1     2   501     0  9.546813869E-01 -1.041733120E+01 -1.730344174E+01  2.077026244E+01  4.750000000E+00  0.00000E+00  9.000E+00
      -5     1     1     2     0   503 -6.431164617E-01  1.408511942E+00 -7.925409455E-01  5.058470700E+00  4.750000000E+00  0.00000E+00  9.000E+00
      21     1     1     2   503   512  2.493213812E+00 -3.787445972E+00  2.461995848E+01  2.503404117E+01  1.305872339E-06  0.00000E+00  9.000E+00
#rwgt            1           9  -1.1292675973798561E-004          10     2729932           0
</event>
<event>
      6   9999  3.45752E-01  5.29649E+00 -1.00000E+00  2.21891E-01
      21    -1     0     0   501   502  0.000000000E+00  0.000000000E+00  1.169975342E+01  1.169975342E+01  0.000000000E+00  0.00000E+00  9.000E+00
      21    -1     0     0   511   503  0.000000000E+00  0.000000000E+00 -1.836767760E+03  1.836767760E+03  0.000000000E+00  0.00000E+00  9.000E+00
      25     1     1     2     0     0 -3.343667228E-01 -2.224410590E+00 -1.690594419E+03  1.695210770E+03  1.250000164E+02  0.00000E+00  9.000E+00
       5     1     1     2   501     0  2.503239595E+00  4.095740884E+00  7.914893957E+00  1.040429470E+01  4.750000000E+00  0.00000E+00  9.000E+00
      -5     1     1     2     0   503 -1.739368278E+00  3.407712696E+00 -8.587014293E+01  8.608647893E+01  4.750000000E+00  0.00000E+00  9.000E+00
      21     1     1     2   511   502 -4.295045938E-01 -5.279042990E+00 -5.651833855E+01  5.676597010E+01  6.743495762E-07  0.00000E+00  9.000E+00
#rwgt            1           9   1.3889716854302533E-003          10     2734473           0
</event>
<event>
      6   9999  3.45752E-01  3.36066E+01 -1.00000E+00  1.44718E-01
       1    -1     0     0   501     0  0.000000000E+00  0.000000000E+00  9.428784315E+02  9.428784315E+02  0.000000000E+00  0.00000E+00  9.000E+00
      21    -1     0     0   502   503  0.000000000E+00  0.000000000E+00 -1.065128246E+03  1.065128246E+03  0.000000000E+00  0.00000E+00  9.000E+00
      25     1     1     2     0     0 -2.661208239E+01  4.499636353E+01 -3.502600730E+02  3.755503717E+02  1.249923491E+02  0.00000E+00  9.000E+00
       5     1     1     2   501     0 -3.972389196E+01 -1.033119491E+02 -2.828893358E+02  3.038096200E+02  4.750000000E+00  0.00000E+00  9.000E+00
      -5     1     1     2     0   503  8.350788130E+01  8.720384845E+01 -3.996294252E+02  4.174976855E+02  4.750000000E+00  0.00000E+00  9.000E+00
       1     1     1     2   502     0 -1.717190695E+01 -2.888826293E+01  9.105290193E+02  9.111490005E+02  1.078959322E-05  0.00000E+00  9.000E+00
#rwgt            1           9   6.7966886410465895E-003          10     2738834           0
</event>
<event>
      6   9999  3.45752E-01  3.49179E+01 -1.00000E+00  1.43696E-01
      21    -1     0     0   501   502  0.000000000E+00  0.000000000E+00  2.720863624E+03  2.720863624E+03  0.000000000E+00  0.00000E+00  9.000E+00
      21    -1     0     0   502   511  0.000000000E+00  0.000000000E+00 -5.309420719E+01  5.309420719E+01  0.000000000E+00  0.00000E+00  9.000E+00
      25     1     1     2     0     0  8.031753743E+01 -9.550035311E+01  6.298001611E+02  6.540983628E+02  1.250008041E+02  0.00000E+00  9.000E+00
       5     1     1     2   501     0  1.313537244E+01  3.667079752E+00  1.627574584E+03  1.627638650E+03  4.750000000E+00  0.00000E+00  9.000E+00
      -5     1     1     2     0   503 -5.989680216E+01  8.217677267E+01  4.367601413E+02  4.484669803E+02  4.750000000E+00  0.00000E+00  9.000E+00
      21     1     1     2   503   511 -3.355610772E+01  9.656500686E+00 -2.636546964E+01  4.375383823E+01  3.126830351E-06  0.00000E+00  9.000E+00
#rwgt            1           9   1.0724046348113021               10     2740197           0
</event>
<event>
      6   9999  3.45752E-01  2.72492E+01 -1.00000E+00  1.50591E-01
      21    -1     0     0   501   502  0.000000000E+00  0.000000000E+00  2.012778783E+01  2.012778783E+01  0.000000000E+00  0.00000E+00  9.000E+00
      21    -1     0     0   512   503  0.000000000E+00  0.000000000E+00 -1.316037092E+03  1.316037092E+03  0.000000000E+00  0.00000E+00  9.000E+00
      25     1     1     2     0     0  1.069640738E+02 -6.167997303E+01 -5.215163187E+02  5.503180012E+02  1.249995984E+02  0.00000E+00  9.000E+00
       5     1     1     2   501     0  9.097659123E-01  1.232484219E+01 -6.567034106E+01  6.699168309E+01  4.750000000E+00  0.00000E+00  9.000E+00
      -5     1     1     2     0   503 -8.617474889E+01  3.287270105E+01 -5.133286724E+02  5.215703119E+02  4.750000000E+00  0.00000E+00  9.000E+00
      21     1     1     2   512   502 -2.169909080E+01  1.648242979E+01 -1.953939722E+02  1.972848839E+02  2.697398305E-06  0.00000E+00  9.000E+00
#rwgt            1           9   1.2148784160954924E-005          10     2741932           0
</event>
<event>
      6   9999 -3.45752E-01  1.36646E+01 -1.00000E+00  1.73957E-01
      21    -1     0     0   502   503  0.000000000E+00  0.000000000E+00  1.156360021E+01  1.156360021E+01  0.000000000E+00  0.00000E+00  9.000E+00
      21    -1     0     0   501   511  0.000000000E+00  0.000000000E+00 -1.635459093E+03  1.635459093E+03  0.000000000E+00  0.00000E+00  9.000E+00
      25     1     1     2     0     0 -8.837794178E+00  3.297948384E+01 -4.188005692E+02  4.383896377E+02  1.250032189E+02  0.00000E+00  9.000E+00
       5     1     1     2   501     0 -2.294383068E-01 -4.447241325E+01 -3.802375649E+02  3.828590034E+02  4.750000000E+00  0.00000E+00  9.000E+00
      -5     1     1     2     0   503 -3.600733946E-01  1.601152354E+00 -1.535722275E+01  1.615859314E+01  4.750000000E+00  0.00000E+00  9.000E+00
      21     1     1     2   502   511  9.427305879E+00  9.891777056E+00 -8.095001360E+02  8.096154590E+02  1.078959322E-05  0.00000E+00  9.000E+00
#rwgt            1           9  -2.1434201793017787E-002          10     2743428           0
</event>
<event>
      6   9999  3.45752E-01  4.98783E+00 -1.00000E+00  2.29548E-01
      21    -1     0     0   501   502  0.000000000E+00  0.000000000E+00  3.669016290E+01  3.669016290E+01  0.000000000E+00  0.00000E+00  9.000E+00
      21    -1     0     0   502   512  0.000000000E+00  0.000000000E+00 -1.785995079E+03  1.785995079E+03  0.000000000E+00  0.00000E+00  9.000E+00
      25     1     1     2     0     0 -2.022092258E+00  2.236081512E+01 -3.030436147E+02  3.285783102E+02  1.249967146E+02  0.00000E+00  9.000E+00
       5     1     1     2   501     0  1.459245976E+00  2.069621176E+00  2.111181623E+01  2.178724432E+01  4.750000000E+00  0.00000E+00  9.000E+00
      -5     1     1     2     0   503 -4.422659771E+00 -2.458257552E+01 -6.298913369E+01  6.792684596E+01  4.750000000E+00  0.00000E+00  9.000E+00
      21     1     1     2   503   512  4.985506053E+00  1.521392282E-01 -1.404383984E+03  1.404392842E+03  2.157918644E-05  0.00000E+00  9.000E+00
#rwgt            1           9   4.2736609600106270               10     2745589           0
</event>
<event>
      6   9999  3.45752E-01  1.08558E+01 -1.00000E+00  1.83514E-01
      21    -1     0     0   501   502  0.000000000E+00  0.000000000E+00  1.014733009E+01  1.014733009E+01  0.000000000E+00  0.00000E+00  9.000E+00
      21    -1     0     0   502   511  0.000000000E+00  0.000000000E+00 -8.896838976E+02  8.896838976E+02  0.000000000E+00  0.00000E+00  9.000E+00
      25     1     1     2     0     0  2.984556968E+00  8.431324320E+00 -7.609408444E+02  7.711910274E+02  1.249985492E+02  0.00000E+00  9.000E+00
       5     1     1     2   501     0 -1.994603464E+00  2.399676733E+00  2.733530468E+00  6.306471297E+00  4.750000000E+00  0.00000E+00  9.000E+00
      -5     1     1     2     0   503 -5.637337808E-01  1.646735409E-02 -3.564517414E+01  3.596469111E+01  4.750000000E+00  0.00000E+00  9.000E+00
      21     1     1     2   503   511 -4.262197227E-01 -1.084746841E+01 -8.568407948E+01  8.636903791E+01  9.536743164E-07  0.00000E+00  9.000E+00
#rwgt            1           9   6.9488823728248476E-005          10     2750968           0
</event>
<event>
      6   9999  3.45752E-01  1.06416E+01 -1.00000E+00  1.84393E-01
       2    -1     0     0   512     0  0.000000000E+00  0.000000000E+00  2.407641256E+03  2.407641256E+03  0.000000000E+00  0.00000E+00  9.000E+00
      -2    -1     0     0     0   502  0.000000000E+00  0.000000000E+00 -1.550943464E+01  1.550943464E+01  0.000000000E+00  0.00000E+00  9.000E+00
      25     1     1     2     0     0 -8.935406509E+01 -8.661422453E+01  7.814866385E+02  8.011482102E+02  1.250236608E+02  0.00000E+00  9.000E+00
       5     1     1     2   501     0  8.074694724E+01  9.653296894E+00  1.117288054E+03  1.120253728E+03  4.750000000E+00  0.00000E+00  9.000E+00
      -5     1     1     2     0   502 -2.023448221E+00  7.647720838E+01  3.655834685E+02  3.735327197E+02  4.750000000E+00  0.00000E+00  9.000E+00
      21     1     1     2   512   501  1.063056607E+01  4.837192481E-01  1.277736603E+02  1.282160332E+02  1.348699152E-06  0.00000E+00  9.000E+00
#rwgt            1           4   1.3435158759006379E-002          10     2753052           0
</event>
<event>
      6   9999  3.45752E-01  7.78711E+00 -1.00000E+00  1.99412E-01
      21    -1     0     0   501   511  0.000000000E+00  0.000000000E+00  3.180585967E+01  3.180585967E+01  0.000000000E+00  0.00000E+00  9.000E+00
      21    -1     0     0   502   503  0.000000000E+00  0.000000000E+00 -8.241003584E+02  8.241003584E+02  0.000000000E+00  0.00000E+00  9.000E+00
      25     1     1     2     0     0 -2.364956778E+01 -3.007496988E+01 -6.108742761E+02  6.247051205E+02  1.250012020E+02  0.00000E+00  9.000E+00
       5     1     1     2   501     0  3.379292424E+01  3.027720496E+01 -1.182599324E+02  1.267542701E+02  4.750000000E+00  0.00000E+00  9.000E+00
      -5     1     1     2     0   503 -5.050985512E+00 -6.093486260E+00 -8.280349417E+01  8.331641001E+01  4.750000000E+00  0.00000E+00  9.000E+00
      21     1     1     2   502   511 -5.092370950E+00  5.891251181E+00  1.964320396E+01  2.113041751E+01  2.384185791E-07  0.00000E+00  9.000E+00
#rwgt            1           9   8.4869625341996088E-003          10     2753733           0
</event>
<event>
      6   9999  3.45752E-01  4.54491E+01 -1.00000E+00  1.37043E-01
      21    -1     0     0   501   512  0.000000000E+00  0.000000000E+00  8.522744230E+01  8.522744230E+01  0.000000000E+00  0.00000E+00  9.000E+00
      21    -1     0     0   502   503  0.000000000E+00  0.000000000E+00 -1.129269597E+03  1.129269597E+03  0.000000000E+00  0.00000E+00  9.000E+00
      25     1     1     2     0     0 -8.458855665E+01 -6.634579396E+00 -7.458545872E+02  7.610016001E+02  1.250005140E+02  0.00000E+00  9.000E+00
       5     1     1     2   501     0  2.400665736E+01 -5.120952923E+01 -1.990084272E+01  6.014433907E+01  4.750000000E+00  0.00000E+00  9.000E+00
      -5     1     1     2     0   503  2.272439676E+01  3.269594736E+01 -3.254161001E+02  3.278774526E+02  4.750000000E+00  0.00000E+00  9.000E+00
      21     1     1     2   502   512  3.785750254E+01  2.514816126E+01  4.712937533E+01  6.547364761E+01  1.784161275E-06  0.00000E+00  9.000E+00
#rwgt            1           9   6.4722316392829147E-006          10     2756543           0
</event>
<event>
      6   9999  3.45752E-01  1.34731E+01 -1.00000E+00  1.74514E-01
      21    -1     0     0   502   511  0.000000000E+00  0.000000000E+00  8.739584779E+01  8.739584779E+01  0.000000000E+00  0.00000E+00  9.000E+00
      21    -1     0     0   501   502  0.000000000E+00  0.000000000E+00 -1.769225860E+02  1.769225860E+02  0.000000000E+00  0.00000E+00  9.000E+00
      25     1     1     2     0     0  1.377624604E+01 -4.829868413E+00  1.929547962E+01  1.273234107E+02  1.250032911E+02  0.00000E+00  9.000E+00
       5     1     1     2   501     0 -5.585566857E+00 -2.356868592E+00 -1.156730221E+02  1.159291333E+02  4.750000000E+00  0.00000E+00  9.000E+00
      -5     1     1     2     0   503  7.771491273E-01 -2.868275133E+00 -6.582528554E-01  5.641521056E+00  4.750000000E+00  0.00000E+00  9.000E+00
      21     1     1     2   503   511 -8.967828315E+00  1.005501214E+01  7.509057143E+00  1.542436880E+01  1.685873940E-07  0.00000E+00  9.000E+00
#rwgt            1           9   1.1832672306299939E-002          10     2757500           0
</event>
<event>
      6   9999  3.45752E-01  1.82831E+00 -1.00000E+00  3.48735E-01
      21    -1     0     0   501   502  0.000000000E+00  0.000000000E+00  4.244629926E+01  4.244629926E+01  0.000000000E+00  0.00000E+00  9.000E+00
      21    -1     0     0   512   503  0.000000000E+00  0.000000000E+00 -1.344323823E+03  1.344323823E+03  0.000000000E+00  0.00000E+00  9.000E+00
      25     1     1     2     0     0  5.241306523E+00 -2.772733901E+00 -8.419454959E+01  1.508250917E+02  1.249973070E+02  0.00000E+00  9.000E+00
       5     1     1     2   501     0 -2.499903754E-01 -5.846192297E-01  5.108387358E+00  7.004455456E+00  4.750000000E+00  0.00000E+00  9.000E+00
      -5     1     1     2     0   503 -5.986459296E+00  1.823602166E+00 -1.946188340E+00  8.094032915E+00  4.750000000E+00  0.00000E+00  9.000E+00
      21     1     1     2   512   502  9.951431485E-01  1.533750965E+00 -1.220845173E+03  1.220846542E+03  2.642899792E-05  0.00000E+00  9.000E+00
#rwgt            1           9   5.1433368800100476E-003          10     2759794           0
</event>
<event>
      6   9999  3.45752E-01  9.75379E+00 -1.00000E+00  1.88341E-01
      21    -1     0     0   501   511  0.000000000E+00  0.000000000E+00  3.124681999E+02  3.124681999E+02  0.000000000E+00  0.00000E+00  9.000E+00
      21    -1     0     0   502   503  0.000000000E+00  0.000000000E+00 -4.187866353E+03  4.187866353E+03  0.000000000E+00  0.00000E+00  9.000E+00
      25     1     1     2     0     0  1.791839817E+01  7.182210218E+00 -3.400874563E+03  3.403225910E+03  1.250045909E+02  0.00000E+00  9.000E+00
       5     1     1     2   501     0 -6.919013237E-01  9.648123870E-01 -1.599129455E+01  1.672404233E+01  4.750000000E+00  0.00000E+00  9.000E+00
      -5     1     1     2     0   503 -1.518263341E+01  1.390219451E+00 -7.692990718E+02  7.694647941E+02  4.750000000E+00  0.00000E+00  9.000E+00
      21     1     1     2   502   511 -2.043863439E+00 -9.537242056E+00  3.107667766E+02  3.109198061E+02  5.394796609E-06  0.00000E+00  9.000E+00
#rwgt            1           9   2.9755416344862076E-002          10     2768574           0
</event>
<event>
      6   9999  3.45752E-01  1.16597E+01 -1.00000E+00  1.80432E-01
      21    -1     0     0   501   502  0.000000000E+00  0.000000000E+00  5.548193305E+01  5.548193305E+01  0.000000000E+00  0.00000E+00  9.000E+00
      21    -1     0     0   512   503  0.000000000E+00  0.000000000E+00 -9.036488487E+02  9.036488487E+02  0.000000000E+00  0.00000E+00  9.000E+00
      25     1     1     2     0     0  2.329521341E+01 -8.366163270E+01 -2.781583579E+02  3.170803249E+02  1.250036984E+02  0.00000E+00  9.000E+00
       5     1     1     2   501     0  2.329149448E+00  1.822146469E+00  3.058480166E+01  3.109240659E+01  4.750000000E+00  0.00000E+00  9.000E+00
      -5     1     1     2     0   503 -3.723533876E+01  8.290399196E+01 -4.086496614E+02  4.186605434E+02  4.750000000E+00  0.00000E+00  9.000E+00
      21     1     1     2   512   502  1.161097590E+01 -1.064505722E+00 -1.919436981E+02  1.922975069E+02  3.814697266E-06  0.00000E+00  9.000E+00
#rwgt            1           9   3.5591388810022293               10     2771017           0
</event>
<event>
      6   9999  3.45752E-01  2.95323E+01 -1.00000E+00  1.48281E-01
      21    -1     0     0   502   503  0.000000000E+00  0.000000000E+00  2.024653433E+01  2.024653433E+01  0.000000000E+00  0.00000E+00  9.000E+00
      21    -1     0     0   511   502  0.000000000E+00  0.000000000E+00 -1.275100983E+03  1.275100983E+03  0.000000000E+00  0.00000E+00  9.000E+00
      25     1     1     2     0     0 -1.897277945E+01  3.589904466E+01 -2.400002271E+02  2.736362100E+02  1.250118340E+02  0.00000E+00  9.000E+00
       5     1     1     2   501     0 -1.920934759E+01 -2.177071678E+01 -6.997297415E+02  7.003479398E+02  4.750000000E+00  0.00000E+00  9.000E+00
      -5     1     1     2     0   503  1.472788044E+01  3.817577489E+00 -2.441154965E+01  2.915425555E+01  4.750000000E+00  0.00000E+00  9.000E+00
      21     1     1     2   511   501  2.345424660E+01 -1.794590537E+01 -2.907129301E+02  2.922091116E+02  3.814697266E-06  0.00000E+00  9.000E+00
#rwgt            1           9   1.0000619905358975E-003          10     2774022           0
</event>
<event>
      6   9999 -3.45752E-01  2.39695E+01 -1.00000E+00  1.54432E-01
      21    -1     0     0   501   502  0.000000000E+00  0.000000000E+00  5.052044583E+01  5.052044583E+01  0.000000000E+00  0.00000E+00  9.000E+00
      21    -1     0     0   502   512  0.000000000E+00  0.000000000E+00 -3.513833784E+03  3.513833784E+03  0.000000000E+00  0.00000E+00  9.000E+00
      25     1     1     2     0     0 -8.208360569E+00  1.506278493E+02 -3.110581540E+02  3.676135294E+02  1.250056224E+02  0.00000E+00  9.000E+00
       5     1     1     2   501     0  2.193705687E+00 -6.941807369E-01  2.001833879E+01  2.070243028E+01  4.750000000E+00  0.00000E+00  9.000E+00
      -5     1     1     2     0   503  1.732063226E+01 -1.287980964E+02 -2.770485914E+03  2.773536319E+03  4.750000000E+00  0.00000E+00  9.000E+00
      21     1     1     2   503   512 -1.130597738E+01 -2.113557214E+01 -4.017876095E+02  4.025019511E+02  0.000000000E+00  0.00000E+00  9.000E+00
#rwgt            1           9  -3.5428218055445182               10     2775280           0
</event>
<event>
      6   9999 -3.45752E-01  7.20601E+00 -1.00000E+00  2.03546E-01
      21    -1     0     0   501   502  0.000000000E+00  0.000000000E+00  1.050122567E+02  1.050122567E+02  0.000000000E+00  0.00000E+00  9.000E+00
      21    -1     0     0   502   511  0.000000000E+00  0.000000000E+00 -1.547926704E+03  1.547926704E+03  0.000000000E+00  0.00000E+00  9.000E+00
      25     1     1     2     0     0 -2.970576812E+00  1.697276796E+00  5.284274727E+01  1.357625744E+02  1.250096620E+02  0.00000E+00  9.000E+00
       5     1     1     2   501     0 -2.587630105E-01  2.791557701E-01  9.438023092E+00  1.057277949E+01  4.750000000E+00  0.00000E+00  9.000E+00
      -5     1     1     2     0   503 -2.088007627E+00  2.886938268E+00 -1.197762783E+01  1.336862958E+01  4.750000000E+00  0.00000E+00  9.000E+00
      21     1     1     2   503   511  5.317347450E+00 -4.863370834E+00 -1.493217589E+03  1.493234977E+03  2.157918644E-05  0.00000E+00  9.000E+00
#rwgt            1           9  -3.0884364925348011E-002          10     2778184           0
</event>
<event>
      6   9999  3.45752E-01  4.77829E+01 -1.00000E+00  1.35850E-01
      21    -1     0     0   512   502  0.000000000E+00  0.000000000E+00  3.385498397E+02  3.385498397E+02  0.000000000E+00  0.00000E+00  9.000E+00
      21    -1     0     0   502   503  0.000000000E+00  0.000000000E+00 -4.811137990E+02  4.811137990E+02  0.000000000E+00  0.00000E+00  9.000E+00
      25     1     1     2     0     0  1.404398019E+01  8.978969686E-01 -4.533138039E+02  4.704431018E+02  1.250010706E+02  0.00000E+00  9.000E+00
       5     1     1     2   501     0  2.339956337E+01  1.942181043E+01  6.462665878E+01  7.158151864E+01  4.750000000E+00  0.00000E+00  9.000E+00
      -5     1     1     2     0   503 -1.697932942E-01  9.577952968E+00 -1.145288277E+01  1.566834505E+01  4.750000000E+00  0.00000E+00  9.000E+00
      21     1     1     2   512   501 -3.727375027E+01 -2.989766036E+01  2.575760686E+02  2.619706733E+02  3.814697266E-06  0.00000E+00  9.000E+00
#rwgt            1           9  0.75809144352995717               10     2780742           0
</event>
<event>
      6   9999  3.45752E-01  2.08252E+01 -1.00000E+00  1.58882E-01
      21    -1     0     0   511   503  0.000000000E+00  0.000000000E+00  1.194269828E+01  1.194269828E+01  0.000000000E+00  0.00000E+00  9.000E+00
      21    -1     0     0   501   502  0.000000000E+00  0.000000000E+00 -1.277987072E+03  1.277987072E+03  0.000000000E+00  0.00000E+00  9.000E+00
      25     1     1     2     0     0  7.616919355E+00 -1.467414184E+01 -5.693853336E+02  5.831793134E+02  1.250004225E+02  0.00000E+00  9.000E+00
       5     1     1     2   501     0 -3.968324598E+00  6.020277477E-01 -5.385215550E+02  5.385574600E+02  4.750000000E+00  0.00000E+00  9.000E+00
      -5     1     1     2     0   503  1.612670316E+01  2.060092103E+01 -1.326048245E+02  1.352444841E+02  4.750000000E+00  0.00000E+00  9.000E+00
      21     1     1     2   511   502 -1.977529792E+01 -6.528806934E+00 -2.553266048E+01  3.294851255E+01  7.539457465E-07  0.00000E+00  9.000E+00
#rwgt            1           9   7937.2893661110211               10     2781981           0
</event>
<event>
      6   9999 -3.45752E-01  1.16810E+01 -1.00000E+00  1.80355E-01
      21    -1     0     0   501   502  0.000000000E+00  0.000000000E+00  1.072354496E+01  1.072354496E+01  0.000000000E+00  0.00000E+00  9.000E+00
      -1    -1     0     0     0   503  0.000000000E+00  0.000000000E+00 -1.575522892E+03  1.575522892E+03  0.000000000E+00  0.00000E+00  9.000E+00
      25     1     1     2     0     0 -2.943573077E+01 -5.189734253E+00 -5.767046248E+02  5.908591975E+02  1.250318817E+02  0.00000E+00  9.000E+00
       5     1     1     2   501     0 -5.328709901E-01  6.751075006E-01  8.221001967E-01  4.896740790E+00  4.750000000E+00  0.00000E+00  9.000E+00
      -5     1     1     2     0   503  2.169275465E+01  1.275821846E+01 -2.201113414E+02  2.215962835E+02  4.750000000E+00  0.00000E+00  9.000E+00
      -1     1     1     2     0   502  8.275847116E+00 -8.243591708E+00 -7.688054810E+02  7.688942151E+02  1.078959322E-05  0.00000E+00  9.000E+00
#rwgt            1           9  -6.2196831962248211E-004          10     2783579           0
</event>
<event>
      6   9999  3.45752E-01  3.06260E+01 -1.00000E+00  1.47260E-01
      21    -1     0     0   501   502  0.000000000E+00  0.000000000E+00  2.788898093E+02  2.788898093E+02  0.000000000E+00  0.00000E+00  9.000E+00
      21    -1     0     0   502   511  0.000000000E+00  0.000000000E+00 -8.806556833E+02  8.806556833E+02  0.000000000E+00  0.00000E+00  9.000E+00
      25     1     1     2     0     0 -4.982447368E+01  6.170292761E+01 -1.501572645E+02  2.108612013E+02  1.250020508E+02  0.00000E+00  9.000E+00
       5     1     1     2   501     0  3.398547589E-01  5.762098355E-01  2.380654343E+02  2.381137565E+02  4.750000000E+00  0.00000E+00  9.000E+00
      -5     1     1     2     0   503  2.351484665E+01 -7.851249686E+01 -1.583633354E+02  1.783778817E+02  4.750000000E+00  0.00000E+00  9.000E+00
      21     1     1     2   503   511  2.596977227E+01  1.623335941E+01 -5.313107085E+02  5.321926531E+02  7.629394531E-06  0.00000E+00  9.000E+00
#rwgt            1           9  0.35165260603550574               10     2785513           0
</event>
<event>
      6   9999 -3.45752E-01  8.27472E+00 -1.00000E+00  1.96295E-01
      21    -1     0     0   501   502  0.000000000E+00  0.000000000E+00  8.569546618E+00  8.569546618E+00  0.000000000E+00  0.00000E+00  9.000E+00
      21    -1     0     0   502   512  0.000000000E+00  0.000000000E+00 -1.648130045E+03  1.648130045E+03  0.000000000E+00  0.00000E+00  9.000E+00
      25     1     1     2     0     0  5.052493395E+00 -7.485026759E+00 -6.986962689E+02  7.098472166E+02  1.250001661E+02  0.00000E+00  9.000E+00
       5     1     1     2   501     0  9.896441470E-01  1.513088617E+00 -1.841420870E+00  5.405752817E+00  4.750000000E+00  0.00000E+00  9.000E+00
      -5     1     1     2     0   503 -1.969609255E+00  1.317509804E+01 -4.072877512E+01  4.311447776E+01  4.750000000E+00  0.00000E+00  9.000E+00
      21     1     1     2   503   512 -4.072528287E+00 -7.203159902E+00 -8.982940340E+02  8.983321448E+02  1.525878906E-05  0.00000E+00  9.000E+00
#rwgt            1           9  -9.0683469328193568E-004          10     2787855           0
</event>
<event>
      6   9999  3.45752E-01  3.73083E+00 -1.00000E+00  2.54283E-01
      21    -1     0     0   501   502  0.000000000E+00  0.000000000E+00  1.817262969E+03  1.817262969E+03  0.000000000E+00  0.00000E+00  9.000E+00
      21    -1     0     0   502   511  0.000000000E+00  0.000000000E+00 -7.548268772E+02  7.548268772E+02  0.000000000E+00  0.00000E+00  9.000E+00
      25     1     1     2     0     0 -3.642755653E+00 -1.494480213E+01  1.171969118E+02  1.720324187E+02  1.249936805E+02  0.00000E+00  9.000E+00
       5     1     1     2   501     0  6.445280525E+00  6.425094071E+00  1.666116499E+03  1.666148125E+03  4.750000000E+00  0.00000E+00  9.000E+00
      -5     1     1     2     0   503 -4.784737612E+00  5.359022212E+00  3.663193726E+00  9.359183797E+00  4.750000000E+00  0.00000E+00  9.000E+00
      21     1     1     2   503   511  1.982212740E+00  3.160685844E+00 -7.245405130E+02  7.245501184E+02  1.525878906E-05  0.00000E+00  9.000E+00
#rwgt            1           9   4.9623167297611068E-004          10     2790286           0
</event>
<event>
      6   9999  3.45752E-01  2.64912E+01 -1.00000E+00  1.51419E-01
      21    -1     0     0   501   502  0.000000000E+00  0.000000000E+00  7.767525074E+02  7.767525074E+02  0.000000000E+00  0.00000E+00  9.000E+00
      21    -1     0     0   502   512  0.000000000E+00  0.000000000E+00 -3.330192899E+02  3.330192899E+02  0.000000000E+00  0.00000E+00  9.000E+00
      25     1     1     2     0     0  5.883893308E+01  1.268352399E+01  3.442288874E+02  3.711326665E+02  1.249921493E+02  0.00000E+00  9.000E+00
       5     1     1     2   501     0  1.762658079E+00  4.981064637E+00  2.492383690E+02  2.493396179E+02  4.750000000E+00  0.00000E+00  9.000E+00
      -5     1     1     2     0   503 -4.813660902E+01  5.710820192E+00  1.657229340E+02  1.727321624E+02  4.750000000E+00  0.00000E+00  9.000E+00
      21     1     1     2   503   512 -1.246498213E+01 -2.337540882E+01 -3.154569730E+02  3.165673503E+02  3.814697266E-06  0.00000E+00  9.000E+00
#rwgt            1           9  0.22516199188716218               10     2797642           0
</event>
<event>
      6   9999 -3.45752E-01  4.52628E+00 -1.00000E+00  2.37239E-01
      21    -1     0     0   511   502  0.000000000E+00  0.000000000E+00  9.742061439E+00  9.742061439E+00  0.000000000E+00  0.00000E+00  9.000E+00
      21    -1     0     0   502   503  0.000000000E+00  0.000000000E+00 -7.999604092E+02  7.999604092E+02  0.000000000E+00  0.00000E+00  9.000E+00
      25     1     1     2     0     0  2.562560027E+01 -3.093873166E+00 -6.371239937E+02  6.497798269E+02  1.249823853E+02  0.00000E+00  9.000E+00
       5     1     1     2   501     0  4.819698382E-01  3.569039120E-03 -5.809634076E-01  4.809607691E+00  4.750000000E+00  0.00000E+00  9.000E+00
      -5     1     1     2     0   503 -2.173570282E+01  1.918113854E+00 -1.407200580E+02  1.424809361E+02  4.750000000E+00  0.00000E+00  9.000E+00
      21     1     1     2   511   501 -4.371867288E+00  1.172190272E+00 -1.179333276E+01  1.263210003E+01  1.685873940E-07  0.00000E+00  9.000E+00
#rwgt            1           9  -1.0408271213448426E-003          10     2799271           0
</event>
<event>
      6   9999  3.45752E-01  3.79654E+00 -1.00000E+00  2.52638E-01
      21    -1     0     0   501   502  0.000000000E+00  0.000000000E+00  2.185752905E+01  2.185752905E+01  0.000000000E+00  0.00000E+00  9.000E+00
      21    -1     0     0   512   503  0.000000000E+00  0.000000000E+00 -1.226332270E+03  1.226332270E+03  0.000000000E+00  0.00000E+00  9.000E+00
      25     1     1     2     0     0 -9.951596595E+01  7.231668744E-01 -3.924936796E+02  4.237618619E+02  1.249755042E+02  0.00000E+00  9.000E+00
       5     1     1     2   501     0 -3.494640386E-01  8.255058568E-01  2.113420129E-01  4.838465716E+00  4.750000000E+00  0.00000E+00  9.000E+00
      -5     1     1     2     0   503  9.617655810E+01 -2.446420473E+00 -6.268067133E+02  6.341649105E+02  4.750000000E+00  0.00000E+00  9.000E+00
      21     1     1     2   512   502  3.688871884E+00  8.977477417E-01 -1.853856896E+02  1.854245605E+02  2.697398305E-06  0.00000E+00  9.000E+00
#rwgt            1           9   1.5795288087918334E-004          10     2803897           0
</event>
<event>
      6   9999  3.45752E-01  7.22279E+00 -1.00000E+00  2.03420E-01
      21    -1     0     0   502   503  0.000000000E+00  0.000000000E+00  1.329790593E+02  1.329790593E+02  0.000000000E+00  0.00000E+00  9.000E+00
      21    -1     0     0   501   511  0.000000000E+00  0.000000000E+00 -4.908447728E+01  4.908447728E+01  0.000000000E+00  0.00000E+00  9.000E+00
      25     1     1     2     0     0 -4.824036712E+00  7.000677016E+00  6.646792810E+01  1.418295564E+02  1.250014271E+02  0.00000E+00  9.000E+00
       5     1     1     2   501     0 -3.889199306E-01  3.952859827E-01  1.410061256E+01  1.488950248E+01  4.750000000E+00  0.00000E+00  9.000E+00
      -5     1     1     2     0   503  4.079871361E+00 -2.626079034E-01  1.231215957E+01  1.381542929E+01  4.750000000E+00  0.00000E+00  9.000E+00
      21     1     1     2   502   511  1.133085281E+00 -7.133355095E+00 -8.986118218E+00  1.152904843E+01  1.192092896E-07  0.00000E+00  9.000E+00
#rwgt            1           9   6.3067918788187127E-002          10     2809759           0
</event>
<event>
      6   9999  3.45752E-01  1.24027E+01 -1.00000E+00  1.77853E-01
      21    -1     0     0   501   502  0.000000000E+00  0.000000000E+00  1.963842637E+02  1.963842637E+02  0.000000000E+00  0.00000E+00  9.000E+00
      21    -1     0     0   502   512  0.000000000E+00  0.000000000E+00 -3.473464931E+02  3.473464931E+02  0.000000000E+00  0.00000E+00  9.000E+00
      25     1     1     2     0     0  9.270679903E+00 -8.938650688E-01  1.350409386E+02  1.842520832E+02  1.250041222E+02  0.00000E+00  9.000E+00
       5     1     1     2   501     0  1.002354875E+00  9.910574959E-01  3.447850814E+01  3.483269921E+01  4.750000000E+00  0.00000E+00  9.000E+00
      -5     1     1     2     0   503 -9.929507969E+00 -1.249510750E+01 -3.015743931E+02  3.020337728E+02  4.750000000E+00  0.00000E+00  9.000E+00
      21     1     1     2   503   512 -3.435268097E-01  1.239791508E+01 -1.890728308E+01  2.261220162E+01  4.768371582E-07  0.00000E+00  9.000E+00
#rwgt            1           9   3.4758010809660296E-003          10     2812427           0
</event>
<event>
      6   9999  3.45752E-01  4.61584E+00 -1.00000E+00  2.35644E-01
      21    -1     0     0   501   511  0.000000000E+00  0.000000000E+00  4.798899426E+01  4.798899426E+01  0.000000000E+00  0.00000E+00  9.000E+00
      21    -1     0     0   502   503  0.000000000E+00  0.000000000E+00 -1.293252307E+03  1.293252307E+03  0.000000000E+00  0.00000E+00  9.000E+00
      25     1     1     2     0     0 -3.735755854E+00 -8.472211462E+00 -1.158054849E+03  1.164818188E+03  1.249985721E+02  0.00000E+00  9.000E+00
       5     1     1     2   501     0  1.424010184E-01  1.573574173E+00 -3.500172675E+00  6.108201248E+00  4.750000000E+00  0.00000E+00  9.000E+00
      -5     1     1     2     0   503  6.033767535E+00  1.081659533E+01 -1.265409046E+02  1.272343041E+02  4.750000000E+00  0.00000E+00  9.000E+00
      21     1     1     2   502   511 -2.440412700E+00 -3.917958043E+00  4.283261361E+01  4.308060814E+01  2.611744678E-06  0.00000E+00  9.000E+00
#rwgt            1           9   8.9891118069087648E-003          10     2816268           0
</event>
<event>
      6   9999  3.45752E-01  1.06616E+01 -1.00000E+00  1.84310E-01
      21    -1     0     0   502   503  0.000000000E+00  0.000000000E+00  6.411535124E+02  6.411535124E+02  0.000000000E+00  0.00000E+00  9.000E+00
      21    -1     0     0   501   512  0.000000000E+00  0.000000000E+00 -3.173336356E+02  3.173336356E+02  0.000000000E+00  0.00000E+00  9.000E+00
      25     1     1     2     0     0  7.554139080E+00 -2.183128637E+00  6.197692118E+02  6.322967602E+02  1.249939438E+02  0.00000E+00  9.000E+00
       5     1     1     2   501     0 -2.439633294E+00  1.357077558E+01 -3.079144407E+01  3.407041661E+01  4.750000000E+00  0.00000E+00  9.000E+00
      -5     1     1     2     0   503  8.243154127E-01 -2.533240386E+00  1.282463004E+01  1.393306995E+01  4.750000000E+00  0.00000E+00  9.000E+00
      21     1     1     2   502   512 -5.938821198E+00 -8.854406562E+00 -2.779825209E+02  2.781869013E+02  6.607249480E-06  0.00000E+00  9.000E+00
#rwgt            1           9   117.74964799300135               10     2820396           0
</event>
<event>
      6   9999  3.45752E-01  4.94702E+00 -1.00000E+00  2.30179E-01
      21    -1     0     0   511   502  0.000000000E+00  0.000000000E+00  6.663740463E+01  6.663740463E+01  0.000000000E+00  0.00000E+00  9.000E+00
      21    -1     0     0   502   503  0.000000000E+00  0.000000000E+00 -9.150280391E+02  9.150280391E+02  0.000000000E+00  0.00000E+00  9.000E+00
      25     1     1     2     0     0  2.529477528E+01  3.094009695E+01 -7.123852933E+02  7.243728275E+02  1.250042874E+02  0.00000E+00  9.000E+00
       5     1     1     2   501     0  1.939731835E+00  2.043753560E-02  7.030766700E+00  8.703858781E+00  4.750000000E+00  0.00000E+00  9.000E+00
      -5     1     1     2     0   503 -3.163150022E+01 -2.869348726E+01 -1.933322218E+02  1.980499394E+02  4.750000000E+00  0.00000E+00  9.000E+00
      21     1     1     2   511   501  4.396993105E+00 -2.267047228E+00  5.029611392E+01  5.053881802E+01  1.784161275E-06  0.00000E+00  9.000E+00
#rwgt            1           9   7.5003935544880752E-004          10     2823508           0
</event>
<event>
      6   9999  3.45752E-01  8.30432E+00 -1.00000E+00  1.96115E-01
      21    -1     0     0   512   502  0.000000000E+00  0.000000000E+00  7.578389380E+00  7.578389380E+00  0.000000000E+00  0.00000E+00  9.000E+00
      21    -1     0     0   502   503  0.000000000E+00  0.000000000E+00 -7.353738966E+02  7.353738966E+02  0.000000000E+00  0.00000E+00  9.000E+00
      25     1     1     2     0     0 -7.814857818E+00 -2.919733670E+00 -6.489615912E+02  6.609431885E+02  1.250006190E+02  0.00000E+00  9.000E+00
       5     1     1     2   501     0 -9.227219782E-01  1.168177351E-01 -5.763321897E+00  7.526183729E+00  4.750000000E+00  0.00000E+00  9.000E+00
      -5     1     1     2     0   503  4.824865977E-01  3.705762546E+00 -3.489634373E+01  3.541585485E+01  4.750000000E+00  0.00000E+00  9.000E+00
      21     1     1     2   512   501  8.255093198E+00 -9.028466116E-01 -3.817425047E+01  3.906705895E+01  4.768371582E-07  0.00000E+00  9.000E+00
#rwgt            1           9   1.6732378119148252E-003          10     2828150           0
</event>
<event>
      6   9999 -3.45752E-01  2.00653E+01 -1.00000E+00  1.60102E-01
      21    -1     0     0   501   502  0.000000000E+00  0.000000000E+00  2.066674587E+01  2.066674587E+01  0.000000000E+00  0.00000E+00  9.000E+00
      21    -1     0     0   511   503  0.000000000E+00  0.000000000E+00 -1.316099447E+03  1.316099447E+03  0.000000000E+00  0.00000E+00  9.000E+00
      25     1     1     2     0     0  9.647364527E+01  1.624431121E+01 -6.317696119E+02  6.514061937E+02  1.250045787E+02  0.00000E+00  9.000E+00
       5     1     1     2   501     0 -1.179891609E+00  1.941355996E+00 -3.860535205E-02  5.265453227E+00  4.750000000E+00  0.00000E+00  9.000E+00
      -5     1     1     2     0   503 -1.087179217E+02 -3.272364239E+00 -3.674024697E+02  3.831937266E+02  4.750000000E+00  0.00000E+00  9.000E+00
      21     1     1     2   511   502  1.342416800E+01 -1.491330296E+01 -2.962220144E+02  2.969008196E+02  0.000000000E+00  0.00000E+00  9.000E+00
#rwgt            1           9  -1.4589064082390151E-004          10     2831003           0
</event>
<event>
      6   9999  3.45752E-01  4.76638E+01 -1.00000E+00  1.35909E-01
      21    -1     0     0   501   512  0.000000000E+00  0.000000000E+00  1.238111131E+02  1.238111131E+02  0.000000000E+00  0.00000E+00  9.000E+00
      21    -1     0     0   502   503  0.000000000E+00  0.000000000E+00 -1.770262281E+03  1.770262281E+03  0.000000000E+00  0.00000E+00  9.000E+00
      25     1     1     2     0     0 -2.550195348E+02  1.341822782E+02 -9.274948275E+02  9.791412987E+02  1.242223048E+02  0.00000E+00  9.000E+00
       5     1     1     2   501     0  4.404456000E+00  6.696511181E+00  4.941269621E+01  5.028339230E+01  4.750000000E+00  0.00000E+00  9.000E+00
      -5     1     1     2     0   503  2.979475143E+02 -1.464894272E+02 -7.348279362E+02  8.063662517E+02  4.750000000E+00  0.00000E+00  9.000E+00
      21     1     1     2   502   512 -4.733243553E+01  5.610637827E+00 -3.354110045E+01  5.828245130E+01  9.536743164E-07  0.00000E+00  9.000E+00
#rwgt            1           9   5.1640952555139093E-004          10     2832749           0
</event>
<event>
      5   9999  3.45752E-01  8.94427E-01 -1.00000E+00  1.20288E-01
       4    -1     0     0   501     0  0.000000000E+00  0.000000000E+00  1.568274420E+01  1.568274420E+01  8.259061849E-07  0.00000E+00  9.000E+00
      -4    -1     0     0     0   502  0.000000000E+00  0.000000000E+00 -1.008183187E+03  1.008183187E+03  1.525878906E-05  0.00000E+00  9.000E+00
      25     1     1     2     0     0 -5.242976639E+01 -3.055351855E+01 -4.979228689E+02  5.169471045E+02  1.249989102E+02  0.00000E+00  9.000E+00
       5     1     1     2   501     0 -1.263269298E+01 -2.256085777E+01 -9.424424913E+01  9.784231309E+01  4.750000000E+00  0.00000E+00  9.000E+00
      -5     1     1     2     0   502  6.506245936E+01  5.311437632E+01 -4.003333245E+02  4.090765134E+02  4.750000000E+00  0.00000E+00  9.000E+00
#rwgt            1           6   1.1368233769419831E-005          10     2834224           0
</event>
<event>
      6   9999  3.45752E-01  4.07763E+01 -1.00000E+00  1.39703E-01
      21    -1     0     0   501   502  0.000000000E+00  0.000000000E+00  4.836446843E+01  4.836446843E+01  0.000000000E+00  0.00000E+00  9.000E+00
      21    -1     0     0   511   503  0.000000000E+00  0.000000000E+00 -5.020934439E+02  5.020934439E+02  0.000000000E+00  0.00000E+00  9.000E+00
      25     1     1     2     0     0 -5.305345180E+01  1.622593763E+01 -1.264925447E+02  1.862875644E+02  1.249989719E+02  0.00000E+00  9.000E+00
       5     1     1     2   501     0  4.690825185E-03 -2.180666953E+00  1.961730433E+00  5.582671104E+00  4.750000000E+00  0.00000E+00  9.000E+00
      -5     1     1     2     0   503  5.699534850E+01 -5.463017375E+01 -1.091492496E+02  1.347926067E+02  4.750000000E+00  0.00000E+00  9.000E+00
      21     1     1     2   511   502 -3.946587524E+00  4.058490308E+01 -2.200489117E+02  2.237950702E+02  0.000000000E+00  0.00000E+00  9.000E+00
#rwgt            1           9   1.2625396935413046E-004          10     2834569           0
</event>
<event>
      6   9999  3.45752E-01  9.30402E+00 -1.00000E+00  1.90555E-01
      21    -1     0     0   502   512  0.000000000E+00  0.000000000E+00  2.911467208E+02  2.911467208E+02  0.000000000E+00  0.00000E+00  9.000E+00
      21    -1     0     0   501   502  0.000000000E+00  0.000000000E+00 -8.472177326E+01  8.472177326E+01  0.000000000E+00  0.00000E+00  9.000E+00
      25     1     1     2     0     0 -1.513640935E+00 -1.590642917E+01 -1.764592433E+01  1.272473069E+02  1.250007714E+02  0.00000E+00  9.000E+00
       5     1     1     2   501     0  3.482729088E-01  1.756527361E+00 -2.595412453E+00  5.701346173E+00  4.750000000E+00  0.00000E+00  9.000E+00
      -5     1     1     2     0   503  9.564010133E+00  1.014645946E+01 -1.278056660E+00  1.478569776E+01  4.750000000E+00  0.00000E+00  9.000E+00
      21     1     1     2   503   512 -8.398642107E+00  4.003442354E+00  2.279443410E+02  2.281341433E+02  4.672030912E-06  0.00000E+00  9.000E+00
#rwgt            1           9   813.81100951306360               10     2835895           0
</event>
<event>
      6   9999 -3.45752E-01  5.27043E+00 -1.00000E+00  2.22214E-01
      21    -1     0     0   502   511  0.000000000E+00  0.000000000E+00  6.074505455E+00  6.074505455E+00  0.000000000E+00  0.00000E+00  9.000E+00
      21    -1     0     0   501   502  0.000000000E+00  0.000000000E+00 -4.948612411E+03  4.948612411E+03  0.000000000E+00  0.00000E+00  9.000E+00
      25     1     1     2     0     0  8.789612421E+01  6.738784154E+01 -1.568517793E+03  1.577384347E+03  1.250058504E+02  0.00000E+00  9.000E+00
       5     1     1     2   501     0 -8.607567326E+01 -6.656657824E+01 -3.333496166E+03  3.335275008E+03  4.750000000E+00  0.00000E+00  9.000E+00
      -5     1     1     2     0   503  3.215912730E+00  7.319530478E-01 -1.855361760E+01  1.943391561E+01  4.750000000E+00  0.00000E+00  9.000E+00
      21     1     1     2   503   511 -5.036363672E+00 -1.553216355E+00 -2.197032955E+01  2.259364558E+01  1.092571186E-06  0.00000E+00  9.000E+00
#rwgt            1           9  -2.2070627820888249E-002          10     2838100           0
</event>
<event>
      6   9999  3.45752E-01  1.10788E+02 -1.00000E+00  1.18574E-01
       3    -1     0     0   502     0  0.000000000E+00  0.000000000E+00  6.643251505E+02  6.643251505E+02  0.000000000E+00  0.00000E+00  9.000E+00
      21    -1     0     0   501   502  0.000000000E+00  0.000000000E+00 -1.462452981E+03  1.462452981E+03  0.000000000E+00  0.00000E+00  9.000E+00
      25     1     1     2     0     0 -5.890374263E+01  9.847796105E+01 -9.521802546E+01  1.945908891E+02  1.250263254E+02  0.00000E+00  9.000E+00
       5     1     1     2   501     0  6.433069518E+00 -1.059062160E+00 -9.549970227E+02  9.550310894E+02  4.750000000E+00  0.00000E+00  9.000E+00
      -5     1     1     2     0   503  1.175835684E+02 -7.784537759E+00 -3.477340191E+02  3.671893314E+02  4.750000000E+00  0.00000E+00  9.000E+00
       3     1     1     2   503     0 -6.511289528E+01 -8.963436113E+01  5.998212365E+02  6.099668217E+02  7.629394531E-06  0.00000E+00  9.000E+00
#rwgt            1           9   1.6723584268203253E-003          10     2842785           0
</event>
<event>
      6   9999  3.45752E-01  1.70347E+01 -1.00000E+00  1.65719E-01
      21    -1     0     0   501   511  0.000000000E+00  0.000000000E+00  6.192940193E+01  6.192940193E+01  0.000000000E+00  0.00000E+00  9.000E+00
      21    -1     0     0   502   503  0.000000000E+00  0.000000000E+00 -1.287807066E+03  1.287807066E+03  0.000000000E+00  0.00000E+00  9.000E+00
      25     1     1     2     0     0 -2.376922846E+01 -4.320540948E+00 -1.197595557E+03  1.204344607E+03  1.250086876E+02  0.00000E+00  9.000E+00
       5     1     1     2   501     0  3.061786980E+00  8.338111217E-01  3.949731830E+01  3.990827525E+01  4.750000000E+00  0.00000E+00  9.000E+00
      -5     1     1     2     0   503  5.811175394E+00 -4.776534078E+00 -8.249477731E+01  8.297310300E+01  4.750000000E+00  0.00000E+00  9.000E+00
      21     1     1     2   502   511  1.489626609E+01  8.263263905E+00  1.471535134E+01  2.251048287E+01  1.517286546E-06  0.00000E+00  9.000E+00
#rwgt            1           9   6.0364043716974215E-004          10     2843856           0
</event>
<event>
      6   9999  3.45752E-01  2.31506E+01 -1.00000E+00  1.55508E-01
      21    -1     0     0   502   512  0.000000000E+00  0.000000000E+00  1.576161816E+02  1.576161816E+02  0.000000000E+00  0.00000E+00  9.000E+00
      21    -1     0     0   501   502  0.000000000E+00  0.000000000E+00 -8.886937312E+02  8.886937312E+02  0.000000000E+00  0.00000E+00  9.000E+00
      25     1     1     2     0     0 -4.045892726E+01 -1.831295100E+01 -3.237185870E+02  3.498450179E+02  1.250020959E+02  0.00000E+00  9.000E+00
       5     1     1     2   501     0  2.433230215E+01  2.861473684E+01 -5.323982841E+02  5.337427840E+02  4.750000000E+00  0.00000E+00  9.000E+00
      -5     1     1     2     0   503 -1.790370284E+00  4.358703831E+00 -1.728108012E+01  1.853110776E+01  4.750000000E+00  0.00000E+00  9.000E+00
      21     1     1     2   503   512  1.791699540E+01 -1.466048967E+01  1.423204016E+02  1.441910032E+02  4.264961200E-06  0.00000E+00  9.000E+00
#rwgt            1           9   4.3135500016730608E-004          10     2846632           0
</event>
<event>
      6   9999  3.45752E-01  3.87577E+01 -1.00000E+00  1.40985E-01
      21    -1     0     0   501   502  0.000000000E+00  0.000000000E+00  3.302741660E+01  3.302741660E+01  0.000000000E+00  0.00000E+00  9.000E+00
      21    -1     0     0   511   503  0.000000000E+00  0.000000000E+00 -4.478150637E+02  4.478150637E+02  0.000000000E+00  0.00000E+00  9.000E+00
      25     1     1     2     0     0  2.936688428E+00 -5.693639649E+01 -3.123809756E+02  3.412599245E+02  1.250043390E+02  0.00000E+00  9.000E+00
       5     1     1     2   501     0 -1.766672133E+00 -5.817159211E+00  6.980167851E+00  1.040412009E+01  4.750000000E+00  0.00000E+00  9.000E+00
      -5     1     1     2     0   503 -2.526683900E+00  2.401957011E+01 -1.987866243E+01  3.163933627E+01  4.750000000E+00  0.00000E+00  9.000E+00
      21     1     1     2   511   502  1.356667605E+00  3.873398560E+01 -8.950817689E+01  9.753909943E+01  9.536743164E-07  0.00000E+00  9.000E+00
#rwgt            1           9   1.5829734675595489E-003          10     2848540           0
</event>
<event>
      6   9999  3.45752E-01  1.10067E+01 -1.00000E+00  1.82910E-01
      21    -1     0     0   501   502  0.000000000E+00  0.000000000E+00  6.195263474E+01  6.195263474E+01  0.000000000E+00  0.00000E+00  9.000E+00
      21    -1     0     0   512   503  0.000000000E+00  0.000000000E+00 -1.484721637E+03  1.484721637E+03  0.000000000E+00  0.00000E+00  9.000E+00
      25     1     1     2     0     0  6.282841371E+00  1.761560351E+02 -7.614412594E+02  7.915100524E+02  1.249997947E+02  0.00000E+00  9.000E+00
       5     1     1     2   501     0  5.361012726E+00 -4.577392502E+00  3.595261264E+01  3.694381998E+01  4.750000000E+00  0.00000E+00  9.000E+00
      -5     1     1     2     0   503 -9.846494721E+00 -1.607197279E+02 -6.573509171E+02  6.768017251E+02  4.750000000E+00  0.00000E+00  9.000E+00
      21     1     1     2   512   502 -1.797359376E+00 -1.085891470E+01 -3.992943874E+01  4.141867463E+01  9.536743164E-07  0.00000E+00  9.000E+00
#rwgt            1           9   1.4907188457982079E-004          10     2849301           0
</event>
<event>
      6   9999 -3.45752E-01  1.02164E+01 -1.00000E+00  1.86220E-01
      21    -1     0     0   501   502  0.000000000E+00  0.000000000E+00  3.963090394E+01  3.963090394E+01  0.000000000E+00  0.00000E+00  9.000E+00
      21    -1     0     0   502   511  0.000000000E+00  0.000000000E+00 -1.207337787E+03  1.207337787E+03  0.000000000E+00  0.00000E+00  9.000E+00
      25     1     1     2     0     0  5.805164258E+01 -2.137467220E+01 -9.355129819E+02  9.458522990E+02  1.250006496E+02  0.00000E+00  9.000E+00
       5     1     1     2   501     0 -1.758337518E+00  4.656235621E+00  3.067168298E+01  3.143384987E+01  4.750000000E+00  0.00000E+00  9.000E+00
      -5     1     1     2     0   503 -4.698539276E+01  1.250683186E+01 -1.936548659E+02  1.997218505E+02  4.750000000E+00  0.00000E+00  9.000E+00
      21     1     1     2   503   511 -9.307912299E+00  4.211604712E+00 -6.921071811E+01  6.996069145E+01  9.536743164E-07  0.00000E+00  9.000E+00
#rwgt            1           9  -4.8422920594138694E-003          10     2853128           0
</event>
<event>
      6   9999  3.45752E-01  2.29065E+01 -1.00000E+00  1.55839E-01
      21    -1     0     0   512   503  0.000000000E+00  0.000000000E+00  1.734860473E+01  1.734860473E+01  0.000000000E+00  0.00000E+00  9.000E+00
      21    -1     0     0   501   502  0.000000000E+00  0.000000000E+00 -9.480299665E+02  9.480299665E+02  0.000000000E+00  0.00000E+00  9.000E+00
      25     1     1     2     0     0  4.959818118E+00 -3.276747715E+00 -3.272214446E+02  3.503351490E+02  1.250020237E+02  0.00000E+00  9.000E+00
       5     1     1     2   501     0 -2.873958634E+01 -1.388321181E+01 -1.555660141E+02  1.588774831E+02  4.750000000E+00  0.00000E+00  9.000E+00
      -5     1     1     2     0   503  3.019601217E+01  3.914948739E+01 -4.000450401E+02  4.031167054E+02  4.750000000E+00  0.00000E+00  9.000E+00
      21     1     1     2   512   502 -6.416243941E+00 -2.198952786E+01 -4.784886296E+01  5.304923382E+01  0.000000000E+00  0.00000E+00  9.000E+00
#rwgt            1           9   4.4490040619496116E-002          10     2857175           0
</event>
<event>
      6   9999  3.45752E-01  6.08483E+00 -1.00000E+00  2.13212E-01
      21    -1     0     0   501   502  0.000000000E+00  0.000000000E+00  1.251574101E+03  1.251574101E+03  0.000000000E+00  0.00000E+00  9.000E+00
      21    -1     0     0   511   503  0.000000000E+00  0.000000000E+00 -1.938542109E+02  1.938542109E+02  0.000000000E+00  0.00000E+00  9.000E+00
      25     1     1     2     0     0  8.848726566E+00 -9.534880320E+00  5.175220930E+02  5.325609896E+02  1.249915077E+02  0.00000E+00  9.000E+00
       5     1     1     2   501     0  1.260790392E+00  5.485628286E-01  6.583732129E+02  6.583917835E+02  4.750000000E+00  0.00000E+00  9.000E+00
      -5     1     1     2     0   503 -1.243215077E+01  3.362220102E+00  6.740847737E+01  6.879191972E+01  4.750000000E+00  0.00000E+00  9.000E+00
      21     1     1     2   511   502  2.322633812E+00  5.624097389E+00 -1.855838931E+02  1.856836193E+02  2.697398305E-06  0.00000E+00  9.000E+00
#rwgt            1           9   4.2249152828236767               10     2858567           0
</event>
<event>
      6   9999  3.45752E-01  6.18770E+00 -1.00000E+00  2.12211E-01
       2    -1     0     0   501     0  0.000000000E+00  0.000000000E+00  1.267466142E+03  1.267466142E+03  0.000000000E+00  0.00000E+00  9.000E+00
      21    -1     0     0   502   503  0.000000000E+00  0.000000000E+00 -1.088842828E+03  1.088842828E+03  0.000000000E+00  0.00000E+00  9.000E+00
      25     1     1     2     0     0  3.283263878E+00 -2.221442879E+00 -1.005070820E+03  1.012823569E+03  1.250140504E+02  0.00000E+00  9.000E+00
       5     1     1     2   501     0  7.017504462E-01  7.264354252E+00  2.222573212E+01  2.387067164E+01  4.750000000E+00  0.00000E+00  9.000E+00
      -5     1     1     2     0   503  2.174576112E+00 -5.632051592E+00 -7.887885706E+01  7.925203705E+01  4.750000000E+00  0.00000E+00  9.000E+00
       2     1     1     2   502     0 -6.159590436E+00  5.891402196E-01  1.240347259E+03  1.240362693E+03  2.157918644E-05  0.00000E+00  9.000E+00
#rwgt            1           9   3.3806830492597470E-005          10     2862238           0
</event>
<event>
      6   9999  3.45752E-01  2.84631E+01 -1.00000E+00  1.49331E-01
      21    -1     0     0   501   511  0.000000000E+00  0.000000000E+00  4.344550293E+01  4.344550293E+01  0.000000000E+00  0.00000E+00  9.000E+00
      21    -1     0     0   502   503  0.000000000E+00  0.000000000E+00 -1.274449569E+03  1.274449569E+03  0.000000000E+00  0.00000E+00  9.000E+00
      25     1     1     2     0     0  5.702352560E+01  1.605903483E+02 -7.754000686E+02  8.036862840E+02  1.250017368E+02  0.00000E+00  9.000E+00
       5     1     1     2   501     0  4.162440405E+00  4.009543668E+00  9.673085874E+00  1.222838668E+01  4.750000000E+00  0.00000E+00  9.000E+00
      -5     1     1     2     0   503 -5.498997528E+01 -1.368193188E+02 -4.394217634E+02  4.635272074E+02  4.750000000E+00  0.00000E+00  9.000E+00
      21     1     1     2   502   511 -6.195990719E+00 -2.778057310E+01 -2.585531970E+01  3.845319362E+01  8.259061849E-07  0.00000E+00  9.000E+00
#rwgt            1           9   1.5302365663689694E-004          10     2866613           0
</event>
<event>
      6   9999  3.45752E-01  3.24313E+00 -1.00000E+00  2.68350E-01
      21    -1     0     0   501   502  0.000000000E+00  0.000000000E+00  7.470245252E+01  7.470245252E+01  0.000000000E+00  0.00000E+00  9.000E+00
      21    -1     0     0   502   512  0.000000000E+00  0.000000000E+00 -1.464234490E+03  1.464234490E+03  0.000000000E+00  0.00000E+00  9.000E+00
      25     1     1     2     0     0  2.665246405E+01  1.373392045E+01 -1.109547781E+03  1.116969327E+03  1.250008982E+02  0.00000E+00  9.000E+00
       5     1     1     2   501     0 -6.928932736E-01  2.708901537E+00  7.019084066E+01  7.040692339E+01  4.750000000E+00  0.00000E+00  9.000E+00
      -5     1     1     2     0   503 -2.313564557E+01 -1.484803125E+01 -3.188701548E+02  3.200882070E+02  4.750000000E+00  0.00000E+00  9.000E+00
      21     1     1     2   503   512 -2.823925209E+00 -1.594790738E+00 -3.130494254E+01  3.147248542E+01  3.371747881E-07  0.00000E+00  9.000E+00
#rwgt            1           9   3.8962736207517375E-004          10     2868670           0
</event>
<event>
      6   9999  3.45752E-01  1.79577E+01 -1.00000E+00  1.63865E-01
      21    -1     0     0   501   511  0.000000000E+00  0.000000000E+00  1.710677176E+01  1.710677176E+01  0.000000000E+00  0.00000E+00  9.000E+00
      21    -1     0     0   502   503  0.000000000E+00  0.000000000E+00 -7.341700996E+02  7.341700996E+02  0.000000000E+00  0.00000E+00  9.000E+00
      25     1     1     2     0     0  9.404494442E+00 -2.315875383E+00 -6.349762576E+02  6.472592950E+02  1.251236963E+02  0.00000E+00  9.000E+00
       5     1     1     2   501     0  5.551070783E+00 -3.705307815E+00 -3.051324856E+01  3.159374195E+01  4.750000000E+00  0.00000E+00  9.000E+00
      -5     1     1     2     0   503  1.412393647E+00  1.340824222E+01 -5.253045994E+01  5.444067906E+01  4.750000000E+00  0.00000E+00  9.000E+00
      21     1     1     2   502   511 -1.636795887E+01 -7.387059019E+00  9.566383383E-01  1.798315533E+01  3.127469400E-07  0.00000E+00  9.000E+00
#rwgt            1           9  0.15444647980384385               10     2877158           0
</event>
<event>
      6   9999  3.45752E-01  9.48853E+00 -1.00000E+00  1.89628E-01
      21    -1     0     0   501   502  0.000000000E+00  0.000000000E+00  3.912210840E+02  3.912210840E+02  0.000000000E+00  0.00000E+00  9.000E+00
      21    -1     0     0   502   512  0.000000000E+00  0.000000000E+00 -2.578024209E+01  2.578024209E+01  0.000000000E+00  0.00000E+00  9.000E+00
      25     1     1     2     0     0 -3.502791737E+01 -4.234591741E+00  2.589639577E+02  2.897108834E+02  1.250007112E+02  0.00000E+00  9.000E+00
       5     1     1     2   501     0 -5.778413370E-01 -1.187164925E+00  7.642995618E+01  7.658879789E+01  4.750000000E+00  0.00000E+00  9.000E+00
      -5     1     1     2     0   503  2.847690016E+01 -8.401524937E-01  2.936498283E+01  4.118864425E+01  4.750000000E+00  0.00000E+00  9.000E+00
      21     1     1     2   503   512  7.128858550E+00  6.261909159E+00  6.819451958E-01  9.513000567E+00  2.284304755E-07  0.00000E+00  9.000E+00
#rwgt            1           9   1.2973830230083184E-003          10     2878756           0
</event>
<event>
      6   9999 -3.45752E-01  3.94370E+01 -1.00000E+00  1.40544E-01
      21    -1     0     0   502   503  0.000000000E+00  0.000000000E+00  2.454093247E+01  2.454093247E+01  0.000000000E+00  0.00000E+00  9.000E+00
      21    -1     0     0   501   511  0.000000000E+00  0.000000000E+00 -1.560637188E+03  1.560637188E+03  0.000000000E+00  0.00000E+00  9.000E+00
      25     1     1     2     0     0 -2.286478912E+00  2.148218872E+01 -9.921109488E+02  1.000186091E+03  1.249854756E+02  0.00000E+00  9.000E+00
       5     1     1     2   501     0 -2.368257190E+00 -2.032159593E+01 -1.465178433E+01  2.560884979E+01  4.750000000E+00  0.00000E+00  9.000E+00
      -5     1     1     2     0   503  2.048617383E+01 -3.728043493E+01 -1.784033015E+01  4.637190989E+01  4.750000000E+00  0.00000E+00  9.000E+00
      21     1     1     2   502   511 -1.583143773E+01  3.611984214E+01 -5.114931920E+02  5.130112698E+02  7.629394531E-06  0.00000E+00  9.000E+00
#rwgt            1           9 -0.28820838751331063               10     2881096           0
</event>
<event>
      6   9999  3.45752E-01  2.23505E+01 -1.00000E+00  1.56612E-01
      21    -1     0     0   512   502  0.000000000E+00  0.000000000E+00  1.253646527E+02  1.253646527E+02  0.000000000E+00  0.00000E+00  9.000E+00
      21    -1     0     0   502   503  0.000000000E+00  0.000000000E+00 -3.256165952E+02  3.256165952E+02  0.000000000E+00  0.00000E+00  9.000E+00
      25     1     1     2     0     0 -1.294115114E+01 -8.131565087E+01 -1.767164719E+02  2.315980327E+02  1.250169142E+02  0.00000E+00  9.000E+00
       5     1     1     2   501     0 -1.331076481E-01 -1.246847829E+00  5.849860931E+00  7.639091573E+00  4.750000000E+00  0.00000E+00  9.000E+00
      -5     1     1     2     0   503 -1.094108304E-01  6.451438459E+01 -1.102612398E+02  1.278366977E+02  4.750000000E+00  0.00000E+00  9.000E+00
      21     1     1     2   512   501  1.318366962E+01  1.804811411E+01  8.087590828E+01  8.390742582E+01  0.000000000E+00  0.00000E+00  9.000E+00
#rwgt            1           9  0.30285439343447768               10     2881976           0
</event>
<event>
      6   9999  3.45752E-01  2.56294E+00 -1.00000E+00  2.96112E-01
      21    -1     0     0   501   502  0.000000000E+00  0.000000000E+00  4.115916854E+01  4.115916854E+01  0.000000000E+00  0.00000E+00  9.000E+00
      21    -1     0     0   502   511  0.000000000E+00  0.000000000E+00 -1.524934140E+03  1.524934140E+03  0.000000000E+00  0.00000E+00  9.000E+00
      25     1     1     2     0     0  2.480676997E+01 -5.181123202E+01 -3.795200898E+02  4.036838457E+02  1.250014765E+02  0.00000E+00  9.000E+00
       5     1     1     2   501     0 -3.984727051E+00  6.985465505E+00  2.757987047E+01  2.911849126E+01  4.750000000E+00  0.00000E+00  9.000E+00
      -5     1     1     2     0   503 -1.849359760E+01  4.589675020E+01 -8.546990611E+02  8.561434298E+02  4.750000000E+00  0.00000E+00  9.000E+00
      21     1     1     2   503   511 -2.328445312E+00 -1.070983681E+00 -2.771356914E+02  2.771475422E+02  5.394796609E-06  0.00000E+00  9.000E+00
#rwgt            1           9   4.9611111290510258E-005          10     2883461           0
</event>
<event>
      6   9999  3.45752E-01  6.26304E+00 -1.00000E+00  2.11495E-01
      21    -1     0     0   501   502  0.000000000E+00  0.000000000E+00  8.352489610E+00  8.352489610E+00  0.000000000E+00  0.00000E+00  9.000E+00
       2    -1     0     0   502     0  0.000000000E+00  0.000000000E+00 -2.869573598E+03  2.869573598E+03  0.000000000E+00  0.00000E+00  9.000E+00
      25     1     1     2     0     0  9.023009391E+00  1.067559216E+00 -7.048528806E+02  7.159088490E+02  1.250013698E+02  0.00000E+00  9.000E+00
       5     1     1     2   501     0 -3.914118150E-01 -6.621760707E-01 -9.298144643E-01  4.900891276E+00  4.750000000E+00  0.00000E+00  9.000E+00
      -5     1     1     2     0   503 -6.045950096E+00 -6.109771646E+00 -2.806372793E+01  2.973244268E+01  4.750000000E+00  0.00000E+00  9.000E+00
       2     1     1     2   503     0 -2.585647480E+00  5.704388500E+00 -2.127374686E+03  2.127383905E+03  4.315837288E-05  0.00000E+00  9.000E+00
#rwgt            1           9   2.4592269321741672E-004          10     2893054           0
</event>
<event>
      6   9999  3.45752E-01  2.47297E+02 -1.00000E+00  1.05797E-01
      21    -1     0     0   501   511  0.000000000E+00  0.000000000E+00  1.027300347E+03  1.027300347E+03  0.000000000E+00  0.00000E+00  9.000E+00
      21    -1     0     0   502   503  0.000000000E+00  0.000000000E+00 -2.517327231E+03  2.517327231E+03  0.000000000E+00  0.00000E+00  9.000E+00
      25     1     1     2     0     0 -2.117307298E+02  1.250651436E+02  8.962986744E+01  2.900520708E+02  1.250019942E+02  0.00000E+00  9.000E+00
       5     1     1     2   501     0 -6.659841585E+01  4.131842435E+01  1.884737167E+02  2.041750856E+02  4.750000000E+00  0.00000E+00  9.000E+00
      -5     1     1     2     0   503  5.268868016E+01 -6.518033534E+01 -2.384652709E+03  2.386129853E+03  4.750000000E+00  0.00000E+00  9.000E+00
      21     1     1     2   502   511  2.256404655E+02 -1.012032326E+02  6.165222404E+02  6.642705675E+02  1.705984480E-05  0.00000E+00  9.000E+00
#rwgt            1           9   3.3278507300340002E-002          10     2896030           0
</event>
<event>
      6   9999  3.45752E-01  2.31729E+01 -1.00000E+00  1.55478E-01
      21    -1     0     0   501   502  0.000000000E+00  0.000000000E+00  3.411720804E+01  3.411720804E+01  0.000000000E+00  0.00000E+00  9.000E+00
      21    -1     0     0   512   503  0.000000000E+00  0.000000000E+00 -1.317508539E+03  1.317508539E+03  0.000000000E+00  0.00000E+00  9.000E+00
      25     1     1     2     0     0  1.500275670E+01 -2.408105241E+01 -1.097076090E+03  1.104538665E+03  1.249989405E+02  0.00000E+00  9.000E+00
       5     1     1     2   501     0  5.932772456E+00 -5.097489589E-01  2.828350895E+01  2.929124463E+01  4.750000000E+00  0.00000E+00  9.000E+00
      -5     1     1     2     0   503 -1.113340885E+01  3.593089704E+00 -1.061934580E+02  1.069414611E+02  4.750000000E+00  0.00000E+00  9.000E+00
      21     1     1     2   512   502 -9.802120306E+00  2.099771166E+01 -1.084052916E+02  1.108543761E+02  1.907348633E-06  0.00000E+00  9.000E+00
#rwgt            1           9   2.0565270102732090E-004          10     2897335           0
</event>
<event>
      6   9999  3.45752E-01  8.01516E+00 -1.00000E+00  1.97918E-01
      21    -1     0     0   501   511  0.000000000E+00  0.000000000E+00  7.332197407E+00  7.332197407E+00  0.000000000E+00  0.00000E+00  9.000E+00
      21    -1     0     0   502   503  0.000000000E+00  0.000000000E+00 -1.339068088E+03  1.339068088E+03  0.000000000E+00  0.00000E+00  9.000E+00
      25     1     1     2     0     0  2.772423524E+01 -5.383630677E+00 -8.604299772E+02  8.699210630E+02  1.250011739E+02  0.00000E+00  9.000E+00
       5     1     1     2   501     0 -7.475040116E-01  5.969050623E-01 -5.669060710E+00  7.457600635E+00  4.750000000E+00  0.00000E+00  9.000E+00
      -5     1     1     2     0   503 -3.208032509E+01  1.096703228E+01 -4.512983786E+02  4.525949758E+02  4.750000000E+00  0.00000E+00  9.000E+00
      21     1     1     2   502   511  5.103593863E+00 -6.180306661E+00 -1.433847413E+01  1.642664607E+01  0.000000000E+00  0.00000E+00  9.000E+00
#rwgt            1           9  0.20084108183486676               10     2899870           0
</event>
<event>
      6   9999  3.45752E-01  3.65002E+00 -1.00000E+00  2.56379E-01
      21    -1     0     0   512   502  0.000000000E+00  0.000000000E+00  3.507206166E+03  3.507206166E+03  0.000000000E+00  0.00000E+00  9.000E+00
      21    -1     0     0   502   503  0.000000000E+00  0.000000000E+00 -3.491376790E+00  3.491376790E+00  0.000000000E+00  0.00000E+00  9.000E+00
      25     1     1     2     0     0  5.171200597E+01  3.083062282E+01  1.732699001E+03  1.738245184E+03  1.250033347E+02  0.00000E+00  9.000E+00
       5     1     1     2   501     0 -2.393713286E+01 -1.623904265E+01  1.168220138E+03  1.168587843E+03  4.750000000E+00  0.00000E+00  9.000E+00
      -5     1     1     2     0   503 -2.966180639E+01 -1.146714135E+01  5.255776910E+02  5.265603383E+02  4.750000000E+00  0.00000E+00  9.000E+00
      21     1     1     2   512   501  1.886933273E+00 -3.124438816E+00  7.721795914E+01  7.730417743E+01  9.536743164E-07  0.00000E+00  9.000E+00
#rwgt            1           9   2.7016168628649622E-002          10     2902645           0
</event>
<event>
      6   9999  3.45752E-01  3.18391E+01 -1.00000E+00  1.46186E-01
      21    -1     0     0   502   511  0.000000000E+00  0.000000000E+00  3.206471185E+02  3.206471185E+02  0.000000000E+00  0.00000E+00  9.000E+00
      21    -1     0     0   501   502  0.000000000E+00  0.000000000E+00 -7.804289234E+02  7.804289234E+02  0.000000000E+00  0.00000E+00  9.000E+00
      25     1     1     2     0     0 -6.969366682E+00 -1.507434418E+01 -5.389132794E+02  5.534689528E+02  1.249982042E+02  0.00000E+00  9.000E+00
       5     1     1     2   501     0  1.559847385E+00 -4.949347477E+00 -7.995641420E+01  8.026530904E+01  4.750000000E+00  0.00000E+00  9.000E+00
      -5     1     1     2     0   503  3.339750361E+01  4.844770718E+00 -1.514190085E+02  1.552067771E+02  4.750000000E+00  0.00000E+00  9.000E+00
      21     1     1     2   503   511 -2.798798432E+01  1.517892094E+01  3.105068972E+02  3.121350030E+02  0.000000000E+00  0.00000E+00  9.000E+00
#rwgt            1           9   1.0728899089205848E-002          10     2907960           0
</event>
<event>
      6   9999  3.45752E-01  7.48263E+00 -1.00000E+00  2.01516E-01
      21    -1     0     0   502   503  0.000000000E+00  0.000000000E+00  2.521535039E+03  2.521535039E+03  0.000000000E+00  0.00000E+00  9.000E+00
      21    -1     0     0   501   512  0.000000000E+00  0.000000000E+00 -6.547827591E+01  6.547827591E+01  0.000000000E+00  0.00000E+00  9.000E+00
      25     1     1     2     0     0  3.073826972E+00  5.673230897E+01  2.183588192E+03  2.187901014E+03  1.250018154E+02  0.00000E+00  9.000E+00
       5     1     1     2   501     0 -8.190885989E+00 -1.167946524E+01  9.182230402E+01  9.304514247E+01  4.750000000E+00  0.00000E+00  9.000E+00
      -5     1     1     2     0   503  1.240646023E+01 -4.336334254E+01  2.410106955E+02  2.452407339E+02  4.750000000E+00  0.00000E+00  9.000E+00
      21     1     1     2   502   512 -7.289401215E+00 -1.689501187E+00 -6.036442782E+01  6.082642460E+01  3.371747881E-06  0.00000E+00  9.000E+00
#rwgt            1           9   2.0367520196972314E-003          10     2908921           0
</event>
<event>
      6   9999  3.45752E-01  5.27338E+00 -1.00000E+00  2.22177E-01
      21    -1     0     0   501   511  0.000000000E+00  0.000000000E+00  4.909331951E+00  4.909331951E+00  0.000000000E+00  0.00000E+00  9.000E+00
      21    -1     0     0   502   503  0.000000000E+00  0.000000000E+00 -1.632022838E+03  1.632022838E+03  0.000000000E+00  0.00000E+00  9.000E+00
      25     1     1     2     0     0 -1.026492547E-01  4.826542572E+00 -1.253376134E+03  1.259604384E+03  1.250126605E+02  0.00000E+00  9.000E+00
       5     1     1     2   501     0 -1.433550596E+00  6.078281286E-01 -5.771192013E+00  7.635029770E+00  4.750000000E+00  0.00000E+00  9.000E+00
      -5     1     1     2     0   503 -3.603071044E+00 -4.252657133E+00 -3.603765318E+02  3.604509320E+02  4.750000000E+00  0.00000E+00  9.000E+00
      21     1     1     2   502   511  5.139270895E+00 -1.181713568E+00 -7.589648788E+00  9.241824550E+00  3.475518164E-07  0.00000E+00  9.000E+00
#rwgt            1           9   7.5282002228054657E-005          10     2912069           0
</event>
<event>
      6   9999  3.45752E-01  9.03879E+00 -1.00000E+00  1.91938E-01
       1    -1     0     0   501     0  0.000000000E+00  0.000000000E+00  6.761854760E+02  6.761854760E+02  0.000000000E+00  0.00000E+00  9.000E+00
      21    -1     0     0   502   503  0.000000000E+00  0.000000000E+00 -1.428627374E+03  1.428627374E+03  0.000000000E+00  0.00000E+00  9.000E+00
      25     1     1     2     0     0 -1.586897893E+02  8.918673443E+01 -4.380108575E+02  4.905253303E+02  1.249994623E+02  0.00000E+00  9.000E+00
       5     1     1     2   501     0 -3.005257074E+00 -5.741828360E+00  3.514783643E+01  3.605458457E+01  4.750000000E+00  0.00000E+00  9.000E+00
      -5     1     1     2     0   503  1.546283835E+02 -8.908068774E+01 -9.556066205E+02  9.721377894E+02  4.750000000E+00  0.00000E+00  9.000E+00
       1     1     1     2   502     0  7.066662876E+00  5.635781663E+00  6.060277435E+02  6.060951457E+02  0.000000000E+00  0.00000E+00  9.000E+00
#rwgt            1           9   1.5628989929081363E-004          10     2916265           0
</event>
<event>
      6   9999  3.45752E-01  9.58818E+01 -1.00000E+00  1.21216E-01
      21    -1     0     0   501   502  0.000000000E+00  0.000000000E+00  2.675372701E+03  2.675372701E+03  0.000000000E+00  0.00000E+00  9.000E+00
      21    -1     0     0   511   503  0.000000000E+00  0.000000000E+00 -1.367812355E+02  1.367812355E+02  0.000000000E+00  0.00000E+00  9.000E+00
      25     1     1     2     0     0  1.933885894E+02  9.700848066E+01  5.130740739E+02  5.706835759E+02  1.249997864E+02  0.00000E+00  9.000E+00
       5     1     1     2   501     0  2.744169199E+00  1.268371213E+01  6.166926412E+02  6.168474554E+02  4.750000000E+00  0.00000E+00  9.000E+00
      -5     1     1     2     0   503 -1.604900990E+02 -2.068139345E+01  1.490137087E+03  1.498904897E+03  4.750000000E+00  0.00000E+00  9.000E+00
      21     1     1     2   511   502 -3.564265967E+01 -8.901079935E+01 -8.131233593E+01  1.257180081E+02  2.132480600E-06  0.00000E+00  9.000E+00
#rwgt            1           9   2.1255314307716921E-004          10     2920903           0
</event>
<event>
      6   9999  3.45752E-01  5.57032E+00 -1.00000E+00  2.18654E-01
      21    -1     0     0   501   502  0.000000000E+00  0.000000000E+00  1.618667684E+01  1.618667684E+01  0.000000000E+00  0.00000E+00  9.000E+00
      21    -1     0     0   512   503  0.000000000E+00  0.000000000E+00 -9.175635736E+02  9.175635736E+02  0.000000000E+00  0.00000E+00  9.000E+00
      25     1     1     2     0     0  6.906866655E-01 -8.981794981E+00 -7.043645863E+02  7.154272301E+02  1.250020058E+02  0.00000E+00  9.000E+00
       5     1     1     2   501     0  5.452950557E+00  1.206381645E+00  9.083047075E+00  1.167280046E+01  4.750000000E+00  0.00000E+00  9.000E+00
      -5     1     1     2     0   503 -5.937619614E-01  8.252199380E+00 -1.355181662E+02  1.358535507E+02  4.750000000E+00  0.00000E+00  9.000E+00
      21     1     1     2   512   502 -5.549875262E+00 -4.767860442E-01 -7.057719124E+01  7.079666916E+01  1.348699152E-06  0.00000E+00  9.000E+00
#rwgt            1           9   1.9245784621227378E-005          10     2921849           0
</event>
<event>
      6   9999  3.45752E-01  3.77492E+00 -1.00000E+00  2.53173E-01
      21    -1     0     0   501   502  0.000000000E+00  0.000000000E+00  9.530148539E+00  9.530148539E+00  0.000000000E+00  0.00000E+00  9.000E+00
      21    -1     0     0   502   511  0.000000000E+00  0.000000000E+00 -1.348041360E+03  1.348041360E+03  0.000000000E+00  0.00000E+00  9.000E+00
      25     1     1     2     0     0  3.875807214E+00 -7.515460067E-02 -1.154099632E+03  1.160855623E+03  1.249991547E+02  0.00000E+00  9.000E+00
       5     1     1     2   501     0 -6.147767431E-01  1.393345345E+00  4.790707764E+00  6.916121932E+00  4.750000000E+00  0.00000E+00  9.000E+00
      -5     1     1     2     0   503 -5.341622168E+00  1.831600744E+00 -4.954693174E+01  5.009339911E+01  4.750000000E+00  0.00000E+00  9.000E+00
      21     1     1     2   503   511  2.080591697E+00 -3.149791489E+00 -1.396553554E+02  1.397063647E+02  0.000000000E+00  0.00000E+00  9.000E+00
#rwgt            1           9   6.6743375917176619E-004          10     2926097           0
</event>
<event>
      6   9999 -3.45752E-01  6.73167E+00 -1.00000E+00  2.07326E-01
      21    -1     0     0   502   512  0.000000000E+00  0.000000000E+00  3.722319504E+01  3.722319504E+01  0.000000000E+00  0.00000E+00  9.000E+00
      21    -1     0     0   501   502  0.000000000E+00  0.000000000E+00 -8.220374640E+02  8.220374640E+02  0.000000000E+00  0.00000E+00  9.000E+00
      25     1     1     2     0     0  1.642700078E+00 -1.509718156E+01 -3.478032354E+02  3.698959805E+02  1.250012898E+02  0.00000E+00  9.000E+00
       5     1     1     2   501     0  9.924594070E+00  6.176877239E+00 -3.589352028E+02  3.591569207E+02  4.750000000E+00  0.00000E+00  9.000E+00
      -5     1     1     2     0   503 -7.588766629E+00  3.490139363E+00 -1.034808399E+02  1.039260178E+02  4.750000000E+00  0.00000E+00  9.000E+00
      21     1     1     2   503   512 -3.978527518E+00  5.430164958E+00  2.540500912E+01  2.628174007E+01  3.371747881E-07  0.00000E+00  9.000E+00
#rwgt            1           9  -8.9405961812949394E-003          10     2930859           0
</event>
<event>
      6   9999  3.45752E-01  1.19749E+01 -1.00000E+00  1.79309E-01
      21    -1     0     0   501   511  0.000000000E+00  0.000000000E+00  1.335327973E+02  1.335327973E+02  0.000000000E+00  0.00000E+00  9.000E+00
      21    -1     0     0   502   503  0.000000000E+00  0.000000000E+00 -9.950857976E+02  9.950857976E+02  0.000000000E+00  0.00000E+00  9.000E+00
      25     1     1     2     0     0 -1.181604768E+01 -7.914500485E-02 -2.543233877E+02  2.836289755E+02  1.250015400E+02  0.00000E+00  9.000E+00
       5     1     1     2   501     0 -1.469407882E+00 -2.276790219E+00  4.346384431E+00  6.985448507E+00  4.750000000E+00  0.00000E+00  9.000E+00
      -5     1     1     2     0   503  3.453801305E+00 -4.480495883E+00 -7.244545489E+02  7.244922081E+02  4.750000000E+00  0.00000E+00  9.000E+00
      21     1     1     2   502   511  9.831654257E+00  6.836431108E+00  1.128785519E+02  1.135119628E+02  2.336015456E-06  0.00000E+00  9.000E+00
#rwgt            1           9   4.2561542003902449E-002          10     2934238           0
</event>
<event>
      6   9999  3.45752E-01  6.79751E+00 -1.00000E+00  2.06777E-01
      21    -1     0     0   501   512  0.000000000E+00  0.000000000E+00  1.590276305E+01  1.590276305E+01  0.000000000E+00  0.00000E+00  9.000E+00
      21    -1     0     0   502   503  0.000000000E+00  0.000000000E+00 -8.603387839E+02  8.603387839E+02  0.000000000E+00  0.00000E+00  9.000E+00
      25     1     1     2     0     0 -4.604871811E+00 -5.933164288E+00 -8.316871461E+02  8.410610320E+02  1.249949730E+02  0.00000E+00  9.000E+00
       5     1     1     2   501     0  2.072244678E+00 -9.269777928E-01  8.540589142E+00  1.003282855E+01  4.750000000E+00  0.00000E+00  9.000E+00
      -5     1     1     2     0   503 -2.298364747E+00  2.078131733E+00 -1.436676348E+01  1.544563061E+01  4.750000000E+00  0.00000E+00  9.000E+00
      21     1     1     2   502   512  4.830991881E+00  4.782010348E+00 -6.922700416E+00  9.702055791E+00  1.460009660E-07  0.00000E+00  9.000E+00
#rwgt            1           9   6.7707139817052109E-004          10     2937027           0
</event>
<event>
      6   9999 -3.45752E-01  6.80546E+00 -1.00000E+00  2.06711E-01
      21    -1     0     0   511   502  0.000000000E+00  0.000000000E+00  7.547369006E+01  7.547369006E+01  0.000000000E+00  0.00000E+00  9.000E+00
      21    -1     0     0   502   503  0.000000000E+00  0.000000000E+00 -1.438727929E+03  1.438727929E+03  0.000000000E+00  0.00000E+00  9.000E+00
      25     1     1     2     0     0  6.611636170E+01 -1.293476163E+02 -2.364440090E+02  3.043578275E+02  1.250029546E+02  0.00000E+00  9.000E+00
       5     1     1     2   501     0  1.628777422E+02  6.792152684E+01 -3.161796414E+02  3.621251453E+02  4.750000000E+00  0.00000E+00  9.000E+00
      -5     1     1     2     0   503 -2.298429875E+02  6.817839453E+01 -7.993791244E+02  8.345691340E+02  4.750000000E+00  0.00000E+00  9.000E+00
      21     1     1     2   511   501  8.488836367E-01 -6.752305056E+00 -1.125146380E+01  1.314951195E+01  2.064765462E-07  0.00000E+00  9.000E+00
#rwgt            1           9  -9.2664533632472282E-005          10     2940261           0
</event>
<event>
      6   9999  3.45752E-01  3.35286E+01 -1.00000E+00  1.44780E-01
      21    -1     0     0   501   502  0.000000000E+00  0.000000000E+00  3.904292724E+01  3.904292724E+01  0.000000000E+00  0.00000E+00  9.000E+00
      21    -1     0     0   512   503  0.000000000E+00  0.000000000E+00 -4.506537913E+03  4.506537913E+03  0.000000000E+00  0.00000E+00  9.000E+00
      25     1     1     2     0     0  2.353761829E+02 -1.066624331E+02 -7.594241535E+02  8.118701175E+02  1.250168812E+02  0.00000E+00  9.000E+00
       5     1     1     2   501     0  1.196264739E-03 -4.009829735E+00  7.097986486E+00  9.435181402E+00  4.750000000E+00  0.00000E+00  9.000E+00
      -5     1     1     2     0   503 -2.039375933E+02  9.902281122E+01 -3.233292916E+03  3.241234596E+03  4.750000000E+00  0.00000E+00  9.000E+00
      21     1     1     2   512   502 -3.143978585E+01  1.164945162E+01 -4.818759022E+02  4.830409454E+02  5.394796609E-06  0.00000E+00  9.000E+00
#rwgt            1           9   6.8106403879849480E-004          10     2945930           0
</event>
<event>
      6   9999  3.45752E-01  7.13403E+01 -1.00000E+00  1.27016E-01
      21    -1     0     0   501   511  0.000000000E+00  0.000000000E+00  1.344218305E+01  1.344218305E+01  0.000000000E+00  0.00000E+00  9.000E+00
      -3    -1     0     0     0   502  0.000000000E+00  0.000000000E+00 -1.371765737E+03  1.371765737E+03  0.000000000E+00  0.00000E+00  9.000E+00
      25     1     1     2     0     0 -2.547543471E+01 -5.538816838E+01 -7.247380551E+02  7.379620408E+02  1.250035125E+02  0.00000E+00  9.000E+00
       5     1     1     2   501     0 -5.515325992E+00 -1.281735667E+01 -9.380598508E+00  1.747173664E+01  4.750000000E+00  0.00000E+00  9.000E+00
      -5     1     1     2     0   502  1.102038126E+01 -2.825585646E-01 -1.073387236E+02  1.080078365E+02  4.750000000E+00  0.00000E+00  9.000E+00
      -3     1     1     2     0   511  1.997037944E+01  6.848808362E+01 -5.168661768E+02  5.217663063E+02  0.000000000E+00  0.00000E+00  9.000E+00
#rwgt            1           8   1.7025368439025005E-007          10     2948274           0
</event>
<event>
      6   9999  3.45752E-01  7.56137E+00 -1.00000E+00  2.00960E-01
      21    -1     0     0   501   502  0.000000000E+00  0.000000000E+00  2.703238189E+01  2.703238189E+01  0.000000000E+00  0.00000E+00  9.000E+00
      21    -1     0     0   512   503  0.000000000E+00  0.000000000E+00 -1.732969681E+03  1.732969681E+03  0.000000000E+00  0.00000E+00  9.000E+00
      25     1     1     2     0     0  9.116187837E+00 -3.396807805E+01 -3.728584505E+02  3.948239567E+02  1.250023900E+02  0.00000E+00  9.000E+00
       5     1     1     2   501     0 -8.360047104E-01  4.049069729E+00  1.504665454E+01  1.631129003E+01  4.750000000E+00  0.00000E+00  9.000E+00
      -5     1     1     2     0   503 -7.198302798E-01  3.004323783E+01 -6.611291150E+02  6.618288174E+02  4.750000000E+00  0.00000E+00  9.000E+00
      21     1     1     2   512   502 -7.560352847E+00 -1.242295147E-01 -6.869963882E+02  6.870379988E+02  1.078959322E-05  0.00000E+00  9.000E+00
#rwgt            1           9   4.2756062215773320E-002          10     2948749           0
</event>
<event>
      6   9999 -3.45752E-01  1.00055E+01 -1.00000E+00  1.87168E-01
      21    -1     0     0   501   502  0.000000000E+00  0.000000000E+00  2.050348680E+02  2.050348680E+02  0.000000000E+00  0.00000E+00  9.000E+00
      21    -1     0     0   511   503  0.000000000E+00  0.000000000E+00 -4.373746518E+01  4.373746518E+01  0.000000000E+00  0.00000E+00  9.000E+00
      25     1     1     2     0     0 -2.054627794E+01 -2.992179692E+00  8.632684265E+01  1.533251805E+02  1.250007381E+02  0.00000E+00  9.000E+00
       5     1     1     2   501     0 -7.610644344E-01 -2.429527429E+00  5.876038025E+01  5.900700475E+01  4.750000000E+00  0.00000E+00  9.000E+00
      -5     1     1     2     0   503  1.411609811E+01 -1.535045556E+00  2.063916152E+01  2.549819756E+01  4.750000000E+00  0.00000E+00  9.000E+00
      21     1     1     2   511   502  7.191244259E+00  6.956752677E+00 -4.428981545E+00  1.094195044E+01  1.032382731E-07  0.00000E+00  9.000E+00
#rwgt            1           9  -5.4173348628062045E-004          10     2953245           0
</event>
<event>
      6   9999  3.45752E-01  3.64436E+01 -1.00000E+00  1.42572E-01
      21    -1     0     0   501   502  0.000000000E+00  0.000000000E+00  1.102227929E+03  1.102227929E+03  0.000000000E+00  0.00000E+00  9.000E+00
       2    -1     0     0   502     0  0.000000000E+00  0.000000000E+00 -2.678112125E+02  2.678112125E+02  0.000000000E+00  0.00000E+00  9.000E+00
      25     1     1     2     0     0  1.078617734E+01 -2.408795176E+01  4.939810345E+02  5.102401713E+02  1.250247931E+02  0.00000E+00  9.000E+00
       5     1     1     2   501     0 -4.751376857E+00 -5.401846384E+00  5.696972712E+02  5.697624934E+02  4.750000000E+00  0.00000E+00  9.000E+00
      -5     1     1     2     0   503 -2.228947095E+01 -3.127972825E+00  2.453754705E+01  3.363418565E+01  4.750000000E+00  0.00000E+00  9.000E+00
       2     1     1     2   503     0  1.625467047E+01  3.261777097E+01 -2.537991363E+02  2.564022911E+02  9.344061824E-06  0.00000E+00  9.000E+00
#rwgt            1           9   3.3080470317885315               10     2955299           0
</event>
<event>
      6   9999  3.45752E-01  7.31839E+00 -1.00000E+00  2.02707E-01
      21    -1     0     0   511   502  0.000000000E+00  0.000000000E+00  1.224894277E+01  1.224894277E+01  0.000000000E+00  0.00000E+00  9.000E+00
      21    -1     0     0   502   503  0.000000000E+00  0.000000000E+00 -2.983793964E+03  2.983793964E+03  0.000000000E+00  0.00000E+00  9.000E+00
      25     1     1     2     0     0  2.004848603E+01 -6.037999415E+01 -1.414401623E+03  1.421339365E+03  1.250038154E+02  0.00000E+00  9.000E+00
       5     1     1     2   501     0 -2.517860491E+00  7.692049979E-01  3.142605903E+00  6.274533420E+00  4.750000000E+00  0.00000E+00  9.000E+00
      -5     1     1     2     0   503 -1.042382093E+01  6.135784245E+01 -1.559849255E+03  1.561097596E+03  4.750000000E+00  0.00000E+00  9.000E+00
      21     1     1     2   511   501 -7.106804609E+00 -1.747053305E+00 -4.367489851E-01  7.331413006E+00  5.190600856E-07  0.00000E+00  9.000E+00
#rwgt            1           9   4.5067851381295826E-003          10     2956580           0
</event>
</LesHouchesEvents>
 #Random number generator exit values:           10       2960294             0
