<LesHouchesEvents version="3.0">
<!--
file generated with POWHEG-BOX-V2
Input file powheg.input contained:
numevts 1000    ! number of events to be generated

! Production parameters for ttH production
hmass 125.d0      ! mass of the HIggs boson [GeV]
hwidth 0.00498d0  ! width of the Higgs boson [GeV]

hdecaymode -1    ! -1 no decay
                ! 0 all decay channels open
                ! 1-6 d dbar, u ubar,..., t tbar
                ! 7-9 e+ e-, mu+ mu-, tau+ tau-
                ! 10  W+W-
                ! 11  ZZ
                ! 12  gamma gamma

#pythiatune 320	! PYTHIA tune


ih1   1           ! hadron 1 (1 for protons, -1 for antiprotons)
ih2   1           ! hadron 2 (1 for protons, -1 for antiprotons)
ebeam1 6500d0     ! energy of beam 1
ebeam2 6500d0     ! energy of beam 2

! To be set only if using 'native' pdfs
!ndns1 131         ! pdf set for hadron 1 (mlm numbering)
!ndns2 131         ! pdf set for hadron 2 (mlm numbering)
! To be set only if using LHA pdfs
! 10050 cteq6m
! 10042 cteq6l with LO alphas (corr. to vbfnlo LO set)
! 10041 cteq6l with NLO alphas
! 21000 MSTW2008 LO
! 21100 MSTW2008 NLO
! 23300 MSTW2008 NLO, NF=4
! 11082 CT10 Nf4

lhans1  23300      ! pdf set for hadron 1 (LHA numbering)
lhans2  23300      ! pdf set for hadron 2 (LHA numbering)

#bornktmin 1d0    ! Generation cut; minimum kt in underlying born
#bornsuppfact 1d0 ! (default 0d0) switch for Born suppression factor. If < 0 suppfact = 1
delta_mbbmin 0d0 ! generation cut on mbb (no gencut used, if set to 0)

use-old-grid    1 ! if 1 use old grid if file pwggrids.dat is present (<> 1 regenerate)
use-old-ubound  1 ! if 1 use norm of upper bounding function stored in pwgubound.dat, if present; <>

ncall1  500000  ! number of calls for initializing the integration grid
itmx1    2     ! number of iterations for initializing the integration grid
ncall2  50000  ! number of calls for computing the integral and finding upper bound
itmx2     1     ! number of iterations for computing the integral and finding upper bound
foldcsi   1    ! number of folds on csi integration
foldy     1    ! number of folds on  y  integration
foldphi   1    ! number of folds on phi integration
nubound 10000  ! number of bbarra calls to setup norm of upper bounding function
icsimax  1     ! <= 100, number of csi subdivision when computing the upper bounds
iymax    1     ! <= 100, number of y subdivision when computing the upper bounds
xupbound 2d0   ! increase upper bound for radiation generation

#runningscales 2	   ! default 0 (no running scales); 1,2: use running scales
renscfact 1d0   ! (default 1d0) ren scale factor: muren  = muref * renscfact
facscfact 1d0   ! (default 1d0) fac scale factor: mufact = muref * facscfact
testplots  1       ! (default 0, do not) do NLO and PWHG distributions

#bornonly   1      ! (default 0) if 1 do Born only
#fakevirt   1      ! (default 0) if 1 use Born for virtuals

iseed    2

manyseeds  1       ! Used to perform multiple runs with different random
                   ! seeds in the same directory.
                   ! If set to 1, the program asks for an integer j;
                   ! The file pwgseeds.dat at line j is read, and the
                   ! integer at line j is used to initialize the random
                   ! sequence for the generation of the event.
                   ! The event file is called pwgevents-'j'.lhe

#storeinfo_rwgt 1   ! store info for reweighting events
#compute_rwgt 1   ! store info for reweighting events
#xgriditeration 1   ! identifier for grid generation
#parallelstage  4   ! identifier for parallel running stages


toploop 1	! 1 include top loop effects; 0 disregard top loop effects
msbar  1	! 1 MSbar renormalization; 0 On-Shell renormalization
parallelstage 4
End of powheg.input content
PDF package: lha
 Random number generator initialized with:            2             0             0
-->
<init>
     2212     2212  6.50000E+03  6.50000E+03     -1     -1     -1     -1     -4      1
  3.37328E-01  1.60874E-01  1.00000E+00   9999
</init>
<event>
      6   9999  3.45752E-01  2.00938E+01 -1.00000E+00  1.60055E-01
      21    -1     0     0   511   502  0.000000000E+00  0.000000000E+00  5.039465050E+00  5.039465050E+00  0.000000000E+00  0.00000E+00  9.000E+00
      21    -1     0     0   502   503  0.000000000E+00  0.000000000E+00 -4.579685506E+03  4.579685506E+03  0.000000000E+00  0.00000E+00  9.000E+00
      25     1     1     2     0     0  5.967658696E+00 -5.672585097E+00 -3.336398282E+03  3.338748932E+03  1.249925544E+02  0.00000E+00  9.000E+00
       5     1     1     2   501     0 -3.710189040E+00 -2.254257716E+00 -4.965094233E+02  4.965511223E+02  4.750000000E+00  0.00000E+00  9.000E+00
      -5     1     1     2     0   503 -5.723770257E+00 -1.186573693E+01 -7.187748465E+02  7.189112600E+02  4.750000000E+00  0.00000E+00  9.000E+00
      21     1     1     2   511   501  3.466300602E+00  1.979257974E+01 -2.296348879E+01  3.051365711E+01  2.900487199E-06  0.00000E+00  9.000E+00
#rwgt            1           9   5.2467214322025934E-004           2         461           0
</event>
<event>
      6   9999  3.45752E-01  3.03675E+01 -1.00000E+00  1.47497E-01
      21    -1     0     0   512   502  0.000000000E+00  0.000000000E+00  8.498441453E+01  8.498441453E+01  0.000000000E+00  0.00000E+00  9.000E+00
      21    -1     0     0   502   503  0.000000000E+00  0.000000000E+00 -1.428866104E+02  1.428866104E+02  0.000000000E+00  0.00000E+00  9.000E+00
      25     1     1     2     0     0 -2.162555944E+01  1.251800790E+01 -1.025600115E+02  1.636138489E+02  1.250062809E+02  0.00000E+00  9.000E+00
       5     1     1     2   501     0 -1.909513602E+00  2.190353252E+00  5.388850276E+00  7.748941661E+00  4.750000000E+00  0.00000E+00  9.000E+00
      -5     1     1     2     0   503 -4.453653807E-01  3.922812996E+00 -8.041592771E-01  6.228642249E+00  4.750000000E+00  0.00000E+00  9.000E+00
      21     1     1     2   512   501  2.398043842E+01 -1.863117414E+01  4.007312455E+01  5.027959216E+01  8.259061849E-07  0.00000E+00  9.000E+00
#rwgt            1           9   1.9621002002947001E-003           2        1675           0
</event>
<event>
      6   9999  3.45752E-01  9.59153E+00 -1.00000E+00  1.89122E-01
      21    -1     0     0   501   502  0.000000000E+00  0.000000000E+00  1.067269540E+02  1.067269540E+02  0.000000000E+00  0.00000E+00  9.000E+00
      21    -1     0     0   502   511  0.000000000E+00  0.000000000E+00 -8.554869390E+01  8.554869390E+01  0.000000000E+00  0.00000E+00  9.000E+00
      25     1     1     2     0     0 -1.112392231E+01 -7.206104573E+00  3.347123940E+01  1.300813613E+02  1.250006684E+02  0.00000E+00  9.000E+00
       5     1     1     2   501     0 -2.404209318E-01 -3.101085065E-01  1.434145371E+01  1.511270208E+01  4.750000000E+00  0.00000E+00  9.000E+00
      -5     1     1     2     0   503  3.414742215E+00  2.149537739E+00  8.568478580E+00  1.059539060E+01  4.750000000E+00  0.00000E+00  9.000E+00
      21     1     1     2   503   511  7.949601030E+00  5.366675341E+00 -3.520291159E+01  3.648619389E+01  4.768371582E-07  0.00000E+00  9.000E+00
#rwgt            1           9   5.9767771308960168E-005           2        2739           0
</event>
<event>
      6   9999  3.45752E-01  1.93249E+01 -1.00000E+00  1.61357E-01
      21    -1     0     0   501   502  0.000000000E+00  0.000000000E+00  1.390114863E+01  1.390114863E+01  0.000000000E+00  0.00000E+00  9.000E+00
       2    -1     0     0   502     0  0.000000000E+00  0.000000000E+00 -2.079686762E+03  2.079686762E+03  0.000000000E+00  0.00000E+00  9.000E+00
      25     1     1     2     0     0 -2.054649214E+01 -8.866545341E+00 -7.557488180E+02  7.663431763E+02  1.249992559E+02  0.00000E+00  9.000E+00
       5     1     1     2   501     0  1.495736096E-01 -2.147969236E+00  1.231247991E+00  5.358602030E+00  4.750000000E+00  0.00000E+00  9.000E+00
      -5     1     1     2     0   503  2.909421012E+01 -6.242673403E+00 -3.812065284E+01  4.859208482E+01  4.750000000E+00  0.00000E+00  9.000E+00
       2     1     1     2   503     0 -8.697291589E+00  1.725718798E+01 -1.273147391E+03  1.273294048E+03  1.525878906E-05  0.00000E+00  9.000E+00
#rwgt            1           9   1.4468044877840268E-003           2        4833           0
</event>
<event>
      6   9999 -3.45752E-01  3.12677E+01 -1.00000E+00  1.46685E-01
      21    -1     0     0   511   502  0.000000000E+00  0.000000000E+00  5.188048897E+01  5.188048897E+01  0.000000000E+00  0.00000E+00  9.000E+00
      21    -1     0     0   502   503  0.000000000E+00  0.000000000E+00 -7.721197885E+02  7.721197885E+02  0.000000000E+00  0.00000E+00  9.000E+00
      25     1     1     2     0     0  5.657381606E+00 -5.712958873E+00 -6.951614865E+02  7.063548676E+02  1.249922512E+02  0.00000E+00  9.000E+00
       5     1     1     2   501     0  8.157648337E+00 -1.819711608E+01 -3.462112534E+01  4.023514732E+01  4.750000000E+00  0.00000E+00  9.000E+00
      -5     1     1     2     0   503  4.680467234E+00 -1.300785972E+00 -2.784998309E+01  2.866675558E+01  4.750000000E+00  0.00000E+00  9.000E+00
      21     1     1     2   511   501 -1.849549718E+01  2.521086093E+01  3.739329540E+01  4.874350691E+01  8.259061849E-07  0.00000E+00  9.000E+00
#rwgt            1           9  -4.1467777329813865E-003           2        7104           0
</event>
<event>
      6   9999  3.45752E-01  1.09550E+01 -1.00000E+00  1.83116E-01
      21    -1     0     0   502   503  0.000000000E+00  0.000000000E+00  7.845946218E+01  7.845946218E+01  0.000000000E+00  0.00000E+00  9.000E+00
      21    -1     0     0   512   502  0.000000000E+00  0.000000000E+00 -9.672167680E+01  9.672167680E+01  0.000000000E+00  0.00000E+00  9.000E+00
      25     1     1     2     0     0  8.801188639E+00 -5.931451874E+00  1.980163679E+01  1.269991669E+02  1.249961620E+02  0.00000E+00  9.000E+00
       5     1     1     2   501     0 -4.395741904E+00 -3.361509805E+00 -7.514232408E+00  1.047131719E+01  4.750000000E+00  0.00000E+00  9.000E+00
      -5     1     1     2     0   503  8.924243298E-02 -6.974853856E-01  4.591341651E-01  4.823666060E+00  4.750000000E+00  0.00000E+00  9.000E+00
      21     1     1     2   512   501 -4.494689168E+00  9.990447065E+00 -3.100875316E+01  3.288698886E+01  0.000000000E+00  0.00000E+00  9.000E+00
#rwgt            1           9   7.6247882155352901E-004           2        7996           0
</event>
<event>
      6   9999  3.45752E-01  5.02487E+00 -1.00000E+00  2.25382E-01
      21    -1     0     0   501   502  0.000000000E+00  0.000000000E+00  3.110695266E+00  3.110695266E+00  0.000000000E+00  0.00000E+00  9.000E+00
      21    -1     0     0   511   503  0.000000000E+00  0.000000000E+00 -2.974204930E+03  2.974204930E+03  0.000000000E+00  0.00000E+00  9.000E+00
      25     1     1     2     0     0  2.008161305E+01  4.594663648E+00 -2.293949735E+03  2.297442234E+03  1.249441964E+02  0.00000E+00  9.000E+00
       5     1     1     2   501     0  2.075643607E-01  1.764984528E+00 -4.270248685E+00  6.629915322E+00  4.750000000E+00  0.00000E+00  9.000E+00
      -5     1     1     2     0   503 -1.621753111E+01 -3.414991988E+00 -5.062819968E+02  5.065754566E+02  4.750000000E+00  0.00000E+00  9.000E+00
      21     1     1     2   511   502 -4.071646303E+00 -2.944656188E+00 -1.665922547E+02  1.666680192E+02  3.814697266E-06  0.00000E+00  9.000E+00
#rwgt            1           9   2.1072497573670157E-005           2        9819           0
</event>
<event>
      6   9999  3.45752E-01  9.47530E+00 -1.00000E+00  1.89693E-01
      21    -1     0     0   501   502  0.000000000E+00  0.000000000E+00  1.049151092E+03  1.049151092E+03  0.000000000E+00  0.00000E+00  9.000E+00
      21    -1     0     0   502   512  0.000000000E+00  0.000000000E+00 -2.982621173E+01  2.982621173E+01  0.000000000E+00  0.00000E+00  9.000E+00
      25     1     1     2     0     0  4.984222415E+01 -3.884968496E+01  5.859431510E+02  6.024515329E+02  1.249997120E+02  0.00000E+00  9.000E+00
       5     1     1     2   501     0  2.610198778E+00  1.216419596E+00  4.046960083E+02  4.047341281E+02  4.750000000E+00  0.00000E+00  9.000E+00
      -5     1     1     2     0   503 -4.326521100E+01  3.531456772E+01  2.208424573E+01  6.024345263E+01  4.750000000E+00  0.00000E+00  9.000E+00
      21     1     1     2   503   512 -9.187211929E+00  2.318697646E+00  6.601475571E+00  1.154819040E+01  2.064765462E-07  0.00000E+00  9.000E+00
#rwgt            1           9   2.7631719363064824E-002           2       13943           0
</event>
<event>
      6   9999  3.45752E-01  1.36370E+01 -1.00000E+00  1.74037E-01
      21    -1     0     0   501   502  0.000000000E+00  0.000000000E+00  1.880323361E+02  1.880323361E+02  0.000000000E+00  0.00000E+00  9.000E+00
      21    -1     0     0   511   503  0.000000000E+00  0.000000000E+00 -5.190419858E+01  5.190419858E+01  0.000000000E+00  0.00000E+00  9.000E+00
      25     1     1     2     0     0  5.407704261E+00 -4.204710695E+00  4.932200359E+01  1.345510207E+02  1.249975770E+02  0.00000E+00  9.000E+00
       5     1     1     2   501     0  1.074347157E+00 -4.142460239E+00  7.935061394E+01  7.960776741E+01  4.750000000E+00  0.00000E+00  9.000E+00
      -5     1     1     2     0   503  2.202246444E+00 -2.167125663E+00  1.038436441E+01  1.182978644E+01  4.750000000E+00  0.00000E+00  9.000E+00
      21     1     1     2   511   502 -8.684297862E+00  1.051429660E+01 -2.928844449E+00  1.394796014E+01  2.308477966E-07  0.00000E+00  9.000E+00
#rwgt            1           9   3.0780016093943683E-005           2       17342           0
</event>
<event>
      6   9999 -3.45752E-01  9.94131E+00 -1.00000E+00  1.87463E-01
      21    -1     0     0   501   502  0.000000000E+00  0.000000000E+00  8.567127457E+01  8.567127457E+01  0.000000000E+00  0.00000E+00  9.000E+00
       2    -1     0     0   502     0  0.000000000E+00  0.000000000E+00 -1.662987257E+03  1.662987257E+03  0.000000000E+00  0.00000E+00  9.000E+00
      25     1     1     2     0     0  1.189110612E+02  1.716168264E+02 -2.852259634E+02  3.749289055E+02  1.250026336E+02  0.00000E+00  9.000E+00
       5     1     1     2   501     0 -4.030794233E+00 -3.845369252E-01  3.097497772E+01  3.159757768E+01  4.750000000E+00  0.00000E+00  9.000E+00
      -5     1     1     2     0   503 -1.165317750E+02 -1.810354579E+02 -1.273525517E+03  1.291604931E+03  4.750000000E+00  0.00000E+00  9.000E+00
       2     1     1     2   503     0  1.651508046E+00  9.803168411E+00 -4.953947971E+01  5.052711787E+01  6.743495762E-07  0.00000E+00  9.000E+00
#rwgt            1           9  -3.0694214306356999E-004           2       19170           0
</event>
<event>
      6   9999  3.45752E-01  2.87453E+01 -1.00000E+00  1.49048E-01
      21    -1     0     0   511   502  0.000000000E+00  0.000000000E+00  2.832399147E+02  2.832399147E+02  0.000000000E+00  0.00000E+00  9.000E+00
      21    -1     0     0   502   503  0.000000000E+00  0.000000000E+00 -2.461799758E+03  2.461799758E+03  0.000000000E+00  0.00000E+00  9.000E+00
      25     1     1     2     0     0  1.368112181E+01  3.093162220E+01 -1.230666184E+03  1.237461000E+03  1.250061298E+02  0.00000E+00  9.000E+00
       5     1     1     2   501     0 -2.436007423E+01  1.056920057E+01  2.926522414E+01  3.980121934E+01  4.750000000E+00  0.00000E+00  9.000E+00
      -5     1     1     2     0   503 -1.295755124E+01 -2.514216436E+01 -1.221457161E+03  1.221793839E+03  4.750000000E+00  0.00000E+00  9.000E+00
      21     1     1     2   511   501  2.363650365E+01 -1.635865841E+01  2.442982775E+02  2.459836141E+02  9.344061824E-06  0.00000E+00  9.000E+00
#rwgt            1           9   4.6573942887645657E-003           2       23931           0
</event>
<event>
      6   9999  3.45752E-01  2.11791E+01 -1.00000E+00  1.58335E-01
      21    -1     0     0   501   502  0.000000000E+00  0.000000000E+00  1.167851464E+02  1.167851464E+02  0.000000000E+00  0.00000E+00  9.000E+00
      21    -1     0     0   502   512  0.000000000E+00  0.000000000E+00 -1.434136280E+02  1.434136280E+02  0.000000000E+00  0.00000E+00  9.000E+00
      25     1     1     2     0     0  4.507971858E+00 -1.722553783E+01 -8.393024420E+01  1.516092563E+02  1.249961589E+02  0.00000E+00  9.000E+00
       5     1     1     2   501     0 -1.405157517E+00 -5.940069805E+00  7.483818740E+01  7.523679745E+01  4.750000000E+00  0.00000E+00  9.000E+00
      -5     1     1     2     0   503 -2.000337596E+00  2.015262428E+00  4.697394675E-01  5.553898479E+00  4.750000000E+00  0.00000E+00  9.000E+00
      21     1     1     2   503   512 -1.102476745E+00  2.115034521E+01 -1.800616436E+01  2.779882214E+01  4.768371582E-07  0.00000E+00  9.000E+00
#rwgt            1           9   1.5911926261901146E-004           2       25885           0
</event>
<event>
      6   9999  3.45752E-01  2.15647E+01 -1.00000E+00  1.57753E-01
      21    -1     0     0   502   511  0.000000000E+00  0.000000000E+00  1.224253921E+01  1.224253921E+01  0.000000000E+00  0.00000E+00  9.000E+00
      21    -1     0     0   501   502  0.000000000E+00  0.000000000E+00 -9.139212718E+02  9.139212718E+02  0.000000000E+00  0.00000E+00  9.000E+00
      25     1     1     2     0     0 -3.831320497E+01 -1.625943595E+01 -7.636173894E+02  7.748986411E+02  1.249964622E+02  0.00000E+00  9.000E+00
       5     1     1     2   501     0  2.563908825E+00  1.583371513E+01 -5.177894722E+01  5.441417130E+01  4.750000000E+00  0.00000E+00  9.000E+00
      -5     1     1     2     0   503  1.752730602E+01  1.195804648E+01 -5.183232792E+01  5.620813153E+01  4.750000000E+00  0.00000E+00  9.000E+00
      21     1     1     2   503   511  1.822199012E+01 -1.153232567E+01 -3.445006800E+01  4.064286708E+01  1.168007728E-06  0.00000E+00  9.000E+00
#rwgt            1           9   3.3686676134020493E-003           2       27216           0
</event>
<event>
      6   9999  3.45752E-01  7.55752E+00 -1.00000E+00  2.00987E-01
       1    -1     0     0   501     0  0.000000000E+00  0.000000000E+00  4.249107954E+02  4.249107954E+02  0.000000000E+00  0.00000E+00  9.000E+00
      21    -1     0     0   502   503  0.000000000E+00  0.000000000E+00 -2.705711798E+03  2.705711798E+03  0.000000000E+00  0.00000E+00  9.000E+00
      25     1     1     2     0     0 -5.644813643E+00  2.832139714E+00 -2.566034940E+03  2.569085482E+03  1.250000619E+02  0.00000E+00  9.000E+00
       5     1     1     2   501     0  1.260307088E+00  3.543276573E+00  1.137447058E+00  6.164370904E+00  4.750000000E+00  0.00000E+00  9.000E+00
      -5     1     1     2     0   503 -2.413293107E+00 -3.072986900E+00 -1.355343574E+02  1.356738433E+02  4.750000000E+00  0.00000E+00  9.000E+00
       1     1     1     2   502     0  6.797799663E+00 -3.302429387E+00  4.196308476E+02  4.196988973E+02  7.629394531E-06  0.00000E+00  9.000E+00
#rwgt            1           9   6.5765615930724997E-002           2       28287           0
</event>
<event>
      6   9999 -3.45752E-01  3.62430E+00 -1.00000E+00  2.57063E-01
      21    -1     0     0   501   502  0.000000000E+00  0.000000000E+00  6.720226884E+01  6.720226884E+01  0.000000000E+00  0.00000E+00  9.000E+00
      21    -1     0     0   511   503  0.000000000E+00  0.000000000E+00 -1.202710865E+02  1.202710865E+02  0.000000000E+00  0.00000E+00  9.000E+00
      25     1     1     2     0     0 -1.274747450E+01 -1.627846705E+01 -7.249546980E+01  1.459721762E+02  1.249991859E+02  0.00000E+00  9.000E+00
       5     1     1     2   501     0 -4.474269389E-01 -5.617277289E-01  8.386585835E+00  9.665042725E+00  4.750000000E+00  0.00000E+00  9.000E+00
      -5     1     1     2     0   503  9.570740255E+00  1.680826912E+01  1.610122892E+01  2.561111189E+01  4.750000000E+00  0.00000E+00  9.000E+00
      21     1     1     2   511   502  3.624161181E+00  3.192565397E-02 -5.061162620E+00  6.225024544E+00  8.429369702E-08  0.00000E+00  9.000E+00
#rwgt            1           9  -2.4158896648726461E-003           2       31493           0
</event>
<event>
      6   9999  3.45752E-01  4.30931E+00 -1.00000E+00  2.41340E-01
      21    -1     0     0   502   503  0.000000000E+00  0.000000000E+00  9.140216359E+00  9.140216359E+00  0.000000000E+00  0.00000E+00  9.000E+00
      21    -1     0     0   512   502  0.000000000E+00  0.000000000E+00 -8.622172082E+02  8.622172082E+02  0.000000000E+00  0.00000E+00  9.000E+00
      25     1     1     2     0     0 -1.713915161E+00 -5.036467210E+00 -7.300838031E+02  7.407224765E+02  1.249764945E+02  0.00000E+00  9.000E+00
       5     1     1     2   501     0  5.782842503E-01  2.388625567E-02 -1.991909825E+00  5.183163897E+00  4.750000000E+00  0.00000E+00  9.000E+00
      -5     1     1     2     0   503  8.588133573E-01  7.121751852E-01 -5.350640193E-01  4.908517840E+00  4.750000000E+00  0.00000E+00  9.000E+00
      21     1     1     2   512   501  2.768175537E-01  4.300405769E+00 -1.204662149E+02  1.205432663E+02  1.348699152E-06  0.00000E+00  9.000E+00
#rwgt            1           9   4.4235844883766247E-005           2       37356           0
</event>
<event>
      6   9999  3.45752E-01  1.65898E+01 -1.00000E+00  1.66665E-01
      21    -1     0     0   501   511  0.000000000E+00  0.000000000E+00  4.388851801E+01  4.388851801E+01  0.000000000E+00  0.00000E+00  9.000E+00
      21    -1     0     0   502   503  0.000000000E+00  0.000000000E+00 -1.538572653E+03  1.538572653E+03  0.000000000E+00  0.00000E+00  9.000E+00
      25     1     1     2     0     0 -8.481179354E+01  2.258926775E+01 -9.969280201E+02  1.008559770E+03  1.249960700E+02  0.00000E+00  9.000E+00
       5     1     1     2   501     0  1.425169200E+00  6.687136409E-01  2.607283276E+00  5.642580196E+00  4.750000000E+00  0.00000E+00  9.000E+00
      -5     1     1     2     0   503  8.489107725E+01 -6.736580508E+00 -5.286393271E+02  5.354754684E+02  4.750000000E+00  0.00000E+00  9.000E+00
      21     1     1     2   502   511 -1.504452909E+00 -1.652140088E+01  2.827592863E+01  3.278335257E+01  1.261592536E-06  0.00000E+00  9.000E+00
#rwgt            1           9   8.3546947414258485E-002           2       42037           0
</event>
<event>
      6   9999  3.45752E-01  4.67587E+01 -1.00000E+00  1.36364E-01
      21    -1     0     0   502   512  0.000000000E+00  0.000000000E+00  1.726550619E+01  1.726550619E+01  0.000000000E+00  0.00000E+00  9.000E+00
      21    -1     0     0   501   502  0.000000000E+00  0.000000000E+00 -4.901159961E+03  4.901159961E+03  0.000000000E+00  0.00000E+00  9.000E+00
      25     1     1     2     0     0  8.093654960E+01 -3.808727279E+01 -9.890509954E+02  1.000923915E+03  1.250017838E+02  0.00000E+00  9.000E+00
       5     1     1     2   501     0  9.290358789E-01  3.604704624E+00 -3.396585562E+03  3.396590923E+03  4.750000000E+00  0.00000E+00  9.000E+00
      -5     1     1     2     0   503 -1.042926560E+02 -6.546703545E+00 -3.646265376E+02  3.793348017E+02  4.750000000E+00  0.00000E+00  9.000E+00
      21     1     1     2   503   512  2.242707048E+01  4.102927171E+01 -1.336313594E+02  1.415758272E+02  5.722045898E-06  0.00000E+00  9.000E+00
#rwgt            1           9   7.4737705147369523E-004           2       44326           0
</event>
<event>
      6   9999  3.45752E-01  1.64072E+01 -1.00000E+00  1.67064E-01
      21    -1     0     0   501   502  0.000000000E+00  0.000000000E+00  8.816229134E+00  8.816229134E+00  0.000000000E+00  0.00000E+00  9.000E+00
      21    -1     0     0   511   503  0.000000000E+00  0.000000000E+00 -9.420089999E+02  9.420089999E+02  0.000000000E+00  0.00000E+00  9.000E+00
      25     1     1     2     0     0 -1.903955147E+01 -1.770375028E+01 -6.788574990E+02  6.907592014E+02  1.249993725E+02  0.00000E+00  9.000E+00
       5     1     1     2   501     0 -1.191416771E+00 -3.895549925E-02 -2.394890385E+00  5.451512763E+00  4.750000000E+00  0.00000E+00  9.000E+00
      -5     1     1     2     0   503  5.897364364E+00  9.758800166E+00 -3.616532164E+01  3.821656809E+01  4.750000000E+00  0.00000E+00  9.000E+00
      21     1     1     2   511   502  1.433360388E+01  7.983905609E+00 -2.157750598E+02  2.163979468E+02  4.672030912E-06  0.00000E+00  9.000E+00
#rwgt            1           9   6.3120945357747764E-004           2       45757           0
</event>
<event>
      6   9999 -3.45752E-01  4.42580E+00 -1.00000E+00  2.39095E-01
      21    -1     0     0   501   502  0.000000000E+00  0.000000000E+00  1.810737409E+01  1.810737409E+01  0.000000000E+00  0.00000E+00  9.000E+00
       1    -1     0     0   502     0  0.000000000E+00  0.000000000E+00 -2.616759421E+03  2.616759421E+03  0.000000000E+00  0.00000E+00  9.000E+00
      25     1     1     2     0     0  3.368458313E+00  1.001186977E+00 -8.776465071E+02  8.865095847E+02  1.249940137E+02  0.00000E+00  9.000E+00
       5     1     1     2   501     0 -5.983265765E+00 -1.394579072E+00  1.244958422E+01  1.467306946E+01  4.750000000E+00  0.00000E+00  9.000E+00
      -5     1     1     2     0   503 -1.044931055E+00  2.882163458E+00 -7.151062935E+01  7.173375326E+01  4.750000000E+00  0.00000E+00  9.000E+00
       1     1     1     2   503     0  3.659738506E+00 -2.488771363E+00 -1.661944495E+03  1.661950388E+03  3.051757812E-05  0.00000E+00  9.000E+00
#rwgt            1           9  -3.8735923060382038E-003           2       47925           0
</event>
<event>
      6   9999  3.45752E-01  6.50340E+00 -1.00000E+00  2.09297E-01
      21    -1     0     0   502   503  0.000000000E+00  0.000000000E+00  2.848374944E+01  2.848374944E+01  0.000000000E+00  0.00000E+00  9.000E+00
      21    -1     0     0   501   511  0.000000000E+00  0.000000000E+00 -2.075408652E+02  2.075408652E+02  0.000000000E+00  0.00000E+00  9.000E+00
      25     1     1     2     0     0  4.094193001E+00 -1.675152823E+00 -1.352667465E+02  1.842402489E+02  1.250112317E+02  0.00000E+00  9.000E+00
       5     1     1     2   501     0  1.668787815E-01  7.470535356E-02 -5.283182252E-02  4.753811168E+00  4.750000000E+00  0.00000E+00  9.000E+00
      -5     1     1     2     0   503  1.616951919E+00 -1.182180511E+00 -3.407320432E+00  6.179354076E+00  4.750000000E+00  0.00000E+00  9.000E+00
      21     1     1     2   502   511 -5.878023701E+00  2.782627981E+00 -4.033021697E+01  4.085120050E+01  4.768371582E-07  0.00000E+00  9.000E+00
#rwgt            1           9   2.0422942650097525E-003           2       52749           0
</event>
<event>
      6   9999  3.45752E-01  6.98911E+00 -1.00000E+00  2.05225E-01
      21    -1     0     0   501   512  0.000000000E+00  0.000000000E+00  2.481221383E+01  2.481221383E+01  0.000000000E+00  0.00000E+00  9.000E+00
      21    -1     0     0   502   503  0.000000000E+00  0.000000000E+00 -3.169752027E+02  3.169752027E+02  0.000000000E+00  0.00000E+00  9.000E+00
      25     1     1     2     0     0 -1.218611802E+00 -3.955751699E+00 -2.845219519E+02  3.107955826E+02  1.249960801E+02  0.00000E+00  9.000E+00
       5     1     1     2   501     0 -1.106535947E+00 -2.005378805E+00  7.957450023E+00  9.546176031E+00  4.750000000E+00  0.00000E+00  9.000E+00
      -5     1     1     2     0   503 -4.098949613E+00  3.208189502E+00 -4.602942968E+00  8.416855219E+00  4.750000000E+00  0.00000E+00  9.000E+00
      21     1     1     2   502   512  6.424097362E+00  2.752941002E+00 -1.099554400E+01  1.302880267E+01  1.192092896E-07  0.00000E+00  9.000E+00
#rwgt            1           9   1.5728304600181079E-003           2       55748           0
</event>
<event>
      6   9999  3.45752E-01  7.37849E+00 -1.00000E+00  2.02267E-01
      21    -1     0     0   501   502  0.000000000E+00  0.000000000E+00  3.554206807E+01  3.554206807E+01  0.000000000E+00  0.00000E+00  9.000E+00
       2    -1     0     0   502     0  0.000000000E+00  0.000000000E+00 -1.290666039E+03  1.290666039E+03  0.000000000E+00  0.00000E+00  9.000E+00
      25     1     1     2     0     0 -8.128033528E+01  1.452080427E+01 -1.027044022E+03  1.037912742E+03  1.250043615E+02  0.00000E+00  9.000E+00
       5     1     1     2   501     0 -8.516629896E-01  2.667884524E+00  2.059162202E+01  2.131713713E+01  4.750000000E+00  0.00000E+00  9.000E+00
      -5     1     1     2     0   503  7.720185729E+01 -2.267829957E+01 -1.719726237E+02  1.899251901E+02  4.750000000E+00  0.00000E+00  9.000E+00
       2     1     1     2   503     0  4.930140975E+00  5.489610772E+00 -7.669894689E+01  7.705303739E+01  9.536743164E-07  0.00000E+00  9.000E+00
#rwgt            1           9   3.3715306473577992E-004           2       58935           0
</event>
<event>
      6   9999  3.45752E-01  9.33608E+00 -1.00000E+00  1.90392E-01
      21    -1     0     0   501   511  0.000000000E+00  0.000000000E+00  4.452849016E+01  4.452849016E+01  0.000000000E+00  0.00000E+00  9.000E+00
      21    -1     0     0   502   503  0.000000000E+00  0.000000000E+00 -1.948752599E+03  1.948752599E+03  0.000000000E+00  0.00000E+00  9.000E+00
      25     1     1     2     0     0 -2.072286870E+01 -6.259309585E+01 -8.652192756E+02  8.766854537E+02  1.250026276E+02  0.00000E+00  9.000E+00
       5     1     1     2   501     0  2.011170352E+01  1.384197124E+01 -3.614974603E+02  3.623521176E+02  4.750000000E+00  0.00000E+00  9.000E+00
      -5     1     1     2     0   503  8.651572089E+00  5.349604418E+01 -7.142574993E+02  7.163260530E+02  4.750000000E+00  0.00000E+00  9.000E+00
      21     1     1     2   502   511 -8.040406911E+00 -4.744919570E+00  3.675012604E+01  3.791746522E+01  3.337860107E-06  0.00000E+00  9.000E+00
#rwgt            1           9   1.3787029930231899E-002           2       64387           0
</event>
<event>
      6   9999  3.45752E-01  3.83249E+00 -1.00000E+00  2.51759E-01
      21    -1     0     0   501   502  0.000000000E+00  0.000000000E+00  9.506688704E+01  9.506688704E+01  0.000000000E+00  0.00000E+00  9.000E+00
      21    -1     0     0   512   503  0.000000000E+00  0.000000000E+00 -8.042825949E+01  8.042825949E+01  0.000000000E+00  0.00000E+00  9.000E+00
      25     1     1     2     0     0 -1.002754601E+01  7.518261576E+00  1.628232001E+01  1.266800990E+02  1.250026304E+02  0.00000E+00  9.000E+00
       5     1     1     2   501     0 -1.333996134E-01 -3.723602647E-01  1.894339525E+01  1.953384681E+01  4.750000000E+00  0.00000E+00  9.000E+00
      -5     1     1     2     0   503  9.825806910E+00 -3.328088376E+00 -3.745284820E+00  1.200884308E+01  4.750000000E+00  0.00000E+00  9.000E+00
      21     1     1     2   512   502  3.351387154E-01 -3.817812936E+00 -1.684180289E+01  1.727235763E+01  0.000000000E+00  0.00000E+00  9.000E+00
#rwgt            1           9   2.3909198210583495E-004           2       67074           0
</event>
<event>
      6   9999 -3.45752E-01  7.50179E+00 -1.00000E+00  2.01380E-01
      21    -1     0     0   511   503  0.000000000E+00  0.000000000E+00  6.601728615E+01  6.601728615E+01  0.000000000E+00  0.00000E+00  9.000E+00
      21    -1     0     0   501   502  0.000000000E+00  0.000000000E+00 -1.957485544E+03  1.957485544E+03  0.000000000E+00  0.00000E+00  9.000E+00
      25     1     1     2     0     0  5.983384872E+01 -5.508831670E+01 -4.180155796E+01  1.548778337E+02  1.249998442E+02  0.00000E+00  9.000E+00
       5     1     1     2   501     0 -5.315689292E+01  6.621744489E+01 -1.837053729E+03  1.839021308E+03  4.750000000E+00  0.00000E+00  9.000E+00
      -5     1     1     2     0   503 -3.864535871E+00 -1.808378211E+01 -1.059524659E+01  2.183528253E+01  4.750000000E+00  0.00000E+00  9.000E+00
      21     1     1     2   511   502 -2.812419930E+00  6.954653923E+00 -2.017724032E+00  7.768405713E+00  1.397852826E-07  0.00000E+00  9.000E+00
#rwgt            1           9  -1.8936373158841665E-002           2       71497           0
</event>
<event>
      6   9999  3.45752E-01  3.40973E+00 -1.00000E+00  2.63135E-01
      21    -1     0     0   512   502  0.000000000E+00  0.000000000E+00  1.410652868E+02  1.410652868E+02  0.000000000E+00  0.00000E+00  9.000E+00
      21    -1     0     0   502   503  0.000000000E+00  0.000000000E+00 -9.588814578E+02  9.588814578E+02  0.000000000E+00  0.00000E+00  9.000E+00
      25     1     1     2     0     0  9.655290921E+00  7.214819689E+00 -8.592174490E+02  8.683463021E+02  1.250015899E+02  0.00000E+00  9.000E+00
       5     1     1     2   501     0 -4.652436977E+00  1.995426239E+00  1.263315434E+01  1.441478353E+01  4.750000000E+00  0.00000E+00  9.000E+00
      -5     1     1     2     0   503 -4.070252829E+00 -5.930530509E+00 -9.398787484E+01  9.438231438E+01  4.750000000E+00  0.00000E+00  9.000E+00
      21     1     1     2   512   501 -9.326011148E-01 -3.279715420E+00  1.227559985E+02  1.228033446E+02  3.015782986E-06  0.00000E+00  9.000E+00
#rwgt            1           9   2.0037886153904605E-004           2       76866           0
</event>
<event>
      6   9999 -3.45752E-01  3.84933E+01 -1.00000E+00  1.41160E-01
      21    -1     0     0   501   502  0.000000000E+00  0.000000000E+00  7.682192656E+01  7.682192656E+01  0.000000000E+00  0.00000E+00  9.000E+00
       2    -1     0     0   502     0  0.000000000E+00  0.000000000E+00 -3.139640859E+03  3.139640859E+03  0.000000000E+00  0.00000E+00  9.000E+00
      25     1     1     2     0     0 -2.418202927E+01  2.088759682E+01 -1.493020650E+03  1.498584898E+03  1.249998981E+02  0.00000E+00  9.000E+00
       5     1     1     2   501     0 -1.258255599E+01  9.543515193E+00  7.071129918E+01  7.260888189E+01  4.750000000E+00  0.00000E+00  9.000E+00
      -5     1     1     2     0   503 -1.337249532E+00 -2.495536258E+01 -7.333574271E+01  7.762249684E+01  4.750000000E+00  0.00000E+00  9.000E+00
       2     1     1     2   503     0  3.810183479E+01 -5.475749434E+00 -1.567173839E+03  1.567646509E+03  2.157918644E-05  0.00000E+00  9.000E+00
#rwgt            1           9  -3.7762197417669874E-005           2       83258           0
</event>
<event>
      6   9999  3.45752E-01  4.96222E+00 -1.00000E+00  2.29943E-01
      21    -1     0     0   501   502  0.000000000E+00  0.000000000E+00  1.693087623E+01  1.693087623E+01  0.000000000E+00  0.00000E+00  9.000E+00
      21    -1     0     0   502   511  0.000000000E+00  0.000000000E+00 -1.266657454E+03  1.266657454E+03  0.000000000E+00  0.00000E+00  9.000E+00
      25     1     1     2     0     0 -9.008870311E+00 -6.752401637E-01 -8.461023605E+02  8.553336992E+02  1.249996672E+02  0.00000E+00  9.000E+00
       5     1     1     2   501     0  4.518620665E-01 -4.412548905E+00  1.110542055E+01  1.286730868E+01  4.750000000E+00  0.00000E+00  9.000E+00
      -5     1     1     2     0   503  7.609235485E+00  2.169186803E-01 -6.435044816E+01  6.497299590E+01  4.750000000E+00  0.00000E+00  9.000E+00
      21     1     1     2   503   511  9.477727590E-01  4.870870388E+00 -3.503791896E+02  3.504143264E+02  3.814697266E-06  0.00000E+00  9.000E+00
#rwgt            1           9   7.6481249510462274E-005           2       84990           0
</event>
<event>
      6   9999  3.45752E-01  1.90772E+00 -1.00000E+00  3.41031E-01
      21    -1     0     0   501   502  0.000000000E+00  0.000000000E+00  3.230922119E+01  3.230922119E+01  0.000000000E+00  0.00000E+00  9.000E+00
      21    -1     0     0   512   503  0.000000000E+00  0.000000000E+00 -2.619374183E+03  2.619374183E+03  0.000000000E+00  0.00000E+00  9.000E+00
      25     1     1     2     0     0  1.466956776E+01 -7.135883586E+01 -9.295796870E+02  9.407715268E+02  1.250015660E+02  0.00000E+00  9.000E+00
       5     1     1     2   501     0  4.499470677E+00  5.345860010E+00  2.008892856E+01  2.179337069E+01  4.750000000E+00  0.00000E+00  9.000E+00
      -5     1     1     2     0   503 -1.853555170E+01  6.781244159E+01 -2.092778003E+02  2.208208643E+02  4.750000000E+00  0.00000E+00  9.000E+00
      21     1     1     2   512   502 -6.334867381E-01 -1.799465748E+00 -1.468296403E+03  1.468297643E+03  2.157918644E-05  0.00000E+00  9.000E+00
#rwgt            1           9   8.6117662965908394E-006           2       90230           0
</event>
<event>
      6   9999  3.45752E-01  7.72315E+00 -1.00000E+00  1.99844E-01
      21    -1     0     0   501   502  0.000000000E+00  0.000000000E+00  3.423504511E+01  3.423504511E+01  0.000000000E+00  0.00000E+00  9.000E+00
      21    -1     0     0   511   503  0.000000000E+00  0.000000000E+00 -1.534537677E+03  1.534537677E+03  0.000000000E+00  0.00000E+00  9.000E+00
      25     1     1     2     0     0 -8.039915838E+01  7.878689506E+01 -4.535531164E+02  4.837417617E+02  1.249970526E+02  0.00000E+00  9.000E+00
       5     1     1     2   501     0  1.706256632E+00 -4.977572709E-01  1.458025121E+01  1.543714026E+01  4.750000000E+00  0.00000E+00  9.000E+00
      -5     1     1     2     0   503  7.121455472E+01 -8.021823147E+01 -7.004968056E+02  7.086782165E+02  4.750000000E+00  0.00000E+00  9.000E+00
      21     1     1     2   511   502  7.478347024E+00  1.929093678E+00 -3.608329615E+02  3.609156040E+02  0.000000000E+00  0.00000E+00  9.000E+00
#rwgt            1           9   1.3016088176434751E-004           2      100651           0
</event>
<event>
      6   9999  3.45752E-01  5.07512E+00 -1.00000E+00  2.24713E-01
      21    -1     0     0   501   502  0.000000000E+00  0.000000000E+00  1.017313021E+01  1.017313021E+01  0.000000000E+00  0.00000E+00  9.000E+00
      21    -1     0     0   512   503  0.000000000E+00  0.000000000E+00 -8.523612216E+02  8.523612216E+02  0.000000000E+00  0.00000E+00  9.000E+00
      25     1     1     2     0     0  5.712250082E+00 -3.312782968E+00 -6.872985473E+02  6.986034489E+02  1.249955253E+02  0.00000E+00  9.000E+00
       5     1     1     2   501     0 -2.971085261E-01 -1.492337645E-01  2.937219696E+00  5.594667437E+00  4.750000000E+00  0.00000E+00  9.000E+00
      -5     1     1     2     0   503 -9.510500910E-01  5.876289821E+00 -9.559596793E+01  9.589883661E+01  4.750000000E+00  0.00000E+00  9.000E+00
      21     1     1     2   512   502 -4.464091465E+00 -2.414273089E+00 -6.223079591E+01  6.243739894E+01  9.536743164E-07  0.00000E+00  9.000E+00
#rwgt            1           9   3.2503420130760305E-003           2      104956           0
</event>
<event>
      6   9999  3.45752E-01  1.25554E+01 -1.00000E+00  1.77351E-01
      21    -1     0     0   501   502  0.000000000E+00  0.000000000E+00  1.303877066E+01  1.303877066E+01  0.000000000E+00  0.00000E+00  9.000E+00
      21    -1     0     0   511   503  0.000000000E+00  0.000000000E+00 -1.211333961E+03  1.211333961E+03  0.000000000E+00  0.00000E+00  9.000E+00
      25     1     1     2     0     0  2.341919898E+01  1.504497435E+01 -4.516077321E+02  4.694443007E+02  1.251143382E+02  0.00000E+00  9.000E+00
       5     1     1     2   501     0 -9.980799008E-01 -1.654487919E+00  9.028454515E-01  5.206834323E+00  4.750000000E+00  0.00000E+00  9.000E+00
      -5     1     1     2     0   503 -3.214853246E+01 -2.132876058E+01 -3.950570881E+02  3.969648719E+02  4.750000000E+00  0.00000E+00  9.000E+00
      21     1     1     2   511   502  9.727413374E+00  7.938274144E+00 -3.525332155E+02  3.527567247E+02  6.607249480E-06  0.00000E+00  9.000E+00
#rwgt            1           9   4.2444005248979243E-003           2      109299           0
</event>
<event>
      6   9999  3.45752E-01  1.33269E+01 -1.00000E+00  1.74946E-01
      21    -1     0     0   501   512  0.000000000E+00  0.000000000E+00  2.406566421E+01  2.406566421E+01  0.000000000E+00  0.00000E+00  9.000E+00
      21    -1     0     0   502   503  0.000000000E+00  0.000000000E+00 -1.822041308E+03  1.822041308E+03  0.000000000E+00  0.00000E+00  9.000E+00
      25     1     1     2     0     0  5.111288292E-02  5.842534819E+00 -1.724819868E+03  1.729352958E+03  1.249957461E+02  0.00000E+00  9.000E+00
       5     1     1     2   501     0 -1.654391971E-01  7.702516846E-01 -1.775910666E+01  1.840024530E+01  4.750000000E+00  0.00000E+00  9.000E+00
      -5     1     1     2     0   503  3.594339628E+00  6.251683949E+00 -7.453443832E+01  7.503297826E+01  4.750000000E+00  0.00000E+00  9.000E+00
      21     1     1     2   502   512 -3.480013314E+00 -1.286447045E+01  1.913776920E+01  2.332079121E+01  1.581489940E-06  0.00000E+00  9.000E+00
#rwgt            1           9   2.0932432312360872E-004           2      111140           0
</event>
<event>
      6   9999 -3.45752E-01  4.18898E+00 -1.00000E+00  2.43772E-01
      21    -1     0     0   501   502  0.000000000E+00  0.000000000E+00  2.099568292E+01  2.099568292E+01  0.000000000E+00  0.00000E+00  9.000E+00
      21    -1     0     0   511   503  0.000000000E+00  0.000000000E+00 -9.421204299E+02  9.421204299E+02  0.000000000E+00  0.00000E+00  9.000E+00
      25     1     1     2     0     0  3.619123515E+01 -9.393218426E+00 -8.666925385E+02  8.764582130E+02  1.250000193E+02  0.00000E+00  9.000E+00
       5     1     1     2   501     0  1.628702286E+00  2.770515729E+00  9.109373427E+00  1.076436774E+01  4.750000000E+00  0.00000E+00  9.000E+00
      -5     1     1     2     0   503 -3.368519330E+01  7.294623381E+00 -4.498110310E+01  5.686621065E+01  4.750000000E+00  0.00000E+00  9.000E+00
      21     1     1     2   511   502 -4.134744131E+00 -6.719206839E-01 -1.856047887E+01  1.902732147E+01  4.129530925E-07  0.00000E+00  9.000E+00
#rwgt            1           9  -2.4968783229437855E-004           2      112918           0
</event>
<event>
      6   9999 -3.45752E-01  1.30656E+01 -1.00000E+00  1.75737E-01
      21    -1     0     0   501   512  0.000000000E+00  0.000000000E+00  2.724477919E+01  2.724477919E+01  0.000000000E+00  0.00000E+00  9.000E+00
      21    -1     0     0   502   503  0.000000000E+00  0.000000000E+00 -1.037211247E+03  1.037211247E+03  0.000000000E+00  0.00000E+00  9.000E+00
      25     1     1     2     0     0  2.192818034E+01  7.263147272E+00 -9.817559958E+02  9.899554397E+02  1.250333514E+02  0.00000E+00  9.000E+00
       5     1     1     2   501     0 -2.677265416E+00 -1.290209440E+00  1.443021879E+01  1.547986127E+01  4.750000000E+00  0.00000E+00  9.000E+00
      -5     1     1     2     0   503 -1.015101261E+01 -1.534857211E+01 -5.705689243E+00  1.984286049E+01  4.750000000E+00  0.00000E+00  9.000E+00
      21     1     1     2   502   512 -9.099902319E+00  9.375634280E+00 -3.693500128E+01  3.917786441E+01  4.768371582E-07  0.00000E+00  9.000E+00
#rwgt            1           9  -3.5175762199380432E-003           2      118725           0
</event>
<event>
      6   9999 -3.45752E-01  1.48860E+01 -1.00000E+00  1.70659E-01
      21    -1     0     0   511   502  0.000000000E+00  0.000000000E+00  2.710177916E+01  2.710177916E+01  0.000000000E+00  0.00000E+00  9.000E+00
      21    -1     0     0   502   503  0.000000000E+00  0.000000000E+00 -9.981059358E+02  9.981059358E+02  0.000000000E+00  0.00000E+00  9.000E+00
      25     1     1     2     0     0 -1.826054101E+01 -7.824415641E+00 -7.446349637E+02  7.553175380E+02  1.250147398E+02  0.00000E+00  9.000E+00
       5     1     1     2   501     0  7.733282298E-01 -9.962916015E+00  1.415788369E+01  1.796846968E+01  4.750000000E+00  0.00000E+00  9.000E+00
      -5     1     1     2     0   503  1.256554786E+01  3.738437725E+00 -2.359304334E+02  2.363421266E+02  4.750000000E+00  0.00000E+00  9.000E+00
      21     1     1     2   511   501  4.921664921E+00  1.404889393E+01 -4.596643271E+00  1.557958073E+01  4.214684851E-07  0.00000E+00  9.000E+00
#rwgt            1           9 -0.14264679347780476                2      121321           0
</event>
<event>
      6   9999  3.45752E-01  6.42506E+00 -1.00000E+00  2.09999E-01
      21    -1     0     0   501   512  0.000000000E+00  0.000000000E+00  8.171106530E+01  8.171106530E+01  0.000000000E+00  0.00000E+00  9.000E+00
      21    -1     0     0   502   503  0.000000000E+00  0.000000000E+00 -8.702551500E+02  8.702551500E+02  0.000000000E+00  0.00000E+00  9.000E+00
      25     1     1     2     0     0  1.303456654E+01  4.236397111E+01 -7.176535988E+02  7.298058735E+02  1.250012763E+02  0.00000E+00  9.000E+00
       5     1     1     2   501     0  2.068695927E+00 -7.675463464E-01  2.849841567E+00  5.962610770E+00  4.750000000E+00  0.00000E+00  9.000E+00
      -5     1     1     2     0   503 -8.678430783E+00 -4.165021834E+01 -1.416537338E+02  1.479810753E+02  4.750000000E+00  0.00000E+00  9.000E+00
      21     1     1     2   502   512 -6.424831686E+00  5.379357800E-02  6.791340637E+01  6.821665574E+01  1.651812370E-06  0.00000E+00  9.000E+00
#rwgt            1           9   3.7621117463286383E-004           2      123765           0
</event>
<event>
      6   9999  3.45752E-01  7.60458E+00 -1.00000E+00  2.00658E-01
      21    -1     0     0   501   502  0.000000000E+00  0.000000000E+00  1.023333327E+02  1.023333327E+02  0.000000000E+00  0.00000E+00  9.000E+00
      21    -1     0     0   511   503  0.000000000E+00  0.000000000E+00 -8.180163139E+02  8.180163139E+02  0.000000000E+00  0.00000E+00  9.000E+00
      25     1     1     2     0     0  8.144212246E+00 -1.188540181E+01 -5.199610792E+02  5.349688368E+02  1.249981659E+02  0.00000E+00  9.000E+00
       5     1     1     2   501     0 -4.314601221E+00  1.115798617E+01  9.386713289E+01  9.474554119E+01  4.750000000E+00  0.00000E+00  9.000E+00
      -5     1     1     2     0   503 -9.513971479E+00 -4.324087409E+00 -2.532017432E+02  2.534618288E+02  4.750000000E+00  0.00000E+00  9.000E+00
      21     1     1     2   511   502  5.684360455E+00  5.051503053E+00 -3.638729164E+01  3.717343984E+01  4.768371582E-07  0.00000E+00  9.000E+00
#rwgt            1           9   7.8625661300828285E-004           2      128282           0
</event>
<event>
      6   9999  3.45752E-01  7.40377E+00 -1.00000E+00  2.02083E-01
      21    -1     0     0   501   502  0.000000000E+00  0.000000000E+00  6.172040401E+00  6.172040401E+00  0.000000000E+00  0.00000E+00  9.000E+00
      21    -1     0     0   512   503  0.000000000E+00  0.000000000E+00 -2.483720135E+03  2.483720135E+03  0.000000000E+00  0.00000E+00  9.000E+00
      25     1     1     2     0     0  1.160256431E+01  3.397967050E+01 -1.065142952E+03  1.073054961E+03  1.250128087E+02  0.00000E+00  9.000E+00
       5     1     1     2   501     0  1.493616308E+00  1.279948342E-01 -1.199273700E+00  5.123283104E+00  4.750000000E+00  0.00000E+00  9.000E+00
      -5     1     1     2     0   503 -1.374010312E+01 -2.673195227E+01 -1.159250456E+03  1.159649762E+03  4.750000000E+00  0.00000E+00  9.000E+00
      21     1     1     2   512   502  6.439225008E-01 -7.375713065E+00 -2.519554123E+02  2.520641695E+02  0.000000000E+00  0.00000E+00  9.000E+00
#rwgt            1           9  0.42542011860805978                2      133289           0
</event>
<event>
      6   9999  3.45752E-01  1.55469E+01 -1.00000E+00  1.69035E-01
      21    -1     0     0   501   511  0.000000000E+00  0.000000000E+00  2.578731668E+02  2.578731668E+02  0.000000000E+00  0.00000E+00  9.000E+00
      21    -1     0     0   502   503  0.000000000E+00  0.000000000E+00 -1.770466319E+02  1.770466319E+02  0.000000000E+00  0.00000E+00  9.000E+00
      25     1     1     2     0     0 -8.341884414E+00 -2.642853160E+01 -1.450394237E+02  1.934692778E+02  1.250034908E+02  0.00000E+00  9.000E+00
       5     1     1     2   501     0  3.280395048E+00 -6.165515520E+00  1.202381055E+02  1.205343896E+02  4.750000000E+00  0.00000E+00  9.000E+00
      -5     1     1     2     0   503  6.722713533E+00  1.713618377E+01  5.786860780E+00  1.987193823E+01  4.750000000E+00  0.00000E+00  9.000E+00
      21     1     1     2   502   511 -1.661224168E+00  1.545786335E+01  9.984099238E+01  1.010441931E+02  1.348699152E-06  0.00000E+00  9.000E+00
#rwgt            1           9   2.5677635432493892E-004           2      136697           0
</event>
<event>
      6   9999  3.45752E-01  1.70792E+01 -1.00000E+00  1.65626E-01
      21    -1     0     0   501   502  0.000000000E+00  0.000000000E+00  3.883946660E+03  3.883946660E+03  0.000000000E+00  0.00000E+00  9.000E+00
      21    -1     0     0   512   503  0.000000000E+00  0.000000000E+00 -3.683492653E+01  3.683492653E+01  0.000000000E+00  0.00000E+00  9.000E+00
      25     1     1     2     0     0  8.433399031E+00 -1.301556817E+02  9.449121472E+02  9.620275046E+02  1.250053197E+02  0.00000E+00  9.000E+00
       5     1     1     2   501     0  3.847969625E+00  2.932009793E+00  2.612710626E+03  2.612719422E+03  4.750000000E+00  0.00000E+00  9.000E+00
      -5     1     1     2     0   503 -2.920873952E+01  1.249513905E+02  2.997598038E+02  3.261050489E+02  4.750000000E+00  0.00000E+00  9.000E+00
      21     1     1     2   512   502  1.692737087E+01  2.272281356E+00 -1.027084350E+01  1.992961046E+01  1.925885012E-06  0.00000E+00  9.000E+00
#rwgt            1           9   1.6278800932443031E-004           2      139055           0
</event>
<event>
      6   9999  3.45752E-01  6.57786E+00 -1.00000E+00  2.08642E-01
      21    -1     0     0   501   502  0.000000000E+00  0.000000000E+00  4.776054404E+01  4.776054404E+01  0.000000000E+00  0.00000E+00  9.000E+00
      21    -1     0     0   511   503  0.000000000E+00  0.000000000E+00 -5.577694078E+02  5.577694078E+02  0.000000000E+00  0.00000E+00  9.000E+00
      25     1     1     2     0     0  2.248801858E+01 -7.439365894E+01 -1.628459519E+02  2.195037001E+02  1.249917710E+02  0.00000E+00  9.000E+00
       5     1     1     2   501     0  1.550935632E+00  1.613585829E-01  1.376862091E+01  1.464816916E+01  4.750000000E+00  0.00000E+00  9.000E+00
      -5     1     1     2     0   503 -1.754751041E+01  7.316953864E+01 -2.735599290E+02  2.837592179E+02  4.750000000E+00  0.00000E+00  9.000E+00
      21     1     1     2   511   502 -6.491443803E+00  1.062761719E+00 -8.737160370E+01  8.761886463E+01  9.536743164E-07  0.00000E+00  9.000E+00
#rwgt            1           9   9.1259377645353343E-002           2      141965           0
</event>
<event>
      6   9999  3.45752E-01  6.03976E+00 -1.00000E+00  2.13659E-01
      21    -1     0     0   501   502  0.000000000E+00  0.000000000E+00  1.527468395E+01  1.527468395E+01  0.000000000E+00  0.00000E+00  9.000E+00
      21    -1     0     0   502   512  0.000000000E+00  0.000000000E+00 -9.881470383E+02  9.881470383E+02  0.000000000E+00  0.00000E+00  9.000E+00
      25     1     1     2     0     0 -2.179580780E+01  1.236230347E+01 -4.520709966E+02  4.697035915E+02  1.250015764E+02  0.00000E+00  9.000E+00
       5     1     1     2   501     0 -2.101138008E+00  3.232852362E+00  4.501685805E+00  7.595642857E+00  4.750000000E+00  0.00000E+00  9.000E+00
      -5     1     1     2     0   503  1.958079979E+01 -1.137027917E+01 -4.381798041E+02  4.387901483E+02  4.750000000E+00  0.00000E+00  9.000E+00
      21     1     1     2   503   512  4.316146026E+00 -4.224876654E+00 -8.712323939E+01  8.733233961E+01  0.000000000E+00  0.00000E+00  9.000E+00
#rwgt            1           9   4.1897276277603335E-004           2      146401           0
</event>
<event>
      6   9999  3.45752E-01  2.12154E+01 -1.00000E+00  1.58279E-01
      21    -1     0     0   501   502  0.000000000E+00  0.000000000E+00  9.166946053E+01  9.166946053E+01  0.000000000E+00  0.00000E+00  9.000E+00
      21    -1     0     0   502   511  0.000000000E+00  0.000000000E+00 -2.700832662E+03  2.700832662E+03  0.000000000E+00  0.00000E+00  9.000E+00
      25     1     1     2     0     0  2.492166543E+01  2.839316399E+01 -1.895052173E+03  1.899546799E+03  1.250121723E+02  0.00000E+00  9.000E+00
       5     1     1     2   501     0  2.101472894E+00  4.664105343E-01  8.416702899E+01  8.432843527E+01  4.750000000E+00  0.00000E+00  9.000E+00
      -5     1     1     2     0   503 -4.809608945E+01 -2.640491330E+01 -1.465945749E+02  1.565981646E+02  4.750000000E+00  0.00000E+00  9.000E+00
      21     1     1     2   503   511  2.107295112E+01 -2.454661220E+00 -6.516834823E+02  6.520287231E+02  7.629394531E-06  0.00000E+00  9.000E+00
#rwgt            1           9   3.1115236476084900E-004           2      150220           0
</event>
<event>
      6   9999 -3.45752E-01  9.79843E+00 -1.00000E+00  1.88130E-01
      21    -1     0     0   501   512  0.000000000E+00  0.000000000E+00  1.100018638E+01  1.100018638E+01  0.000000000E+00  0.00000E+00  9.000E+00
      21    -1     0     0   502   503  0.000000000E+00  0.000000000E+00 -2.247299624E+03  2.247299624E+03  0.000000000E+00  0.00000E+00  9.000E+00
      25     1     1     2     0     0  4.918405312E+01 -1.007494807E+02 -9.689351643E+02  9.833758505E+02  1.249927270E+02  0.00000E+00  9.000E+00
       5     1     1     2   501     0  1.780074668E+00  1.573301047E+01 -1.442972787E+02  1.452410529E+02  4.750000000E+00  0.00000E+00  9.000E+00
      -5     1     1     2     0   503 -4.637487783E+01  7.635922324E+01 -1.108634994E+03  1.112238946E+03  4.750000000E+00  0.00000E+00  9.000E+00
      21     1     1     2   502   512 -4.589249959E+00  8.657247004E+00 -1.443200067E+01  1.744396126E+01  5.840038640E-07  0.00000E+00  9.000E+00
#rwgt            1           9  -5.5347886096274064E-002           2      153866           0
</event>
<event>
      6   9999 -3.45752E-01  2.51655E+01 -1.00000E+00  1.52950E-01
      21    -1     0     0   502   503  0.000000000E+00  0.000000000E+00  1.887149602E+01  1.887149602E+01  0.000000000E+00  0.00000E+00  9.000E+00
      21    -1     0     0   511   502  0.000000000E+00  0.000000000E+00 -1.091764333E+03  1.091764333E+03  0.000000000E+00  0.00000E+00  9.000E+00
      25     1     1     2     0     0  3.355419682E+01 -1.531633295E+01 -7.686478641E+02  7.796200565E+02  1.250096769E+02  0.00000E+00  9.000E+00
       5     1     1     2   501     0 -3.712442872E+00  1.219819113E+01 -7.870065130E+00  1.571873163E+01  4.750000000E+00  0.00000E+00  9.000E+00
      -5     1     1     2     0   503 -5.239310136E+01  1.428671522E+01 -7.621751750E+01  9.370602849E+01  4.750000000E+00  0.00000E+00  9.000E+00
      21     1     1     2   511   501  2.255134741E+01 -1.116857340E+01 -2.201573902E+02  2.215910124E+02  2.697398305E-06  0.00000E+00  9.000E+00
#rwgt            1           9  -2.0173266491180404E-003           2      156636           0
</event>
<event>
      6   9999  3.45752E-01  1.10016E+01 -1.00000E+00  1.82930E-01
      21    -1     0     0   502   503  0.000000000E+00  0.000000000E+00  1.887597676E+01  1.887597676E+01  0.000000000E+00  0.00000E+00  9.000E+00
      21    -1     0     0   501   512  0.000000000E+00  0.000000000E+00 -1.059225583E+03  1.059225583E+03  0.000000000E+00  0.00000E+00  9.000E+00
      25     1     1     2     0     0  8.270155123E+01 -2.401235536E+01 -4.245845348E+02  4.509018029E+02  1.249970755E+02  0.00000E+00  9.000E+00
       5     1     1     2   501     0 -4.117842489E-01  1.809485999E-01 -7.951115097E+01  7.965417715E+01  4.750000000E+00  0.00000E+00  9.000E+00
      -5     1     1     2     0   503 -9.319823762E+01  2.525967016E+01 -4.305506542E+02  4.412713347E+02  4.750000000E+00  0.00000E+00  9.000E+00
      21     1     1     2   502   512  1.090847064E+01 -1.428263404E+00 -1.057032662E+02  1.062742450E+02  1.907348633E-06  0.00000E+00  9.000E+00
#rwgt            1           9   9.6852415535323404E-003           2      158001           0
</event>
<event>
      6   9999 -3.45752E-01  1.01043E+01 -1.00000E+00  1.86720E-01
      21    -1     0     0   501   502  0.000000000E+00  0.000000000E+00  1.208632896E+01  1.208632896E+01  0.000000000E+00  0.00000E+00  9.000E+00
      21    -1     0     0   502   511  0.000000000E+00  0.000000000E+00 -1.049820206E+03  1.049820206E+03  0.000000000E+00  0.00000E+00  9.000E+00
      25     1     1     2     0     0 -1.570761150E+01  9.885605899E+00 -7.404384000E+02  7.511445803E+02  1.249988085E+02  0.00000E+00  9.000E+00
       5     1     1     2   501     0  6.783541889E-01 -3.283201591E+00  3.611913025E+00  6.844559357E+00  4.750000000E+00  0.00000E+00  9.000E+00
      -5     1     1     2     0   503  1.379506241E+01 -1.663105700E+01 -8.691350692E+01  8.968509346E+01  4.750000000E+00  0.00000E+00  9.000E+00
      21     1     1     2   503   511  1.234194893E+00  1.002865269E+01 -2.139938832E+02  2.142323018E+02  2.697398305E-06  0.00000E+00  9.000E+00
#rwgt            1           9  -6.6025879894730203E-005           2      160377           0
</event>
<event>
      6   9999  3.45752E-01  3.30195E+01 -1.00000E+00  1.45193E-01
      21    -1     0     0   501   502  0.000000000E+00  0.000000000E+00  2.628064664E+01  2.628064664E+01  0.000000000E+00  0.00000E+00  9.000E+00
      21    -1     0     0   502   512  0.000000000E+00  0.000000000E+00 -1.415036052E+03  1.415036052E+03  0.000000000E+00  0.00000E+00  9.000E+00
      25     1     1     2     0     0 -1.319261498E+02  3.847010246E+01 -4.476976987E+02  4.847084323E+02  1.249983085E+02  0.00000E+00  9.000E+00
       5     1     1     2   501     0 -7.537974876E-01  1.430779095E+00 -3.075837341E-01  5.027170897E+00  4.750000000E+00  0.00000E+00  9.000E+00
      -5     1     1     2     0   503  1.051907947E+02 -2.160786037E+01 -6.326802681E+02  6.417467468E+02  4.750000000E+00  0.00000E+00  9.000E+00
      21     1     1     2   503   512  2.748915253E+01 -1.829302118E+01 -3.080698547E+02  3.098343485E+02  5.394796609E-06  0.00000E+00  9.000E+00
#rwgt            1           9   3.1758853692895361E-004           2      162817           0
</event>
<event>
      6   9999  3.45752E-01  2.63857E+00 -1.00000E+00  2.92355E-01
      21    -1     0     0   501   511  0.000000000E+00  0.000000000E+00  1.023239802E+01  1.023239802E+01  0.000000000E+00  0.00000E+00  9.000E+00
      21    -1     0     0   502   503  0.000000000E+00  0.000000000E+00 -8.080051764E+02  8.080051764E+02  0.000000000E+00  0.00000E+00  9.000E+00
      25     1     1     2     0     0  4.690670420E-01  1.895027918E+01 -7.524610369E+02  7.630086608E+02  1.250010852E+02  0.00000E+00  9.000E+00
       5     1     1     2   501     0 -9.250720743E-01  1.297385785E+00  2.230903153E-01  5.015100947E+00  4.750000000E+00  0.00000E+00  9.000E+00
      -5     1     1     2     0   503  2.628222172E-01 -1.761617247E+01 -4.208539848E+01  4.587092623E+01  4.750000000E+00  0.00000E+00  9.000E+00
      21     1     1     2   502   511  1.931828151E-01 -2.631492494E+00 -3.449433330E+00  4.342886442E+00  7.300048300E-08  0.00000E+00  9.000E+00
#rwgt            1           9   4.9402987706925463E-003           2      165456           0
</event>
<event>
      6   9999  3.45752E-01  6.28175E+00 -1.00000E+00  2.11319E-01
      21    -1     0     0   512   503  0.000000000E+00  0.000000000E+00  8.523176217E+00  8.523176217E+00  0.000000000E+00  0.00000E+00  9.000E+00
      21    -1     0     0   501   502  0.000000000E+00  0.000000000E+00 -7.514893119E+02  7.514893119E+02  0.000000000E+00  0.00000E+00  9.000E+00
      25     1     1     2     0     0  1.312875443E+01  6.256932059E+00 -5.793660862E+02  5.928751253E+02  1.249973559E+02  0.00000E+00  9.000E+00
       5     1     1     2   501     0 -5.011963205E+00  1.778333003E+00 -3.910309113E+01  3.974791163E+01  4.750000000E+00  0.00000E+00  9.000E+00
      -5     1     1     2     0   503 -1.438341005E+01 -8.471049833E+00 -1.126598578E+02  1.139888030E+02  4.750000000E+00  0.00000E+00  9.000E+00
      21     1     1     2   512   502  6.266618827E+00  4.357847709E-01 -1.183710060E+01  1.340064814E+01  3.769728732E-07  0.00000E+00  9.000E+00
#rwgt            1           9   2.0495839696689232E-002           2      171277           0
</event>
<event>
      6   9999 -3.45752E-01  5.55441E+00 -1.00000E+00  2.18835E-01
      21    -1     0     0   511   502  0.000000000E+00  0.000000000E+00  2.858829911E+02  2.858829911E+02  0.000000000E+00  0.00000E+00  9.000E+00
      21    -1     0     0   502   503  0.000000000E+00  0.000000000E+00 -9.028317175E+02  9.028317175E+02  0.000000000E+00  0.00000E+00  9.000E+00
      25     1     1     2     0     0 -3.399160997E+00  1.296463494E+00 -8.770395056E+02  8.859097088E+02  1.249979306E+02  0.00000E+00  9.000E+00
       5     1     1     2   501     0 -1.674283732E+00 -4.495619539E+00  6.813324525E+00  9.591543783E+00  4.750000000E+00  0.00000E+00  9.000E+00
      -5     1     1     2     0   503  8.984339197E-01 -4.642732738E-01 -1.964403693E+01  2.023544959E+01  4.750000000E+00  0.00000E+00  9.000E+00
      21     1     1     2   511   501  4.175010809E+00  3.663429320E+00  2.729214916E+02  2.729780065E+02  6.607249480E-06  0.00000E+00  9.000E+00
#rwgt            1           9  -8.9903486755695157E-003           2      174975           0
</event>
<event>
      6   9999  3.45752E-01  2.78236E+01 -1.00000E+00  1.49985E-01
      21    -1     0     0   512   502  0.000000000E+00  0.000000000E+00  4.255459726E+01  4.255459726E+01  0.000000000E+00  0.00000E+00  9.000E+00
      21    -1     0     0   502   503  0.000000000E+00  0.000000000E+00 -1.156694175E+03  1.156694175E+03  0.000000000E+00  0.00000E+00  9.000E+00
      25     1     1     2     0     0 -8.509921011E+01 -4.497330403E+01 -2.851192697E+02  3.258571410E+02  1.250016191E+02  0.00000E+00  9.000E+00
       5     1     1     2   501     0 -5.352330601E-01 -3.305320609E-01  4.837633876E-01  4.815833561E+00  4.750000000E+00  0.00000E+00  9.000E+00
      -5     1     1     2     0   503  6.511400320E+01  2.651387089E+01 -8.368399010E+02  8.398014058E+02  4.750000000E+00  0.00000E+00  9.000E+00
      21     1     1     2   512   501  2.052043997E+01  1.878996519E+01  7.335829343E+00  2.877439210E+01  7.444617746E-07  0.00000E+00  9.000E+00
#rwgt            1           9   1.6650305999389350E-002           2      178934           0
</event>
<event>
      6   9999  3.45752E-01  8.90169E+00 -1.00000E+00  1.92678E-01
      21    -1     0     0   501   502  0.000000000E+00  0.000000000E+00  7.811632003E+00  7.811632003E+00  0.000000000E+00  0.00000E+00  9.000E+00
      21    -1     0     0   502   511  0.000000000E+00  0.000000000E+00 -2.559848249E+03  2.559848249E+03  0.000000000E+00  0.00000E+00  9.000E+00
      25     1     1     2     0     0  6.020357071E+00  4.168059056E+00 -7.020387058E+02  7.131178864E+02  1.250006326E+02  0.00000E+00  9.000E+00
       5     1     1     2   501     0  4.454566272E-01  6.463291245E-01 -1.064876528E+00  4.930784417E+00  4.750000000E+00  0.00000E+00  9.000E+00
      -5     1     1     2     0   503  1.078501744E+00 -8.962122586E-02 -1.774657996E+01  1.840311925E+01  4.750000000E+00  0.00000E+00  9.000E+00
      21     1     1     2   503   511 -7.544315442E+00 -4.724766955E+00 -1.831186455E+03  1.831208091E+03  3.051757812E-05  0.00000E+00  9.000E+00
#rwgt            1           9   5.3081053984100127E-004           2      181608           0
</event>
<event>
      6   9999 -3.45752E-01  2.14449E+01 -1.00000E+00  1.57932E-01
      21    -1     0     0   501   502  0.000000000E+00  0.000000000E+00  3.444047048E+01  3.444047048E+01  0.000000000E+00  0.00000E+00  9.000E+00
      21    -1     0     0   512   503  0.000000000E+00  0.000000000E+00 -1.236628224E+03  1.236628224E+03  0.000000000E+00  0.00000E+00  9.000E+00
      25     1     1     2     0     0  9.486590381E+01 -3.139263966E+01 -9.609559998E+02  9.741903600E+02  1.250015461E+02  0.00000E+00  9.000E+00
       5     1     1     2   501     0 -4.745792560E-01 -4.287829361E+00  1.234833283E+01  1.391598109E+01  4.750000000E+00  0.00000E+00  9.000E+00
      -5     1     1     2     0   503 -7.872778965E+01  2.103338508E+01 -1.057719759E+02  1.336066673E+02  4.750000000E+00  0.00000E+00  9.000E+00
      21     1     1     2   512   502 -1.566353491E+01  1.464708393E+01 -1.478081112E+02  1.493556866E+02  1.907348633E-06  0.00000E+00  9.000E+00
#rwgt            1           9  -6.9657143549331480E-005           2      183810           0
</event>
<event>
      6   9999  3.45752E-01  8.35288E+01 -1.00000E+00  1.23853E-01
      21    -1     0     0   501   502  0.000000000E+00  0.000000000E+00  4.264609277E+02  4.264609277E+02  0.000000000E+00  0.00000E+00  9.000E+00
      21    -1     0     0   502   511  0.000000000E+00  0.000000000E+00 -2.001475278E+02  2.001475278E+02  0.000000000E+00  0.00000E+00  9.000E+00
      25     1     1     2     0     0 -1.282659823E+02  7.016094635E+01  1.076670957E+02  2.204462087E+02  1.250184259E+02  0.00000E+00  9.000E+00
       5     1     1     2   501     0 -1.069655758E+02  4.586455764E+01  6.599525829E+01  1.338772896E+02  4.750000000E+00  0.00000E+00  9.000E+00
      -5     1     1     2     0   503  1.551029239E+02 -9.243614335E+01  5.472864796E+01  1.887303500E+02  4.750000000E+00  0.00000E+00  9.000E+00
      21     1     1     2   503   511  8.012863419E+01 -2.358936064E+01 -2.077602025E+00  8.355460719E+01  1.286342255E-06  0.00000E+00  9.000E+00
#rwgt            1           9   6.2789027893393287E-002           2      185674           0
</event>
<event>
      6   9999  3.45752E-01  1.01921E+02 -1.00000E+00  1.20085E-01
      -4    -1     0     0     0   502  0.000000000E+00  0.000000000E+00  1.040192517E+01  1.040192517E+01  0.000000000E+00  0.00000E+00  9.000E+00
      21    -1     0     0   501   512  0.000000000E+00  0.000000000E+00 -3.464396113E+03  3.464396113E+03  0.000000000E+00  0.00000E+00  9.000E+00
      25     1     1     2     0     0  1.429637728E+01  6.006271145E+01 -2.759909009E+03  2.763428967E+03  1.250199901E+02  0.00000E+00  9.000E+00
       5     1     1     2   501     0  5.588995932E+00  2.171632687E+01 -9.511355558E+01  9.783653041E+01  4.750000000E+00  0.00000E+00  9.000E+00
      -5     1     1     2     0   502 -9.948131038E-01  1.837647288E+01 -2.287332932E+02  2.295216032E+02  4.750000000E+00  0.00000E+00  9.000E+00
      -4     1     1     2     0   512 -1.889056011E+01 -1.001555112E+02 -3.702383296E+02  3.840109378E+02  7.629394531E-06  0.00000E+00  9.000E+00
#rwgt            1           5   2.9306763091890928E-008           2      186801           0
</event>
<event>
      6   9999  3.45752E-01  2.49231E+01 -1.00000E+00  1.53242E-01
      21    -1     0     0   501   502  0.000000000E+00  0.000000000E+00  1.075001852E+01  1.075001852E+01  0.000000000E+00  0.00000E+00  9.000E+00
      21    -1     0     0   511   503  0.000000000E+00  0.000000000E+00 -1.022335252E+03  1.022335252E+03  0.000000000E+00  0.00000E+00  9.000E+00
      25     1     1     2     0     0  1.491078199E+01  1.023709656E+01 -7.464176062E+02  7.570246992E+02  1.249800897E+02  0.00000E+00  9.000E+00
       5     1     1     2   501     0  3.076738958E+00  3.242664510E+00  1.705821705E+00  6.741922829E+00  4.750000000E+00  0.00000E+00  9.000E+00
      -5     1     1     2     0   503 -3.809800409E+00  7.017865797E+00 -3.924558908E+01  4.033043245E+01  4.750000000E+00  0.00000E+00  9.000E+00
      21     1     1     2   511   502 -1.417772054E+01 -2.049762686E+01 -2.276278594E+02  2.289882155E+02  0.000000000E+00  0.00000E+00  9.000E+00
#rwgt            1           9   8.6687288106547869E-004           2      187125           0
</event>
<event>
      6   9999  3.45752E-01  3.65584E+00 -1.00000E+00  2.56225E-01
      21    -1     0     0   501   502  0.000000000E+00  0.000000000E+00  5.102943932E+01  5.102943932E+01  0.000000000E+00  0.00000E+00  9.000E+00
      21    -1     0     0   502   512  0.000000000E+00  0.000000000E+00 -1.902246780E+02  1.902246780E+02  0.000000000E+00  0.00000E+00  9.000E+00
      25     1     1     2     0     0  2.645080020E+01 -3.852548314E+01 -7.877160312E+01  1.549625823E+02  1.249983150E+02  0.00000E+00  9.000E+00
       5     1     1     2   501     0  4.341463632E-01  1.866827172E-01  3.703327054E+00  6.041561451E+00  4.750000000E+00  0.00000E+00  9.000E+00
      -5     1     1     2     0   503 -2.401783284E+01  3.607057749E+01 -5.350564560E+01  6.901709547E+01  4.750000000E+00  0.00000E+00  9.000E+00
      21     1     1     2   503   512 -2.867113723E+00  2.268222924E+00 -1.062131705E+01  1.123287818E+01  0.000000000E+00  0.00000E+00  9.000E+00
#rwgt            1           9   6.4613559191638876E-003           2      188126           0
</event>
<event>
      6   9999  3.45752E-01  1.52891E+01 -1.00000E+00  1.69656E-01
      21    -1     0     0   501   502  0.000000000E+00  0.000000000E+00  8.197332592E+01  8.197332592E+01  0.000000000E+00  0.00000E+00  9.000E+00
      21    -1     0     0   511   503  0.000000000E+00  0.000000000E+00 -8.020716424E+02  8.020716424E+02  0.000000000E+00  0.00000E+00  9.000E+00
      25     1     1     2     0     0 -4.106403513E+00  4.400566128E+00 -3.118010277E+02  3.359831512E+02  1.250142771E+02  0.00000E+00  9.000E+00
       5     1     1     2   501     0 -1.922568565E+00 -1.269474955E-01  6.889017441E+01  6.908061244E+01  4.750000000E+00  0.00000E+00  9.000E+00
      -5     1     1     2     0   503 -9.114601218E+00 -2.168896791E+00 -3.531116107E+01  3.684047590E+01  4.750000000E+00  0.00000E+00  9.000E+00
      21     1     1     2   511   502  1.514357330E+01 -2.104721842E+00 -4.418763021E+02  4.421407288E+02  5.394796609E-06  0.00000E+00  9.000E+00
#rwgt            1           9   148.05065007580242                2      193205           0
</event>
<event>
      6   9999  3.45752E-01  2.07787E+01 -1.00000E+00  1.58954E-01
      21    -1     0     0   501   512  0.000000000E+00  0.000000000E+00  4.090197335E+01  4.090197335E+01  0.000000000E+00  0.00000E+00  9.000E+00
      21    -1     0     0   502   503  0.000000000E+00  0.000000000E+00 -9.508611116E+02  9.508611116E+02  0.000000000E+00  0.00000E+00  9.000E+00
      25     1     1     2     0     0  4.753964835E+01  1.177326790E+01 -8.856431294E+02  8.957558860E+02  1.249649020E+02  0.00000E+00  9.000E+00
       5     1     1     2   501     0 -2.854501520E+01 -7.152602681E+00 -9.317576603E+00  3.123071167E+01  4.750000000E+00  0.00000E+00  9.000E+00
      -5     1     1     2     0   503 -6.758049925E+00  1.217280156E+01 -3.373164617E+01  3.679992921E+01  4.750000000E+00  0.00000E+00  9.000E+00
      21     1     1     2   502   512 -1.223658323E+01 -1.679346678E+01  1.873321392E+01  2.797655803E+01  0.000000000E+00  0.00000E+00  9.000E+00
#rwgt            1           9   1.0794647986683878E-002           2      195703           0
</event>
<event>
      6   9999  3.45752E-01  2.15495E+01 -1.00000E+00  1.57776E-01
      21    -1     0     0   511   502  0.000000000E+00  0.000000000E+00  5.786972725E+01  5.786972725E+01  0.000000000E+00  0.00000E+00  9.000E+00
      21    -1     0     0   502   503  0.000000000E+00  0.000000000E+00 -1.172070882E+02  1.172070882E+02  0.000000000E+00  0.00000E+00  9.000E+00
      25     1     1     2     0     0 -1.683839401E+01 -7.151998213E+00 -5.514532877E+01  1.378442173E+02  1.250013534E+02  0.00000E+00  9.000E+00
       5     1     1     2   501     0 -7.767389584E-01 -5.237356895E-01  2.193452396E+00  5.315200457E+00  4.750000000E+00  0.00000E+00  9.000E+00
      -5     1     1     2     0   503 -2.132851297E+00 -9.496522845E-01 -8.762790763E+00  1.023718204E+01  4.750000000E+00  0.00000E+00  9.000E+00
      21     1     1     2   511   501  1.974798426E+01  8.625386187E+00  2.377306132E+00  2.168021572E+01  4.359703910E-07  0.00000E+00  9.000E+00
#rwgt            1           9   6.1210447397819117                2      197296           0
</event>
<event>
      6   9999  3.45752E-01  1.13743E+01 -1.00000E+00  1.81489E-01
      21    -1     0     0   501   502  0.000000000E+00  0.000000000E+00  5.560633013E+02  5.560633013E+02  0.000000000E+00  0.00000E+00  9.000E+00
      21    -1     0     0   502   512  0.000000000E+00  0.000000000E+00 -7.890077966E+01  7.890077966E+01  0.000000000E+00  0.00000E+00  9.000E+00
      25     1     1     2     0     0  2.178300131E+01 -7.240953663E+00 -3.126228384E+00  1.271273905E+02  1.249986782E+02  0.00000E+00  9.000E+00
       5     1     1     2   501     0 -3.944674596E-01  9.005568189E-01  4.814164971E+02  4.814409339E+02  4.750000000E+00  0.00000E+00  9.000E+00
      -5     1     1     2     0   503 -1.017300061E+01  4.446419859E+00 -6.612983573E+00  1.376788447E+01  4.750000000E+00  0.00000E+00  9.000E+00
      21     1     1     2   503   512 -1.121553324E+01  1.893976985E+00  5.485236448E+00  1.262787209E+01  3.039252468E-07  0.00000E+00  9.000E+00
#rwgt            1           9   1.0783344260253755                2      198416           0
</event>
<event>
      6   9999  3.45752E-01  2.81743E+01 -1.00000E+00  1.49624E-01
      21    -1     0     0   501   511  0.000000000E+00  0.000000000E+00  7.841561855E+01  7.841561855E+01  0.000000000E+00  0.00000E+00  9.000E+00
      21    -1     0     0   502   503  0.000000000E+00  0.000000000E+00 -8.186728249E+02  8.186728249E+02  0.000000000E+00  0.00000E+00  9.000E+00
      25     1     1     2     0     0 -8.621787733E+00  2.387415329E+01 -7.937363068E+02  8.039200347E+02  1.250031486E+02  0.00000E+00  9.000E+00
       5     1     1     2   501     0 -1.396436743E+01  1.589076587E+00  4.744207915E+01  4.970756578E+01  4.750000000E+00  0.00000E+00  9.000E+00
      -5     1     1     2     0   503  3.579632965E+00 -4.665546916E+00 -8.814350452E+00  1.161190657E+01  4.750000000E+00  0.00000E+00  9.000E+00
      21     1     1     2   502   511  1.900652219E+01 -2.079768296E+01  1.485137175E+01  3.184893633E+01  1.052827938E-06  0.00000E+00  9.000E+00
#rwgt            1           9   2.0196090578464309E-004           2      201952           0
</event>
<event>
      6   9999  3.45752E-01  7.90890E+00 -1.00000E+00  1.98606E-01
      21    -1     0     0   512   502  0.000000000E+00  0.000000000E+00  7.824421749E+00  7.824421749E+00  0.000000000E+00  0.00000E+00  9.000E+00
      21    -1     0     0   502   503  0.000000000E+00  0.000000000E+00 -2.922405782E+03  2.922405782E+03  0.000000000E+00  0.00000E+00  9.000E+00
      25     1     1     2     0     0 -1.528964241E+00 -2.461791784E+00 -2.650090620E+03  2.653038403E+03  1.249963075E+02  0.00000E+00  9.000E+00
       5     1     1     2   501     0  1.847587358E+00  3.743286040E+00  3.868205554E+00  7.412913302E+00  4.750000000E+00  0.00000E+00  9.000E+00
      -5     1     1     2     0   503  7.176435282E+00 -3.806345639E+00 -2.437222870E+02  2.439038852E+02  4.750000000E+00  0.00000E+00  9.000E+00
      21     1     1     2   512   501 -7.495058399E+00  2.524851383E+00 -2.463665894E+01  2.587500220E+01  4.768371582E-07  0.00000E+00  9.000E+00
#rwgt            1           9   1.9607075048630733E-002           2      203605           0
</event>
<event>
      6   9999  3.45752E-01  1.54847E+01 -1.00000E+00  1.69183E-01
      21    -1     0     0   501   502  0.000000000E+00  0.000000000E+00  9.097944056E+00  9.097944056E+00  0.000000000E+00  0.00000E+00  9.000E+00
      21    -1     0     0   511   503  0.000000000E+00  0.000000000E+00 -1.375997542E+03  1.375997542E+03  0.000000000E+00  0.00000E+00  9.000E+00
      25     1     1     2     0     0  5.429929228E+00 -2.013617104E+01 -4.989021355E+02  5.147460458E+02  1.250008054E+02  0.00000E+00  9.000E+00
       5     1     1     2   501     0 -3.710970252E+00  5.802688904E+00 -5.910785449E+01  5.969709760E+01  4.750000000E+00  0.00000E+00  9.000E+00
      -5     1     1     2     0   503 -1.684560428E+01  1.764416881E+01 -1.962901986E+02  1.978572608E+02  4.750000000E+00  0.00000E+00  9.000E+00
      21     1     1     2   511   502  1.512664531E+01 -3.310686679E+00 -6.125994097E+02  6.127950822E+02  7.629394531E-06  0.00000E+00  9.000E+00
#rwgt            1           9   4.6321074627343681E-003           2      207045           0
</event>
<event>
      6   9999  3.45752E-01  2.87239E+00 -1.00000E+00  2.81944E-01
      21    -1     0     0   501   502  0.000000000E+00  0.000000000E+00  3.675788327E+01  3.675788327E+01  0.000000000E+00  0.00000E+00  9.000E+00
      21    -1     0     0   502   512  0.000000000E+00  0.000000000E+00 -1.397895501E+03  1.397895501E+03  0.000000000E+00  0.00000E+00  9.000E+00
      25     1     1     2     0     0 -1.925122776E+01  1.413476745E+01 -1.003362798E+03  1.011400971E+03  1.249984713E+02  0.00000E+00  9.000E+00
       5     1     1     2   501     0  4.166580992E+00 -5.016431813E+00  3.177285768E+01  3.278112216E+01  4.750000000E+00  0.00000E+00  9.000E+00
      -5     1     1     2     0   503  1.676377169E+01 -6.787844562E+00 -1.932454722E+02  1.941480721E+02  4.750000000E+00  0.00000E+00  9.000E+00
      21     1     1     2   503   512 -1.679124922E+00 -2.330491078E+00 -1.963022048E+02  1.963232188E+02  0.000000000E+00  0.00000E+00  9.000E+00
#rwgt            1           9   1.1232828083430080E-003           2      208669           0
</event>
<event>
      6   9999 -3.45752E-01  3.47487E+01 -1.00000E+00  1.43825E-01
      21    -1     0     0   511   502  0.000000000E+00  0.000000000E+00  1.496874189E+02  1.496874189E+02  0.000000000E+00  0.00000E+00  9.000E+00
      21    -1     0     0   502   503  0.000000000E+00  0.000000000E+00 -4.848369044E+03  4.848369044E+03  0.000000000E+00  0.00000E+00  9.000E+00
      25     1     1     2     0     0  1.806534491E+01 -2.769780498E+01 -4.428041892E+03  4.429929216E+03  1.249973264E+02  0.00000E+00  9.000E+00
       5     1     1     2   501     0  9.044886816E+00 -6.453814059E+00 -3.147937897E+00  1.248734185E+01  4.750000000E+00  0.00000E+00  9.000E+00
      -5     1     1     2     0   503  6.348539986E+00  2.477160493E+01 -4.090515560E+02  4.098776334E+02  4.750000000E+00  0.00000E+00  9.000E+00
      21     1     1     2   511   501 -3.345877171E+01  9.380014106E+00  1.415597609E+02  1.457622721E+02  6.031565972E-06  0.00000E+00  9.000E+00
#rwgt            1           9  -5.7627948023941178E-004           2      216839           0
</event>
<event>
      6   9999  3.45752E-01  2.30630E+00 -1.00000E+00  3.10648E-01
      21    -1     0     0   501   512  0.000000000E+00  0.000000000E+00  2.996910078E+01  2.996910078E+01  0.000000000E+00  0.00000E+00  9.000E+00
      21    -1     0     0   502   503  0.000000000E+00  0.000000000E+00 -6.997937682E+02  6.997937682E+02  0.000000000E+00  0.00000E+00  9.000E+00
      25     1     1     2     0     0 -3.103225497E+00  2.867183164E+00 -6.339709078E+02  6.461904279E+02  1.250004260E+02  0.00000E+00  9.000E+00
       5     1     1     2   501     0 -2.035624365E-01 -2.790960873E-01 -8.300347280E+00  9.569618449E+00  4.750000000E+00  0.00000E+00  9.000E+00
      -5     1     1     2     0   503  1.116538675E+00 -3.310465681E+00 -5.054906331E+01  5.089180822E+01  4.750000000E+00  0.00000E+00  9.000E+00
      21     1     1     2   502   512  2.190249258E+00  7.223786046E-01  2.299565095E+01  2.311101438E+01  1.545128989E-06  0.00000E+00  9.000E+00
#rwgt            1           9   1.5762736096815909E-004           2      217961           0
</event>
<event>
      6   9999  3.45752E-01  4.93440E+01 -1.00000E+00  1.35095E-01
      21    -1     0     0   501   511  0.000000000E+00  0.000000000E+00  5.986083116E+01  5.986083116E+01  0.000000000E+00  0.00000E+00  9.000E+00
      21    -1     0     0   502   503  0.000000000E+00  0.000000000E+00 -1.402008576E+03  1.402008576E+03  0.000000000E+00  0.00000E+00  9.000E+00
      25     1     1     2     0     0  1.944661587E+01 -1.185612445E+02 -7.110675924E+02  7.319032707E+02  1.250213464E+02  0.00000E+00  9.000E+00
       5     1     1     2   501     0 -9.454460525E-01 -9.997948849E+00  3.635978187E+01  3.801906216E+01  4.750000000E+00  0.00000E+00  9.000E+00
      -5     1     1     2     0   503  3.776126961E+00  8.453021157E+01 -6.115393976E+02  6.173836839E+02  4.750000000E+00  0.00000E+00  9.000E+00
      21     1     1     2   502   511 -2.227729678E+01  4.402898177E+01 -5.590053654E+01  7.456339030E+01  9.536743164E-07  0.00000E+00  9.000E+00
#rwgt            1           9   4.8080679763621709E-003           2      224305           0
</event>
<event>
      6   9999 -3.45752E-01  1.45162E+01 -1.00000E+00  1.71615E-01
      21    -1     0     0   501   502  0.000000000E+00  0.000000000E+00  1.009123936E+01  1.009123936E+01  0.000000000E+00  0.00000E+00  9.000E+00
      21    -1     0     0   502   512  0.000000000E+00  0.000000000E+00 -1.190527490E+03  1.190527490E+03  0.000000000E+00  0.00000E+00  9.000E+00
      25     1     1     2     0     0 -2.730681477E+01  4.860422052E+00 -5.005536841E+02  5.166698697E+02  1.249979107E+02  0.00000E+00  9.000E+00
       5     1     1     2   501     0 -4.858210318E-01  1.924091676E-01 -1.625249082E+00  5.047472431E+00  4.750000000E+00  0.00000E+00  9.000E+00
      -5     1     1     2     0   503  1.361458122E+01 -1.937977092E+00 -2.773333573E+02  2.777147208E+02  4.750000000E+00  0.00000E+00  9.000E+00
      21     1     1     2   503   512  1.417805458E+01 -3.114854128E+00 -4.009239599E+02  4.011866662E+02  9.344061824E-06  0.00000E+00  9.000E+00
#rwgt            1           9  -3.1343357927108384E-005           2      225664           0
</event>
<event>
      6   9999  3.45752E-01  3.30261E+00 -1.00000E+00  2.66433E-01
      21    -1     0     0   501   502  0.000000000E+00  0.000000000E+00  2.837931246E+03  2.837931246E+03  0.000000000E+00  0.00000E+00  9.000E+00
      21    -1     0     0   502   511  0.000000000E+00  0.000000000E+00 -5.919608959E+00  5.919608959E+00  0.000000000E+00  0.00000E+00  9.000E+00
      25     1     1     2     0     0 -2.333487914E+00 -2.259611891E+00  9.532331491E+02  9.613986217E+02  1.249932890E+02  0.00000E+00  9.000E+00
       5     1     1     2   501     0 -1.726250615E+00  3.753120198E+00  1.860376449E+03  1.860387099E+03  4.750000000E+00  0.00000E+00  9.000E+00
      -5     1     1     2     0   503  7.573746115E-01 -1.534044421E+00  1.805120003E+01  1.874393852E+01  4.750000000E+00  0.00000E+00  9.000E+00
      21     1     1     2   503   511  3.302363918E+00  4.053611397E-02  3.508391602E-01  3.321195378E+00  5.444534393E-07  0.00000E+00  9.000E+00
#rwgt            1           9   8.9687123853038810E-003           2      227910           0
</event>
<event>
      6   9999  3.45752E-01  1.77613E+01 -1.00000E+00  1.64248E-01
       2    -1     0     0   501     0  0.000000000E+00  0.000000000E+00  2.093644069E+03  2.093644069E+03  0.000000000E+00  0.00000E+00  9.000E+00
      21    -1     0     0   502   503  0.000000000E+00  0.000000000E+00 -7.638491508E+02  7.638491508E+02  0.000000000E+00  0.00000E+00  9.000E+00
      25     1     1     2     0     0  2.404748265E+01  8.616319992E+00 -6.441597678E+02  6.566731037E+02  1.250009450E+02  0.00000E+00  9.000E+00
       5     1     1     2   501     0 -6.185845009E+00  1.044149543E+01  5.194778311E+01  5.355767148E+01  4.750000000E+00  0.00000E+00  9.000E+00
      -5     1     1     2     0   503 -1.070583712E+01 -2.801784705E+00 -1.122669745E+02  1.129110314E+02  4.750000000E+00  0.00000E+00  9.000E+00
       2     1     1     2   502     0 -7.155800524E+00 -1.625603072E+01  2.034273877E+03  2.034351413E+03  0.000000000E+00  0.00000E+00  9.000E+00
#rwgt            1           9   6.5122109306412837E-003           2      233304           0
</event>
<event>
      6   9999 -3.45752E-01  2.53912E+01 -1.00000E+00  1.52682E-01
      21    -1     0     0   501   502  0.000000000E+00  0.000000000E+00  1.498296146E+01  1.498296146E+01  0.000000000E+00  0.00000E+00  9.000E+00
      21    -1     0     0   502   511  0.000000000E+00  0.000000000E+00 -9.765132228E+02  9.765132228E+02  0.000000000E+00  0.00000E+00  9.000E+00
      25     1     1     2     0     0  4.056428878E+00 -6.262425435E+01 -4.628782312E+02  4.835509482E+02  1.250080428E+02  0.00000E+00  9.000E+00
       5     1     1     2   501     0  4.568393743E-01 -1.796527166E+00 -2.512370775E-02  5.098955116E+00  4.750000000E+00  0.00000E+00  9.000E+00
      -5     1     1     2     0   503 -2.476313108E+00  3.911140340E+01 -3.191367521E+02  3.215690642E+02  4.750000000E+00  0.00000E+00  9.000E+00
      21     1     1     2   503   511 -2.036955144E+00  2.530937812E+01 -1.794901544E+02  1.812772168E+02  3.303624740E-06  0.00000E+00  9.000E+00
#rwgt            1           9  -3.9807716635732661E-004           2      236081           0
</event>
<event>
      6   9999 -3.45752E-01  1.57525E+01 -1.00000E+00  1.68549E-01
      21    -1     0     0   501   502  0.000000000E+00  0.000000000E+00  9.473907891E+00  9.473907891E+00  0.000000000E+00  0.00000E+00  9.000E+00
       1    -1     0     0   502     0  0.000000000E+00  0.000000000E+00 -2.115574588E+03  2.115574588E+03  0.000000000E+00  0.00000E+00  9.000E+00
      25     1     1     2     0     0 -8.009221908E+00  1.242426676E+01 -6.361827963E+02  6.485180057E+02  1.250141726E+02  0.00000E+00  9.000E+00
       5     1     1     2   501     0 -2.328253955E+00  1.854729856E+00  5.751107582E-01  5.635072466E+00  4.750000000E+00  0.00000E+00  9.000E+00
      -5     1     1     2     0   503  3.858847855E+00  7.962292566E-02 -5.939679285E+01  5.971129330E+01  4.750000000E+00  0.00000E+00  9.000E+00
       1     1     1     2   503     0  6.478628008E+00 -1.435861954E+01 -1.411096202E+03  1.411184125E+03  1.525878906E-05  0.00000E+00  9.000E+00
#rwgt            1           9  -9.2001536191978987E-003           2      237267           0
</event>
<event>
      6   9999  3.45752E-01  3.03551E+01 -1.00000E+00  1.47508E-01
       2    -1     0     0   501     0  0.000000000E+00  0.000000000E+00  2.682849976E+03  2.682849976E+03  0.000000000E+00  0.00000E+00  9.000E+00
      21    -1     0     0   502   503  0.000000000E+00  0.000000000E+00 -1.012211867E+03  1.012211867E+03  0.000000000E+00  0.00000E+00  9.000E+00
      25     1     1     2     0     0  9.234620042E+01  1.900788119E+00 -4.407230039E+02  4.673265477E+02  1.250036092E+02  0.00000E+00  9.000E+00
       5     1     1     2   501     0 -6.500743144E+01  2.833548542E+01 -3.779672482E+02  3.845915613E+02  4.750000000E+00  0.00000E+00  9.000E+00
      -5     1     1     2     0   503 -2.981689911E+01  1.746832476E-02 -1.755323599E+02  1.781101335E+02  4.750000000E+00  0.00000E+00  9.000E+00
       2     1     1     2   502     0  2.478130129E+00 -3.025374186E+01  2.664860721E+03  2.665033600E+03  4.315837288E-05  0.00000E+00  9.000E+00
#rwgt            1           9   1.1850939182204510E-003           2      239524           0
</event>
<event>
      6   9999  3.45752E-01  1.46214E+01 -1.00000E+00  1.71339E-01
      21    -1     0     0   511   502  0.000000000E+00  0.000000000E+00  7.487396934E+00  7.487396934E+00  0.000000000E+00  0.00000E+00  9.000E+00
      21    -1     0     0   502   503  0.000000000E+00  0.000000000E+00 -1.558359328E+03  1.558359328E+03  0.000000000E+00  0.00000E+00  9.000E+00
      25     1     1     2     0     0  1.300691478E+01 -3.617389921E+00 -1.483814230E+03  1.489131540E+03  1.250032357E+02  0.00000E+00  9.000E+00
       5     1     1     2   501     0  8.255310280E-01 -4.746505510E-02 -2.148101430E+01  2.201545434E+01  4.750000000E+00  0.00000E+00  9.000E+00
      -5     1     1     2     0   503  4.895559990E-01  6.608573785E+00 -3.669996781E+01  3.759472104E+01  4.750000000E+00  0.00000E+00  9.000E+00
      21     1     1     2   511   501 -1.432200180E+01 -2.943718808E+00 -8.876719167E+00  1.710500977E+01  9.386548846E-07  0.00000E+00  9.000E+00
#rwgt            1           9   1.0208743807000693E-004           2      240922           0
</event>
<event>
      6   9999  3.45752E-01  1.25579E+01 -1.00000E+00  1.77343E-01
      21    -1     0     0   512   502  0.000000000E+00  0.000000000E+00  7.258145802E+00  7.258145802E+00  0.000000000E+00  0.00000E+00  9.000E+00
      21    -1     0     0   502   503  0.000000000E+00  0.000000000E+00 -3.518508722E+03  3.518508722E+03  0.000000000E+00  0.00000E+00  9.000E+00
      25     1     1     2     0     0 -1.527099923E+01  8.679653910E+00 -2.801788637E+03  2.804630724E+03  1.250015660E+02  0.00000E+00  9.000E+00
       5     1     1     2   501     0  1.752049376E+00  2.220422613E+00  4.082132892E+00  6.872136680E+00  4.750000000E+00  0.00000E+00  9.000E+00
      -5     1     1     2     0   503  2.116508367E+00 -5.638319449E+00 -5.962977435E+02  5.963470732E+02  4.750000000E+00  0.00000E+00  9.000E+00
      21     1     1     2   512   501  1.140244149E+01 -5.261757074E+00 -1.172463282E+02  1.179169336E+02  1.907348633E-06  0.00000E+00  9.000E+00
#rwgt            1           9  0.14584728336864350                2      242413           0
</event>
<event>
      6   9999  3.45752E-01  8.61173E+00 -1.00000E+00  1.94301E-01
      21    -1     0     0   511   502  0.000000000E+00  0.000000000E+00  1.134966661E+01  1.134966661E+01  0.000000000E+00  0.00000E+00  9.000E+00
      21    -1     0     0   502   503  0.000000000E+00  0.000000000E+00 -7.562301851E+02  7.562301851E+02  0.000000000E+00  0.00000E+00  9.000E+00
      25     1     1     2     0     0 -2.182368254E+01  8.022194083E+00 -6.432111022E+02  6.556563545E+02  1.249964178E+02  0.00000E+00  9.000E+00
       5     1     1     2   501     0 -2.097077682E-01  1.292827370E-01 -4.619868941E+00  6.630714924E+00  4.750000000E+00  0.00000E+00  9.000E+00
      -5     1     1     2     0   503  2.188032436E+01  4.588951488E-01 -9.321239122E+01  9.586486090E+01  4.750000000E+00  0.00000E+00  9.000E+00
      21     1     1     2   511   501  1.530659447E-01 -8.610371969E+00 -3.837156133E+00  9.427921394E+00  4.214684851E-07  0.00000E+00  9.000E+00
#rwgt            1           9   7.1367297606739657E-006           2      244833           0
</event>
<event>
      6   9999 -3.45752E-01  1.38915E+01 -1.00000E+00  1.73313E-01
      21    -1     0     0   501   502  0.000000000E+00  0.000000000E+00  4.703999619E+01  4.703999619E+01  0.000000000E+00  0.00000E+00  9.000E+00
      21    -1     0     0   502   512  0.000000000E+00  0.000000000E+00 -2.309007374E+03  2.309007374E+03  0.000000000E+00  0.00000E+00  9.000E+00
      25     1     1     2     0     0 -1.175035892E+02 -6.695556921E+01 -6.128314360E+02  6.399048719E+02  1.250029376E+02  0.00000E+00  9.000E+00
       5     1     1     2   501     0  1.177014498E+00  3.455716295E+00  1.819665672E+01  1.915745688E+01  4.750000000E+00  0.00000E+00  9.000E+00
      -5     1     1     2     0   503  1.234912058E+02  7.540117146E+01 -3.394719719E+02  3.690517536E+02  4.750000000E+00  0.00000E+00  9.000E+00
      21     1     1     2   503   512 -7.164631120E+00 -1.190131854E+01 -1.327860626E+03  1.327933287E+03  1.525878906E-05  0.00000E+00  9.000E+00
#rwgt            1           9 -0.88813375690738883                2      247251           0
</event>
<event>
      6   9999  3.45752E-01  1.54861E+01 -1.00000E+00  1.69180E-01
      21    -1     0     0   501   502  0.000000000E+00  0.000000000E+00  3.121478066E+02  3.121478066E+02  0.000000000E+00  0.00000E+00  9.000E+00
      21    -1     0     0   511   503  0.000000000E+00  0.000000000E+00 -1.257061231E+02  1.257061231E+02  0.000000000E+00  0.00000E+00  9.000E+00
      25     1     1     2     0     0 -8.620910334E+01 -4.509115575E+01  2.234059099E+02  2.738623481E+02  1.250006532E+02  0.00000E+00  9.000E+00
       5     1     1     2   501     0  6.575679019E-01 -1.708816870E+00  3.420487508E+01  3.458161982E+01  4.750000000E+00  0.00000E+00  9.000E+00
      -5     1     1     2     0   503  8.697719590E+01  3.137965773E+01 -6.034485226E+01  1.105159682E+02  4.750000000E+00  0.00000E+00  9.000E+00
      21     1     1     2   511   502 -1.425660467E+00  1.542031489E+01 -1.082424933E+01  1.889399355E+01  2.064765462E-07  0.00000E+00  9.000E+00
#rwgt            1           9   5.3229016646073738E-004           2      250167           0
</event>
<event>
      6   9999  3.45752E-01  1.25927E+01 -1.00000E+00  1.77230E-01
      21    -1     0     0   501   512  0.000000000E+00  0.000000000E+00  4.349349447E+01  4.349349447E+01  0.000000000E+00  0.00000E+00  9.000E+00
      21    -1     0     0   502   503  0.000000000E+00  0.000000000E+00 -1.094051442E+03  1.094051442E+03  0.000000000E+00  0.00000E+00  9.000E+00
      25     1     1     2     0     0 -6.719276282E+00  8.689193239E+01 -2.911009637E+02  3.285745307E+02  1.250043783E+02  0.00000E+00  9.000E+00
       5     1     1     2   501     0 -5.670484588E+01 -6.203832907E+01 -3.291169221E+02  3.397126797E+02  4.750000000E+00  0.00000E+00  9.000E+00
      -5     1     1     2     0   503  6.648973170E+01 -3.706746447E+01 -4.441018679E+02  4.506039424E+02  4.750000000E+00  0.00000E+00  9.000E+00
      21     1     1     2   502   512 -3.065609537E+00  1.221386115E+01  1.376180569E+01  1.865378412E+01  5.591411304E-07  0.00000E+00  9.000E+00
#rwgt            1           9   8.3372259095464106E-003           2      252881           0
</event>
<event>
      6   9999  3.45752E-01  9.37706E+00 -1.00000E+00  1.90185E-01
      21    -1     0     0   501   511  0.000000000E+00  0.000000000E+00  1.785907444E+01  1.785907444E+01  0.000000000E+00  0.00000E+00  9.000E+00
      21    -1     0     0   502   503  0.000000000E+00  0.000000000E+00 -8.768507038E+02  8.768507038E+02  0.000000000E+00  0.00000E+00  9.000E+00
      25     1     1     2     0     0 -1.355850729E+01 -2.334357273E+01 -6.570786173E+02  6.694074047E+02  1.250008347E+02  0.00000E+00  9.000E+00
       5     1     1     2   501     0  1.626113757E+00  8.905475073E-01  9.318472208E+00  1.062232296E+01  4.750000000E+00  0.00000E+00  9.000E+00
      -5     1     1     2     0   503  1.441415580E+01  1.341033900E+01 -1.940694653E+02  1.951233583E+02  4.750000000E+00  0.00000E+00  9.000E+00
      21     1     1     2   502   511 -2.481762268E+00  9.042686228E+00 -1.716201895E+01  1.955669227E+01  5.840038640E-07  0.00000E+00  9.000E+00
#rwgt            1           9   2.3619820635436826E-004           2      256364           0
</event>
<event>
      6   9999  3.45752E-01  1.59961E+01 -1.00000E+00  1.67987E-01
      21    -1     0     0   512   502  0.000000000E+00  0.000000000E+00  1.564398789E+02  1.564398789E+02  0.000000000E+00  0.00000E+00  9.000E+00
      21    -1     0     0   502   503  0.000000000E+00  0.000000000E+00 -1.537132457E+03  1.537132457E+03  0.000000000E+00  0.00000E+00  9.000E+00
      25     1     1     2     0     0 -5.239956388E+01 -1.083761102E+02 -1.351537839E+03  1.362632935E+03  1.249915599E+02  0.00000E+00  9.000E+00
       5     1     1     2   501     0  4.279018527E+01  1.256569348E+02  1.087880371E+01  1.332725632E+02  4.750000000E+00  0.00000E+00  9.000E+00
      -5     1     1     2     0   503  3.236910655E+00 -2.608846845E+00 -1.179533117E+02  1.181220975E+02  4.750000000E+00  0.00000E+00  9.000E+00
      21     1     1     2   512   501  6.372467956E+00 -1.467197776E+01  7.791976898E+01  7.954474009E+01  3.015782986E-06  0.00000E+00  9.000E+00
#rwgt            1           9   2.7884112467427273E-002           2      259234           0
</event>
<event>
      6   9999  3.45752E-01  9.17216E+00 -1.00000E+00  1.91235E-01
      21    -1     0     0   501   511  0.000000000E+00  0.000000000E+00  1.033247628E+01  1.033247628E+01  0.000000000E+00  0.00000E+00  9.000E+00
      21    -1     0     0   502   503  0.000000000E+00  0.000000000E+00 -7.475727108E+02  7.475727108E+02  0.000000000E+00  0.00000E+00  9.000E+00
      25     1     1     2     0     0  6.085648710E+00 -7.542971588E+00 -7.106969020E+02  7.216699444E+02  1.249939621E+02  0.00000E+00  9.000E+00
       5     1     1     2   501     0 -3.060436191E+00  1.465901912E-01 -3.375522939E+00  6.583647430E+00  4.750000000E+00  0.00000E+00  9.000E+00
      -5     1     1     2     0   503 -3.055561096E+00 -1.775733183E+00 -1.836977312E+01  1.930027840E+01  4.750000000E+00  0.00000E+00  9.000E+00
      21     1     1     2   502   511  3.034857732E-02  9.172114580E+00 -4.798036420E+00  1.035131684E+01  3.318646170E-07  0.00000E+00  9.000E+00
#rwgt            1           9   2.2205094981490005E-004           2      262431           0
</event>
<event>
      6   9999 -3.45752E-01  5.74634E+00 -1.00000E+00  2.16705E-01
      21    -1     0     0   512   502  0.000000000E+00  0.000000000E+00  8.352455655E+01  8.352455655E+01  0.000000000E+00  0.00000E+00  9.000E+00
      21    -1     0     0   502   503  0.000000000E+00  0.000000000E+00 -3.017913119E+02  3.017913119E+02  0.000000000E+00  0.00000E+00  9.000E+00
      25     1     1     2     0     0 -1.451751040E+01 -5.515449102E+00 -2.743635044E+02  3.018966348E+02  1.250002691E+02  0.00000E+00  9.000E+00
       5     1     1     2   501     0  2.804622339E+00 -3.217828433E-01  4.703126224E+01  4.735474188E+01  4.750000000E+00  0.00000E+00  9.000E+00
      -5     1     1     2     0   503  1.693915321E+01  8.226076625E+00 -5.683756360E+00  2.023538570E+01  4.750000000E+00  0.00000E+00  9.000E+00
      21     1     1     2   512   501 -5.226265151E+00 -2.388844680E+00  1.474924314E+01  1.582910609E+01  2.920019320E-07  0.00000E+00  9.000E+00
#rwgt            1           9  -2.0187288797468756E-003           2      264824           0
</event>
<event>
      6   9999 -3.45752E-01  1.23107E+01 -1.00000E+00  1.78160E-01
      21    -1     0     0   511   502  0.000000000E+00  0.000000000E+00  1.378097920E+01  1.378097920E+01  0.000000000E+00  0.00000E+00  9.000E+00
      21    -1     0     0   502   503  0.000000000E+00  0.000000000E+00 -8.156780323E+02  8.156780323E+02  0.000000000E+00  0.00000E+00  9.000E+00
      25     1     1     2     0     0 -1.800382588E+00  1.276572548E+01 -7.429704632E+02  7.535238238E+02  1.250073548E+02  0.00000E+00  9.000E+00
       5     1     1     2   501     0  1.648261480E+00  2.907215883E+00  2.183817017E+00  6.204855104E+00  4.750000000E+00  0.00000E+00  9.000E+00
      -5     1     1     2     0   503  1.112461732E+01 -1.009095865E+01 -5.222207968E+01  5.454624334E+01  4.750000000E+00  0.00000E+00  9.000E+00
      21     1     1     2   511   501 -1.097249622E+01 -5.581982712E+00 -8.888327179E+00  1.518408918E+01  4.616955931E-07  0.00000E+00  9.000E+00
#rwgt            1           9  -2.8746152787679415E-005           2      269495           0
</event>
<event>
      6   9999  3.45752E-01  1.29869E+01 -1.00000E+00  1.75980E-01
      21    -1     0     0   501   502  0.000000000E+00  0.000000000E+00  3.751399001E+01  3.751399001E+01  0.000000000E+00  0.00000E+00  9.000E+00
      21    -1     0     0   512   503  0.000000000E+00  0.000000000E+00 -3.647336963E+02  3.647336963E+02  0.000000000E+00  0.00000E+00  9.000E+00
      25     1     1     2     0     0 -1.289928390E+00 -2.888030977E+00 -1.244671381E+02  1.764298205E+02  1.250016338E+02  0.00000E+00  9.000E+00
       5     1     1     2   501     0 -1.575791388E+00 -3.363246487E-01  6.479375233E+00  8.193963399E+00  4.750000000E+00  0.00000E+00  9.000E+00
      -5     1     1     2     0   503 -7.295642067E+00 -4.863006453E+00 -2.234075103E+00  1.021904186E+01  4.750000000E+00  0.00000E+00  9.000E+00
      21     1     1     2   512   502  1.016136184E+01  8.087362078E+00 -2.069978684E+02  2.074048606E+02  0.000000000E+00  0.00000E+00  9.000E+00
#rwgt            1           9   2.4614587198914639E-003           2      271565           0
</event>
<event>
      6   9999  3.45752E-01  7.11387E+00 -1.00000E+00  2.04249E-01
      21    -1     0     0   511   502  0.000000000E+00  0.000000000E+00  1.154829218E+02  1.154829218E+02  0.000000000E+00  0.00000E+00  9.000E+00
      21    -1     0     0   502   503  0.000000000E+00  0.000000000E+00 -2.692251065E+02  2.692251065E+02  0.000000000E+00  0.00000E+00  9.000E+00
      25     1     1     2     0     0  8.925309469E+01 -2.062702663E+01 -2.071624731E+02  2.587118024E+02  1.249956691E+02  0.00000E+00  9.000E+00
       5     1     1     2   501     0 -7.061485291E-01  2.966077232E-01  3.085207996E+01  3.122498934E+01  4.750000000E+00  0.00000E+00  9.000E+00
      -5     1     1     2     0   503 -8.335409661E+01  1.546816645E+01  2.135870504E+01  8.755527611E+01  4.750000000E+00  0.00000E+00  9.000E+00
      21     1     1     2   511   501 -5.192849559E+00  4.862252453E+00  1.209503499E+00  7.215960378E+00  8.161702119E-08  0.00000E+00  9.000E+00
#rwgt            1           9  0.41905972223215310                2      273629           0
</event>
<event>
      6   9999  3.45752E-01  2.08462E+02 -1.00000E+00  1.08275E-01
       1    -1     0     0   501     0  0.000000000E+00  0.000000000E+00  4.556667220E+03  4.556667220E+03  0.000000000E+00  0.00000E+00  9.000E+00
      21    -1     0     0   512   502  0.000000000E+00  0.000000000E+00 -4.152431784E+01  4.152431784E+01  0.000000000E+00  0.00000E+00  9.000E+00
      25     1     1     2     0     0  8.461397223E+01  3.455162333E+01  2.884212667E+02  3.273588205E+02  1.249945250E+02  0.00000E+00  9.000E+00
       5     1     1     2   501     0 -1.806417324E+02  1.561336008E+02  7.920159476E+02  8.272369434E+02  4.750000000E+00  0.00000E+00  9.000E+00
      -5     1     1     2     0   502  3.855963625E+00 -3.706753449E+00  8.742126452E+00  1.129582894E+01  4.750000000E+00  0.00000E+00  9.000E+00
       1     1     1     2   512     0  9.217179652E+01 -1.869784707E+02  3.425963562E+03  3.432299945E+03  7.475249459E-05  0.00000E+00  9.000E+00
#rwgt            1           2   4.2083956828945045E-005           2      277883           0
</event>
<event>
      6   9999 -3.45752E-01  1.32668E+01 -1.00000E+00  1.75126E-01
       4    -1     0     0   501     0  0.000000000E+00  0.000000000E+00  1.138660737E+03  1.138660737E+03  0.000000000E+00  0.00000E+00  9.000E+00
      21    -1     0     0   502   503  0.000000000E+00  0.000000000E+00 -1.038937999E+03  1.038937999E+03  0.000000000E+00  0.00000E+00  9.000E+00
      25     1     1     2     0     0 -6.311490787E+00 -7.274311631E+00 -9.099518561E+02  9.185592161E+02  1.250835820E+02  0.00000E+00  9.000E+00
       5     1     1     2   501     0 -4.269499510E+00 -6.896784118E+00  1.755070341E+01  1.990939345E+01  4.750000000E+00  0.00000E+00  9.000E+00
      -5     1     1     2     0   503  1.069259746E+01  9.047600268E-01 -1.231848136E+02  1.237425191E+02  4.750000000E+00  0.00000E+00  9.000E+00
       4     1     1     2   502     0 -1.116071672E-01  1.326633572E+01  1.115308705E+03  1.115387608E+03  1.525878906E-05  0.00000E+00  9.000E+00
#rwgt            1           9  -3.8456733217529720E-005           2      278004           0
</event>
<event>
      6   9999  3.45752E-01  7.28836E+00 -1.00000E+00  2.02929E-01
      21    -1     0     0   501   511  0.000000000E+00  0.000000000E+00  1.394207932E+01  1.394207932E+01  0.000000000E+00  0.00000E+00  9.000E+00
      21    -1     0     0   502   503  0.000000000E+00  0.000000000E+00 -7.849058048E+02  7.849058048E+02  0.000000000E+00  0.00000E+00  9.000E+00
      25     1     1     2     0     0 -1.576814295E+01 -1.624364447E+01 -6.550216137E+02  6.672262797E+02  1.250004143E+02  0.00000E+00  9.000E+00
       5     1     1     2   501     0 -3.740889282E-01  9.131761799E-01  7.342125281E-01  4.906669063E+00  4.750000000E+00  0.00000E+00  9.000E+00
      -5     1     1     2     0   503  2.220997624E+01  1.936813017E+01 -1.155462820E+02  1.193394876E+02  4.750000000E+00  0.00000E+00  9.000E+00
      21     1     1     2   502   511 -6.067744355E+00 -4.037661885E+00 -1.130042345E+00  7.375447834E+00  2.195078114E-07  0.00000E+00  9.000E+00
#rwgt            1           9   4.9209586951399814E-004           2      280537           0
</event>
<event>
      6   9999  3.45752E-01  9.87687E+00 -1.00000E+00  1.87762E-01
      21    -1     0     0   512   502  0.000000000E+00  0.000000000E+00  2.275613785E+01  2.275613785E+01  0.000000000E+00  0.00000E+00  9.000E+00
      21    -1     0     0   502   503  0.000000000E+00  0.000000000E+00 -4.108232739E+03  4.108232739E+03  0.000000000E+00  0.00000E+00  9.000E+00
      25     1     1     2     0     0  7.611921731E+00 -1.231071025E+01 -4.051716658E+03  4.053670224E+03  1.249996282E+02  0.00000E+00  9.000E+00
       5     1     1     2   501     0 -4.900210384E+00 -7.022629319E-02  1.107807493E+01  1.301165776E+01  4.750000000E+00  0.00000E+00  9.000E+00
      -5     1     1     2     0   503 -8.373727281E-01  2.683539437E+00 -5.188253534E+01  5.217530594E+01  4.750000000E+00  0.00000E+00  9.000E+00
      21     1     1     2   512   501 -1.874338619E+00  9.697397111E+00  7.044517804E+00  1.213168937E+01  8.840797528E-07  0.00000E+00  9.000E+00
#rwgt            1           9   2.6614877370608101E-003           2      283612           0
</event>
<event>
      6   9999 -3.45752E-01  1.65680E+01 -1.00000E+00  1.66712E-01
      21    -1     0     0   501   502  0.000000000E+00  0.000000000E+00  6.381745766E+01  6.381745766E+01  0.000000000E+00  0.00000E+00  9.000E+00
      21    -1     0     0   511   503  0.000000000E+00  0.000000000E+00 -5.151909446E+02  5.151909446E+02  0.000000000E+00  0.00000E+00  9.000E+00
      25     1     1     2     0     0  7.687118708E-01 -1.744331807E+01 -4.339990051E+02  4.519761608E+02  1.249898126E+02  0.00000E+00  9.000E+00
       5     1     1     2   501     0 -1.721724712E+00  3.135503781E-01  4.684626007E+01  4.711896892E+01  4.750000000E+00  0.00000E+00  9.000E+00
      -5     1     1     2     0   503 -2.253136154E+00  8.749459805E-01  5.848079147E+00  7.912312096E+00  4.750000000E+00  0.00000E+00  9.000E+00
      21     1     1     2   511   502  3.206148994E+00  1.625482171E+01 -7.006882103E+01  7.200096041E+01  9.536743164E-07  0.00000E+00  9.000E+00
#rwgt            1           9  -2.1076380822420333E-003           2      288420           0
</event>
<event>
      6   9999  3.45752E-01  4.64143E+00 -1.00000E+00  2.35198E-01
      21    -1     0     0   501   512  0.000000000E+00  0.000000000E+00  1.569418160E+02  1.569418160E+02  0.000000000E+00  0.00000E+00  9.000E+00
      21    -1     0     0   502   503  0.000000000E+00  0.000000000E+00 -1.430529643E+02  1.430529643E+02  0.000000000E+00  0.00000E+00  9.000E+00
      25     1     1     2     0     0  1.800694913E+01  1.855868043E+01 -1.045358419E+02  1.649910662E+02  1.250025393E+02  0.00000E+00  9.000E+00
       5     1     1     2   501     0 -6.843479326E-03 -5.153342529E+00  8.893946924E+01  8.921518186E+01  4.750000000E+00  0.00000E+00  9.000E+00
      -5     1     1     2     0   503 -2.200777666E+01 -1.574659163E+01  1.661726593E+01  3.210908607E+01  4.750000000E+00  0.00000E+00  9.000E+00
      21     1     1     2   502   512  4.007671001E+00  2.341253725E+00  1.286795846E+01  1.367944629E+01  1.685873940E-07  0.00000E+00  9.000E+00
#rwgt            1           9   2.3318698169883179E-004           2      290839           0
</event>
<event>
      6   9999  3.45752E-01  2.57750E+01 -1.00000E+00  1.52233E-01
      21    -1     0     0   501   502  0.000000000E+00  0.000000000E+00  5.547022423E+01  5.547022423E+01  0.000000000E+00  0.00000E+00  9.000E+00
      21    -1     0     0   511   503  0.000000000E+00  0.000000000E+00 -1.651988776E+03  1.651988776E+03  0.000000000E+00  0.00000E+00  9.000E+00
      25     1     1     2     0     0 -6.254609385E+01  6.220149633E+01 -3.001506023E+02  3.368915920E+02  1.249980827E+02  0.00000E+00  9.000E+00
       5     1     1     2   501     0  2.169300981E+01  1.656679923E+01  3.006675626E+01  4.088542336E+01  4.750000000E+00  0.00000E+00  9.000E+00
      -5     1     1     2     0   503  2.125272259E+01 -6.202983172E+01 -1.046611284E+03  1.048673982E+03  4.750000000E+00  0.00000E+00  9.000E+00
      21     1     1     2   511   502  1.960036145E+01 -1.673846384E+01 -2.798234224E+02  2.810080035E+02  0.000000000E+00  0.00000E+00  9.000E+00
#rwgt            1           9  0.13145913203957180                2      296409           0
</event>
<event>
      6   9999  3.45752E-01  4.26452E+01 -1.00000E+00  1.38592E-01
      21    -1     0     0   501   502  0.000000000E+00  0.000000000E+00  1.332399424E+03  1.332399424E+03  0.000000000E+00  0.00000E+00  9.000E+00
      21    -1     0     0   502   512  0.000000000E+00  0.000000000E+00 -9.694449883E+01  9.694449883E+01  0.000000000E+00  0.00000E+00  9.000E+00
      25     1     1     2     0     0 -7.992948895E+01  1.397018046E+02  2.044557310E+02  2.886722614E+02  1.249968446E+02  0.00000E+00  9.000E+00
       5     1     1     2   501     0  1.871111951E+00 -2.800050214E+00  6.351120229E+02  6.351387136E+02  4.750000000E+00  0.00000E+00  9.000E+00
      -5     1     1     2     0   503  8.602044402E+01 -1.787970844E+02  4.140662667E+02  4.591746398E+02  4.750000000E+00  0.00000E+00  9.000E+00
      21     1     1     2   503   512 -7.962067022E+00  4.189532997E+01 -1.817909562E+01  4.635830780E+01  4.768371582E-07  0.00000E+00  9.000E+00
#rwgt            1           9   7.3372658851990338E-003           2      299014           0
</event>
<event>
      6   9999  3.45752E-01  2.12162E+01 -1.00000E+00  1.58278E-01
      21    -1     0     0   501   502  0.000000000E+00  0.000000000E+00  2.490053325E+02  2.490053325E+02  0.000000000E+00  0.00000E+00  9.000E+00
      21    -1     0     0   502   511  0.000000000E+00  0.000000000E+00 -9.182270374E+01  9.182270374E+01  0.000000000E+00  0.00000E+00  9.000E+00
      25     1     1     2     0     0  2.035281099E+01  1.972581221E+01 -1.918821803E+01  1.296016983E+02  1.250002716E+02  0.00000E+00  9.000E+00
       5     1     1     2   501     0 -1.366819500E+00  9.807811152E+00  1.743420718E+02  1.746876694E+02  4.750000000E+00  0.00000E+00  9.000E+00
      -5     1     1     2     0   503 -1.037130382E+01 -1.014512461E+01  8.983033572E-01  1.529238193E+01  4.750000000E+00  0.00000E+00  9.000E+00
      21     1     1     2   503   511 -8.614687674E+00 -1.938849875E+01  1.130471609E+00  2.124628658E+01  3.335331274E-07  0.00000E+00  9.000E+00
#rwgt            1           9   1.7843521749042599E-004           2      300442           0
</event>
<event>
      6   9999  3.45752E-01  1.54337E+01 -1.00000E+00  1.69306E-01
      21    -1     0     0   502   512  0.000000000E+00  0.000000000E+00  8.297027686E+00  8.297027686E+00  0.000000000E+00  0.00000E+00  9.000E+00
      21    -1     0     0   501   502  0.000000000E+00  0.000000000E+00 -3.832722533E+03  3.832722533E+03  0.000000000E+00  0.00000E+00  9.000E+00
      25     1     1     2     0     0 -6.669216323E+01 -7.843001490E+01 -9.728984981E+02  9.862835332E+02  1.249984331E+02  0.00000E+00  9.000E+00
       5     1     1     2   501     0  1.753671200E+01  5.500513608E+00 -1.318647418E+03  1.318784049E+03  4.750000000E+00  0.00000E+00  9.000E+00
      -5     1     1     2     0   503  4.916517940E+01  5.749578550E+01 -1.420068004E+03  1.422089546E+03  4.750000000E+00  0.00000E+00  9.000E+00
      21     1     1     2   503   512 -9.728174784E-03  1.543371579E+01 -1.128115846E+02  1.138624315E+02  2.336015456E-06  0.00000E+00  9.000E+00
#rwgt            1           9   8.9240623194122015E-002           2      302313           0
</event>
<event>
      6   9999  3.45752E-01  1.27628E+01 -1.00000E+00  1.76684E-01
       2    -1     0     0   501     0  0.000000000E+00  0.000000000E+00  4.645344525E+01  4.645344525E+01  0.000000000E+00  0.00000E+00  9.000E+00
      21    -1     0     0   502   503  0.000000000E+00  0.000000000E+00 -1.856899695E+03  1.856899695E+03  0.000000000E+00  0.00000E+00  9.000E+00
      25     1     1     2     0     0 -1.181311488E+01 -1.179060783E+01 -1.734609204E+03  1.739187888E+03  1.250074006E+02  0.00000E+00  9.000E+00
       5     1     1     2   501     0 -8.972017212E-01 -1.798350585E-01 -1.457320212E+01  1.535506534E+01  4.750000000E+00  0.00000E+00  9.000E+00
      -5     1     1     2     0   503  5.586550904E-01  1.587240664E+01 -1.034324676E+02  1.047524856E+02  4.750000000E+00  0.00000E+00  9.000E+00
       2     1     1     2   502     0  1.215166151E+01 -3.901963747E+00  4.216862408E+01  4.405770143E+01  6.743495762E-07  0.00000E+00  9.000E+00
#rwgt            1           9   4.9953569649382687E-004           2      304447           0
</event>
<event>
      6   9999  3.45752E-01  2.29048E+00 -1.00000E+00  3.11649E-01
       2    -1     0     0   501     0  0.000000000E+00  0.000000000E+00  1.608987126E+03  1.608987126E+03  0.000000000E+00  0.00000E+00  9.000E+00
      21    -1     0     0   502   503  0.000000000E+00  0.000000000E+00 -2.485348164E+03  2.485348164E+03  0.000000000E+00  0.00000E+00  9.000E+00
      25     1     1     2     0     0  3.722630774E+00 -1.358405876E+00 -1.088004946E+03  1.095168699E+03  1.249960532E+02  0.00000E+00  9.000E+00
       5     1     1     2   501     0  7.797534523E-01  2.738456868E-01 -9.376237101E+00  1.054321246E+01  4.750000000E+00  0.00000E+00  9.000E+00
      -5     1     1     2     0   503 -2.467651833E+00  3.280884965E-02 -1.383795622E+03  1.383805975E+03  4.750000000E+00  0.00000E+00  9.000E+00
       2     1     1     2   502     0 -2.034732394E+00  1.051751339E+00  1.604815768E+03  1.604817403E+03  3.737624730E-05  0.00000E+00  9.000E+00
#rwgt            1           9   4.4392870995944714E-004           2      305972           0
</event>
<event>
      6   9999  3.45752E-01  1.82977E+01 -1.00000E+00  1.63216E-01
      21    -1     0     0   501   502  0.000000000E+00  0.000000000E+00  3.641463174E+01  3.641463174E+01  0.000000000E+00  0.00000E+00  9.000E+00
      21    -1     0     0   511   503  0.000000000E+00  0.000000000E+00 -1.157733226E+03  1.157733226E+03  0.000000000E+00  0.00000E+00  9.000E+00
      25     1     1     2     0     0 -8.538714641E+01 -5.424839090E+01 -9.077635436E+02  9.218973293E+02  1.250047281E+02  0.00000E+00  9.000E+00
       5     1     1     2   501     0  2.260416783E+00 -7.142952861E-01  1.698691341E+01  1.779711856E+01  4.750000000E+00  0.00000E+00  9.000E+00
      -5     1     1     2     0   503  7.972817238E+01  3.698333904E+01 -1.735010553E+02  1.945495503E+02  4.750000000E+00  0.00000E+00  9.000E+00
      21     1     1     2   511   502  3.398557249E+00  1.797934714E+01 -5.704090901E+01  5.990385978E+01  1.168007728E-06  0.00000E+00  9.000E+00
#rwgt            1           9   1.2426274926668160E-003           2      312811           0
</event>
<event>
      6   9999  3.45752E-01  2.57561E+01 -1.00000E+00  1.52255E-01
      21    -1     0     0   512   502  0.000000000E+00  0.000000000E+00  8.430064042E+01  8.430064042E+01  0.000000000E+00  0.00000E+00  9.000E+00
      21    -1     0     0   502   503  0.000000000E+00  0.000000000E+00 -8.525045852E+02  8.525045852E+02  0.000000000E+00  0.00000E+00  9.000E+00
      25     1     1     2     0     0  4.223211660E+00  1.818044321E+01 -6.288297536E+02  6.414046415E+02  1.249987648E+02  0.00000E+00  9.000E+00
       5     1     1     2   501     0 -4.476864803E+00 -1.169985389E+00  2.174783385E+00  6.978779768E+00  4.750000000E+00  0.00000E+00  9.000E+00
      -5     1     1     2     0   503 -2.255705493E+01 -2.897072701E+01 -2.110651580E+02  2.142876272E+02  4.750000000E+00  0.00000E+00  9.000E+00
      21     1     1     2   512   501  2.281070807E+01  1.196026919E+01  6.951618347E+01  7.413417704E+01  2.861022949E-06  0.00000E+00  9.000E+00
#rwgt            1           9   9.6401726703691727E-004           2      315257           0
</event>
<event>
      6   9999 -3.45752E-01  8.29519E+00 -1.00000E+00  1.96170E-01
      21    -1     0     0   511   502  0.000000000E+00  0.000000000E+00  1.154589553E+01  1.154589553E+01  0.000000000E+00  0.00000E+00  9.000E+00
      21    -1     0     0   502   503  0.000000000E+00  0.000000000E+00 -1.282422132E+03  1.282422132E+03  0.000000000E+00  0.00000E+00  9.000E+00
      25     1     1     2     0     0  7.668957673E+00 -2.186936313E+01 -7.800415689E+02  7.903349239E+02  1.250094425E+02  0.00000E+00  9.000E+00
       5     1     1     2   501     0  2.451742160E+00  1.236349024E+00 -1.483939678E+00  5.683676231E+00  4.750000000E+00  0.00000E+00  9.000E+00
      -5     1     1     2     0   503 -3.283048010E+00  2.532946924E+01 -4.889551276E+02  4.896448098E+02  4.750000000E+00  0.00000E+00  9.000E+00
      21     1     1     2   511   501 -6.837651823E+00 -4.696455135E+00 -3.956001750E-01  8.304617558E+00  4.761090065E-07  0.00000E+00  9.000E+00
#rwgt            1           9  -2.0508514118356747E-003           2      316597           0
</event>
<event>
      6   9999  3.45752E-01  3.47612E+00 -1.00000E+00  2.61184E-01
      21    -1     0     0   501   502  0.000000000E+00  0.000000000E+00  3.367694211E+00  3.367694211E+00  0.000000000E+00  0.00000E+00  9.000E+00
      21    -1     0     0   502   512  0.000000000E+00  0.000000000E+00 -2.612414379E+03  2.612414379E+03  0.000000000E+00  0.00000E+00  9.000E+00
      25     1     1     2     0     0 -1.946434106E+00 -1.557856987E+01 -1.644080213E+03  1.648900223E+03  1.250028757E+02  0.00000E+00  9.000E+00
       5     1     1     2   501     0 -1.738977773E-01  3.421556954E-02 -5.772891289E+00  7.477980006E+00  4.750000000E+00  0.00000E+00  9.000E+00
      -5     1     1     2     0   503  1.121322210E+00  1.221488201E+01 -4.351562206E+02  4.353549811E+02  4.750000000E+00  0.00000E+00  9.000E+00
      21     1     1     2   503   512  9.990096731E-01  3.329472292E+00 -5.240373597E+02  5.240488887E+02  0.000000000E+00  0.00000E+00  9.000E+00
#rwgt            1           9   2.2653113435832153                2      319383           0
</event>
<event>
      6   9999  3.45752E-01  4.26400E+01 -1.00000E+00  1.38595E-01
      21    -1     0     0   501   502  0.000000000E+00  0.000000000E+00  3.442788197E+01  3.442788197E+01  0.000000000E+00  0.00000E+00  9.000E+00
      21    -1     0     0   511   503  0.000000000E+00  0.000000000E+00 -1.639962886E+03  1.639962886E+03  0.000000000E+00  0.00000E+00  9.000E+00
      25     1     1     2     0     0  2.723172497E+01  1.101385338E+02 -3.294332532E+02  3.701664906E+02  1.249995959E+02  0.00000E+00  9.000E+00
       5     1     1     2   501     0  1.797778941E+00  3.689566902E+00  1.051165893E+01  1.224346301E+01  4.750000000E+00  0.00000E+00  9.000E+00
      -5     1     1     2     0   503 -1.955756486E+01 -7.225347134E+01 -8.178339382E+02  8.212660808E+02  4.750000000E+00  0.00000E+00  9.000E+00
      21     1     1     2   511   502 -9.471939046E+00 -4.157462940E+01 -4.687794712E+02  4.707147332E+02  5.394796609E-06  0.00000E+00  9.000E+00
#rwgt            1           9   2.3567617009039756E-004           2      324144           0
</event>
<event>
      6   9999  3.45752E-01  4.76275E+01 -1.00000E+00  1.35927E-01
      21    -1     0     0   501   512  0.000000000E+00  0.000000000E+00  1.217098884E+01  1.217098884E+01  0.000000000E+00  0.00000E+00  9.000E+00
      21    -1     0     0   502   503  0.000000000E+00  0.000000000E+00 -9.831993737E+02  9.831993737E+02  0.000000000E+00  0.00000E+00  9.000E+00
      25     1     1     2     0     0 -1.710907067E+00 -5.051981818E+01 -5.197121265E+02  5.369187173E+02  1.250033411E+02  0.00000E+00  9.000E+00
       5     1     1     2   501     0 -4.834483401E-01  2.614947703E+00 -5.479142183E+01  5.506118488E+01  4.750000000E+00  0.00000E+00  9.000E+00
      -5     1     1     2     0   503 -1.728947078E+01  4.445060339E+00 -2.125305844E+02  2.133318921E+02  4.750000000E+00  0.00000E+00  9.000E+00
      21     1     1     2   502   512  1.948382619E+01  4.345981014E+01 -1.839942521E+02  1.900585683E+02  0.000000000E+00  0.00000E+00  9.000E+00
#rwgt            1           9   1.0035893634980152E-003           2      325639           0
</event>
<event>
      6   9999  3.45752E-01  1.38739E+01 -1.00000E+00  1.73362E-01
      21    -1     0     0   501   511  0.000000000E+00  0.000000000E+00  3.845881753E+01  3.845881753E+01  0.000000000E+00  0.00000E+00  9.000E+00
      21    -1     0     0   502   503  0.000000000E+00  0.000000000E+00 -1.015592687E+03  1.015592687E+03  0.000000000E+00  0.00000E+00  9.000E+00
      25     1     1     2     0     0 -1.556632121E+01  1.925309915E+01 -8.625519050E+02  8.719134940E+02  1.249974405E+02  0.00000E+00  9.000E+00
       5     1     1     2   501     0  1.566833753E+00  2.569297684E+00  1.603834974E+01  1.699551179E+01  4.750000000E+00  0.00000E+00  9.000E+00
      -5     1     1     2     0   503  2.747979568E+00 -1.370529609E+01 -1.446558594E+02  1.454072442E+02  4.750000000E+00  0.00000E+00  9.000E+00
      21     1     1     2   502   511  1.125150789E+01 -8.117100745E+00  1.403554494E+01  1.973525465E+01  1.400392070E-06  0.00000E+00  9.000E+00
#rwgt            1           9   4.5771031659300066E-005           2      326314           0
</event>
<event>
      6   9999  3.45752E-01  2.99509E+01 -1.00000E+00  1.47884E-01
      21    -1     0     0   501   502  0.000000000E+00  0.000000000E+00  1.659915114E+01  1.659915114E+01  0.000000000E+00  0.00000E+00  9.000E+00
      21    -1     0     0   502   512  0.000000000E+00  0.000000000E+00 -1.217156159E+03  1.217156159E+03  0.000000000E+00  0.00000E+00  9.000E+00
      25     1     1     2     0     0  6.261361443E+01  7.196659111E-01 -5.384244859E+02  5.562794141E+02  1.249995077E+02  0.00000E+00  9.000E+00
       5     1     1     2   501     0  6.007899158E+00 -3.517237817E+00  2.539582923E+00  8.802147214E+00  4.750000000E+00  0.00000E+00  9.000E+00
      -5     1     1     2     0   503 -4.126765383E+01 -9.401796133E+00 -3.508586233E+02  3.534342217E+02  4.750000000E+00  0.00000E+00  9.000E+00
      21     1     1     2   503   512 -2.735385976E+01  1.219936804E+01 -3.138134813E+02  3.152395269E+02  3.814697266E-06  0.00000E+00  9.000E+00
#rwgt            1           9   7.1897377021132129E-003           2      328592           0
</event>
<event>
      6   9999  3.45752E-01  1.19918E+01 -1.00000E+00  1.79250E-01
      21    -1     0     0   501   502  0.000000000E+00  0.000000000E+00  1.796693478E+01  1.796693478E+01  0.000000000E+00  0.00000E+00  9.000E+00
      21    -1     0     0   502   511  0.000000000E+00  0.000000000E+00 -1.589547654E+03  1.589547654E+03  0.000000000E+00  0.00000E+00  9.000E+00
      25     1     1     2     0     0 -8.102483522E+00  6.973018557E+00 -9.018959968E+02  9.105792096E+02  1.249953388E+02  0.00000E+00  9.000E+00
       5     1     1     2   501     0 -4.407142454E+00 -1.681260649E-01  1.225281534E+01  1.386164329E+01  4.750000000E+00  0.00000E+00  9.000E+00
      -5     1     1     2     0   503  6.229598318E-01 -8.389236945E+00 -4.509048866E+01  4.611379450E+01  4.750000000E+00  0.00000E+00  9.000E+00
      21     1     1     2   503   511  1.188666614E+01  1.584344454E+00 -6.368470494E+02  6.369599417E+02  0.000000000E+00  0.00000E+00  9.000E+00
#rwgt            1           9   5.5947814010038378E-003           2      329695           0
</event>
<event>
      6   9999 -3.45752E-01  2.06782E+01 -1.00000E+00  1.59113E-01
      21    -1     0     0   512   503  0.000000000E+00  0.000000000E+00  1.475761306E+01  1.475761306E+01  0.000000000E+00  0.00000E+00  9.000E+00
      21    -1     0     0   501   502  0.000000000E+00  0.000000000E+00 -8.337658252E+02  8.337658252E+02  0.000000000E+00  0.00000E+00  9.000E+00
      25     1     1     2     0     0 -3.784321177E+01 -1.852775429E+01 -7.350079864E+02  7.467513093E+02  1.250015661E+02  0.00000E+00  9.000E+00
       5     1     1     2   501     0  1.390736112E+01  9.149166387E+00 -3.205664673E+01  3.643230762E+01  4.750000000E+00  0.00000E+00  9.000E+00
      -5     1     1     2     0   503  3.744580351E+00  4.917472931E+00  1.586138874E+00  7.954983253E+00  4.750000000E+00  0.00000E+00  9.000E+00
      21     1     1     2   512   502  2.019127030E+01  4.461114970E+00 -5.352971783E+01  5.738483801E+01  6.743495762E-07  0.00000E+00  9.000E+00
#rwgt            1           9  -9.9645586038311265E-002           2      332020           0
</event>
<event>
      6   9999 -3.45752E-01  3.18514E+01 -1.00000E+00  1.46175E-01
      21    -1     0     0   511   502  0.000000000E+00  0.000000000E+00  2.045493563E+01  2.045493563E+01  0.000000000E+00  0.00000E+00  9.000E+00
      21    -1     0     0   502   503  0.000000000E+00  0.000000000E+00 -2.429881085E+03  2.429881085E+03  0.000000000E+00  0.00000E+00  9.000E+00
      25     1     1     2     0     0  1.118568631E+02  1.047022142E+02 -1.279023139E+03  1.294217750E+03  1.249995392E+02  0.00000E+00  9.000E+00
       5     1     1     2   501     0 -4.949200041E+01  1.290981731E+01 -1.221857477E+02  1.325444866E+02  4.750000000E+00  0.00000E+00  9.000E+00
      -5     1     1     2     0   503 -3.112690718E+01 -1.238333123E+02 -9.355146694E+02  9.442001021E+02  4.750000000E+00  0.00000E+00  9.000E+00
      21     1     1     2   511   501 -3.123795552E+01  6.221280723E+00 -7.270259338E+01  7.937368130E+01  0.000000000E+00  0.00000E+00  9.000E+00
#rwgt            1           9 -0.55412340204888788                2      334092           0
</event>
<event>
      6   9999  3.45752E-01  2.31513E+01 -1.00000E+00  1.55507E-01
      21    -1     0     0   502   503  0.000000000E+00  0.000000000E+00  8.564796932E+00  8.564796932E+00  0.000000000E+00  0.00000E+00  9.000E+00
      21    -1     0     0   501   512  0.000000000E+00  0.000000000E+00 -1.511502740E+03  1.511502740E+03  0.000000000E+00  0.00000E+00  9.000E+00
      25     1     1     2     0     0 -3.795128621E+01  1.125614549E+01 -5.991308348E+02  6.133112906E+02  1.250039240E+02  0.00000E+00  9.000E+00
       5     1     1     2   501     0  9.841113193E+00 -1.630771862E+01 -9.709477732E+01  9.905931293E+01  4.750000000E+00  0.00000E+00  9.000E+00
      -5     1     1     2     0   503  5.095861567E+00  2.536656209E+00 -4.304764332E+01  4.368139793E+01  4.750000000E+00  0.00000E+00  9.000E+00
      21     1     1     2   502   512  2.301431145E+01  2.514916924E+00 -7.636646873E+02  7.640155352E+02  1.525878906E-05  0.00000E+00  9.000E+00
#rwgt            1           9   3.0165468836392532E-004           2      335667           0
</event>
<event>
      6   9999  3.45752E-01  6.43441E+01 -1.00000E+00  1.29176E-01
      21    -1     0     0   501   511  0.000000000E+00  0.000000000E+00  1.566687248E+03  1.566687248E+03  0.000000000E+00  0.00000E+00  9.000E+00
      21    -1     0     0   502   503  0.000000000E+00  0.000000000E+00 -1.254164267E+01  1.254164267E+01  0.000000000E+00  0.00000E+00  9.000E+00
      25     1     1     2     0     0 -1.606841488E+01  6.394339404E+00  4.698502811E+02  4.865012189E+02  1.250002713E+02  0.00000E+00  9.000E+00
       5     1     1     2   501     0  8.265694843E-01  2.573795554E+00  7.359367416E+01  7.379633471E+01  4.750000000E+00  0.00000E+00  9.000E+00
      -5     1     1     2     0   503  3.811306326E+01  5.117400139E+01  5.643998839E+02  5.680151190E+02  4.750000000E+00  0.00000E+00  9.000E+00
      21     1     1     2   502   511 -2.287121786E+01 -6.014213634E+01  4.463017665E+02  4.509162184E+02  5.394796609E-06  0.00000E+00  9.000E+00
#rwgt            1           9   3.9731047639690478E-004           2      336771           0
</event>
<event>
      6   9999 -3.45752E-01  1.03627E+01 -1.00000E+00  1.85578E-01
      21    -1     0     0   501   502  0.000000000E+00  0.000000000E+00  4.279900925E+01  4.279900925E+01  0.000000000E+00  0.00000E+00  9.000E+00
      21    -1     0     0   512   503  0.000000000E+00  0.000000000E+00 -1.304002193E+03  1.304002193E+03  0.000000000E+00  0.00000E+00  9.000E+00
      25     1     1     2     0     0 -5.396517419E+01 -1.454648139E+02 -6.844858217E+02  7.128911929E+02  1.249830414E+02  0.00000E+00  9.000E+00
       5     1     1     2   501     0 -5.612896894E+00 -3.579219030E+00  1.699487113E+01  1.886010512E+01  4.750000000E+00  0.00000E+00  9.000E+00
      -5     1     1     2     0   503  5.620657780E+01  1.392450751E+02 -5.557387559E+02  5.756878474E+02  4.750000000E+00  0.00000E+00  9.000E+00
      21     1     1     2   512   502  3.371493291E+00  9.798957892E+00 -3.797347705E+01  3.936205663E+01  0.000000000E+00  0.00000E+00  9.000E+00
#rwgt            1           9  -6.4465257102357660E-005           2      337242           0
</event>
<event>
      6   9999 -3.45752E-01  7.74270E+00 -1.00000E+00  1.99711E-01
      21    -1     0     0   511   502  0.000000000E+00  0.000000000E+00  3.248435647E+01  3.248435647E+01  0.000000000E+00  0.00000E+00  9.000E+00
      21    -1     0     0   502   503  0.000000000E+00  0.000000000E+00 -1.036956033E+03  1.036956033E+03  0.000000000E+00  0.00000E+00  9.000E+00
      25     1     1     2     0     0 -2.702031444E+01  1.000548383E+01 -9.724710382E+02  9.808953621E+02  1.250023363E+02  0.00000E+00  9.000E+00
       5     1     1     2   501     0  1.113594360E+00  4.262212778E-01  2.258587680E+01  2.311073534E+01  4.750000000E+00  0.00000E+00  9.000E+00
      -5     1     1     2     0   503  2.585320052E+01 -2.689191000E+00 -4.967459350E+01  5.626497547E+01  4.750000000E+00  0.00000E+00  9.000E+00
      21     1     1     2   511   501  5.351956124E-02 -7.742514103E+00 -4.911921206E+00  9.169316164E+00  3.097148194E-07  0.00000E+00  9.000E+00
#rwgt            1           9  -4.6875584503217895E-005           2      340745           0
</event>
<event>
      6   9999 -3.45752E-01  6.31435E+00 -1.00000E+00  2.11015E-01
      21    -1     0     0   501   502  0.000000000E+00  0.000000000E+00  3.920039880E+01  3.920039880E+01  0.000000000E+00  0.00000E+00  9.000E+00
      21    -1     0     0   502   512  0.000000000E+00  0.000000000E+00 -1.828468015E+03  1.828468015E+03  0.000000000E+00  0.00000E+00  9.000E+00
      25     1     1     2     0     0  8.904927826E+00  1.161499800E+00 -1.094963173E+02  1.664184500E+02  1.250000407E+02  0.00000E+00  9.000E+00
       5     1     1     2   501     0 -1.894555590E-01 -3.487729121E-01  4.904972342E+00  6.839502147E+00  4.750000000E+00  0.00000E+00  9.000E+00
      -5     1     1     2     0   503 -4.079828097E+00 -5.100132247E+00  1.507121851E+00  8.215245737E+00  4.750000000E+00  0.00000E+00  9.000E+00
      21     1     1     2   503   512 -4.635644170E+00  4.287405360E+00 -1.686183393E+03  1.686195216E+03  0.000000000E+00  0.00000E+00  9.000E+00
#rwgt            1           9  -1.4791210597512189E-003           2      344564           0
</event>
<event>
      6   9999  3.45752E-01  3.93811E+01 -1.00000E+00  1.40580E-01
      21    -1     0     0   502   503  0.000000000E+00  0.000000000E+00  2.945290709E+02  2.945290709E+02  0.000000000E+00  0.00000E+00  9.000E+00
      21    -1     0     0   511   502  0.000000000E+00  0.000000000E+00 -1.383022716E+02  1.383022716E+02  0.000000000E+00  0.00000E+00  9.000E+00
      25     1     1     2     0     0  3.468216035E+01 -7.732637162E+00  2.403964720E+02  2.732738084E+02  1.250018586E+02  0.00000E+00  9.000E+00
       5     1     1     2   501     0  1.384637901E+00 -2.615427869E-01  1.583121938E+01  1.658841867E+01  4.750000000E+00  0.00000E+00  9.000E+00
      -5     1     1     2     0   503  2.582530676E+00  4.375495390E-01  1.787966057E+01  1.868436984E+01  4.750000000E+00  0.00000E+00  9.000E+00
      21     1     1     2   511   501 -3.864932892E+01  7.556630410E+00 -1.178805527E+02  1.242847456E+02  0.000000000E+00  0.00000E+00  9.000E+00
#rwgt            1           9   4.3053292816643647E-004           2      347553           0
</event>
<event>
      6   9999  3.45752E-01  1.15597E+01 -1.00000E+00  1.80798E-01
      21    -1     0     0   512   502  0.000000000E+00  0.000000000E+00  2.900919515E+01  2.900919515E+01  0.000000000E+00  0.00000E+00  9.000E+00
      21    -1     0     0   502   503  0.000000000E+00  0.000000000E+00 -1.008443154E+03  1.008443154E+03  0.000000000E+00  0.00000E+00  9.000E+00
      25     1     1     2     0     0 -3.828984814E+00  6.751098118E+00 -9.609757647E+02  9.691024910E+02  1.249999175E+02  0.00000E+00  9.000E+00
       5     1     1     2   501     0 -4.748447302E+00 -1.672342423E+00  1.603314926E+01  1.746335753E+01  4.750000000E+00  0.00000E+00  9.000E+00
      -5     1     1     2     0   503 -2.002864658E+00 -4.221654451E-01 -3.835197225E+01  3.869917268E+01  4.750000000E+00  0.00000E+00  9.000E+00
      21     1     1     2   512   501  1.058029677E+01 -4.656590250E+00  3.860628637E+00  1.218732809E+01  5.511415603E-07  0.00000E+00  9.000E+00
#rwgt            1           9   4.9538254471795991E-004           2      348246           0
</event>
<event>
      6   9999 -3.45752E-01  8.92383E+01 -1.00000E+00  1.22575E-01
      21    -1     0     0   511   502  0.000000000E+00  0.000000000E+00  3.557016408E+01  3.557016408E+01  0.000000000E+00  0.00000E+00  9.000E+00
      21    -1     0     0   502   503  0.000000000E+00  0.000000000E+00 -9.032829593E+02  9.032829593E+02  0.000000000E+00  0.00000E+00  9.000E+00
      25     1     1     2     0     0  2.851140241E+01  7.769844366E+01 -7.174209468E+02  7.329171996E+02  1.249994335E+02  0.00000E+00  9.000E+00
       5     1     1     2   501     0  4.355933696E+00  9.005855517E+00 -1.317836942E+01  1.721370131E+01  4.750000000E+00  0.00000E+00  9.000E+00
      -5     1     1     2     0   503  9.788772395E-01 -4.133686774E+00 -8.528959514E+01  8.552732374E+01  4.750000000E+00  0.00000E+00  9.000E+00
      21     1     1     2   511   501 -3.384621334E+01 -8.257061240E+01 -5.182388393E+01  1.031948988E+02  1.168007728E-06  0.00000E+00  9.000E+00
#rwgt            1           9  -2.0235263446312319E-003           2      351463           0
</event>
<event>
      6   9999 -3.45752E-01  1.15553E+01 -1.00000E+00  1.80814E-01
      21    -1     0     0   502   512  0.000000000E+00  0.000000000E+00  1.281620680E+01  1.281620680E+01  0.000000000E+00  0.00000E+00  9.000E+00
      21    -1     0     0   501   502  0.000000000E+00  0.000000000E+00 -8.340506643E+02  8.340506643E+02  0.000000000E+00  0.00000E+00  9.000E+00
      25     1     1     2     0     0 -4.942933652E+00  3.597279130E+01 -6.397684039E+02  6.528757575E+02  1.249986792E+02  0.00000E+00  9.000E+00
       5     1     1     2   501     0 -1.856595270E+00 -8.290552172E-01 -3.856195311E+01  3.890656765E+01  4.750000000E+00  0.00000E+00  9.000E+00
      -5     1     1     2     0   503  1.070363039E+01 -4.601952266E+01 -1.256003174E+02  1.342771998E+02  4.750000000E+00  0.00000E+00  9.000E+00
      21     1     1     2   503   512 -3.904101472E+00  1.087578658E+01 -1.730378318E+01  2.080734616E+01  2.384185791E-07  0.00000E+00  9.000E+00
#rwgt            1           9 -0.11878343718742243                2      351868           0
</event>
<event>
      6   9999  3.45752E-01  8.11654E+00 -1.00000E+00  1.97275E-01
      21    -1     0     0   501   511  0.000000000E+00  0.000000000E+00  2.141014671E+01  2.141014671E+01  0.000000000E+00  0.00000E+00  9.000E+00
      21    -1     0     0   502   503  0.000000000E+00  0.000000000E+00 -6.668345602E+02  6.668345602E+02  0.000000000E+00  0.00000E+00  9.000E+00
      25     1     1     2     0     0  2.599566178E+00  5.328514811E+00 -6.118764360E+02  6.245422927E+02  1.250006064E+02  0.00000E+00  9.000E+00
       5     1     1     2   501     0 -1.837682576E-01  5.300372757E-01 -1.246576477E+01  1.335187259E+01  4.750000000E+00  0.00000E+00  9.000E+00
      -5     1     1     2     0   503  2.708027285E+00  4.362615106E-01 -3.435642570E+01  3.479152516E+01  4.750000000E+00  0.00000E+00  9.000E+00
      21     1     1     2   502   511 -5.123825206E+00 -6.294813597E+00  1.327421300E+01  1.555901648E+01  9.233911863E-07  0.00000E+00  9.000E+00
#rwgt            1           9  0.15874184291799887                2      353759           0
</event>
<event>
      6   9999  3.45752E-01  1.31445E+01 -1.00000E+00  1.75496E-01
      21    -1     0     0   501   512  0.000000000E+00  0.000000000E+00  1.050676213E+02  1.050676213E+02  0.000000000E+00  0.00000E+00  9.000E+00
      21    -1     0     0   502   503  0.000000000E+00  0.000000000E+00 -8.288151535E+02  8.288151535E+02  0.000000000E+00  0.00000E+00  9.000E+00
      25     1     1     2     0     0  1.976603976E+00 -4.589189873E+00 -6.884044846E+02  6.996786022E+02  1.249977777E+02  0.00000E+00  9.000E+00
       5     1     1     2   501     0  1.973647966E+00 -4.895476297E+00  3.732450548E+00  8.022135723E+00  4.750000000E+00  0.00000E+00  9.000E+00
      -5     1     1     2     0   503 -4.294651805E+00 -3.655313361E+00 -1.320637104E+02  1.322693897E+02  4.750000000E+00  0.00000E+00  9.000E+00
      21     1     1     2   502   512  3.443998628E-01  1.313997953E+01  9.298821225E+01  9.391264713E+01  1.907348633E-06  0.00000E+00  9.000E+00
#rwgt            1           9   1.9300688548412415E-003           2      356409           0
</event>
<event>
      6   9999  3.45752E-01  1.55982E+01 -1.00000E+00  1.68912E-01
      21    -1     0     0   502   503  0.000000000E+00  0.000000000E+00  8.487443937E+00  8.487443937E+00  0.000000000E+00  0.00000E+00  9.000E+00
      21    -1     0     0   511   502  0.000000000E+00  0.000000000E+00 -9.979761778E+02  9.979761778E+02  0.000000000E+00  0.00000E+00  9.000E+00
      25     1     1     2     0     0  1.519995599E+01 -3.934502128E+00 -5.406725226E+02  5.551563780E+02  1.250012338E+02  0.00000E+00  9.000E+00
       5     1     1     2   501     0  9.742682517E+00  1.290683440E+00 -6.668360318E+01  6.757108227E+01  4.750000000E+00  0.00000E+00  9.000E+00
      -5     1     1     2     0   503 -1.389427367E+01 -8.367040851E+00 -1.259047596E+02  1.270339687E+02  4.750000000E+00  0.00000E+00  9.000E+00
      21     1     1     2   511   501 -1.104836484E+01  1.101085954E+01 -2.562278485E+02  2.567021927E+02  3.814697266E-06  0.00000E+00  9.000E+00
#rwgt            1           9   1.5709695197269143E-003           2      358571           0
</event>
<event>
      6   9999  3.45752E-01  1.52475E+01 -1.00000E+00  1.69758E-01
      21    -1     0     0   512   503  0.000000000E+00  0.000000000E+00  1.079691617E+01  1.079691617E+01  0.000000000E+00  0.00000E+00  9.000E+00
      21    -1     0     0   501   502  0.000000000E+00  0.000000000E+00 -1.947833648E+03  1.947833648E+03  0.000000000E+00  0.00000E+00  9.000E+00
      25     1     1     2     0     0 -4.896019563E+00  9.549364639E+00 -1.914193684E+03  1.918300588E+03  1.249981090E+02  0.00000E+00  9.000E+00
       5     1     1     2   501     0 -7.311212073E-01  1.836383924E+00 -8.827143988E+00  1.021703553E+01  4.750000000E+00  0.00000E+00  9.000E+00
      -5     1     1     2     0   503 -1.186770358E+00  2.254533937E+00 -1.385283826E+01  1.486455431E+01  4.750000000E+00  0.00000E+00  9.000E+00
      21     1     1     2   512   502  6.813911129E+00 -1.364028250E+01 -1.630661438E-01  1.524838621E+01  1.419146149E-06  0.00000E+00  9.000E+00
#rwgt            1           9  0.26010025862441422                2      360872           0
</event>
<event>
      6   9999  3.45752E-01  1.56433E+01 -1.00000E+00  1.68806E-01
      21    -1     0     0   501   511  0.000000000E+00  0.000000000E+00  1.296052638E+02  1.296052638E+02  0.000000000E+00  0.00000E+00  9.000E+00
      21    -1     0     0   502   503  0.000000000E+00  0.000000000E+00 -7.782313660E+01  7.782313660E+01  0.000000000E+00  0.00000E+00  9.000E+00
      25     1     1     2     0     0 -4.934766969E+00  1.194555228E+01 -1.881873944E+01  1.270661658E+02  1.249984696E+02  0.00000E+00  9.000E+00
       5     1     1     2   501     0  8.562750957E-02  2.006883044E+00  1.608043338E+01  1.688720668E+01  4.750000000E+00  0.00000E+00  9.000E+00
      -5     1     1     2     0   503  1.583314907E+00  1.346137356E+00 -1.430448585E+00  5.378443551E+00  4.750000000E+00  0.00000E+00  9.000E+00
      21     1     1     2   502   511  3.265824552E+00 -1.529857268E+01  5.595088185E+01  5.809658437E+01  6.743495762E-07  0.00000E+00  9.000E+00
#rwgt            1           9  0.69660961577058000                2      362499           0
</event>
<event>
      6   9999  3.45752E-01  3.03086E+00 -1.00000E+00  2.75754E-01
      21    -1     0     0   501   512  0.000000000E+00  0.000000000E+00  1.308852258E+01  1.308852258E+01  0.000000000E+00  0.00000E+00  9.000E+00
      21    -1     0     0   502   503  0.000000000E+00  0.000000000E+00 -8.345822738E+02  8.345822738E+02  0.000000000E+00  0.00000E+00  9.000E+00
      25     1     1     2     0     0  2.788177692E+01 -1.661865333E+01 -7.479952385E+02  7.590621719E+02  1.249997234E+02  0.00000E+00  9.000E+00
       5     1     1     2   501     0 -8.358083763E-01 -1.525603747E+00  2.592684398E+00  5.684237400E+00  4.750000000E+00  0.00000E+00  9.000E+00
      -5     1     1     2     0   503 -2.465171578E+01  1.628585945E+01 -6.959461911E+01  7.575559265E+01  4.750000000E+00  0.00000E+00  9.000E+00
      21     1     1     2   502   512 -2.394252762E+00  1.858397624E+00 -6.496577942E+00  7.168794388E+00  1.460009660E-07  0.00000E+00  9.000E+00
#rwgt            1           9   2.7816410317556744E-004           2      364257           0
</event>
<event>
      6   9999  3.45752E-01  2.68296E+01 -1.00000E+00  1.51046E-01
      21    -1     0     0   511   502  0.000000000E+00  0.000000000E+00  7.412775212E+01  7.412775212E+01  0.000000000E+00  0.00000E+00  9.000E+00
      21    -1     0     0   502   503  0.000000000E+00  0.000000000E+00 -1.369754520E+03  1.369754520E+03  0.000000000E+00  0.00000E+00  9.000E+00
      25     1     1     2     0     0 -7.228967257E+00 -1.384225424E+02 -2.113752144E+02  2.819881171E+02  1.249990349E+02  0.00000E+00  9.000E+00
       5     1     1     2   501     0 -4.676069259E-01 -7.895316234E-01  1.388575358E+01  1.470437585E+01  4.750000000E+00  0.00000E+00  9.000E+00
      -5     1     1     2     0   503  3.106295765E+01  1.260271500E+02 -1.110200778E+03  1.117772821E+03  4.750000000E+00  0.00000E+00  9.000E+00
      21     1     1     2   511   501 -2.336638347E+01  1.318492397E+01  1.206347077E+01  2.941695809E+01  1.215700987E-06  0.00000E+00  9.000E+00
#rwgt            1           9   3.4049849649516642E-005           2      371109           0
</event>
<event>
      6   9999  3.45752E-01  1.51235E+01 -1.00000E+00  1.70063E-01
      21    -1     0     0   501   502  0.000000000E+00  0.000000000E+00  9.413021682E+00  9.413021682E+00  0.000000000E+00  0.00000E+00  9.000E+00
      21    -1     0     0   512   503  0.000000000E+00  0.000000000E+00 -1.111435403E+03  1.111435403E+03  0.000000000E+00  0.00000E+00  9.000E+00
      25     1     1     2     0     0  2.104211588E+00 -1.362796651E+01 -7.022770929E+02  7.134480746E+02  1.249995629E+02  0.00000E+00  9.000E+00
       5     1     1     2   501     0  1.049892865E+00 -9.366386015E-01  4.623153565E-01  4.975520313E+00  4.750000000E+00  0.00000E+00  9.000E+00
      -5     1     1     2     0   503  2.211668906E+00  4.250018277E-01 -6.206532492E+00  8.133612450E+00  4.750000000E+00  0.00000E+00  9.000E+00
      21     1     1     2   512   502 -5.365773359E+00  1.413960329E+01 -3.940010714E+02  3.942912174E+02  7.629394531E-06  0.00000E+00  9.000E+00
#rwgt            1           9   3.2669992390909518E-004           2      373492           0
</event>
<event>
      6   9999  3.45752E-01  4.78900E+00 -1.00000E+00  2.32706E-01
      21    -1     0     0   501   502  0.000000000E+00  0.000000000E+00  4.010801371E+01  4.010801371E+01  0.000000000E+00  0.00000E+00  9.000E+00
      21    -1     0     0   511   503  0.000000000E+00  0.000000000E+00 -1.240598168E+03  1.240598168E+03  0.000000000E+00  0.00000E+00  9.000E+00
      25     1     1     2     0     0 -2.637135404E+01  3.638090347E+01 -6.224349874E+02  6.364507953E+02  1.250011316E+02  0.00000E+00  9.000E+00
       5     1     1     2   501     0  3.414271008E+00  8.947006093E+00  3.111162113E+01  3.289683319E+01  4.750000000E+00  0.00000E+00  9.000E+00
      -5     1     1     2     0   503  1.924823032E+01 -4.229823650E+01 -5.668677381E+02  5.687892669E+02  4.750000000E+00  0.00000E+00  9.000E+00
      21     1     1     2   511   502  3.708852712E+00 -3.029673061E+00 -4.229905035E+01  4.256928667E+01  6.743495762E-07  0.00000E+00  9.000E+00
#rwgt            1           9   9.4188620106478316E-003           2      375051           0
</event>
<event>
      6   9999  3.45752E-01  1.55653E+01 -1.00000E+00  1.68991E-01
      21    -1     0     0   501   502  0.000000000E+00  0.000000000E+00  3.135654063E+01  3.135654063E+01  0.000000000E+00  0.00000E+00  9.000E+00
      21    -1     0     0   512   503  0.000000000E+00  0.000000000E+00 -1.450522674E+03  1.450522674E+03  0.000000000E+00  0.00000E+00  9.000E+00
      25     1     1     2     0     0 -1.194728931E+01  4.562504179E+01 -9.296905071E+02  9.392184704E+02  1.248299403E+02  0.00000E+00  9.000E+00
       5     1     1     2   501     0  1.883861724E+00 -1.208410312E-01  2.436949803E+01  2.489976851E+01  4.750000000E+00  0.00000E+00  9.000E+00
      -5     1     1     2     0   503 -7.672949805E-01 -3.432496001E+01 -1.666073049E+02  1.701744639E+02  4.750000000E+00  0.00000E+00  9.000E+00
      21     1     1     2   512   502  1.083072257E+01 -1.117924075E+01 -3.472378194E+02  3.475865118E+02  3.814697266E-06  0.00000E+00  9.000E+00
#rwgt            1           9   2.9157926482890662E-004           2      381669           0
</event>
<event>
      6   9999  3.45752E-01  9.53421E+00 -1.00000E+00  1.89402E-01
      21    -1     0     0   502   503  0.000000000E+00  0.000000000E+00  2.119693776E+03  2.119693776E+03  0.000000000E+00  0.00000E+00  9.000E+00
      21    -1     0     0   511   502  0.000000000E+00  0.000000000E+00 -3.696572302E+00  3.696572302E+00  0.000000000E+00  0.00000E+00  9.000E+00
      25     1     1     2     0     0  6.862946566E+00 -2.837452818E+01  1.818955670E+03  1.823479303E+03  1.249993042E+02  0.00000E+00  9.000E+00
       5     1     1     2   501     0 -1.469445627E+01  1.188462340E+01  1.182853610E+02  1.198797749E+02  4.750000000E+00  0.00000E+00  9.000E+00
      -5     1     1     2     0   503  5.875239776E-01  1.029104130E+01  7.740660486E+01  7.823423606E+01  4.750000000E+00  0.00000E+00  9.000E+00
      21     1     1     2   511   501  7.243985727E+00  6.198863478E+00  1.013495684E+02  1.017970345E+02  1.907348633E-06  0.00000E+00  9.000E+00
#rwgt            1           9  0.36988439202954770                2      384017           0
</event>
<event>
      6   9999  3.45752E-01  6.53394E+01 -1.00000E+00  1.28850E-01
      21    -1     0     0   512   503  0.000000000E+00  0.000000000E+00  7.434578837E+01  7.434578837E+01  0.000000000E+00  0.00000E+00  9.000E+00
      21    -1     0     0   501   502  0.000000000E+00  0.000000000E+00 -1.507270892E+03  1.507270892E+03  0.000000000E+00  0.00000E+00  9.000E+00
      25     1     1     2     0     0  2.490979520E+01  5.476322991E+01 -1.223464812E+02  1.849673096E+02  1.249989397E+02  0.00000E+00  9.000E+00
       5     1     1     2   501     0  8.333242547E+01 -1.849909049E+02 -1.045930098E+03  1.065438060E+03  4.750000000E+00  0.00000E+00  9.000E+00
      -5     1     1     2     0   503 -1.147945820E+02  6.521764780E+01 -1.966630370E+02  2.369178134E+02  4.750000000E+00  0.00000E+00  9.000E+00
      21     1     1     2   512   502  6.552361354E+00  6.501002714E+01 -6.798548699E+01  9.429349665E+01  1.651812370E-06  0.00000E+00  9.000E+00
#rwgt            1           9   1.4792219911776157E-004           2      386523           0
</event>
<event>
      6   9999  3.45752E-01  5.88035E+00 -1.00000E+00  2.15284E-01
      21    -1     0     0   501   511  0.000000000E+00  0.000000000E+00  2.978268470E+01  2.978268470E+01  0.000000000E+00  0.00000E+00  9.000E+00
      21    -1     0     0   502   503  0.000000000E+00  0.000000000E+00 -2.687867461E+02  2.687867461E+02  0.000000000E+00  0.00000E+00  9.000E+00
      25     1     1     2     0     0  2.818484654E+01  3.277605784E+00 -2.126165835E+02  2.482663502E+02  1.250009632E+02  0.00000E+00  9.000E+00
       5     1     1     2   501     0  4.265250230E-01  1.752673277E-01  1.305480893E+00  4.947668400E+00  4.750000000E+00  0.00000E+00  9.000E+00
      -5     1     1     2     0   503 -2.884436569E+01  2.422859410E+00 -2.609849426E+01  3.926272510E+01  4.750000000E+00  0.00000E+00  9.000E+00
      21     1     1     2   502   511  2.329941302E-01 -5.875732521E+00 -1.594464554E+00  6.092687104E+00  7.598131170E-08  0.00000E+00  9.000E+00
#rwgt            1           9   8.2664218632946193E-003           2      387874           0
</event>
<event>
      6   9999  3.45752E-01  2.09278E+01 -1.00000E+00  1.58722E-01
      -2    -1     0     0     0   502  0.000000000E+00  0.000000000E+00  1.179937073E+01  1.179937073E+01  0.000000000E+00  0.00000E+00  9.000E+00
       2    -1     0     0   512     0  0.000000000E+00  0.000000000E+00 -3.132863543E+03  3.132863543E+03  0.000000000E+00  0.00000E+00  9.000E+00
      25     1     1     2     0     0 -2.832714597E+01  6.483796518E+01 -5.087313185E+02  5.286204857E+02  1.250026981E+02  0.00000E+00  9.000E+00
       5     1     1     2   501     0 -1.224563350E+01 -3.683117063E+01 -1.365220859E+03  1.365780746E+03  4.750000000E+00  0.00000E+00  9.000E+00
      -5     1     1     2     0   502  6.014429234E+01 -2.059528034E+01 -7.482119442E+02  7.509228838E+02  4.750000000E+00  0.00000E+00  9.000E+00
      21     1     1     2   512   501 -1.957151287E+01 -7.411514207E+00 -4.989000513E+02  4.993387986E+02  0.000000000E+00  0.00000E+00  9.000E+00
#rwgt            1           3   2.9610539053091258E-004           2      391692           0
</event>
<event>
      6   9999 -3.45752E-01  2.77991E+01 -1.00000E+00  1.50011E-01
      21    -1     0     0   502   503  0.000000000E+00  0.000000000E+00  8.969680929E+00  8.969680929E+00  0.000000000E+00  0.00000E+00  9.000E+00
      21    -1     0     0   511   502  0.000000000E+00  0.000000000E+00 -2.011962457E+03  2.011962457E+03  0.000000000E+00  0.00000E+00  9.000E+00
      25     1     1     2     0     0 -1.829949258E+01  1.922772153E+01 -7.452694215E+02  7.561459405E+02  1.250023843E+02  0.00000E+00  9.000E+00
       5     1     1     2   501     0 -6.079035759E-01  8.070579850E-01 -1.055509037E+01  1.161866266E+01  4.750000000E+00  0.00000E+00  9.000E+00
      -5     1     1     2     0   503  5.638650087E-01  8.531151707E-01  7.701869356E-01  4.919495620E+00  4.750000000E+00  0.00000E+00  9.000E+00
      21     1     1     2   511   501  1.834353115E+01 -2.088789468E+01 -1.247938451E+03  1.248248039E+03  1.525878906E-05  0.00000E+00  9.000E+00
#rwgt            1           9  -2.8133306386213838E-004           2      394930           0
</event>
<event>
      6   9999  3.45752E-01  7.30162E+00 -1.00000E+00  2.02831E-01
      21    -1     0     0   512   502  0.000000000E+00  0.000000000E+00  9.630506823E+00  9.630506823E+00  0.000000000E+00  0.00000E+00  9.000E+00
      21    -1     0     0   502   503  0.000000000E+00  0.000000000E+00 -1.852797021E+03  1.852797021E+03  0.000000000E+00  0.00000E+00  9.000E+00
      25     1     1     2     0     0 -1.947469916E+01 -2.402011930E+01 -1.748109744E+03  1.752846154E+03  1.250029273E+02  0.00000E+00  9.000E+00
       5     1     1     2   501     0  1.565825609E+00 -1.556825001E+00  2.449461468E+00  5.782549213E+00  4.750000000E+00  0.00000E+00  9.000E+00
      -5     1     1     2     0   503  1.136014342E+01  2.234774219E+01 -8.901619493E+01  9.260086338E+01  4.750000000E+00  0.00000E+00  9.000E+00
      21     1     1     2   512   501  6.548730130E+00  3.229202109E+00 -8.490036002E+00  1.119796070E+01  2.064765462E-07  0.00000E+00  9.000E+00
#rwgt            1           9   3.9632508156011860E-005           2      395771           0
</event>
<event>
      6   9999  3.45752E-01  9.52924E+00 -1.00000E+00  1.89427E-01
      21    -1     0     0   501   502  0.000000000E+00  0.000000000E+00  1.631938889E+01  1.631938889E+01  0.000000000E+00  0.00000E+00  9.000E+00
      21    -1     0     0   502   511  0.000000000E+00  0.000000000E+00 -9.980404225E+02  9.980404225E+02  0.000000000E+00  0.00000E+00  9.000E+00
      25     1     1     2     0     0 -1.147591224E+01  2.244226390E-01 -8.200458571E+02  8.295971214E+02  1.249977170E+02  0.00000E+00  9.000E+00
       5     1     1     2   501     0 -2.279117896E+00 -5.245217228E+00  9.820831152E+00  1.231738230E+01  4.750000000E+00  0.00000E+00  9.000E+00
      -5     1     1     2     0   503  6.737765919E+00 -1.426250074E+00 -6.837290165E+01  6.888285606E+01  4.750000000E+00  0.00000E+00  9.000E+00
      21     1     1     2   503   511  7.017264214E+00  6.447044663E+00 -1.031231061E+02  1.035624517E+02  1.907348633E-06  0.00000E+00  9.000E+00
#rwgt            1           9   1.1552025655479645E-002           2      399528           0
</event>
<event>
      6   9999  3.45752E-01  6.89850E+01 -1.00000E+00  1.27710E-01
      21    -1     0     0   512   502  0.000000000E+00  0.000000000E+00  1.668739430E+02  1.668739430E+02  0.000000000E+00  0.00000E+00  9.000E+00
      21    -1     0     0   502   503  0.000000000E+00  0.000000000E+00 -1.409987101E+03  1.409987101E+03  0.000000000E+00  0.00000E+00  9.000E+00
      25     1     1     2     0     0  1.237206096E+02  1.996458547E+01 -3.797053235E+02  4.189322507E+02  1.249908961E+02  0.00000E+00  9.000E+00
       5     1     1     2   501     0 -1.527330039E+02  1.121183645E+02 -7.434483985E+00  1.896726975E+02  4.750000000E+00  0.00000E+00  9.000E+00
      -5     1     1     2     0   503  7.971047616E+01 -1.788657859E+02 -8.750306350E+02  8.966871830E+02  4.750000000E+00  0.00000E+00  9.000E+00
      21     1     1     2   512   501 -5.069808183E+01  4.678283593E+01  1.905728408E+01  7.156891306E+01  9.233911863E-07  0.00000E+00  9.000E+00
#rwgt            1           9   6.7394642089338014E-003           2      402546           0
</event>
<event>
      6   9999  3.45752E-01  3.23238E+01 -1.00000E+00  1.45772E-01
      21    -1     0     0   501   502  0.000000000E+00  0.000000000E+00  1.311093211E+02  1.311093211E+02  0.000000000E+00  0.00000E+00  9.000E+00
      21    -1     0     0   502   511  0.000000000E+00  0.000000000E+00 -1.420769794E+03  1.420769794E+03  0.000000000E+00  0.00000E+00  9.000E+00
      25     1     1     2     0     0 -7.448956265E+01 -2.989813441E+02 -7.798740673E+02  8.478006064E+02  1.249950727E+02  0.00000E+00  9.000E+00
       5     1     1     2   501     0  4.560643963E+00 -6.717012809E+00  5.611967141E+01  5.690252853E+01  4.750000000E+00  0.00000E+00  9.000E+00
      -5     1     1     2     0   503  6.109102947E+01  2.746062032E+02 -4.985135129E+02  5.724324989E+02  4.750000000E+00  0.00000E+00  9.000E+00
      21     1     1     2   503   511  8.837889218E+00  3.109215373E+01 -6.739256431E+01  7.474348155E+01  1.348699152E-06  0.00000E+00  9.000E+00
#rwgt            1           9   8.8981035583108492E-006           2      403755           0
</event>
<event>
      6   9999  3.45752E-01  1.18239E+01 -1.00000E+00  1.79842E-01
      21    -1     0     0   501   512  0.000000000E+00  0.000000000E+00  8.016977698E+02  8.016977698E+02  0.000000000E+00  0.00000E+00  9.000E+00
      21    -1     0     0   502   503  0.000000000E+00  0.000000000E+00 -2.790858583E+03  2.790858583E+03  0.000000000E+00  0.00000E+00  9.000E+00
      25     1     1     2     0     0  1.379842164E+01 -1.198122739E+01 -2.554614376E+03  2.557736264E+03  1.250049655E+02  0.00000E+00  9.000E+00
       5     1     1     2   501     0  7.066747424E-01 -2.285022875E-01 -9.806623553E+00  1.092172001E+01  4.750000000E+00  0.00000E+00  9.000E+00
      -5     1     1     2     0   503 -7.706018816E+00  2.536226050E+00 -2.241768595E+02  2.243738888E+02  4.750000000E+00  0.00000E+00  9.000E+00
      21     1     1     2   502   512 -6.799077566E+00  9.673503623E+00  7.994370455E+02  7.995244799E+02  1.078959322E-05  0.00000E+00  9.000E+00
#rwgt            1           9   2.6256830369816457E-004           2      405779           0
</event>
<event>
      6   9999  3.45752E-01  1.44454E+01 -1.00000E+00  1.71802E-01
      21    -1     0     0   501   502  0.000000000E+00  0.000000000E+00  1.499244039E+02  1.499244039E+02  0.000000000E+00  0.00000E+00  9.000E+00
      21    -1     0     0   502   511  0.000000000E+00  0.000000000E+00 -1.327329194E+02  1.327329194E+02  0.000000000E+00  0.00000E+00  9.000E+00
      25     1     1     2     0     0  7.932903073E-01  1.877272068E+01 -4.712259587E+01  1.349041011E+02  1.250021323E+02  0.00000E+00  9.000E+00
       5     1     1     2   501     0 -1.657214051E-01  1.020114588E+00  9.692621691E+01  9.704804028E+01  4.750000000E+00  0.00000E+00  9.000E+00
      -5     1     1     2     0   503  6.193086112E+00 -7.059068030E+00  4.068407825E+00  1.128269468E+01  4.750000000E+00  0.00000E+00  9.000E+00
      21     1     1     2   503   511 -6.820655014E+00 -1.273376723E+01 -3.668054439E+01  3.942248723E+01  0.000000000E+00  0.00000E+00  9.000E+00
#rwgt            1           9   9.5721687087722588E-005           2      407479           0
</event>
<event>
      6   9999  3.45752E-01  4.02636E+00 -1.00000E+00  2.47261E-01
      21    -1     0     0   501   502  0.000000000E+00  0.000000000E+00  6.480963067E+01  6.480963067E+01  0.000000000E+00  0.00000E+00  9.000E+00
      21    -1     0     0   512   503  0.000000000E+00  0.000000000E+00 -1.511939409E+03  1.511939409E+03  0.000000000E+00  0.00000E+00  9.000E+00
      25     1     1     2     0     0 -1.691934945E+01  1.021131213E+02 -6.956210548E+02  7.143033051E+02  1.250088234E+02  0.00000E+00  9.000E+00
       5     1     1     2   501     0 -3.628407077E+00  6.916082322E-02  5.184696543E+01  5.219042485E+01  4.750000000E+00  0.00000E+00  9.000E+00
      -5     1     1     2     0   503  1.977921091E+01 -9.822994877E+01 -7.395046893E+02  7.462774873E+02  4.750000000E+00  0.00000E+00  9.000E+00
      21     1     1     2   512   502  7.685456184E-01 -3.952333308E+00 -6.385099996E+01  6.397782270E+01  9.536743164E-07  0.00000E+00  9.000E+00
#rwgt            1           9   6.2913978120367350E-004           2      409583           0
</event>
<event>
      6   9999  3.45752E-01  1.47079E+01 -1.00000E+00  1.71115E-01
      21    -1     0     0   501   502  0.000000000E+00  0.000000000E+00  3.475520127E+00  3.475520127E+00  0.000000000E+00  0.00000E+00  9.000E+00
      21    -1     0     0   511   503  0.000000000E+00  0.000000000E+00 -1.938185147E+03  1.938185147E+03  0.000000000E+00  0.00000E+00  9.000E+00
      25     1     1     2     0     0  8.510292877E+00  9.322041651E+00 -1.646872189E+03  1.651657270E+03  1.249976266E+02  0.00000E+00  9.000E+00
       5     1     1     2   501     0  9.632428468E-01  4.771324702E-01 -7.552318144E+00  8.986406485E+00  4.750000000E+00  0.00000E+00  9.000E+00
      -5     1     1     2     0   503 -3.710288142E-01  1.753621924E+00 -4.829921591E+01  4.856531282E+01  4.750000000E+00  0.00000E+00  9.000E+00
      21     1     1     2   511   502 -9.102506909E+00 -1.155279605E+01 -2.319859044E+02  2.324516779E+02  3.814697266E-06  0.00000E+00  9.000E+00
#rwgt            1           9   2.0101393197714432E-004           2      417245           0
</event>
<event>
      6   9999  3.45752E-01  4.33740E+00 -1.00000E+00  2.40789E-01
      21    -1     0     0   512   503  0.000000000E+00  0.000000000E+00  3.514443252E+01  3.514443252E+01  0.000000000E+00  0.00000E+00  9.000E+00
      21    -1     0     0   501   502  0.000000000E+00  0.000000000E+00 -2.995571050E+02  2.995571050E+02  0.000000000E+00  0.00000E+00  9.000E+00
      25     1     1     2     0     0 -1.078770535E+01  2.139549031E+01 -1.081672991E+02  1.670317954E+02  1.250012579E+02  0.00000E+00  9.000E+00
       5     1     1     2   501     0  1.270746497E+01 -2.519625114E+01 -1.512994209E+02  1.539818431E+02  4.750000000E+00  0.00000E+00  9.000E+00
      -5     1     1     2     0   503  1.864424057E+00  1.681087166E+00 -7.052672180E+00  8.865935709E+00  4.750000000E+00  0.00000E+00  9.000E+00
      21     1     1     2   512   502 -3.784183677E+00  2.119673670E+00  2.106719708E+00  4.821963345E+00  1.228781231E-07  0.00000E+00  9.000E+00
#rwgt            1           9   6.3082407761364201E-002           2      418880           0
</event>
<event>
      6   9999  3.45752E-01  5.10764E+00 -1.00000E+00  2.24286E-01
      21    -1     0     0   511   503  0.000000000E+00  0.000000000E+00  1.998738663E+02  1.998738663E+02  0.000000000E+00  0.00000E+00  9.000E+00
      21    -1     0     0   501   502  0.000000000E+00  0.000000000E+00 -5.035719597E+01  5.035719597E+01  0.000000000E+00  0.00000E+00  9.000E+00
      25     1     1     2     0     0  1.682206230E+01  4.249673464E+00  5.249220188E+01  1.366782029E+02  1.249978335E+02  0.00000E+00  9.000E+00
       5     1     1     2   501     0 -6.391921808E-01  2.098235681E+00  1.546418810E+00  5.455737416E+00  4.750000000E+00  0.00000E+00  9.000E+00
      -5     1     1     2     0   503 -1.257183421E+01 -2.735647025E+00  1.295201026E+00  1.377587840E+01  4.750000000E+00  0.00000E+00  9.000E+00
      21     1     1     2   511   502 -3.611035913E+00 -3.612262120E+00  9.418284859E+01  9.432124356E+01  0.000000000E+00  0.00000E+00  9.000E+00
#rwgt            1           9   8.3290376470023852E-002           2      422884           0
</event>
<event>
      6   9999  3.45752E-01  1.04097E+01 -1.00000E+00  1.85375E-01
      21    -1     0     0   512   503  0.000000000E+00  0.000000000E+00  2.826643923E+01  2.826643923E+01  0.000000000E+00  0.00000E+00  9.000E+00
      21    -1     0     0   501   502  0.000000000E+00  0.000000000E+00 -1.123830592E+03  1.123830592E+03  0.000000000E+00  0.00000E+00  9.000E+00
      25     1     1     2     0     0 -2.245537888E+01 -3.103920876E+01 -1.713978786E+02  2.155696644E+02  1.250014837E+02  0.00000E+00  9.000E+00
       5     1     1     2   501     0 -1.147627358E+01  8.821766326E+00 -7.874852353E+02  7.876325835E+02  4.750000000E+00  0.00000E+00  9.000E+00
      -5     1     1     2     0   503  3.575717472E+01  3.246580994E+01 -1.087531753E+02  1.190899660E+02  4.750000000E+00  0.00000E+00  9.000E+00
      21     1     1     2   512   502 -1.825522262E+00 -1.024836750E+01 -2.792786412E+01  2.980481777E+01  3.371747881E-07  0.00000E+00  9.000E+00
#rwgt            1           9   3.0138130455920478                2      426368           0
</event>
<event>
      6   9999  3.45752E-01  9.79378E+00 -1.00000E+00  1.88152E-01
      21    -1     0     0   501   511  0.000000000E+00  0.000000000E+00  1.052472065E+02  1.052472065E+02  0.000000000E+00  0.00000E+00  9.000E+00
      21    -1     0     0   502   503  0.000000000E+00  0.000000000E+00 -1.053033979E+03  1.053033979E+03  0.000000000E+00  0.00000E+00  9.000E+00
      25     1     1     2     0     0 -2.063297468E+00 -8.429526765E+00 -8.377983971E+02  8.471168020E+02  1.250016322E+02  0.00000E+00  9.000E+00
       5     1     1     2   501     0 -2.718310278E+00 -7.119153420E+00  8.799011877E+00  1.257205895E+01  4.750000000E+00  0.00000E+00  9.000E+00
      -5     1     1     2     0   503  4.526793455E+00  5.758219446E+00 -2.083314415E+02  2.085142704E+02  4.750000000E+00  0.00000E+00  9.000E+00
      21     1     1     2   502   511  2.548142908E-01  9.790460740E+00  8.954405453E+01  9.007805367E+01  4.046097457E-06  0.00000E+00  9.000E+00
#rwgt            1           9  0.34813544841192196                2      429704           0
</event>
<event>
      6   9999  3.45752E-01  4.70837E+00 -1.00000E+00  2.34051E-01
       2    -1     0     0   501     0  0.000000000E+00  0.000000000E+00  5.313938801E+02  5.313938801E+02  0.000000000E+00  0.00000E+00  9.000E+00
      21    -1     0     0   502   503  0.000000000E+00  0.000000000E+00 -2.197287289E+03  2.197287289E+03  0.000000000E+00  0.00000E+00  9.000E+00
      25     1     1     2     0     0  2.303227447E+01  5.673339675E+01 -7.767958909E+02  7.891671994E+02  1.249953940E+02  0.00000E+00  9.000E+00
       5     1     1     2   501     0 -5.015656633E+00  1.803702939E+00  8.900650540E+00  1.141026887E+01  4.750000000E+00  0.00000E+00  9.000E+00
      -5     1     1     2     0   503 -1.473108978E+01 -5.516456238E+01 -1.412459376E+03  1.413620948E+03  4.750000000E+00  0.00000E+00  9.000E+00
       2     1     1     2   502     0 -3.285528059E+00 -3.372537313E+00  5.144612075E+02  5.144827526E+02  1.078959322E-05  0.00000E+00  9.000E+00
#rwgt            1           9   5.1495586432810094E-003           2      432326           0
</event>
<event>
      6   9999  3.45752E-01  1.46075E+01 -1.00000E+00  1.71375E-01
      21    -1     0     0   501   511  0.000000000E+00  0.000000000E+00  3.985953372E+02  3.985953372E+02  0.000000000E+00  0.00000E+00  9.000E+00
      21    -1     0     0   502   503  0.000000000E+00  0.000000000E+00 -1.099757261E+03  1.099757261E+03  0.000000000E+00  0.00000E+00  9.000E+00
      25     1     1     2     0     0  1.136641874E+01 -1.344838529E+01 -9.900477057E+02  9.980627965E+02  1.249993266E+02  0.00000E+00  9.000E+00
       5     1     1     2   501     0  4.543731302E+00  1.976860373E+01  1.906564595E+01  2.824012293E+01  4.750000000E+00  0.00000E+00  9.000E+00
      -5     1     1     2     0   503 -2.299881800E+00 -1.015524460E+00 -1.008994186E+02  1.010424462E+02  4.750000000E+00  0.00000E+00  9.000E+00
      21     1     1     2   502   511 -1.361026824E+01 -5.304693979E+00  3.707195541E+02  3.710072330E+02  7.629394531E-06  0.00000E+00  9.000E+00
#rwgt            1           9   2.2436571736529490E-004           2      437986           0
</event>
<event>
      6   9999 -3.45752E-01  4.71770E+01 -1.00000E+00  1.36152E-01
      21    -1     0     0   501   502  0.000000000E+00  0.000000000E+00  1.655160285E+02  1.655160285E+02  0.000000000E+00  0.00000E+00  9.000E+00
      21    -1     0     0   512   503  0.000000000E+00  0.000000000E+00 -6.702389940E+02  6.702389940E+02  0.000000000E+00  0.00000E+00  9.000E+00
      25     1     1     2     0     0 -4.035837936E-01 -4.691746108E+00  6.643549439E+01  1.416501858E+02  1.250156985E+02  0.00000E+00  9.000E+00
       5     1     1     2   501     0  1.244666657E+00  2.702336788E+00  2.405439354E+01  2.469874831E+01  4.750000000E+00  0.00000E+00  9.000E+00
      -5     1     1     2     0   503  2.070177729E+01  4.396057509E+01  1.972825229E+01  5.265797360E+01  4.750000000E+00  0.00000E+00  9.000E+00
      21     1     1     2   512   502 -2.154286015E+01 -4.197116577E+01 -6.149411058E+02  6.167481148E+02  7.629394531E-06  0.00000E+00  9.000E+00
#rwgt            1           9  -1.7941047355422183E-002           2      440443           0
</event>
<event>
      6   9999  3.45752E-01  1.13813E+01 -1.00000E+00  1.81463E-01
      21    -1     0     0   502   511  0.000000000E+00  0.000000000E+00  9.106561714E+00  9.106561714E+00  0.000000000E+00  0.00000E+00  9.000E+00
      21    -1     0     0   501   502  0.000000000E+00  0.000000000E+00 -7.143285172E+02  7.143285172E+02  0.000000000E+00  0.00000E+00  9.000E+00
      25     1     1     2     0     0 -7.985297448E+00 -8.470099488E+00 -5.944219975E+02  6.075340300E+02  1.249983158E+02  0.00000E+00  9.000E+00
       5     1     1     2   501     0  8.178447435E+00 -7.621334971E+00 -5.214689650E+01  5.354281524E+01  4.750000000E+00  0.00000E+00  9.000E+00
      -5     1     1     2     0   503 -1.017172844E+00  4.740032668E+00 -3.949953159E+01  4.007839875E+01  4.750000000E+00  0.00000E+00  9.000E+00
      21     1     1     2   503   511  8.240228569E-01  1.135140179E+01 -1.915352989E+01  2.227983491E+01  6.307962682E-07  0.00000E+00  9.000E+00
#rwgt            1           9   1.6059791977242527E-002           2      441054           0
</event>
<event>
      6   9999  3.45752E-01  5.45389E+00 -1.00000E+00  2.19998E-01
      21    -1     0     0   501   502  0.000000000E+00  0.000000000E+00  3.755285495E+02  3.755285495E+02  0.000000000E+00  0.00000E+00  9.000E+00
      21    -1     0     0   502   512  0.000000000E+00  0.000000000E+00 -1.769144205E+01  1.769144205E+01  0.000000000E+00  0.00000E+00  9.000E+00
      25     1     1     2     0     0  7.938810454E-01 -7.165535687E+00  3.145787678E+02  3.385832595E+02  1.250073891E+02  0.00000E+00  9.000E+00
       5     1     1     2   501     0  2.972616258E-01 -1.603211884E-01  3.514551300E+01  3.546665548E+01  4.750000000E+00  0.00000E+00  9.000E+00
      -5     1     1     2     0   503 -4.636438072E-01  1.908181143E+00  1.160612929E+01  1.269333912E+01  4.750000000E+00  0.00000E+00  9.000E+00
      21     1     1     2   503   512 -6.274988640E-01  5.417675733E+00 -3.493302585E+00  6.476737460E+00  1.576990671E-07  0.00000E+00  9.000E+00
#rwgt            1           9   3.3241076452002037E-004           2      443014           0
</event>
<event>
      6   9999 -3.45752E-01  7.51325E+00 -1.00000E+00  2.01299E-01
      21    -1     0     0   511   502  0.000000000E+00  0.000000000E+00  9.937234427E+00  9.937234427E+00  0.000000000E+00  0.00000E+00  9.000E+00
      21    -1     0     0   502   503  0.000000000E+00  0.000000000E+00 -8.756778590E+02  8.756778590E+02  0.000000000E+00  0.00000E+00  9.000E+00
      25     1     1     2     0     0 -3.131933888E+01 -2.571242087E+01 -7.208564360E+02  7.327354297E+02  1.250007161E+02  0.00000E+00  9.000E+00
       5     1     1     2   501     0 -5.993274222E-01 -5.375683333E-01 -5.556726362E+00  7.354446338E+00  4.750000000E+00  0.00000E+00  9.000E+00
      -5     1     1     2     0   503  2.633963743E+01  2.121775346E+01 -1.207086556E+02  1.254476449E+02  4.750000000E+00  0.00000E+00  9.000E+00
      21     1     1     2   511   501  5.579028879E+00  5.032235746E+00 -1.861880661E+01  2.007757254E+01  4.129530925E-07  0.00000E+00  9.000E+00
#rwgt            1           9  -1.2061425082694516E-003           2      446725           0
</event>
<event>
      6   9999  3.45752E-01  1.12851E+01 -1.00000E+00  1.81828E-01
      21    -1     0     0   501   502  0.000000000E+00  0.000000000E+00  3.063279141E+01  3.063279141E+01  0.000000000E+00  0.00000E+00  9.000E+00
      21    -1     0     0   502   512  0.000000000E+00  0.000000000E+00 -1.288700189E+03  1.288700189E+03  0.000000000E+00  0.00000E+00  9.000E+00
      25     1     1     2     0     0  5.616812721E+01 -3.362137416E+01 -7.000518024E+02  7.141302198E+02  1.249967578E+02  0.00000E+00  9.000E+00
       5     1     1     2   501     0  7.539831010E+00 -4.800312017E+00  1.976483782E+01  2.220593077E+01  4.750000000E+00  0.00000E+00  9.000E+00
      -5     1     1     2     0   503 -5.260478046E+01  4.043976419E+01 -4.967153585E+02  5.011500248E+02  4.750000000E+00  0.00000E+00  9.000E+00
      21     1     1     2   503   512 -1.110317776E+01 -2.018078015E+00 -8.106507474E+01  8.184680530E+01  1.348699152E-06  0.00000E+00  9.000E+00
#rwgt            1           9   8.2393548969229781E-004           2      449956           0
</event>
<event>
      6   9999  3.45752E-01  2.10302E+01 -1.00000E+00  1.58563E-01
      21    -1     0     0   501   502  0.000000000E+00  0.000000000E+00  4.847531269E+01  4.847531269E+01  0.000000000E+00  0.00000E+00  9.000E+00
      21    -1     0     0   502   511  0.000000000E+00  0.000000000E+00 -1.014903907E+03  1.014903907E+03  0.000000000E+00  0.00000E+00  9.000E+00
      25     1     1     2     0     0 -6.523405977E+01 -4.720932562E+01 -3.983473403E+02  4.251938496E+02  1.250000128E+02  0.00000E+00  9.000E+00
       5     1     1     2   501     0  1.288122807E+00 -8.533064779E+00  2.562834195E+01  2.745627189E+01  4.750000000E+00  0.00000E+00  9.000E+00
      -5     1     1     2     0   503  5.638099597E+01  3.611988847E+01 -1.279022725E+02  1.444472806E+02  4.750000000E+00  0.00000E+00  9.000E+00
      21     1     1     2   503   511  7.564940991E+00  1.962250193E+01 -4.658073231E+02  4.662818174E+02  7.629394531E-06  0.00000E+00  9.000E+00
#rwgt            1           9   3.1944545337775389E-003           2      453270           0
</event>
<event>
      6   9999  3.45752E-01  2.92604E+01 -1.00000E+00  1.48543E-01
      21    -1     0     0   501   502  0.000000000E+00  0.000000000E+00  1.087540510E+02  1.087540510E+02  0.000000000E+00  0.00000E+00  9.000E+00
      21    -1     0     0   502   512  0.000000000E+00  0.000000000E+00 -2.579554996E+03  2.579554996E+03  0.000000000E+00  0.00000E+00  9.000E+00
      25     1     1     2     0     0  1.092516615E+02 -3.091852041E+02 -4.824110188E+02  5.965539293E+02  1.249991341E+02  0.00000E+00  9.000E+00
       5     1     1     2   501     0 -5.630723249E+00 -1.356443845E+00  2.358943337E+01  2.475012830E+01  4.750000000E+00  0.00000E+00  9.000E+00
      -5     1     1     2     0   503 -1.320997803E+02  3.172591862E+02 -1.054880401E+03  1.109458862E+03  4.750000000E+00  0.00000E+00  9.000E+00
      21     1     1     2   503   512  2.847884201E+01 -6.717538247E+00 -9.570989581E+02  9.575461270E+02  0.000000000E+00  0.00000E+00  9.000E+00
#rwgt            1           9   6.4531263082527181E-005           2      455270           0
</event>
<event>
      6   9999  3.45752E-01  4.79128E+00 -1.00000E+00  2.32668E-01
      21    -1     0     0   501   502  0.000000000E+00  0.000000000E+00  4.575183725E+03  4.575183725E+03  0.000000000E+00  0.00000E+00  9.000E+00
      21    -1     0     0   502   511  0.000000000E+00  0.000000000E+00 -2.393949878E+00  2.393949878E+00  0.000000000E+00  0.00000E+00  9.000E+00
      25     1     1     2     0     0 -1.560103978E+01 -1.358817807E+01  3.456116306E+03  3.458438133E+03  1.250054878E+02  0.00000E+00  9.000E+00
       5     1     1     2   501     0  6.670119778E-02 -2.375435461E-02  3.196728901E+02  3.197081859E+02  4.750000000E+00  0.00000E+00  9.000E+00
      -5     1     1     2     0   503  1.792095926E+01  9.457372402E+00  7.927595705E+02  7.930327243E+02  4.750000000E+00  0.00000E+00  9.000E+00
      21     1     1     2   503   511 -2.386620677E+00  4.154560024E+00  4.241008758E+00  6.398631302E+00  1.059555342E-06  0.00000E+00  9.000E+00
#rwgt            1           9   2.4919170326144014E-004           2      457834           0
</event>
<event>
      6   9999  3.45752E-01  1.82257E+01 -1.00000E+00  1.63352E-01
      21    -1     0     0   501   502  0.000000000E+00  0.000000000E+00  1.403533728E+03  1.403533728E+03  0.000000000E+00  0.00000E+00  9.000E+00
      21    -1     0     0   512   503  0.000000000E+00  0.000000000E+00 -4.884100161E+00  4.884100161E+00  0.000000000E+00  0.00000E+00  9.000E+00
      25     1     1     2     0     0  1.622598435E+01  3.590897245E+00  1.209965096E+03  1.216518818E+03  1.250052970E+02  0.00000E+00  9.000E+00
       5     1     1     2   501     0  7.927748415E-01  3.713581448E-01  9.158536654E+01  9.171263960E+01  4.750000000E+00  0.00000E+00  9.000E+00
      -5     1     1     2     0   503  5.270384964E-01  9.692755717E-01  3.878630094E+01  3.909164752E+01  4.750000000E+00  0.00000E+00  9.000E+00
      21     1     1     2   512   502 -1.754579768E+01 -4.931530962E+00  5.831286420E+01  6.109472273E+01  1.348699152E-06  0.00000E+00  9.000E+00
#rwgt            1           9   2.5623897017400980E-002           2      461580           0
</event>
<event>
      6   9999  3.45752E-01  1.50771E+01 -1.00000E+00  1.70179E-01
      21    -1     0     0   501   502  0.000000000E+00  0.000000000E+00  3.483822427E+03  3.483822427E+03  0.000000000E+00  0.00000E+00  9.000E+00
      21    -1     0     0   511   503  0.000000000E+00  0.000000000E+00 -9.913768237E+00  9.913768237E+00  0.000000000E+00  0.00000E+00  9.000E+00
      25     1     1     2     0     0 -6.674091382E+01 -4.071275415E+00  1.628391082E+03  1.634550174E+03  1.250033214E+02  0.00000E+00  9.000E+00
       5     1     1     2   501     0  6.699846807E-01 -7.581919978E-01  1.648681760E+03  1.648688913E+03  4.750000000E+00  0.00000E+00  9.000E+00
      -5     1     1     2     0   503  5.102925022E+01  5.862987516E+00  1.002642090E+02  1.127556345E+02  4.750000000E+00  0.00000E+00  9.000E+00
      21     1     1     2   511   502  1.504167892E+01 -1.033520103E+00  9.657160822E+01  9.774147422E+01  1.348699152E-06  0.00000E+00  9.000E+00
#rwgt            1           9  0.15872643511535736                2      462717           0
</event>
<event>
      6   9999  3.45752E-01  2.92862E+00 -1.00000E+00  2.79676E-01
      21    -1     0     0   501   512  0.000000000E+00  0.000000000E+00  2.218408094E+01  2.218408094E+01  0.000000000E+00  0.00000E+00  9.000E+00
      21    -1     0     0   502   503  0.000000000E+00  0.000000000E+00 -9.453883154E+02  9.453883154E+02  0.000000000E+00  0.00000E+00  9.000E+00
      25     1     1     2     0     0 -4.158451851E-01 -2.104223850E+00 -9.258558364E+02  9.342584369E+02  1.250007857E+02  0.00000E+00  9.000E+00
       5     1     1     2   501     0  2.871380350E+00  2.266936976E+00  5.431162092E+00  8.089737328E+00  4.750000000E+00  0.00000E+00  9.000E+00
      -5     1     1     2     0   503 -5.436440711E-01  2.055724809E+00 -1.331151294E+01  1.429267050E+01  4.750000000E+00  0.00000E+00  9.000E+00
      21     1     1     2   502   512 -1.911891094E+00 -2.218437936E+00  1.053195271E+01  1.093155169E+01  2.064765462E-07  0.00000E+00  9.000E+00
#rwgt            1           9   6.9936852512365906E-005           2      465052           0
</event>
<event>
      6   9999  3.45752E-01  1.23805E+01 -1.00000E+00  1.77927E-01
      21    -1     0     0   511   502  0.000000000E+00  0.000000000E+00  2.316869047E+01  2.316869047E+01  0.000000000E+00  0.00000E+00  9.000E+00
      21    -1     0     0   502   503  0.000000000E+00  0.000000000E+00 -1.014055995E+03  1.014055995E+03  0.000000000E+00  0.00000E+00  9.000E+00
      25     1     1     2     0     0 -1.558911883E+01  7.128109344E+01 -4.192977826E+02  4.435753725E+02  1.249978629E+02  0.00000E+00  9.000E+00
       5     1     1     2   501     0  8.922389857E-01  3.361580829E+00  5.148249504E+00  7.820696199E+00  4.750000000E+00  0.00000E+00  9.000E+00
      -5     1     1     2     0   503  1.375704514E+01 -6.229791456E+01 -5.655036384E+02  5.691108978E+02  4.750000000E+00  0.00000E+00  9.000E+00
      21     1     1     2   511   501  9.398346976E-01 -1.234475970E+01 -1.123413313E+01  1.671771900E+01  3.953724850E-07  0.00000E+00  9.000E+00
#rwgt            1           9  0.11304462950975315                2      470918           0
</event>
<event>
      6   9999 -3.45752E-01  9.45831E+00 -1.00000E+00  1.89778E-01
      21    -1     0     0   512   502  0.000000000E+00  0.000000000E+00  5.656564990E+02  5.656564990E+02  0.000000000E+00  0.00000E+00  9.000E+00
      21    -1     0     0   502   503  0.000000000E+00  0.000000000E+00 -8.115506078E+02  8.115506078E+02  0.000000000E+00  0.00000E+00  9.000E+00
      25     1     1     2     0     0  1.927144087E+01  2.583765261E+01 -5.688169893E+02  5.832815832E+02  1.250026612E+02  0.00000E+00  9.000E+00
       5     1     1     2   501     0  2.584314361E+00  3.337959221E-01  1.330282833E+00  5.578732190E+00  4.750000000E+00  0.00000E+00  9.000E+00
      -5     1     1     2     0   503 -1.298546302E+01 -2.288853771E+01 -2.325706068E+02  2.341028770E+02  4.750000000E+00  0.00000E+00  9.000E+00
      21     1     1     2   512   501 -8.870292210E+00 -3.282910822E+00  5.541632043E+02  5.542439144E+02  1.078959322E-05  0.00000E+00  9.000E+00
#rwgt            1           9 -0.88644928841604465                2      473465           0
</event>
<event>
      6   9999  3.45752E-01  2.77834E+01 -1.00000E+00  1.50027E-01
      21    -1     0     0   501   502  0.000000000E+00  0.000000000E+00  2.495255055E+01  2.495255055E+01  0.000000000E+00  0.00000E+00  9.000E+00
      21    -1     0     0   511   503  0.000000000E+00  0.000000000E+00 -1.876494168E+03  1.876494168E+03  0.000000000E+00  0.00000E+00  9.000E+00
      25     1     1     2     0     0  8.927191673E+01 -5.271035961E+01 -8.267615108E+02  8.425598968E+02  1.249989072E+02  0.00000E+00  9.000E+00
       5     1     1     2   501     0 -2.072023422E+01 -5.964492026E-01  5.063852322E-01  2.127211282E+01  4.750000000E+00  0.00000E+00  9.000E+00
      -5     1     1     2     0   503 -6.656590519E+01  2.559442057E+01 -2.095325821E+02  2.213878035E+02  4.750000000E+00  0.00000E+00  9.000E+00
      21     1     1     2   511   502 -1.985777323E+00  2.771238825E+01 -8.157539097E+02  8.162269053E+02  0.000000000E+00  0.00000E+00  9.000E+00
#rwgt            1           9   4.1951874736178927E-003           2      476367           0
</event>
<event>
      6   9999  3.45752E-01  2.10360E+01 -1.00000E+00  1.58554E-01
      21    -1     0     0   512   502  0.000000000E+00  0.000000000E+00  3.640142747E+01  3.640142747E+01  0.000000000E+00  0.00000E+00  9.000E+00
      21    -1     0     0   502   503  0.000000000E+00  0.000000000E+00 -1.811759136E+03  1.811759136E+03  0.000000000E+00  0.00000E+00  9.000E+00
      25     1     1     2     0     0  3.255471639E+01  5.231123449E-01 -1.624255067E+03  1.629382946E+03  1.249967144E+02  0.00000E+00  9.000E+00
       5     1     1     2   501     0 -9.999549259E-01  1.108422961E+00  2.481048083E+01  2.530515699E+01  4.750000000E+00  0.00000E+00  9.000E+00
      -5     1     1     2     0   503 -1.089632606E+01  2.336104506E+00 -1.715645478E+02  1.719916970E+02  4.750000000E+00  0.00000E+00  9.000E+00
      21     1     1     2   512   501 -2.065843540E+01 -3.967639812E+00 -4.348575157E+00  2.148076406E+01  6.583548198E-07  0.00000E+00  9.000E+00
#rwgt            1           9   2.9202764196385681E-003           2      477778           0
</event>
<event>
      6   9999  3.45752E-01  2.00002E+01 -1.00000E+00  1.60210E-01
      21    -1     0     0   501   502  0.000000000E+00  0.000000000E+00  1.223627965E+03  1.223627965E+03  0.000000000E+00  0.00000E+00  9.000E+00
      21    -1     0     0   511   503  0.000000000E+00  0.000000000E+00 -6.177840728E+01  6.177840728E+01  0.000000000E+00  0.00000E+00  9.000E+00
      25     1     1     2     0     0 -9.920642048E+01  1.606290033E+01  8.365968144E+01  1.808923013E+02  1.249926068E+02  0.00000E+00  9.000E+00
       5     1     1     2   501     0 -3.340653119E+00  1.310288877E+01  7.091855563E+02  7.093303613E+02  4.750000000E+00  0.00000E+00  9.000E+00
      -5     1     1     2     0   503  1.015293436E+02 -9.191500509E+00  3.581939921E+02  3.724489089E+02  4.750000000E+00  0.00000E+00  9.000E+00
      21     1     1     2   511   502  1.017730004E+00 -1.997428859E+01  1.081032796E+01  2.273480085E+01  0.000000000E+00  0.00000E+00  9.000E+00
#rwgt            1           9   4.6530589036741813E-003           2      480185           0
</event>
<event>
      6   9999  3.45752E-01  3.87807E+01 -1.00000E+00  1.40970E-01
      21    -1     0     0   501   512  0.000000000E+00  0.000000000E+00  3.632433451E+01  3.632433451E+01  0.000000000E+00  0.00000E+00  9.000E+00
      21    -1     0     0   502   503  0.000000000E+00  0.000000000E+00 -1.243942918E+03  1.243942918E+03  0.000000000E+00  0.00000E+00  9.000E+00
      25     1     1     2     0     0 -5.982341794E+01 -1.519841043E+02 -7.964782162E+02  8.226014423E+02  1.249702956E+02  0.00000E+00  9.000E+00
       5     1     1     2   501     0  5.900449113E+01  1.258550540E+02 -2.450078074E+02  2.817311001E+02  4.750000000E+00  0.00000E+00  9.000E+00
      -5     1     1     2     0   503 -8.209832774E+00 -1.158596610E+01 -8.117651110E+01  8.254589281E+01  4.750000000E+00  0.00000E+00  9.000E+00
      21     1     1     2   502   512  9.028759588E+00  3.771501643E+01 -8.495604909E+01  9.338881754E+01  1.651812370E-06  0.00000E+00  9.000E+00
#rwgt            1           9   1.3624047243592937E-003           2      483207           0
</event>
<event>
      6   9999  3.45752E-01  7.98805E+00 -1.00000E+00  1.98092E-01
      21    -1     0     0   501   502  0.000000000E+00  0.000000000E+00  7.236470542E+00  7.236470542E+00  0.000000000E+00  0.00000E+00  9.000E+00
      21    -1     0     0   502   511  0.000000000E+00  0.000000000E+00 -1.225180560E+03  1.225180560E+03  0.000000000E+00  0.00000E+00  9.000E+00
      25     1     1     2     0     0 -8.349483551E-04  5.674535867E+00 -1.130625827E+03  1.137529806E+03  1.250083857E+02  0.00000E+00  9.000E+00
       5     1     1     2   501     0 -3.092316121E-02  1.122234288E+00  8.508900993E-01  4.954480800E+00  4.750000000E+00  0.00000E+00  9.000E+00
      -5     1     1     2     0   503 -6.304872749E+00 -1.933022762E+00 -2.568637878E+01  2.694142818E+01  4.750000000E+00  0.00000E+00  9.000E+00
      21     1     1     2   503   511  6.336630859E+00 -4.863747393E+00 -6.248277354E+01  6.299131622E+01  6.743495762E-07  0.00000E+00  9.000E+00
#rwgt            1           9   4.4613003904959078E-002           2      484412           0
</event>
<event>
      6   9999  3.45752E-01  2.09620E+01 -1.00000E+00  1.58668E-01
      -1    -1     0     0     0   512  0.000000000E+00  0.000000000E+00  1.080660321E+02  1.080660321E+02  0.000000000E+00  0.00000E+00  9.000E+00
       1    -1     0     0   501     0  0.000000000E+00  0.000000000E+00 -1.407193181E+03  1.407193181E+03  0.000000000E+00  0.00000E+00  9.000E+00
      25     1     1     2     0     0 -1.370704878E+02  4.087194761E+01 -1.320817328E+02  2.313662852E+02  1.250037561E+02  0.00000E+00  9.000E+00
       5     1     1     2   501     0  3.283067567E+00 -6.923318093E+01 -8.970921745E+02  8.997782749E+02  4.750000000E+00  0.00000E+00  9.000E+00
      -5     1     1     2     0   502  1.189170285E+02  4.313549623E+01 -3.122359680E+02  3.369210485E+02  4.750000000E+00  0.00000E+00  9.000E+00
      21     1     1     2   502   512  1.487039174E+01 -1.477426291E+01  4.228272621E+01  4.719360477E+01  1.348699152E-06  0.00000E+00  9.000E+00
#rwgt            1           1   6.5772896170504492E-004           2      487148           0
</event>
<event>
      6   9999  3.45752E-01  1.35284E+01 -1.00000E+00  1.74352E-01
      21    -1     0     0   501   502  0.000000000E+00  0.000000000E+00  1.037768572E+03  1.037768572E+03  0.000000000E+00  0.00000E+00  9.000E+00
      21    -1     0     0   502   511  0.000000000E+00  0.000000000E+00 -2.589369995E+01  2.589369995E+01  0.000000000E+00  0.00000E+00  9.000E+00
      25     1     1     2     0     0 -4.839017122E+01 -9.694546147E+00  6.174837732E+02  6.319392524E+02  1.250016627E+02  0.00000E+00  9.000E+00
       5     1     1     2   501     0 -1.565295912E+00  2.872471738E-01  3.412200005E+02  3.412567712E+02  4.750000000E+00  0.00000E+00  9.000E+00
      -5     1     1     2     0   503  4.116878758E+01 -8.791551961E-01  6.180454540E+01  7.441778227E+01  4.750000000E+00  0.00000E+00  9.000E+00
      21     1     1     2   503   511  8.786679550E+00  1.028645417E+01 -8.633446594E+00  1.604846650E+01  1.155776944E-06  0.00000E+00  9.000E+00
#rwgt            1           9  0.42154635360139381                2      487603           0
</event>
<event>
      6   9999  3.45752E-01  1.30502E+01 -1.00000E+00  1.75785E-01
      21    -1     0     0   501   502  0.000000000E+00  0.000000000E+00  1.140736627E+02  1.140736627E+02  0.000000000E+00  0.00000E+00  9.000E+00
      21    -1     0     0   512   503  0.000000000E+00  0.000000000E+00 -7.951155316E+02  7.951155316E+02  0.000000000E+00  0.00000E+00  9.000E+00
      25     1     1     2     0     0  1.066645343E+02 -1.059855226E+01 -4.277722207E+01  1.701360187E+02  1.250068876E+02  0.00000E+00  9.000E+00
       5     1     1     2   501     0 -7.077487386E+00 -2.463754876E+00  4.412890042E+01  4.501203471E+01  4.750000000E+00  0.00000E+00  9.000E+00
      -5     1     1     2     0   503 -1.118936000E+02  1.740475096E+01 -5.982137253E+02  6.088557520E+02  4.750000000E+00  0.00000E+00  9.000E+00
      21     1     1     2   512   502  1.230655317E+01 -4.342443831E+00 -8.417982189E+01  8.518538891E+01  1.651812370E-06  0.00000E+00  9.000E+00
#rwgt            1           9  0.38177445603700605                2      490542           0
</event>
<event>
      6   9999  3.45752E-01  8.66943E+00 -1.00000E+00  1.93971E-01
      21    -1     0     0   502   511  0.000000000E+00  0.000000000E+00  1.938148708E+01  1.938148708E+01  0.000000000E+00  0.00000E+00  9.000E+00
      21    -1     0     0   501   502  0.000000000E+00  0.000000000E+00 -9.279750567E+02  9.279750567E+02  0.000000000E+00  0.00000E+00  9.000E+00
      25     1     1     2     0     0  8.333204235E+00 -9.401742698E+00 -2.277473384E+02  2.600991434E+02  1.249995168E+02  0.00000E+00  9.000E+00
       5     1     1     2   501     0  3.856128413E+00  1.432145758E+01 -6.623152792E+02  6.624983513E+02  4.750000000E+00  0.00000E+00  9.000E+00
      -5     1     1     2     0   503 -3.841054010E+00 -2.581930420E+00 -3.737815418E+00  7.612740945E+00  4.750000000E+00  0.00000E+00  9.000E+00
      21     1     1     2   503   511 -8.348278639E+00 -2.337784461E+00 -1.479313658E+01  1.714630813E+01  2.384185791E-07  0.00000E+00  9.000E+00
#rwgt            1           9  0.12577475458383028                2      493901           0
</event>
<event>
      6   9999  3.45752E-01  1.17462E+01 -1.00000E+00  1.80120E-01
      21    -1     0     0   512   502  0.000000000E+00  0.000000000E+00  1.398644394E+01  1.398644394E+01  0.000000000E+00  0.00000E+00  9.000E+00
      21    -1     0     0   502   503  0.000000000E+00  0.000000000E+00 -7.468558398E+02  7.468558398E+02  0.000000000E+00  0.00000E+00  9.000E+00
      25     1     1     2     0     0  9.133807245E+00 -1.154023345E+01 -6.825316679E+02  6.940234758E+02  1.249099830E+02  0.00000E+00  9.000E+00
       5     1     1     2   501     0 -2.174409807E-01 -1.194137664E+00  1.571527126E+00  5.148343699E+00  4.750000000E+00  0.00000E+00  9.000E+00
      -5     1     1     2     0   503 -2.390102270E+00  2.968009222E+00 -4.925248294E+01  4.962752506E+01  4.750000000E+00  0.00000E+00  9.000E+00
      21     1     1     2   512   501 -6.526263994E+00  9.766361890E+00 -2.656772164E+00  1.204293920E+01  4.064494877E-07  0.00000E+00  9.000E+00
#rwgt            1           9   2.5113762517613948E-003           2      497760           0
</event>
<event>
      6   9999 -3.45752E-01  1.88051E+02 -1.00000E+00  1.09828E-01
      21    -1     0     0   502   511  0.000000000E+00  0.000000000E+00  1.475593002E+02  1.475593002E+02  0.000000000E+00  0.00000E+00  9.000E+00
      21    -1     0     0   501   502  0.000000000E+00  0.000000000E+00 -1.913622269E+03  1.913622269E+03  0.000000000E+00  0.00000E+00  9.000E+00
      25     1     1     2     0     0  1.920736667E+02 -1.910091262E+02 -5.338502387E+02  6.115650616E+02  1.250558572E+02  0.00000E+00  9.000E+00
       5     1     1     2   501     0  4.040287926E+01  3.511993264E+01 -2.472047975E+02  2.529793998E+02  4.750000000E+00  0.00000E+00  9.000E+00
      -5     1     1     2     0   503 -3.938074412E+02  2.525089979E+02 -8.307075834E+02  9.533848889E+02  4.750000000E+00  0.00000E+00  9.000E+00
      21     1     1     2   503   511  1.613308952E+02 -9.661980432E+01 -1.543003496E+02  2.432522193E+02  5.046370146E-06  0.00000E+00  9.000E+00
#rwgt            1           9  -1.4909037261391115E-003           2      500259           0
</event>
<event>
      6   9999  3.45752E-01  1.93082E+01 -1.00000E+00  1.61386E-01
      21    -1     0     0   512   502  0.000000000E+00  0.000000000E+00  9.161763381E+01  9.161763381E+01  0.000000000E+00  0.00000E+00  9.000E+00
      21    -1     0     0   502   503  0.000000000E+00  0.000000000E+00 -2.955515029E+03  2.955515029E+03  0.000000000E+00  0.00000E+00  9.000E+00
      25     1     1     2     0     0 -2.879858450E+01  3.975010651E+01 -1.179724012E+03  1.187342848E+03  1.249994574E+02  0.00000E+00  9.000E+00
       5     1     1     2   501     0 -4.564857227E+00  6.519345394E-01  9.234950650E+00  1.136264730E+01  4.750000000E+00  0.00000E+00  9.000E+00
      -5     1     1     2     0   503  3.210523603E+01 -2.113485245E+01 -1.769500098E+03  1.769923893E+03  4.750000000E+00  0.00000E+00  9.000E+00
      21     1     1     2   512   501  1.258205695E+00 -1.926718859E+01  7.609176386E+01  7.850327486E+01  4.672030912E-06  0.00000E+00  9.000E+00
#rwgt            1           9   1.0576797995436519E-004           2      501077           0
</event>
<event>
      6   9999  3.45752E-01  7.46915E+01 -1.00000E+00  1.26078E-01
      21    -1     0     0   502   503  0.000000000E+00  0.000000000E+00  2.122378062E+02  2.122378062E+02  0.000000000E+00  0.00000E+00  9.000E+00
      21    -1     0     0   501   511  0.000000000E+00  0.000000000E+00 -4.070244363E+02  4.070244363E+02  0.000000000E+00  0.00000E+00  9.000E+00
      25     1     1     2     0     0  4.882554658E+01  2.138217418E+02 -9.050418346E+00  2.526086384E+02  1.250021714E+02  0.00000E+00  9.000E+00
       5     1     1     2   501     0  1.287772600E+00 -1.535770584E+02 -7.582791242E+01  1.713476175E+02  4.750000000E+00  0.00000E+00  9.000E+00
      -5     1     1     2     0   503  1.426140943E+01 -2.236704739E+01  2.775488517E+01  3.868551097E+01  4.750000000E+00  0.00000E+00  9.000E+00
      21     1     1     2   502   511 -6.437472861E+01 -3.787763602E+01 -1.376631845E+02  1.566204756E+02  1.907348633E-06  0.00000E+00  9.000E+00
#rwgt            1           9  0.42065610750082372                2      503296           0
</event>
<event>
      6   9999  3.45752E-01  1.53899E+01 -1.00000E+00  1.69411E-01
      21    -1     0     0   501   512  0.000000000E+00  0.000000000E+00  1.828806870E+01  1.828806870E+01  0.000000000E+00  0.00000E+00  9.000E+00
      21    -1     0     0   502   503  0.000000000E+00  0.000000000E+00 -3.976828795E+03  3.976828795E+03  0.000000000E+00  0.00000E+00  9.000E+00
      25     1     1     2     0     0  4.189782227E-01 -1.725503226E+00 -3.775818476E+03  3.777887338E+03  1.249976892E+02  0.00000E+00  9.000E+00
       5     1     1     2   501     0  1.150519047E+00 -1.279142016E+01 -3.572631095E+00  1.415168953E+01  4.750000000E+00  0.00000E+00  9.000E+00
      -5     1     1     2     0   503  3.606562449E+00  2.351534636E-02 -1.860969265E+02  1.861924714E+02  4.750000000E+00  0.00000E+00  9.000E+00
      21     1     1     2   502   512 -5.176059719E+00  1.449340804E+01  6.947307152E+00  1.688536489E+01  1.839071348E-06  0.00000E+00  9.000E+00
#rwgt            1           9   3.1844784162258634E-003           2      504044           0
</event>
<event>
      6   9999  3.45752E-01  5.37355E+00 -1.00000E+00  2.20953E-01
      21    -1     0     0   501   511  0.000000000E+00  0.000000000E+00  5.946591224E+01  5.946591224E+01  0.000000000E+00  0.00000E+00  9.000E+00
      21    -1     0     0   502   503  0.000000000E+00  0.000000000E+00 -1.680537132E+02  1.680537132E+02  0.000000000E+00  0.00000E+00  9.000E+00
      25     1     1     2     0     0  3.335374044E+00  4.245791539E+01 -1.162003104E+02  1.758972273E+02  1.249940923E+02  0.00000E+00  9.000E+00
       5     1     1     2   501     0  6.633147512E-01  1.388703239E-01  6.946825781E+00  8.442757835E+00  4.750000000E+00  0.00000E+00  9.000E+00
      -5     1     1     2     0   503 -3.435484060E+00 -3.725283063E+01 -3.400325817E-01  3.771278382E+01  4.750000000E+00  0.00000E+00  9.000E+00
      21     1     1     2   502   511 -5.632047353E-01 -5.343955080E+00  1.005716241E+00  5.466856559E+00  1.246720592E-07  0.00000E+00  9.000E+00
#rwgt            1           9   1.1622679298027828E-002           2      506210           0
</event>
<event>
      6   9999  3.45752E-01  6.08535E+00 -1.00000E+00  2.13207E-01
      21    -1     0     0   501   512  0.000000000E+00  0.000000000E+00  1.077348781E+01  1.077348781E+01  0.000000000E+00  0.00000E+00  9.000E+00
      21    -1     0     0   502   503  0.000000000E+00  0.000000000E+00 -7.788309769E+02  7.788309769E+02  0.000000000E+00  0.00000E+00  9.000E+00
      25     1     1     2     0     0 -3.013540695E+00  8.948524617E+00 -7.314106581E+02  7.420759776E+02  1.250041931E+02  0.00000E+00  9.000E+00
       5     1     1     2   501     0 -1.833687708E+00  1.272762887E+00  1.777321588E+00  5.541092672E+00  4.750000000E+00  0.00000E+00  9.000E+00
      -5     1     1     2     0   503  4.164348360E+00 -4.174378822E+00 -3.292842377E+01  3.378773191E+01  4.750000000E+00  0.00000E+00  9.000E+00
      21     1     1     2   502   512  6.828800423E-01 -6.046908683E+00 -5.495728812E+00  8.199662490E+00  2.665600750E-07  0.00000E+00  9.000E+00
#rwgt            1           9   2.0775333148971171E-004           2      510154           0
</event>
<event>
      6   9999  3.45752E-01  1.51623E+01 -1.00000E+00  1.69967E-01
      21    -1     0     0   501   502  0.000000000E+00  0.000000000E+00  1.478291954E+01  1.478291954E+01  0.000000000E+00  0.00000E+00  9.000E+00
       2    -1     0     0   502     0  0.000000000E+00  0.000000000E+00 -3.448170946E+03  3.448170946E+03  0.000000000E+00  0.00000E+00  9.000E+00
      25     1     1     2     0     0  3.973151199E+01  8.554958191E+00 -2.967598566E+02  3.245609126E+02  1.249863718E+02  0.00000E+00  9.000E+00
       5     1     1     2   501     0  1.023131184E-01  1.594129817E+00 -3.580849761E+01  3.615747113E+01  4.750000000E+00  0.00000E+00  9.000E+00
      -5     1     1     2     0   503 -3.818986231E+01  4.923805457E+00 -5.483730160E+02  5.497437918E+02  4.750000000E+00  0.00000E+00  9.000E+00
       2     1     1     2   503     0 -1.643962799E+00 -1.507289346E+01 -2.552446656E+03  2.552491690E+03  0.000000000E+00  0.00000E+00  9.000E+00
#rwgt            1           9   1.2311609484483489E-004           2      514127           0
</event>
<event>
      6   9999 -3.45752E-01  3.48764E+00 -1.00000E+00  2.60852E-01
      21    -1     0     0   511   502  0.000000000E+00  0.000000000E+00  9.293385952E+00  9.293385952E+00  0.000000000E+00  0.00000E+00  9.000E+00
      21    -1     0     0   502   503  0.000000000E+00  0.000000000E+00 -2.086912750E+03  2.086912750E+03  0.000000000E+00  0.00000E+00  9.000E+00
      25     1     1     2     0     0  6.288972874E+00 -2.839594167E-01 -1.762806736E+03  1.767244294E+03  1.250006937E+02  0.00000E+00  9.000E+00
       5     1     1     2   501     0 -4.012662861E+00  1.030040785E-01  5.502420293E+00  8.303686058E+00  4.750000000E+00  0.00000E+00  9.000E+00
      -5     1     1     2     0   503  1.155287810E+00 -4.417713856E-01 -3.003951413E+02  3.004352397E+02  4.750000000E+00  0.00000E+00  9.000E+00
      21     1     1     2   511   501 -3.431597824E+00  6.227267239E-01 -1.991990614E+01  2.022291554E+01  0.000000000E+00  0.00000E+00  9.000E+00
#rwgt            1           9  -3.5721959586078010E-003           2      517436           0
</event>
<event>
      6   9999  3.45752E-01  8.73740E+00 -1.00000E+00  1.93587E-01
      21    -1     0     0   501   502  0.000000000E+00  0.000000000E+00  4.566129318E+02  4.566129318E+02  0.000000000E+00  0.00000E+00  9.000E+00
      21    -1     0     0   512   503  0.000000000E+00  0.000000000E+00 -6.541294713E+01  6.541294713E+01  0.000000000E+00  0.00000E+00  9.000E+00
      25     1     1     2     0     0  5.348082948E+01  2.187248439E+01  1.542577012E+02  2.067818577E+02  1.249987744E+02  0.00000E+00  9.000E+00
       5     1     1     2   501     0 -4.390757150E-01  9.392404548E-01  2.428911562E+02  2.429398098E+02  4.750000000E+00  0.00000E+00  9.000E+00
      -5     1     1     2     0   503 -4.649481379E+01 -2.859789973E+01  8.471734643E+00  5.544312731E+01  4.750000000E+00  0.00000E+00  9.000E+00
      21     1     1     2   512   502 -6.546939976E+00  5.786174886E+00 -1.442060730E+01  1.686108412E+01  5.331201500E-07  0.00000E+00  9.000E+00
#rwgt            1           9   7.9056511874658619E-003           2      523337           0
</event>
<event>
      6   9999  3.45752E-01  7.49874E+00 -1.00000E+00  2.01402E-01
      21    -1     0     0   511   503  0.000000000E+00  0.000000000E+00  1.575739998E+02  1.575739998E+02  0.000000000E+00  0.00000E+00  9.000E+00
      21    -1     0     0   501   502  0.000000000E+00  0.000000000E+00 -3.885914846E+01  3.885914846E+01  0.000000000E+00  0.00000E+00  9.000E+00
      25     1     1     2     0     0  4.495153061E+00  1.629708737E+01  9.021565449E+01  1.550748505E+02  1.249941738E+02  0.00000E+00  9.000E+00
       5     1     1     2   501     0 -5.265714913E+00 -2.302059780E+00  4.710905120E+00  8.819430811E+00  4.750000000E+00  0.00000E+00  9.000E+00
      -5     1     1     2     0   503 -4.830304772E+00 -9.008913206E+00  5.041483369E+00  1.234793164E+01  4.750000000E+00  0.00000E+00  9.000E+00
      21     1     1     2   511   502  5.600866624E+00 -4.986114381E+00  1.874680839E+01  2.019093530E+01  0.000000000E+00  0.00000E+00  9.000E+00
#rwgt            1           9   3.1841578653155839E-003           2      526829           0
</event>
<event>
      6   9999  3.45752E-01  5.52031E+00 -1.00000E+00  2.19226E-01
       1    -1     0     0   501     0  0.000000000E+00  0.000000000E+00  9.485420240E+02  9.485420240E+02  0.000000000E+00  0.00000E+00  9.000E+00
      21    -1     0     0   502   503  0.000000000E+00  0.000000000E+00 -1.416570582E+03  1.416570582E+03  0.000000000E+00  0.00000E+00  9.000E+00
      25     1     1     2     0     0 -3.123183176E+01  5.271250412E+01 -3.664766600E+02  3.920215471E+02  1.249868620E+02  0.00000E+00  9.000E+00
       5     1     1     2   501     0  8.836048146E+00 -1.087041327E+01  4.618662507E+01  4.849750990E+01  4.750000000E+00  0.00000E+00  9.000E+00
      -5     1     1     2     0   503  2.791585243E+01 -4.189398537E+01 -1.035540521E+03  1.036774389E+03  4.750000000E+00  0.00000E+00  9.000E+00
       1     1     1     2   502     0 -5.520068817E+00  5.189452201E-02  8.878019977E+02  8.878191600E+02  1.868812365E-05  0.00000E+00  9.000E+00
#rwgt            1           9   4.4413642472672394E-003           2      529422           0
</event>
<event>
      6   9999  3.45752E-01  6.83362E+00 -1.00000E+00  2.06479E-01
      21    -1     0     0   501   502  0.000000000E+00  0.000000000E+00  2.274489226E+01  2.274489226E+01  0.000000000E+00  0.00000E+00  9.000E+00
      21    -1     0     0   502   511  0.000000000E+00  0.000000000E+00 -4.636643567E+02  4.636643567E+02  0.000000000E+00  0.00000E+00  9.000E+00
      25     1     1     2     0     0 -2.168308871E+01 -1.913511286E+00 -2.648924678E+02  2.937126202E+02  1.250010636E+02  0.00000E+00  9.000E+00
       5     1     1     2   501     0  3.433577380E-01 -1.165645806E+00  6.863689875E+00  8.435008203E+00  4.750000000E+00  0.00000E+00  9.000E+00
      -5     1     1     2     0   503  1.480875187E+01  1.068031886E+00 -1.300105729E+02  1.309417862E+02  4.750000000E+00  0.00000E+00  9.000E+00
      21     1     1     2   503   511  6.530979101E+00  2.011125206E+00 -5.288011362E+01  5.331983430E+01  9.536743164E-07  0.00000E+00  9.000E+00
#rwgt            1           9   1.7808126243718736                2      535967           0
</event>
<event>
      6   9999 -3.45752E-01  3.15791E+01 -1.00000E+00  1.46411E-01
      21    -1     0     0   512   502  0.000000000E+00  0.000000000E+00  4.157371644E+02  4.157371644E+02  0.000000000E+00  0.00000E+00  9.000E+00
      21    -1     0     0   502   503  0.000000000E+00  0.000000000E+00 -1.106121385E+03  1.106121385E+03  0.000000000E+00  0.00000E+00  9.000E+00
      25     1     1     2     0     0  4.546587619E+01  8.927814147E+00 -9.758777679E+01  1.650653588E+02  1.248052352E+02  0.00000E+00  9.000E+00
       5     1     1     2   501     0 -6.229243350E+00  3.476459837E+01 -3.634612116E+02  3.652040465E+02  4.750000000E+00  0.00000E+00  9.000E+00
      -5     1     1     2     0   503 -1.098900935E+01 -2.957456708E+01 -6.093899959E+02  6.102246660E+02  4.750000000E+00  0.00000E+00  9.000E+00
      21     1     1     2   512   501 -2.824762349E+01 -1.411784544E+01  3.800547636E+02  3.813644781E+02  7.629394531E-06  0.00000E+00  9.000E+00
#rwgt            1           9  -6.6422143142881529E-002           2      539466           0
</event>
<event>
      6   9999  3.45752E-01  1.06975E+01 -1.00000E+00  1.84161E-01
      21    -1     0     0   501   502  0.000000000E+00  0.000000000E+00  1.051017419E+03  1.051017419E+03  0.000000000E+00  0.00000E+00  9.000E+00
       3    -1     0     0   502     0  0.000000000E+00  0.000000000E+00 -1.263325372E+02  1.263325372E+02  0.000000000E+00  0.00000E+00  9.000E+00
      25     1     1     2     0     0 -1.480010702E+01 -6.444772106E+00  2.095514728E+02  2.445427265E+02  1.250149874E+02  0.00000E+00  9.000E+00
       5     1     1     2   501     0 -8.749610547E-01 -5.872271023E-01  7.606581063E+02  7.606736670E+02  4.750000000E+00  0.00000E+00  9.000E+00
      -5     1     1     2     0   503  5.045818956E+00  8.238299872E+00  6.258084232E+01  6.350003307E+01  4.750000000E+00  0.00000E+00  9.000E+00
       3     1     1     2   503     0  1.062924912E+01 -1.206300664E+00 -1.081055395E+02  1.086335297E+02  3.015782986E-06  0.00000E+00  9.000E+00
#rwgt            1           9  0.10893955541419040                2      540911           0
</event>
<event>
      6   9999  3.45752E-01  2.12295E+01 -1.00000E+00  1.58258E-01
      21    -1     0     0   501   511  0.000000000E+00  0.000000000E+00  4.763802596E+01  4.763802596E+01  0.000000000E+00  0.00000E+00  9.000E+00
      21    -1     0     0   502   503  0.000000000E+00  0.000000000E+00 -7.911829629E+02  7.911829629E+02  0.000000000E+00  0.00000E+00  9.000E+00
      25     1     1     2     0     0  1.657616869E+01 -1.046307145E+01 -6.517853995E+02  6.639529991E+02  1.250005313E+02  0.00000E+00  9.000E+00
       5     1     1     2   501     0 -1.344987301E+01  1.532951467E+01 -5.992709427E+01  6.348001443E+01  4.750000000E+00  0.00000E+00  9.000E+00
      -5     1     1     2     0   503 -1.754002338E+01  1.071997185E+01 -6.703647533E+01  7.027817401E+01  4.750000000E+00  0.00000E+00  9.000E+00
      21     1     1     2   502   511  1.441372770E+01 -1.558641507E+01  3.520403217E+01  4.110980129E+01  1.966049969E-06  0.00000E+00  9.000E+00
#rwgt            1           9   2.7016703543720702E-004           2      544414           0
</event>
<event>
      6   9999 -3.45752E-01  3.51510E+00 -1.00000E+00  2.60069E-01
      21    -1     0     0   501   502  0.000000000E+00  0.000000000E+00  5.284037486E+01  5.284037486E+01  0.000000000E+00  0.00000E+00  9.000E+00
      21    -1     0     0   502   512  0.000000000E+00  0.000000000E+00 -1.401188875E+03  1.401188875E+03  0.000000000E+00  0.00000E+00  9.000E+00
      25     1     1     2     0     0 -2.123096405E+01 -3.677387755E+00 -1.270351570E+03  1.276668350E+03  1.249987477E+02  0.00000E+00  9.000E+00
       5     1     1     2   501     0 -1.215715319E+01 -6.816161119E+00  4.519329486E+01  4.753159819E+01  4.750000000E+00  0.00000E+00  9.000E+00
      -5     1     1     2     0   503  3.007235369E+01  9.326662345E+00 -7.459071670E+01  8.110283968E+01  4.750000000E+00  0.00000E+00  9.000E+00
      21     1     1     2   503   512  3.315763547E+00  1.166886529E+00 -4.859950808E+01  4.872646199E+01  9.536743164E-07  0.00000E+00  9.000E+00
#rwgt            1           9  -7.1463391916736494E-005           2      545482           0
</event>
<event>
      6   9999  3.45752E-01  1.84571E+01 -1.00000E+00  1.62918E-01
      21    -1     0     0   501   511  0.000000000E+00  0.000000000E+00  4.342806592E+01  4.342806592E+01  0.000000000E+00  0.00000E+00  9.000E+00
      21    -1     0     0   502   503  0.000000000E+00  0.000000000E+00 -1.399824048E+03  1.399824048E+03  0.000000000E+00  0.00000E+00  9.000E+00
      25     1     1     2     0     0  1.568699900E+02  1.105249925E+02 -6.490961882E+02  6.883128870E+02  1.249992045E+02  0.00000E+00  9.000E+00
       5     1     1     2   501     0 -7.810150833E+01 -4.636896886E+01 -9.254674860E+01  1.297589691E+02  4.750000000E+00  0.00000E+00  9.000E+00
      -5     1     1     2     0   503 -6.038224357E+01 -6.254031717E+01 -5.723573275E+02  5.789410846E+02  4.750000000E+00  0.00000E+00  9.000E+00
      21     1     1     2   502   511 -1.838623809E+01 -1.615706522E+00 -4.239571798E+01  4.623917346E+01  8.259061849E-07  0.00000E+00  9.000E+00
#rwgt            1           9   13.889402260404582                2      553733           0
</event>
<event>
      6   9999  3.45752E-01  9.45397E+01 -1.00000E+00  1.21481E-01
      21    -1     0     0   501   502  0.000000000E+00  0.000000000E+00  6.220882804E+01  6.220882804E+01  0.000000000E+00  0.00000E+00  9.000E+00
      21    -1     0     0   502   512  0.000000000E+00  0.000000000E+00 -2.706103516E+03  2.706103516E+03  0.000000000E+00  0.00000E+00  9.000E+00
      25     1     1     2     0     0 -8.493668331E+01 -2.083792180E+02 -1.215100360E+03  1.242080890E+03  1.251395751E+02  0.00000E+00  9.000E+00
       5     1     1     2   501     0 -1.476960610E+01  7.792170101E+00  2.654530688E+01  3.171868529E+01  4.750000000E+00  0.00000E+00  9.000E+00
      -5     1     1     2     0   503  1.125908806E+01  2.339762982E+02 -8.444234992E+02  8.763248734E+02  4.750000000E+00  0.00000E+00  9.000E+00
      21     1     1     2   503   512  8.844720135E+01 -3.338925023E+01 -6.109161356E+02  6.181878955E+02  7.629394531E-06  0.00000E+00  9.000E+00
#rwgt            1           9   1.1687814565714101                2      556116           0
</event>
<event>
      6   9999  3.45752E-01  1.00175E+01 -1.00000E+00  1.87114E-01
      21    -1     0     0   501   502  0.000000000E+00  0.000000000E+00  1.466741589E+01  1.466741589E+01  0.000000000E+00  0.00000E+00  9.000E+00
      21    -1     0     0   502   511  0.000000000E+00  0.000000000E+00 -9.721247065E+02  9.721247065E+02  0.000000000E+00  0.00000E+00  9.000E+00
      25     1     1     2     0     0  2.663029383E+00 -8.825549441E+00 -8.658750715E+02  8.749003405E+02  1.250039374E+02  0.00000E+00  9.000E+00
       5     1     1     2   501     0  2.708868559E+00  9.044847179E-01  8.668725448E+00  1.028908948E+01  4.750000000E+00  0.00000E+00  9.000E+00
      -5     1     1     2     0   503  4.376567231E-01 -2.397503770E-01 -1.444831504E+01  1.521727082E+01  4.750000000E+00  0.00000E+00  9.000E+00
      21     1     1     2   503   511 -5.809554664E+00  8.160815100E+00 -8.580262950E+01  8.638542155E+01  9.536743164E-07  0.00000E+00  9.000E+00
#rwgt            1           9   1.7069449185768391E-004           2      557360           0
</event>
<event>
      6   9999  3.45752E-01  6.75190E+00 -1.00000E+00  2.07156E-01
      21    -1     0     0   501   512  0.000000000E+00  0.000000000E+00  6.524921896E+01  6.524921896E+01  0.000000000E+00  0.00000E+00  9.000E+00
      21    -1     0     0   502   503  0.000000000E+00  0.000000000E+00 -1.280919972E+03  1.280919972E+03  0.000000000E+00  0.00000E+00  9.000E+00
      25     1     1     2     0     0 -1.202630725E+02 -7.948064024E+01 -5.502858055E+02  5.824246550E+02  1.249945289E+02  0.00000E+00  9.000E+00
       5     1     1     2   501     0 -4.109913118E+00  2.042303147E+00  3.342331008E+01  3.406967192E+01  4.750000000E+00  0.00000E+00  9.000E+00
      -5     1     1     2     0   503  1.253821993E+02  8.411439100E+01 -7.047033042E+02  7.207116179E+02  4.750000000E+00  0.00000E+00  9.000E+00
      21     1     1     2   502   512 -1.009213682E+00 -6.676053909E+00  5.895046547E+00  8.963246167E+00  3.475518164E-07  0.00000E+00  9.000E+00
#rwgt            1           9   5.4986927604734568                2      560041           0
</event>
<event>
      6   9999 -3.45752E-01  1.00910E+01 -1.00000E+00  1.86780E-01
      21    -1     0     0   501   502  0.000000000E+00  0.000000000E+00  1.114744981E+01  1.114744981E+01  0.000000000E+00  0.00000E+00  9.000E+00
      21    -1     0     0   502   511  0.000000000E+00  0.000000000E+00 -1.558184745E+03  1.558184745E+03  0.000000000E+00  0.00000E+00  9.000E+00
      25     1     1     2     0     0  2.553369773E+01  1.175894742E+01 -5.809067110E+02  5.948472915E+02  1.249017648E+02  0.00000E+00  9.000E+00
       5     1     1     2   501     0  2.148526466E+00 -3.138355582E-01  1.790822402E+00  5.521250185E+00  4.750000000E+00  0.00000E+00  9.000E+00
      -5     1     1     2     0   503 -1.966788426E+01 -5.313331523E+00 -2.242123516E+02  2.251861414E+02  4.750000000E+00  0.00000E+00  9.000E+00
      21     1     1     2   503   511 -8.014339935E+00 -6.131780343E+00 -7.437090550E+02  7.437775116E+02  0.000000000E+00  0.00000E+00  9.000E+00
#rwgt            1           9  -3.1940272858794257E-005           2      565144           0
</event>
<event>
      6   9999  3.45752E-01  8.53436E+00 -1.00000E+00  1.94748E-01
      21    -1     0     0   502   503  0.000000000E+00  0.000000000E+00  7.383083791E+00  7.383083791E+00  0.000000000E+00  0.00000E+00  9.000E+00
      21    -1     0     0   512   502  0.000000000E+00  0.000000000E+00 -9.082678839E+02  9.082678839E+02  0.000000000E+00  0.00000E+00  9.000E+00
      25     1     1     2     0     0  3.675228084E+00  4.677772036E+00 -5.890362313E+02  6.021814965E+02  1.249939362E+02  0.00000E+00  9.000E+00
       5     1     1     2   501     0 -5.995194378E+00 -8.564982618E+00 -8.635625039E+01  8.711639205E+01  4.750000000E+00  0.00000E+00  9.000E+00
      -5     1     1     2     0   503 -7.408527372E-01 -4.079391757E+00 -2.909032258E+01  2.976574655E+01  4.750000000E+00  0.00000E+00  9.000E+00
      21     1     1     2   512   501  3.060819031E+00  7.966602339E+00 -1.964019958E+02  1.965873326E+02  2.697398305E-06  0.00000E+00  9.000E+00
#rwgt            1           9   1.1972690099685436E-005           2      567584           0
</event>
<event>
      6   9999  3.45752E-01  4.42202E+01 -1.00000E+00  1.37705E-01
      21    -1     0     0   502   503  0.000000000E+00  0.000000000E+00  1.179743798E+03  1.179743798E+03  0.000000000E+00  0.00000E+00  9.000E+00
      21    -1     0     0   511   502  0.000000000E+00  0.000000000E+00 -1.354900513E+03  1.354900513E+03  0.000000000E+00  0.00000E+00  9.000E+00
      25     1     1     2     0     0  2.883896036E+02  1.870397466E+01  4.573766437E+02  5.552842662E+02  1.250152787E+02  0.00000E+00  9.000E+00
       5     1     1     2   501     0 -8.700375940E-01  2.312992818E+00  1.623498796E+01  1.709515239E+01  4.750000000E+00  0.00000E+00  9.000E+00
      -5     1     1     2     0   503 -2.845163200E+02  2.310110831E+01  6.253203100E+02  6.874090850E+02  4.750000000E+00  0.00000E+00  9.000E+00
      21     1     1     2   511   501 -3.003246067E+00 -4.411807579E+01 -1.274088657E+03  1.274855807E+03  2.157918644E-05  0.00000E+00  9.000E+00
#rwgt            1           9   8.7342458591505804E-003           2      569846           0
</event>
<event>
      6   9999  3.45752E-01  6.32866E+00 -1.00000E+00  2.10882E-01
      21    -1     0     0   501   502  0.000000000E+00  0.000000000E+00  1.127494733E+01  1.127494733E+01  0.000000000E+00  0.00000E+00  9.000E+00
      21    -1     0     0   502   512  0.000000000E+00  0.000000000E+00 -1.914164818E+03  1.914164818E+03  0.000000000E+00  0.00000E+00  9.000E+00
      25     1     1     2     0     0  4.902949840E+01 -1.615211541E+01 -9.030402523E+02  9.131109352E+02  1.250004007E+02  0.00000E+00  9.000E+00
       5     1     1     2   501     0 -1.296899089E-01 -3.895248891E+00  3.833083977E+00  7.241879326E+00  4.750000000E+00  0.00000E+00  9.000E+00
      -5     1     1     2     0   503 -4.309834535E+01  1.751854531E+01 -8.752935353E+02  8.765418998E+02  4.750000000E+00  0.00000E+00  9.000E+00
      21     1     1     2   503   512 -5.801463134E+00  2.528818990E+00 -1.283891672E+02  1.285450510E+02  1.907348633E-06  0.00000E+00  9.000E+00
#rwgt            1           9   4.7781621380381199E-003           2      571517           0
</event>
<event>
      6   9999  3.45752E-01  2.97173E+01 -1.00000E+00  1.48104E-01
      21    -1     0     0   501   502  0.000000000E+00  0.000000000E+00  4.683434582E+02  4.683434582E+02  0.000000000E+00  0.00000E+00  9.000E+00
      21    -1     0     0   511   503  0.000000000E+00  0.000000000E+00 -8.536896144E+02  8.536896144E+02  0.000000000E+00  0.00000E+00  9.000E+00
      25     1     1     2     0     0  4.697741188E+00 -1.638202015E+01 -2.668971549E+02  2.952101922E+02  1.249981077E+02  0.00000E+00  9.000E+00
       5     1     1     2   501     0 -2.704512193E+00 -1.187532364E+01  4.451451134E+02  4.453370321E+02  4.750000000E+00  0.00000E+00  9.000E+00
      -5     1     1     2     0   503  2.717954131E+01  2.259444051E+01 -2.872597945E+01  4.579280078E+01  4.750000000E+00  0.00000E+00  9.000E+00
      21     1     1     2   511   502 -2.917277031E+01  5.662903285E+00 -5.348681352E+02  5.356930474E+02  1.078959322E-05  0.00000E+00  9.000E+00
#rwgt            1           9   1.7296921063112488E-004           2      575324           0
</event>
<event>
      6   9999  3.45752E-01  1.50686E+01 -1.00000E+00  1.70200E-01
      21    -1     0     0   501   502  0.000000000E+00  0.000000000E+00  5.602685642E+01  5.602685642E+01  0.000000000E+00  0.00000E+00  9.000E+00
      21    -1     0     0   512   503  0.000000000E+00  0.000000000E+00 -1.487840139E+03  1.487840139E+03  0.000000000E+00  0.00000E+00  9.000E+00
      25     1     1     2     0     0 -1.126835048E+02  2.318873288E+01 -7.249849109E+02  7.446232584E+02  1.250015451E+02  0.00000E+00  9.000E+00
       5     1     1     2   501     0 -2.179824781E+00  1.931968679E+00  2.833469468E+01  2.887735379E+01  4.750000000E+00  0.00000E+00  9.000E+00
      -5     1     1     2     0   503  1.299015742E+02 -2.416441830E+01 -2.323986395E+02  2.673761924E+02  4.750000000E+00  0.00000E+00  9.000E+00
      21     1     1     2   512   502 -1.503824462E+01 -9.562832581E-01 -5.027644264E+02  5.029901905E+02  7.629394531E-06  0.00000E+00  9.000E+00
#rwgt            1           9   7.3808695064790627E-003           2      577597           0
</event>
<event>
      6   9999  3.45752E-01  1.80133E+01 -1.00000E+00  1.63758E-01
      21    -1     0     0   501   502  0.000000000E+00  0.000000000E+00  1.009389690E+02  1.009389690E+02  0.000000000E+00  0.00000E+00  9.000E+00
      21    -1     0     0   502   511  0.000000000E+00  0.000000000E+00 -7.992576787E+02  7.992576787E+02  0.000000000E+00  0.00000E+00  9.000E+00
      25     1     1     2     0     0 -1.502165001E+02 -1.712275451E+01 -2.580794745E+02  3.241746269E+02  1.250039517E+02  0.00000E+00  9.000E+00
       5     1     1     2   501     0  5.886676737E+00 -6.971670348E+00  4.603215686E+01  4.716756423E+01  4.750000000E+00  0.00000E+00  9.000E+00
      -5     1     1     2     0   503  1.610059379E+02  1.728376403E+01 -2.934800936E+02  3.352234604E+02  4.750000000E+00  0.00000E+00  9.000E+00
      21     1     1     2   503   511 -1.667611451E+01  6.810660835E+00 -1.927912985E+02  1.936309962E+02  3.814697266E-06  0.00000E+00  9.000E+00
#rwgt            1           9   9.9118731985911766E-005           2      580669           0
</event>
<event>
      6   9999  3.45752E-01  1.24578E+01 -1.00000E+00  1.77671E-01
      21    -1     0     0   512   503  0.000000000E+00  0.000000000E+00  3.061497769E+02  3.061497769E+02  0.000000000E+00  0.00000E+00  9.000E+00
      21    -1     0     0   501   502  0.000000000E+00  0.000000000E+00 -9.515331215E+02  9.515331215E+02  0.000000000E+00  0.00000E+00  9.000E+00
      25     1     1     2     0     0  1.057861724E+01 -7.949556460E+01 -6.530550716E+02  6.697293330E+02  1.250000035E+02  0.00000E+00  9.000E+00
       5     1     1     2   501     0 -8.882658783E-02  2.039142397E-01 -8.725505021E+01  8.738452814E+01  4.750000000E+00  0.00000E+00  9.000E+00
      -5     1     1     2     0   503 -2.200376530E+01  8.404820259E+01 -1.933485054E+02  2.120246992E+02  4.750000000E+00  0.00000E+00  9.000E+00
      21     1     1     2   512   502  1.151397465E+01 -4.756552232E+00  2.882752827E+02  2.885443381E+02  5.394796609E-06  0.00000E+00  9.000E+00
#rwgt            1           9   2.6570323669038755E-003           2      583765           0
</event>
<event>
      6   9999  3.45752E-01  8.04105E+00 -1.00000E+00  1.97753E-01
       1    -1     0     0   501     0  0.000000000E+00  0.000000000E+00  1.337086675E+03  1.337086675E+03  0.000000000E+00  0.00000E+00  9.000E+00
      21    -1     0     0   502   503  0.000000000E+00  0.000000000E+00 -1.954245159E+02  1.954245159E+02  0.000000000E+00  0.00000E+00  9.000E+00
      25     1     1     2     0     0 -1.649701582E+01  7.222187131E-01 -1.536497545E+02  1.987621068E+02  1.250018196E+02  0.00000E+00  9.000E+00
       5     1     1     2   501     0  1.334763088E+01 -9.048805445E-01 -6.965672874E+00  1.581332215E+01  4.750000000E+00  0.00000E+00  9.000E+00
      -5     1     1     2     0   503  1.020553485E+01 -3.673395102E+00 -3.332424927E+00  1.230098894E+01  4.750000000E+00  0.00000E+00  9.000E+00
       1     1     1     2   502     0 -7.056149913E+00  3.856056934E+00  1.305610011E+03  1.305634773E+03  0.000000000E+00  0.00000E+00  9.000E+00
#rwgt            1           9   6741.4141390830891                2      586112           0
</event>
<event>
      6   9999 -3.45752E-01  3.05507E+01 -1.00000E+00  1.47329E-01
      21    -1     0     0   502   511  0.000000000E+00  0.000000000E+00  4.563376975E+01  4.563376975E+01  0.000000000E+00  0.00000E+00  9.000E+00
      21    -1     0     0   501   502  0.000000000E+00  0.000000000E+00 -1.173535020E+03  1.173535020E+03  0.000000000E+00  0.00000E+00  9.000E+00
      25     1     1     2     0     0  6.976222996E+01  5.438983758E+00 -1.118748657E+03  1.127883397E+03  1.250041949E+02  0.00000E+00  9.000E+00
       5     1     1     2   501     0 -9.541750667E-01 -6.095261676E+00 -7.830139105E+00  1.104247451E+01  4.750000000E+00  0.00000E+00  9.000E+00
      -5     1     1     2     0   503 -4.399380116E+01  1.847761093E+01  7.285265482E+00  4.850272404E+01  4.750000000E+00  0.00000E+00  9.000E+00
      21     1     1     2   503   511 -2.481425374E+01 -1.782133301E+01 -8.607720003E+00  3.174019443E+01  7.348554138E-07  0.00000E+00  9.000E+00
#rwgt            1           9  -1.2416940381810371E-002           2      589450           0
</event>
<event>
      6   9999  3.45752E-01  1.11079E+01 -1.00000E+00  1.82512E-01
      21    -1     0     0   501   502  0.000000000E+00  0.000000000E+00  6.419496872E+00  6.419496872E+00  0.000000000E+00  0.00000E+00  9.000E+00
      21    -1     0     0   512   503  0.000000000E+00  0.000000000E+00 -1.452030080E+03  1.452030080E+03  0.000000000E+00  0.00000E+00  9.000E+00
      25     1     1     2     0     0  1.093461138E+00  1.333479373E+01 -1.137162662E+03  1.144090044E+03  1.249963869E+02  0.00000E+00  9.000E+00
       5     1     1     2   501     0 -1.194071121E+00  3.333775469E+00 -1.159802093E+00  6.037176957E+00  4.750000000E+00  0.00000E+00  9.000E+00
      -5     1     1     2     0   503 -7.531514942E+00 -8.597939990E+00 -1.045492391E+02  1.052794100E+02  4.750000000E+00  0.00000E+00  9.000E+00
      21     1     1     2   512   502  7.632124926E+00 -8.070629207E+00 -2.027388804E+02  2.030429462E+02  3.814697266E-06  0.00000E+00  9.000E+00
#rwgt            1           9  0.56767627538370269                2      591246           0
</event>
<event>
      6   9999  3.45752E-01  3.85376E+01 -1.00000E+00  1.41130E-01
      21    -1     0     0   511   502  0.000000000E+00  0.000000000E+00  6.794893642E+01  6.794893642E+01  0.000000000E+00  0.00000E+00  9.000E+00
      21    -1     0     0   502   503  0.000000000E+00  0.000000000E+00 -8.325760268E+02  8.325760268E+02  0.000000000E+00  0.00000E+00  9.000E+00
      25     1     1     2     0     0 -2.177718274E+01 -1.125398126E+01 -7.477272201E+02  7.584947886E+02  1.249697997E+02  0.00000E+00  9.000E+00
       5     1     1     2   501     0 -1.935816962E+01  5.608513896E+00  5.340523449E+01  5.727892920E+01  4.750000000E+00  0.00000E+00  9.000E+00
      -5     1     1     2     0   503  3.827672620E+00 -4.013076258E+00 -2.060430076E+01  2.185990779E+01  4.750000000E+00  0.00000E+00  9.000E+00
      21     1     1     2   511   501  3.730767974E+01  9.658543625E+00 -4.970080401E+01  6.289133765E+01  0.000000000E+00  0.00000E+00  9.000E+00
#rwgt            1           9   7.4849820788049585E-003           2      593342           0
</event>
<event>
      6   9999  3.45752E-01  3.72819E+01 -1.00000E+00  1.41982E-01
      21    -1     0     0   512   502  0.000000000E+00  0.000000000E+00  2.379459934E+03  2.379459934E+03  0.000000000E+00  0.00000E+00  9.000E+00
      21    -1     0     0   502   503  0.000000000E+00  0.000000000E+00 -2.205039017E+03  2.205039017E+03  0.000000000E+00  0.00000E+00  9.000E+00
      25     1     1     2     0     0  4.174983495E+01 -1.536040528E+01 -1.964486498E+03  1.968961888E+03  1.249988989E+02  0.00000E+00  9.000E+00
       5     1     1     2   501     0  6.029038275E+00  2.995116026E+00 -1.190866522E+01  1.448098166E+01  4.750000000E+00  0.00000E+00  9.000E+00
      -5     1     1     2     0   503 -1.339287242E+01  2.677151736E+01 -2.239528499E+02  2.259945235E+02  4.750000000E+00  0.00000E+00  9.000E+00
      21     1     1     2   512   501 -3.438600081E+01 -1.440622811E+01  2.374768930E+03  2.375061558E+03  4.315837288E-05  0.00000E+00  9.000E+00
#rwgt            1           9   5.1777086302823183E-002           2      595032           0
</event>
<event>
      6   9999  3.45752E-01  9.54595E+00 -1.00000E+00  1.89345E-01
      21    -1     0     0   501   502  0.000000000E+00  0.000000000E+00  6.815037336E+02  6.815037336E+02  0.000000000E+00  0.00000E+00  9.000E+00
      21    -1     0     0   511   503  0.000000000E+00  0.000000000E+00 -3.224415111E+01  3.224415111E+01  0.000000000E+00  0.00000E+00  9.000E+00
      25     1     1     2     0     0 -4.121730014E-01  5.756414615E-01  3.047315640E+02  3.293730582E+02  1.249991365E+02  0.00000E+00  9.000E+00
       5     1     1     2   501     0 -2.469166437E+00  3.682099443E+00  3.446321113E+02  3.446933554E+02  4.750000000E+00  0.00000E+00  9.000E+00
      -5     1     1     2     0   503 -5.344928409E+00  5.851655315E-01  1.791046489E+01  1.929398691E+01  4.750000000E+00  0.00000E+00  9.000E+00
      21     1     1     2   511   502  8.226267848E+00 -4.842906436E+00 -1.801455766E+01  2.038748423E+01  6.307962682E-07  0.00000E+00  9.000E+00
#rwgt            1           9   1.3014074970679827E-004           2      595927           0
</event>
<event>
      6   9999  3.45752E-01  6.24266E+00 -1.00000E+00  2.11687E-01
      21    -1     0     0   501   502  0.000000000E+00  0.000000000E+00  1.996182944E+02  1.996182944E+02  0.000000000E+00  0.00000E+00  9.000E+00
       2    -1     0     0   502     0  0.000000000E+00  0.000000000E+00 -1.870893422E+03  1.870893422E+03  0.000000000E+00  0.00000E+00  9.000E+00
      25     1     1     2     0     0 -9.246825188E+01  4.514062702E+01  9.465178753E+01  1.875441888E+02  1.250032322E+02  0.00000E+00  9.000E+00
       5     1     1     2   501     0  3.876331052E-02 -1.509611727E+00  5.294235004E+01  5.317645492E+01  4.750000000E+00  0.00000E+00  9.000E+00
      -5     1     1     2     0   503  9.641940194E+01 -3.882983413E+01 -4.908738227E+02  5.017809576E+02  4.750000000E+00  0.00000E+00  9.000E+00
       2     1     1     2   503     0 -3.989913373E+00 -4.801181158E+00 -1.327995442E+03  1.328010115E+03  1.525878906E-05  0.00000E+00  9.000E+00
#rwgt            1           9   2.3696871994059027E-002           2      598066           0
</event>
<event>
      6   9999  3.45752E-01  1.06662E+01 -1.00000E+00  1.84291E-01
      21    -1     0     0   501   502  0.000000000E+00  0.000000000E+00  1.645847087E+01  1.645847087E+01  0.000000000E+00  0.00000E+00  9.000E+00
      21    -1     0     0   511   503  0.000000000E+00  0.000000000E+00 -1.160833095E+03  1.160833095E+03  0.000000000E+00  0.00000E+00  9.000E+00
      25     1     1     2     0     0  6.017388042E+01  4.124201863E+01 -5.053949123E+02  5.257083488E+02  1.249938021E+02  0.00000E+00  9.000E+00
       5     1     1     2   501     0  6.548196340E-01 -3.549917589E-01  2.111723715E+00  5.251350774E+00  4.750000000E+00  0.00000E+00  9.000E+00
      -5     1     1     2     0   503 -5.515679599E+01 -3.185395128E+01 -4.055266287E+02  4.105257062E+02  4.750000000E+00  0.00000E+00  9.000E+00
      21     1     1     2   511   502 -5.671904065E+00 -9.033075590E+00 -2.355648073E+02  2.358061606E+02  0.000000000E+00  0.00000E+00  9.000E+00
#rwgt            1           9   1.6017438105665749E-004           2      604272           0
</event>
<event>
      6   9999  3.45752E-01  2.98117E+01 -1.00000E+00  1.48015E-01
      21    -1     0     0   501   502  0.000000000E+00  0.000000000E+00  1.727456904E+02  1.727456904E+02  0.000000000E+00  0.00000E+00  9.000E+00
       1    -1     0     0   502     0  0.000000000E+00  0.000000000E+00 -1.692232354E+03  1.692232354E+03  0.000000000E+00  0.00000E+00  9.000E+00
      25     1     1     2     0     0  6.890900322E+00 -2.989119707E+01 -5.809494937E+02  5.950352460E+02  1.249946461E+02  0.00000E+00  9.000E+00
       5     1     1     2   501     0  2.450370010E+01  7.411662479E-01  1.627731613E+02  1.646773973E+02  4.750000000E+00  0.00000E+00  9.000E+00
      -5     1     1     2     0   503 -2.429191899E+00  2.209724492E+01 -7.156483596E+01  7.508846418E+01  4.750000000E+00  0.00000E+00  9.000E+00
       1     1     1     2   503     0 -2.896540852E+01  7.052785899E+00 -1.029745495E+03  1.030176937E+03  0.000000000E+00  0.00000E+00  9.000E+00
#rwgt            1           9   8.6426174301589551                2      606688           0
</event>
<event>
      6   9999  3.45752E-01  7.45123E+00 -1.00000E+00  2.01741E-01
      21    -1     0     0   501   502  0.000000000E+00  0.000000000E+00  1.779765351E+01  1.779765351E+01  0.000000000E+00  0.00000E+00  9.000E+00
      21    -1     0     0   502   511  0.000000000E+00  0.000000000E+00 -3.621139368E+02  3.621139368E+02  0.000000000E+00  0.00000E+00  9.000E+00
      25     1     1     2     0     0 -1.545387374E+00 -4.313590695E-01 -2.292843414E+02  2.611519391E+02  1.250058071E+02  0.00000E+00  9.000E+00
       5     1     1     2   501     0 -2.887719546E-01 -5.649711796E-02 -5.907663996E+00  7.586143622E+00  4.750000000E+00  0.00000E+00  9.000E+00
      -5     1     1     2     0   503 -5.040767938E+00 -2.385514176E+00 -1.439598195E+01  1.615261018E+01  4.750000000E+00  0.00000E+00  9.000E+00
      21     1     1     2   503   511  6.874927266E+00  2.873370363E+00 -9.472829596E+01  9.502089737E+01  1.348699152E-06  0.00000E+00  9.000E+00
#rwgt            1           9   3.1204593173353473E-004           2      609795           0
</event>
<event>
      6   9999  3.45752E-01  7.48240E+00 -1.00000E+00  2.01518E-01
       1    -1     0     0   502     0  0.000000000E+00  0.000000000E+00  1.265115909E+02  1.265115909E+02  0.000000000E+00  0.00000E+00  9.000E+00
      21    -1     0     0   501   502  0.000000000E+00  0.000000000E+00 -9.905906908E+02  9.905906908E+02  0.000000000E+00  0.00000E+00  9.000E+00
      25     1     1     2     0     0 -1.049330667E+01  7.761895029E+00 -7.286352255E+02  7.393941534E+02  1.249962626E+02  0.00000E+00  9.000E+00
       5     1     1     2   501     0  3.261438882E+00 -9.689513300E+00 -2.245272457E+02  2.248100759E+02  4.750000000E+00  0.00000E+00  9.000E+00
      -5     1     1     2     0   503 -1.549925607E-02  6.697357029E-02 -3.161402472E+01  3.196895032E+01  4.750000000E+00  0.00000E+00  9.000E+00
       1     1     1     2   503     0  7.247367041E+00  1.860644701E+00  1.206973961E+02  1.209291021E+02  4.473129043E-06  0.00000E+00  9.000E+00
#rwgt            1           9   1.1987146166341303E-003           2      612678           0
</event>
<event>
      6   9999  3.45752E-01  1.84592E+01 -1.00000E+00  1.62914E-01
      21    -1     0     0   501   502  0.000000000E+00  0.000000000E+00  2.049339054E+01  2.049339054E+01  0.000000000E+00  0.00000E+00  9.000E+00
      21    -1     0     0   511   503  0.000000000E+00  0.000000000E+00 -1.463237935E+03  1.463237935E+03  0.000000000E+00  0.00000E+00  9.000E+00
      25     1     1     2     0     0  8.204378132E+00 -6.597210978E+01 -4.271749858E+02  4.500255200E+02  1.249994763E+02  0.00000E+00  9.000E+00
       5     1     1     2   501     0  3.557470735E+00 -1.559671429E+00  6.549418972E+00  8.974717927E+00  4.750000000E+00  0.00000E+00  9.000E+00
      -5     1     1     2     0   503 -5.070288160E+00  5.032819484E+01 -5.779704033E+02  5.801990905E+02  4.750000000E+00  0.00000E+00  9.000E+00
      21     1     1     2   511   502 -6.691560707E+00  1.720358637E+01 -4.441485741E+02  4.445319969E+02  5.394796609E-06  0.00000E+00  9.000E+00
#rwgt            1           9   1.3275614802899008E-003           2      615419           0
</event>
<event>
      6   9999  3.45752E-01  2.00061E+01 -1.00000E+00  1.60200E-01
      21    -1     0     0   501   502  0.000000000E+00  0.000000000E+00  3.238682130E+01  3.238682130E+01  0.000000000E+00  0.00000E+00  9.000E+00
       2    -1     0     0   502     0  0.000000000E+00  0.000000000E+00 -1.447381461E+03  1.447381461E+03  0.000000000E+00  0.00000E+00  9.000E+00
      25     1     1     2     0     0 -2.039029547E+01  6.368112881E+00 -1.183209584E+02  1.734379110E+02  1.249981711E+02  0.00000E+00  9.000E+00
       5     1     1     2   501     0 -1.000453476E+00 -1.646525116E+00  2.815223884E+00  5.848071274E+00  4.750000000E+00  0.00000E+00  9.000E+00
      -5     1     1     2     0   503  1.191497725E+01 -2.234128239E+01 -4.351540916E+02  4.359159845E+02  4.750000000E+00  0.00000E+00  9.000E+00
       2     1     1     2   503     0  9.475771694E+00  1.761969463E+01 -8.643348136E+02  8.645663155E+02  0.000000000E+00  0.00000E+00  9.000E+00
#rwgt            1           9  0.12867026146528168                2      617487           0
</event>
<event>
      6   9999  3.45752E-01  9.99283E+00 -1.00000E+00  1.87227E-01
      21    -1     0     0   501   502  0.000000000E+00  0.000000000E+00  2.033886672E+01  2.033886672E+01  0.000000000E+00  0.00000E+00  9.000E+00
      21    -1     0     0   511   503  0.000000000E+00  0.000000000E+00 -2.713713647E+03  2.713713647E+03  0.000000000E+00  0.00000E+00  9.000E+00
      25     1     1     2     0     0  8.126969116E+01 -9.455162437E+01 -6.495971028E+02  6.731622762E+02  1.250051268E+02  0.00000E+00  9.000E+00
       5     1     1     2   501     0  4.274971063E+00  1.276818806E+00  4.873736717E+00  8.137656508E+00  4.750000000E+00  0.00000E+00  9.000E+00
      -5     1     1     2     0   503 -7.731235348E+01  8.761038381E+01 -1.731902893E+03  1.735846472E+03  4.750000000E+00  0.00000E+00  9.000E+00
      21     1     1     2   511   502 -8.232308747E+00  5.664421758E+00 -3.167485214E+02  3.169061098E+02  0.000000000E+00  0.00000E+00  9.000E+00
#rwgt            1           9   4.2433528295916040E-002           2      619461           0
</event>
<event>
      6   9999  3.45752E-01  1.16838E+01 -1.00000E+00  1.80345E-01
      21    -1     0     0   512   502  0.000000000E+00  0.000000000E+00  2.146637542E+01  2.146637542E+01  0.000000000E+00  0.00000E+00  9.000E+00
      21    -1     0     0   502   503  0.000000000E+00  0.000000000E+00 -9.033204816E+02  9.033204816E+02  0.000000000E+00  0.00000E+00  9.000E+00
      25     1     1     2     0     0 -1.971148273E+01 -8.755035687E+00 -7.305153693E+02  7.414463039E+02  1.249988948E+02  0.00000E+00  9.000E+00
       5     1     1     2   501     0  1.406644544E-03 -6.264896893E+00  7.449003293E+00  1.083047022E+01  4.750000000E+00  0.00000E+00  9.000E+00
      -5     1     1     2     0   503  1.383127739E+01  4.922848832E+00 -1.600192921E+02  1.607615470E+02  4.750000000E+00  0.00000E+00  9.000E+00
      21     1     1     2   512   501  5.878798700E+00  1.009708375E+01  1.231551830E+00  1.174853584E+01  3.475518164E-07  0.00000E+00  9.000E+00
#rwgt            1           9   8.6270324154950345E-005           2      623040           0
</event>
<event>
      6   9999 -3.45752E-01  4.98539E+01 -1.00000E+00  1.34856E-01
      21    -1     0     0   501   502  0.000000000E+00  0.000000000E+00  1.578375961E+03  1.578375961E+03  0.000000000E+00  0.00000E+00  9.000E+00
      21    -1     0     0   511   503  0.000000000E+00  0.000000000E+00 -2.078214166E+02  2.078214166E+02  0.000000000E+00  0.00000E+00  9.000E+00
      25     1     1     2     0     0 -6.837358864E+00  1.938631084E+02  4.403379748E+02  4.971437004E+02  1.249986901E+02  0.00000E+00  9.000E+00
       5     1     1     2   501     0 -4.519947813E+00 -1.534599300E+01  8.219105675E+02  8.220799675E+02  4.750000000E+00  0.00000E+00  9.000E+00
      -5     1     1     2     0   503  2.824754594E+01 -2.254226605E+02  2.373772900E+02  3.286089470E+02  4.750000000E+00  0.00000E+00  9.000E+00
      21     1     1     2   511   502 -1.689023927E+01  4.690554507E+01 -1.290712877E+02  1.383647630E+02  2.697398305E-06  0.00000E+00  9.000E+00
#rwgt            1           9  -1.6978835364407938E-003           2      625937           0
</event>
<event>
      6   9999  3.45752E-01  7.79481E+00 -1.00000E+00  1.99361E-01
      21    -1     0     0   501   502  0.000000000E+00  0.000000000E+00  2.967755539E+01  2.967755539E+01  0.000000000E+00  0.00000E+00  9.000E+00
      21    -1     0     0   502   512  0.000000000E+00  0.000000000E+00 -1.146626937E+03  1.146626937E+03  0.000000000E+00  0.00000E+00  9.000E+00
      25     1     1     2     0     0 -6.830129536E+01 -7.342314568E+01 -5.395518975E+02  5.628474804E+02  1.250000433E+02  0.00000E+00  9.000E+00
       5     1     1     2   501     0 -1.118396840E+00 -4.088554047E+00  1.260618604E+01  1.412251791E+01  4.750000000E+00  0.00000E+00  9.000E+00
      -5     1     1     2     0   503  6.240258794E+01  7.411769786E+01 -5.597128334E+02  5.680568057E+02  4.750000000E+00  0.00000E+00  9.000E+00
      21     1     1     2   503   512  7.017104257E+00  3.394001873E+00 -3.029083670E+01  3.127768836E+01  0.000000000E+00  0.00000E+00  9.000E+00
#rwgt            1           9   2.9544884840976992E-004           2      627565           0
</event>
<event>
      6   9999  3.45752E-01  2.08578E+01 -1.00000E+00  1.58831E-01
      21    -1     0     0   501   511  0.000000000E+00  0.000000000E+00  2.393407169E+01  2.393407169E+01  0.000000000E+00  0.00000E+00  9.000E+00
      21    -1     0     0   502   503  0.000000000E+00  0.000000000E+00 -9.621564220E+02  9.621564220E+02  0.000000000E+00  0.00000E+00  9.000E+00
      25     1     1     2     0     0 -8.807098884E+01 -1.048550443E+01 -6.406945792E+02  6.587716719E+02  1.249965083E+02  0.00000E+00  9.000E+00
       5     1     1     2   501     0  6.129793430E+01 -9.897440393E+00 -1.242850749E+02  1.390134469E+02  4.750000000E+00  0.00000E+00  9.000E+00
      -5     1     1     2     0   503  1.188571323E+01  3.499167753E+01 -1.583551972E+02  1.626794967E+02  4.750000000E+00  0.00000E+00  9.000E+00
      21     1     1     2   502   511  1.488734131E+01 -1.460873271E+01 -1.488749902E+01  2.562587812E+01  4.460403188E-07  0.00000E+00  9.000E+00
#rwgt            1           9  0.18122962644298571                2      631793           0
</event>
<event>
      6   9999  3.45752E-01  5.23091E+00 -1.00000E+00  2.22707E-01
      -2    -1     0     0     0   502  0.000000000E+00  0.000000000E+00  4.299703574E+02  4.299703574E+02  0.000000000E+00  0.00000E+00  9.000E+00
      21    -1     0     0   502   503  0.000000000E+00  0.000000000E+00 -8.533147085E+02  8.533147085E+02  0.000000000E+00  0.00000E+00  9.000E+00
      25     1     1     2     0     0  4.851522791E+00  9.890777962E+00 -6.844325197E+02  6.958394551E+02  1.249932339E+02  0.00000E+00  9.000E+00
       5     1     1     2   501     0  9.363994660E-01 -1.052596069E+00  5.002620611E+00  7.040846215E+00  4.750000000E+00  0.00000E+00  9.000E+00
      -5     1     1     2     0   503 -7.157575195E+00 -3.789765824E+00 -1.620073249E+02  1.622791700E+02  4.750000000E+00  0.00000E+00  9.000E+00
      -2     1     1     2     0   501  1.369652938E+00 -5.048416069E+00  4.180928728E+02  4.181255945E+02  9.344061824E-06  0.00000E+00  9.000E+00
#rwgt            1           9   5.9559916811997111E-004           2      633434           0
</event>
<event>
      6   9999  3.45752E-01  1.35687E+01 -1.00000E+00  1.74234E-01
      21    -1     0     0   501   502  0.000000000E+00  0.000000000E+00  1.804319135E+01  1.804319135E+01  0.000000000E+00  0.00000E+00  9.000E+00
       1    -1     0     0   502     0  0.000000000E+00  0.000000000E+00 -1.280071868E+03  1.280071868E+03  0.000000000E+00  0.00000E+00  9.000E+00
      25     1     1     2     0     0  7.673262238E+01  3.466182856E+01 -6.052982353E+02  6.237792352E+02  1.250009716E+02  0.00000E+00  9.000E+00
       5     1     1     2   501     0 -2.138076101E-01  3.818103082E-01  3.614403308E+00  5.984806102E+00  4.750000000E+00  0.00000E+00  9.000E+00
      -5     1     1     2     0   503 -6.757166804E+01 -2.484279009E+01 -3.330724985E+02  3.407975151E+02  4.750000000E+00  0.00000E+00  9.000E+00
       1     1     1     2   503     0 -8.947146724E+00 -1.020084878E+01 -3.272723458E+02  3.275535026E+02  3.814697266E-06  0.00000E+00  9.000E+00
#rwgt            1           9   1.2575730900729646E-003           2      637398           0
</event>
<event>
      6   9999  3.45752E-01  8.14396E+00 -1.00000E+00  1.97103E-01
      21    -1     0     0   501   502  0.000000000E+00  0.000000000E+00  3.314505465E+01  3.314505465E+01  0.000000000E+00  0.00000E+00  9.000E+00
      21    -1     0     0   502   511  0.000000000E+00  0.000000000E+00 -1.229343057E+03  1.229343057E+03  0.000000000E+00  0.00000E+00  9.000E+00
      25     1     1     2     0     0  6.404478072E+01 -6.139212831E+01 -2.327445041E+02  2.786834658E+02  1.249949703E+02  0.00000E+00  9.000E+00
       5     1     1     2   501     0 -1.103064107E+00  1.030425793E+00  7.370503299E+00  8.897491029E+00  4.750000000E+00  0.00000E+00  9.000E+00
      -5     1     1     2     0   503 -6.106886441E+01  5.243601494E+01 -9.039650884E+02  9.075540674E+02  4.750000000E+00  0.00000E+00  9.000E+00
      21     1     1     2   503   511 -1.872852196E+00  7.925687575E+00 -6.685891326E+01  6.735308739E+01  0.000000000E+00  0.00000E+00  9.000E+00
#rwgt            1           9   1.2132439465798131E-003           2      639613           0
</event>
<event>
      6   9999  3.45752E-01  1.58830E+01 -1.00000E+00  1.68246E-01
      21    -1     0     0   512   502  0.000000000E+00  0.000000000E+00  3.699962827E+02  3.699962827E+02  0.000000000E+00  0.00000E+00  9.000E+00
      21    -1     0     0   502   503  0.000000000E+00  0.000000000E+00 -1.020252897E+03  1.020252897E+03  0.000000000E+00  0.00000E+00  9.000E+00
      25     1     1     2     0     0 -5.921685283E+00 -4.815673358E+00 -9.646920773E+02  9.727871816E+02  1.250033589E+02  0.00000E+00  9.000E+00
       5     1     1     2   501     0 -2.806777353E+00 -3.416407443E+00  1.675037531E+01  1.796350222E+01  4.750000000E+00  0.00000E+00  9.000E+00
      -5     1     1     2     0   503  1.630481637E+01 -5.727427001E+00 -4.914184757E+01  5.230806954E+01  4.750000000E+00  0.00000E+00  9.000E+00
      21     1     1     2   512   501 -7.576353736E+00  1.395950780E+01  3.468269353E+02  3.471904262E+02  1.009274029E-05  0.00000E+00  9.000E+00
#rwgt            1           9   2.6195035973998466E-003           2      643675           0
</event>
<event>
      6   9999  3.45752E-01  1.08482E+01 -1.00000E+00  1.83545E-01
      21    -1     0     0   501   502  0.000000000E+00  0.000000000E+00  1.354260805E+01  1.354260805E+01  0.000000000E+00  0.00000E+00  9.000E+00
      21    -1     0     0   511   503  0.000000000E+00  0.000000000E+00 -9.262623224E+02  9.262623224E+02  0.000000000E+00  0.00000E+00  9.000E+00
      25     1     1     2     0     0 -8.256159607E+00  5.665963202E+01 -6.503921046E+02  6.647613274E+02  1.249770163E+02  0.00000E+00  9.000E+00
       5     1     1     2   501     0  2.934330685E-01  6.991854462E-01 -1.436511937E+00  5.020062729E+00  4.750000000E+00  0.00000E+00  9.000E+00
      -5     1     1     2     0   503  1.864422431E+01 -5.546438755E+01 -2.154018130E+02  2.232586145E+02  4.750000000E+00  0.00000E+00  9.000E+00
      21     1     1     2   511   502 -1.068149777E+01 -1.894429914E+00 -4.548928485E+01  4.676492591E+01  6.743495762E-07  0.00000E+00  9.000E+00
#rwgt            1           9   4.9254474305201572E-003           2      646040           0
</event>
<event>
      6   9999  3.45752E-01  2.51451E+01 -1.00000E+00  1.52975E-01
      21    -1     0     0   502   512  0.000000000E+00  0.000000000E+00  2.893467543E+01  2.893467543E+01  0.000000000E+00  0.00000E+00  9.000E+00
      21    -1     0     0   501   502  0.000000000E+00  0.000000000E+00 -3.219535303E+03  3.219535303E+03  0.000000000E+00  0.00000E+00  9.000E+00
      25     1     1     2     0     0  2.388664114E-01  1.336808808E+02 -1.041381461E+03  1.057339700E+03  1.249850343E+02  0.00000E+00  9.000E+00
       5     1     1     2   501     0 -2.803466873E+01 -1.332726297E+02 -2.110620351E+03  2.115014980E+03  4.750000000E+00  0.00000E+00  9.000E+00
      -5     1     1     2     0   503  3.168769550E+00  4.669785059E+00 -4.852457682E+01  4.908202368E+01  4.750000000E+00  0.00000E+00  9.000E+00
      21     1     1     2   503   512  2.462703276E+01 -5.078036186E+00  9.925761563E+00  2.703327462E+01  2.665600750E-06  0.00000E+00  9.000E+00
#rwgt            1           9  0.21517407901922694                2      648650           0
</event>
<event>
      6   9999  3.45752E-01  4.39473E+01 -1.00000E+00  1.37856E-01
      21    -1     0     0   502   503  0.000000000E+00  0.000000000E+00  8.231264780E+01  8.231264780E+01  0.000000000E+00  0.00000E+00  9.000E+00
      21    -1     0     0   511   502  0.000000000E+00  0.000000000E+00 -1.699534934E+03  1.699534934E+03  0.000000000E+00  0.00000E+00  9.000E+00
      25     1     1     2     0     0  1.734852265E+02  9.068863204E+01 -7.904652215E+02  8.238822899E+02  1.250008377E+02  0.00000E+00  9.000E+00
       5     1     1     2   501     0 -8.560979112E+00  2.529075172E+01 -5.299545683E+02  5.306480184E+02  4.750000000E+00  0.00000E+00  9.000E+00
      -5     1     1     2     0   503 -2.058651256E+02 -1.000040952E+02 -1.490467805E+02  2.731643723E+02  4.750000000E+00  0.00000E+00  9.000E+00
      21     1     1     2   511   501  4.094087825E+01 -1.597528859E+01 -1.477557156E+02  1.541529009E+02  0.000000000E+00  0.00000E+00  9.000E+00
#rwgt            1           9   4.5062062322133561E-005           2      650182           0
</event>
<event>
      6   9999  3.45752E-01  9.08670E+00 -1.00000E+00  1.91684E-01
      21    -1     0     0   501   502  0.000000000E+00  0.000000000E+00  5.419985177E+02  5.419985177E+02  0.000000000E+00  0.00000E+00  9.000E+00
      21    -1     0     0   502   512  0.000000000E+00  0.000000000E+00 -2.962390543E+01  2.962390543E+01  0.000000000E+00  0.00000E+00  9.000E+00
      25     1     1     2     0     0  3.395957772E-01 -7.135630535E+00  4.753519803E+02  4.915626659E+02  1.249932671E+02  0.00000E+00  9.000E+00
       5     1     1     2   501     0 -2.617443339E-01 -3.566460273E-01  4.296172204E+01  4.322577665E+01  4.750000000E+00  0.00000E+00  9.000E+00
      -5     1     1     2     0   503 -3.026998627E+00 -1.102526653E+00  1.388616426E+01  1.502552307E+01  4.750000000E+00  0.00000E+00  9.000E+00
      21     1     1     2   503   512  2.949147183E+00  8.594803215E+00 -1.982525429E+01  2.180845751E+01  5.840038640E-07  0.00000E+00  9.000E+00
#rwgt            1           9   1.1244234723718474                2      651990           0
</event>
<event>
      6   9999 -3.45752E-01  7.97783E+00 -1.00000E+00  1.98158E-01
      21    -1     0     0   511   502  0.000000000E+00  0.000000000E+00  5.143239188E+02  5.143239188E+02  0.000000000E+00  0.00000E+00  9.000E+00
      21    -1     0     0   502   503  0.000000000E+00  0.000000000E+00 -4.506156058E+02  4.506156058E+02  0.000000000E+00  0.00000E+00  9.000E+00
      25     1     1     2     0     0 -1.703226989E+01 -3.308951503E+00 -3.943957014E+02  4.140896253E+02  1.249848038E+02  0.00000E+00  9.000E+00
       5     1     1     2   501     0 -2.829973819E-01 -4.163188069E-01  4.083934145E-01  4.794026914E+00  4.750000000E+00  0.00000E+00  9.000E+00
      -5     1     1     2     0   503  9.499757272E+00  5.326363612E+00 -4.334891904E+01  4.494782330E+01  4.750000000E+00  0.00000E+00  9.000E+00
      21     1     1     2   511   501  7.815510000E+00 -1.601093302E+00  5.010445400E+02  5.011080490E+02  7.629394531E-06  0.00000E+00  9.000E+00
#rwgt            1           9  -1.7163352400210146E-005           2      654544           0
</event>
<event>
      6   9999  3.45752E-01  1.25516E+01 -1.00000E+00  1.77363E-01
      21    -1     0     0   501   502  0.000000000E+00  0.000000000E+00  5.693033043E+01  5.693033043E+01  0.000000000E+00  0.00000E+00  9.000E+00
      21    -1     0     0   512   503  0.000000000E+00  0.000000000E+00 -1.342529624E+03  1.342529624E+03  0.000000000E+00  0.00000E+00  9.000E+00
      25     1     1     2     0     0 -1.546134759E+00 -1.586167622E+01 -4.728843058E+02  4.893860648E+02  1.250006816E+02  0.00000E+00  9.000E+00
       5     1     1     2   501     0  3.954932719E+00  1.833725844E+00  4.773866588E+01  4.817205375E+01  4.750000000E+00  0.00000E+00  9.000E+00
      -5     1     1     2     0   503  1.518839150E+00  2.106721964E+00 -1.013246339E+01  1.148801393E+01  4.750000000E+00  0.00000E+00  9.000E+00
      21     1     1     2   512   502 -3.927637111E+00  1.192122841E+01 -8.503211906E+02  8.504138223E+02  0.000000000E+00  0.00000E+00  9.000E+00
#rwgt            1           9   8.6975973652260053E-003           2      657101           0
</event>
<event>
      6   9999 -3.45752E-01  3.84928E+01 -1.00000E+00  1.41160E-01
      21    -1     0     0   501   502  0.000000000E+00  0.000000000E+00  6.130507899E+02  6.130507899E+02  0.000000000E+00  0.00000E+00  9.000E+00
      21    -1     0     0   502   511  0.000000000E+00  0.000000000E+00 -7.229154702E+02  7.229154702E+02  0.000000000E+00  0.00000E+00  9.000E+00
      25     1     1     2     0     0  1.999696567E+01  5.849310571E+00  4.064421765E+02  4.257440068E+02  1.250144931E+02  0.00000E+00  9.000E+00
       5     1     1     2   501     0  3.170260205E+00  2.597971088E+00  1.064243109E+02  1.066090824E+02  4.750000000E+00  0.00000E+00  9.000E+00
      -5     1     1     2     0   503  4.215707870E+00  1.860581793E+01  8.884622716E+01  9.099540227E+01  4.750000000E+00  0.00000E+00  9.000E+00
      21     1     1     2   503   511 -2.738293375E+01 -2.705309959E+01 -7.115773948E+02  7.126177686E+02  7.629394531E-06  0.00000E+00  9.000E+00
#rwgt            1           9  -4.0087877832280299E-003           2      660028           0
</event>
<event>
      6   9999  3.45752E-01  1.83086E+01 -1.00000E+00  1.63196E-01
      21    -1     0     0   501   502  0.000000000E+00  0.000000000E+00  4.440060400E+02  4.440060400E+02  0.000000000E+00  0.00000E+00  9.000E+00
      21    -1     0     0   512   503  0.000000000E+00  0.000000000E+00 -1.784439885E+01  1.784439885E+01  0.000000000E+00  0.00000E+00  9.000E+00
      25     1     1     2     0     0  2.316045632E+01 -4.785950067E+00  3.262577930E+02  3.501770328E+02  1.249819776E+02  0.00000E+00  9.000E+00
       5     1     1     2   501     0  1.271777875E+00  1.822211226E-01  7.081029463E+01  7.098106049E+01  4.750000000E+00  0.00000E+00  9.000E+00
      -5     1     1     2     0   503 -6.124766370E+00  4.400456007E+00  1.553393451E+01  1.790928244E+01  4.750000000E+00  0.00000E+00  9.000E+00
      21     1     1     2   512   502 -1.830746782E+01  2.032729375E-01  1.355961897E+01  2.278306311E+01  5.591411304E-07  0.00000E+00  9.000E+00
#rwgt            1           9  0.47976907167487792                2      661107           0
</event>
<event>
      6   9999  3.45752E-01  6.79886E+00 -1.00000E+00  2.06765E-01
      21    -1     0     0   501   511  0.000000000E+00  0.000000000E+00  1.672056236E+01  1.672056236E+01  0.000000000E+00  0.00000E+00  9.000E+00
      21    -1     0     0   502   503  0.000000000E+00  0.000000000E+00 -9.002350824E+02  9.002350824E+02  0.000000000E+00  0.00000E+00  9.000E+00
      25     1     1     2     0     0 -1.150927674E+01  3.168984680E+00 -8.700738392E+02  8.790878843E+02  1.249980669E+02  0.00000E+00  9.000E+00
       5     1     1     2   501     0  1.294397185E+00 -9.289635918E-01  8.533007426E+00  9.895107536E+00  4.750000000E+00  0.00000E+00  9.000E+00
      -5     1     1     2     0   503  5.391836298E+00  2.551932055E+00 -1.914703315E+01  2.060960054E+01  4.750000000E+00  0.00000E+00  9.000E+00
      21     1     1     2   502   511  4.823043260E+00 -4.791953143E+00 -2.826655083E+00  7.363052367E+00  2.327635788E-07  0.00000E+00  9.000E+00
#rwgt            1           9   8.6421105207097284E-005           2      662807           0
</event>
<event>
      6   9999  3.45752E-01  1.36149E+01 -1.00000E+00  1.74101E-01
      21    -1     0     0   501   502  0.000000000E+00  0.000000000E+00  1.986546128E+01  1.986546128E+01  0.000000000E+00  0.00000E+00  9.000E+00
      21    -1     0     0   502   512  0.000000000E+00  0.000000000E+00 -1.382432575E+03  1.382432575E+03  0.000000000E+00  0.00000E+00  9.000E+00
      25     1     1     2     0     0 -6.687439619E-02  5.667268837E+00 -9.465387292E+02  9.547735554E+02  1.249994152E+02  0.00000E+00  9.000E+00
       5     1     1     2   501     0  1.044429201E+01 -2.713295172E+00  1.289951067E+01  1.747584281E+01  4.750000000E+00  0.00000E+00  9.000E+00
      -5     1     1     2     0   503  3.012957785E+00 -5.416299391E+00 -3.396223314E+01  3.484838581E+01  4.750000000E+00  0.00000E+00  9.000E+00
      21     1     1     2   503   512 -1.339037540E+01  2.462325726E+00 -3.949656617E+02  3.952002520E+02  5.394796609E-06  0.00000E+00  9.000E+00
#rwgt            1           9   1.7579581984167112E-005           2      666933           0
</event>
<event>
      6   9999  3.45752E-01  1.97652E+00 -1.00000E+00  3.34883E-01
      21    -1     0     0   501   502  0.000000000E+00  0.000000000E+00  1.056121884E+02  1.056121884E+02  0.000000000E+00  0.00000E+00  9.000E+00
       2    -1     0     0   502     0  0.000000000E+00  0.000000000E+00 -2.127547655E+03  2.127547655E+03  0.000000000E+00  0.00000E+00  9.000E+00
      25     1     1     2     0     0 -9.414937584E+01 -1.678513045E+02 -2.201871832E+02  3.180331839E+02  1.249981800E+02  0.00000E+00  9.000E+00
       5     1     1     2   501     0  2.756528077E-01 -4.987210049E-01  4.541682221E+01  4.566809551E+01  4.750000000E+00  0.00000E+00  9.000E+00
      -5     1     1     2     0   503  9.275649761E+01  1.667195567E+02 -8.057935317E+02  8.280851144E+02  4.750000000E+00  0.00000E+00  9.000E+00
       2     1     1     2   503     0  1.117225416E+00  1.630468805E+00 -1.041371574E+03  1.041373450E+03  1.525878906E-05  0.00000E+00  9.000E+00
#rwgt            1           9  0.60357350548259170                2      669434           0
</event>
<event>
      6   9999  3.45752E-01  2.01385E+01 -1.00000E+00  1.59982E-01
      21    -1     0     0   501   502  0.000000000E+00  0.000000000E+00  6.520815298E+01  6.520815298E+01  0.000000000E+00  0.00000E+00  9.000E+00
      21    -1     0     0   511   503  0.000000000E+00  0.000000000E+00 -3.428076556E+02  3.428076556E+02  0.000000000E+00  0.00000E+00  9.000E+00
      25     1     1     2     0     0 -1.610583265E+01 -8.120394286E+00 -2.385621743E+02  2.699297487E+02  1.249992782E+02  0.00000E+00  9.000E+00
       5     1     1     2   501     0 -1.655269461E+00  2.817137569E+00  4.448988373E+01  4.486188176E+01  4.750000000E+00  0.00000E+00  9.000E+00
      -5     1     1     2     0   503 -9.841038314E-01  1.266359659E+01 -6.309416026E+01  6.453503466E+01  4.750000000E+00  0.00000E+00  9.000E+00
      21     1     1     2   511   502  1.874520594E+01 -7.360339873E+00 -2.043305177E+01  2.868914348E+01  3.371747881E-07  0.00000E+00  9.000E+00
#rwgt            1           9  0.25299502128861229                2      681928           0
</event>
<event>
      6   9999  3.45752E-01  6.26997E+00 -1.00000E+00  2.11430E-01
      21    -1     0     0   501   502  0.000000000E+00  0.000000000E+00  7.702443819E+01  7.702443819E+01  0.000000000E+00  0.00000E+00  9.000E+00
      21    -1     0     0   512   503  0.000000000E+00  0.000000000E+00 -1.018546363E+02  1.018546363E+02  0.000000000E+00  0.00000E+00  9.000E+00
      25     1     1     2     0     0 -2.174560368E+01 -1.122854155E+01  2.712175328E+00  1.273900901E+02  1.249877104E+02  0.00000E+00  9.000E+00
       5     1     1     2   501     0 -3.251937896E-02 -5.160239858E-01  6.702582411E+00  8.231309084E+00  4.750000000E+00  0.00000E+00  9.000E+00
      -5     1     1     2     0   503  1.694705175E+01  7.747908454E+00 -2.026897592E+01  2.793969459E+01  4.750000000E+00  0.00000E+00  9.000E+00
      21     1     1     2   512   502  4.831071303E+00  3.996657079E+00 -1.397597998E+01  1.531798074E+01  0.000000000E+00  0.00000E+00  9.000E+00
#rwgt            1           9   5.6229099866114740E-005           2      683950           0
</event>
<event>
      6   9999  3.45752E-01  2.41467E+01 -1.00000E+00  1.54206E-01
      21    -1     0     0   501   502  0.000000000E+00  0.000000000E+00  4.781800446E+01  4.781800446E+01  0.000000000E+00  0.00000E+00  9.000E+00
      21    -1     0     0   511   503  0.000000000E+00  0.000000000E+00 -1.637794271E+03  1.637794271E+03  0.000000000E+00  0.00000E+00  9.000E+00
      25     1     1     2     0     0 -4.383276519E+01 -6.977826137E+01 -7.917579666E+02  8.057888893E+02  1.249989575E+02  0.00000E+00  9.000E+00
       5     1     1     2   501     0  6.918169387E+00  5.809371774E+00  3.434577440E+01  3.583021891E+01  4.750000000E+00  0.00000E+00  9.000E+00
      -5     1     1     2     0   503  5.536154098E+01  7.955002051E+01 -4.347631092E+02  4.454600202E+02  4.750000000E+00  0.00000E+00  9.000E+00
      21     1     1     2   511   502 -1.844694518E+01 -1.558113092E+01 -3.978009652E+02  3.985331471E+02  9.344061824E-06  0.00000E+00  9.000E+00
#rwgt            1           9   3.5756071378147278E-002           2      687260           0
</event>
<event>
      6   9999  3.45752E-01  5.60170E+00 -1.00000E+00  2.18299E-01
      21    -1     0     0   501   502  0.000000000E+00  0.000000000E+00  5.934510781E+01  5.934510781E+01  0.000000000E+00  0.00000E+00  9.000E+00
      21    -1     0     0   502   512  0.000000000E+00  0.000000000E+00 -7.368503070E+02  7.368503070E+02  0.000000000E+00  0.00000E+00  9.000E+00
      25     1     1     2     0     0  2.334898103E+00 -2.001150151E+00 -1.015564792E+02  1.610842580E+02  1.249998535E+02  0.00000E+00  9.000E+00
       5     1     1     2   501     0  7.705337682E-01 -8.655820101E-01  2.745698074E+01  2.788890901E+01  4.750000000E+00  0.00000E+00  9.000E+00
      -5     1     1     2     0   503 -9.836416231E-01 -2.317574066E+00 -1.917125901E+00  5.707588993E+00  4.750000000E+00  0.00000E+00  9.000E+00
      21     1     1     2   503   512 -2.121790248E+00  5.184306227E+00 -6.014885749E+02  6.015146588E+02  1.078959322E-05  0.00000E+00  9.000E+00
#rwgt            1           9  0.51320448389681017                2      689505           0
</event>
<event>
      6   9999  3.45752E-01  1.76927E+01 -1.00000E+00  1.64383E-01
      21    -1     0     0   501   502  0.000000000E+00  0.000000000E+00  1.166839236E+02  1.166839236E+02  0.000000000E+00  0.00000E+00  9.000E+00
      21    -1     0     0   511   503  0.000000000E+00  0.000000000E+00 -4.779728933E+02  4.779728933E+02  0.000000000E+00  0.00000E+00  9.000E+00
      25     1     1     2     0     0  7.737787952E+00 -5.367120024E+01 -3.624283383E+02  3.871946695E+02  1.249997624E+02  0.00000E+00  9.000E+00
       5     1     1     2   501     0 -4.628870044E+00  9.987646444E-01  9.724520875E+01  9.747623861E+01  4.750000000E+00  0.00000E+00  9.000E+00
      -5     1     1     2     0   503 -3.001620374E+00  3.498004867E+01 -5.784428264E+01  6.783168186E+01  4.750000000E+00  0.00000E+00  9.000E+00
      21     1     1     2   511   502 -1.072975338E-01  1.769238693E+01 -3.826155752E+01  4.215422697E+01  4.768371582E-07  0.00000E+00  9.000E+00
#rwgt            1           9  0.46997491783921663                2      693174           0
</event>
<event>
      6   9999  3.45752E-01  1.75671E+01 -1.00000E+00  1.64632E-01
      21    -1     0     0   501   502  0.000000000E+00  0.000000000E+00  7.248260805E+00  7.248260805E+00  0.000000000E+00  0.00000E+00  9.000E+00
       2    -1     0     0   502     0  0.000000000E+00  0.000000000E+00 -2.810105591E+03  2.810105591E+03  0.000000000E+00  0.00000E+00  9.000E+00
      25     1     1     2     0     0 -1.998642059E+01  4.689738338E+01 -8.683226184E+02  8.787541339E+02  1.250033465E+02  0.00000E+00  9.000E+00
       5     1     1     2   501     0 -1.303561957E+00 -8.404172202E-01 -4.331032959E+00  6.612557854E+00  4.750000000E+00  0.00000E+00  9.000E+00
      -5     1     1     2     0   503  6.617976512E+00 -5.571798050E+01 -9.768563266E+02  9.784779692E+02  4.750000000E+00  0.00000E+00  9.000E+00
       2     1     1     2   503     0  1.467200604E+01  9.661014343E+00 -9.533473523E+02  9.535091909E+02  1.078959322E-05  0.00000E+00  9.000E+00
#rwgt            1           9   5.7056524535216294E-003           2      695606           0
</event>
<event>
      6   9999  3.45752E-01  1.29929E+01 -1.00000E+00  1.75962E-01
      21    -1     0     0   501   511  0.000000000E+00  0.000000000E+00  1.635781038E+02  1.635781038E+02  0.000000000E+00  0.00000E+00  9.000E+00
      21    -1     0     0   502   503  0.000000000E+00  0.000000000E+00 -7.358953825E+02  7.358953825E+02  0.000000000E+00  0.00000E+00  9.000E+00
      25     1     1     2     0     0 -1.070508369E+01  1.578395302E+01 -6.834332618E+02  6.950325206E+02  1.250017973E+02  0.00000E+00  9.000E+00
       5     1     1     2   501     0 -6.815411580E-01  6.333380340E-01 -1.371059873E+00  5.030697823E+00  4.750000000E+00  0.00000E+00  9.000E+00
      -5     1     1     2     0   503  4.258761110E+00 -5.554139336E+00 -4.277612240E+01  4.360441099E+01  4.750000000E+00  0.00000E+00  9.000E+00
      21     1     1     2   502   511  7.127863742E+00 -1.086315172E+01  1.552631654E+02  1.558058569E+02  3.303624740E-06  0.00000E+00  9.000E+00
#rwgt            1           9   3.5241937676337178E-004           2      697640           0
</event>
<event>
      6   9999  3.45752E-01  7.55936E+00 -1.00000E+00  2.00974E-01
      21    -1     0     0   501   502  0.000000000E+00  0.000000000E+00  8.759857116E+00  8.759857116E+00  0.000000000E+00  0.00000E+00  9.000E+00
      21    -1     0     0   512   503  0.000000000E+00  0.000000000E+00 -1.267843485E+03  1.267843485E+03  0.000000000E+00  0.00000E+00  9.000E+00
      25     1     1     2     0     0  1.491607348E+00  7.705489214E+00 -6.621565947E+02  6.738985362E+02  1.250051271E+02  0.00000E+00  9.000E+00
       5     1     1     2   501     0  1.324170592E+00 -1.887571640E+00 -5.110322038E-01  5.304715673E+00  4.750000000E+00  0.00000E+00  9.000E+00
      -5     1     1     2     0   503  2.458050256E+00 -1.123369621E+01 -8.290055282E+01  8.382900512E+01  4.750000000E+00  0.00000E+00  9.000E+00
      21     1     1     2   512   502 -5.273828195E+00  5.415778638E+00 -5.135154484E+02  5.135710853E+02  1.078959322E-05  0.00000E+00  9.000E+00
#rwgt            1           9   6.6245498272643390E-004           2      699695           0
</event>
<event>
      6   9999  3.45752E-01  1.91290E+01 -1.00000E+00  1.61701E-01
       2    -1     0     0   501     0  0.000000000E+00  0.000000000E+00  4.890038032E+02  4.890038032E+02  0.000000000E+00  0.00000E+00  9.000E+00
      21    -1     0     0   502   503  0.000000000E+00  0.000000000E+00 -1.692849126E+03  1.692849126E+03  0.000000000E+00  0.00000E+00  9.000E+00
      25     1     1     2     0     0 -8.670415268E+01 -8.164516872E+01 -4.840181906E+02  5.138896466E+02  1.250016656E+02  0.00000E+00  9.000E+00
       5     1     1     2   501     0 -1.632058729E+01  2.168810274E+00  5.491381971E+01  5.752525882E+01  4.750000000E+00  0.00000E+00  9.000E+00
      -5     1     1     2     0   503  9.051865692E+01  6.500168080E+01 -1.189760635E+03  1.194977731E+03  4.750000000E+00  0.00000E+00  9.000E+00
       2     1     1     2   502     0  1.250608304E+01  1.447467765E+01  4.150196828E+02  4.154602935E+02  0.000000000E+00  0.00000E+00  9.000E+00
#rwgt            1           9  0.74589125283402113                2      702394           0
</event>
<event>
      6   9999 -3.45752E-01  9.23496E+00 -1.00000E+00  1.90910E-01
      21    -1     0     0   501   511  0.000000000E+00  0.000000000E+00  1.681236034E+03  1.681236034E+03  0.000000000E+00  0.00000E+00  9.000E+00
      21    -1     0     0   502   503  0.000000000E+00  0.000000000E+00 -1.658574493E+02  1.658574493E+02  0.000000000E+00  0.00000E+00  9.000E+00
      25     1     1     2     0     0 -7.925541049E+00 -5.611951292E+01 -6.097526717E+01  1.511095978E+02  1.261107188E+02  0.00000E+00  9.000E+00
       5     1     1     2   501     0  1.919120441E+00  1.951754497E+00  3.296038921E+01  3.341320287E+01  4.750000000E+00  0.00000E+00  9.000E+00
      -5     1     1     2     0   503  3.962365548E+00  6.317366245E+01 -4.266722292E+01  7.648311173E+01  4.750000000E+00  0.00000E+00  9.000E+00
      21     1     1     2   502   511  2.044055060E+00 -9.005904023E+00  1.586060685E+03  1.586087571E+03  0.000000000E+00  0.00000E+00  9.000E+00
#rwgt            1           9  -1.9712390363789394E-003           2      705327           0
</event>
<event>
      6   9999  3.45752E-01  1.77357E+01 -1.00000E+00  1.64298E-01
      21    -1     0     0   501   502  0.000000000E+00  0.000000000E+00  4.434723782E+01  4.434723782E+01  0.000000000E+00  0.00000E+00  9.000E+00
      21    -1     0     0   512   503  0.000000000E+00  0.000000000E+00 -1.800826109E+03  1.800826109E+03  0.000000000E+00  0.00000E+00  9.000E+00
      25     1     1     2     0     0  1.252996086E+01  5.131832724E+00 -1.261300963E+03  1.267552338E+03  1.250018994E+02  0.00000E+00  9.000E+00
       5     1     1     2   501     0 -3.718182942E+00  1.041482649E+01  3.970654980E+01  4.149055425E+01  4.750000000E+00  0.00000E+00  9.000E+00
      -5     1     1     2     0   503  1.877948840E+00 -1.394497792E+00 -1.437766987E+01  1.532159283E+01  4.750000000E+00  0.00000E+00  9.000E+00
      21     1     1     2   512   502 -1.068972676E+01 -1.415216143E+01 -5.205067876E+02  5.208088612E+02  7.629394531E-06  0.00000E+00  9.000E+00
#rwgt            1           9   3.9931850858832942E-005           2      708757           0
</event>
<event>
      6   9999  3.45752E-01  1.59168E+01 -1.00000E+00  1.68168E-01
      21    -1     0     0   501   502  0.000000000E+00  0.000000000E+00  2.578634564E+02  2.578634564E+02  0.000000000E+00  0.00000E+00  9.000E+00
      21    -1     0     0   511   503  0.000000000E+00  0.000000000E+00 -4.067178358E+01  4.067178358E+01  0.000000000E+00  0.00000E+00  9.000E+00
      25     1     1     2     0     0 -3.074594156E+01  1.409126595E+01  1.549703048E+02  2.019399599E+02  1.249802997E+02  0.00000E+00  9.000E+00
       5     1     1     2   501     0 -8.611291399E-01 -8.926735065E-01  5.439443590E+01  5.461552496E+01  4.750000000E+00  0.00000E+00  9.000E+00
      -5     1     1     2     0   503  1.608902014E+01 -1.673921914E+01  1.035738155E+01  2.586302146E+01  4.750000000E+00  0.00000E+00  9.000E+00
      21     1     1     2   511   502  1.551805056E+01  3.540626706E+00 -2.530449435E+00  1.611673369E+01  2.827296549E-07  0.00000E+00  9.000E+00
#rwgt            1           9  0.31673626972924651                2      711435           0
</event>
<event>
      6   9999 -3.45752E-01  4.35950E+00 -1.00000E+00  2.40360E-01
       1    -1     0     0   501     0  0.000000000E+00  0.000000000E+00  9.148103998E+02  9.148103998E+02  0.000000000E+00  0.00000E+00  9.000E+00
      21    -1     0     0   502   503  0.000000000E+00  0.000000000E+00 -8.588189487E+02  8.588189487E+02  0.000000000E+00  0.00000E+00  9.000E+00
      25     1     1     2     0     0  1.015904962E+01 -1.886123563E+01 -7.799073209E+02  7.901530115E+02  1.250095988E+02  0.00000E+00  9.000E+00
       5     1     1     2   501     0  7.837589685E-01  3.325427167E+00  4.618238944E+00  7.454084445E+00  4.750000000E+00  0.00000E+00  9.000E+00
      -5     1     1     2     0   503 -1.182260094E+01  1.980560889E+01 -7.044962988E+01  7.428155146E+01  4.750000000E+00  0.00000E+00  9.000E+00
       1     1     1     2   502     0  8.797923514E-01 -4.269800429E+00  9.017301630E+02  9.017407011E+02  1.078959322E-05  0.00000E+00  9.000E+00
#rwgt            1           9  -4.9277643557871242E-005           2      713186           0
</event>
<event>
      6   9999  3.45752E-01  3.73080E+00 -1.00000E+00  2.54284E-01
      21    -1     0     0   501   511  0.000000000E+00  0.000000000E+00  6.014088618E+02  6.014088618E+02  0.000000000E+00  0.00000E+00  9.000E+00
      21    -1     0     0   502   503  0.000000000E+00  0.000000000E+00 -1.080823927E+02  1.080823927E+02  0.000000000E+00  0.00000E+00  9.000E+00
      25     1     1     2     0     0  5.259185907E+00  5.281797079E+00 -6.782406113E+01  1.424113656E+02  1.250013494E+02  0.00000E+00  9.000E+00
       5     1     1     2   501     0 -8.423768800E-01  1.395782263E+00  2.951085603E+01  2.993511200E+01  4.750000000E+00  0.00000E+00  9.000E+00
      -5     1     1     2     0   503 -5.081020236E+00 -3.006385375E+00  2.481458153E+00  7.973409198E+00  4.750000000E+00  0.00000E+00  9.000E+00
      21     1     1     2   502   511  6.642112095E-01 -3.671193966E+00  5.291582160E+02  5.291713678E+02  7.629394531E-06  0.00000E+00  9.000E+00
#rwgt            1           9   2.2839574162976769E-004           2      718256           0
</event>
<event>
      6   9999  3.45752E-01  1.57643E+01 -1.00000E+00  1.68522E-01
      21    -1     0     0   501   502  0.000000000E+00  0.000000000E+00  2.416834724E+02  2.416834724E+02  0.000000000E+00  0.00000E+00  9.000E+00
      21    -1     0     0   512   503  0.000000000E+00  0.000000000E+00 -8.253061313E+02  8.253061313E+02  0.000000000E+00  0.00000E+00  9.000E+00
      25     1     1     2     0     0  7.120598775E+01  8.714812411E+01  1.213081048E+02  2.073791936E+02  1.250015416E+02  0.00000E+00  9.000E+00
       5     1     1     2   501     0  4.954328852E+00 -3.314222584E+00  7.278990335E+01  7.318785401E+01  4.750000000E+00  0.00000E+00  9.000E+00
      -5     1     1     2     0   503 -6.535661228E+01 -7.235372091E+01 -5.879843438E+02  5.960324645E+02  4.750000000E+00  0.00000E+00  9.000E+00
      21     1     1     2   512   502 -1.080370433E+01 -1.148018062E+01 -1.897363233E+02  1.903900916E+02  2.697398305E-06  0.00000E+00  9.000E+00
#rwgt            1           9   2.2770051342903281                2      723549           0
</event>
<event>
      6   9999  3.45752E-01  7.56654E+00 -1.00000E+00  2.00923E-01
      21    -1     0     0   501   502  0.000000000E+00  0.000000000E+00  1.804570455E+01  1.804570455E+01  0.000000000E+00  0.00000E+00  9.000E+00
      21    -1     0     0   511   503  0.000000000E+00  0.000000000E+00 -4.015458039E+02  4.015458039E+02  0.000000000E+00  0.00000E+00  9.000E+00
      25     1     1     2     0     0  2.045880980E+01 -3.405621043E+00 -2.664694640E+02  2.950582909E+02  1.249930345E+02  0.00000E+00  9.000E+00
       5     1     1     2   501     0  3.905161553E-01  1.199220934E-01  6.148024172E-01  4.807012189E+00  4.750000000E+00  0.00000E+00  9.000E+00
      -5     1     1     2     0   503 -1.347487388E+01  1.591580415E+00 -6.757295644E+01  6.908525383E+01  4.750000000E+00  0.00000E+00  9.000E+00
      21     1     1     2   511   502 -7.374452070E+00  1.694118534E+00 -5.007248137E+01  5.064095152E+01  0.000000000E+00  0.00000E+00  9.000E+00
#rwgt            1           9   2.4447355626140341                2      727295           0
</event>
<event>
      6   9999  3.45752E-01  7.62906E+00 -1.00000E+00  2.00488E-01
      21    -1     0     0   512   502  0.000000000E+00  0.000000000E+00  7.390650523E+01  7.390650523E+01  0.000000000E+00  0.00000E+00  9.000E+00
      21    -1     0     0   502   503  0.000000000E+00  0.000000000E+00 -1.240884545E+02  1.240884545E+02  0.000000000E+00  0.00000E+00  9.000E+00
      25     1     1     2     0     0  1.852360931E+01 -1.428011853E+01 -4.982231612E+01  1.365812498E+02  1.250005149E+02  0.00000E+00  9.000E+00
       5     1     1     2   501     0 -3.565050636E-01  6.898249617E-02  1.025724663E+01  1.130952974E+01  4.750000000E+00  0.00000E+00  9.000E+00
      -5     1     1     2     0   503 -1.978373794E+01  6.755328858E+00 -2.553946209E+01  3.334452547E+01  4.750000000E+00  0.00000E+00  9.000E+00
      21     1     1     2   512   501  1.616633702E+00  7.455807180E+00  1.492258228E+01  1.675965474E+01  2.384185791E-07  0.00000E+00  9.000E+00
#rwgt            1           9  0.72010356525646868                2      729704           0
</event>
<event>
      6   9999  3.45752E-01  5.95584E+01 -1.00000E+00  1.30844E-01
      21    -1     0     0   501   502  0.000000000E+00  0.000000000E+00  1.669866288E+03  1.669866288E+03  0.000000000E+00  0.00000E+00  9.000E+00
      21    -1     0     0   502   511  0.000000000E+00  0.000000000E+00 -1.987609570E+01  1.987609570E+01  0.000000000E+00  0.00000E+00  9.000E+00
      25     1     1     2     0     0  6.125279571E+01 -3.538693815E+01  1.318518956E+03  1.326316606E+03  1.249774396E+02  0.00000E+00  9.000E+00
       5     1     1     2   501     0  3.792548590E+00 -2.049081407E+00  2.341023273E+02  2.341901884E+02  4.750000000E+00  0.00000E+00  9.000E+00
      -5     1     1     2     0   503 -1.698009556E+01  2.266002958E+00  5.022033266E+01  5.327384656E+01  4.750000000E+00  0.00000E+00  9.000E+00
      21     1     1     2   503   511 -4.806524874E+01  3.517001660E+01  4.714857657E+01  7.596174351E+01  1.907348633E-06  0.00000E+00  9.000E+00
#rwgt            1           9   1.0116587161086157E-003           2      732424           0
</event>
<event>
      6   9999  3.45752E-01  1.15953E+01 -1.00000E+00  1.80667E-01
      21    -1     0     0   501   502  0.000000000E+00  0.000000000E+00  1.478993956E+02  1.478993956E+02  0.000000000E+00  0.00000E+00  9.000E+00
      21    -1     0     0   512   503  0.000000000E+00  0.000000000E+00 -8.826728430E+01  8.826728430E+01  0.000000000E+00  0.00000E+00  9.000E+00
      25     1     1     2     0     0  3.919427122E+00 -2.336612845E+01 -1.166977381E+01  1.277575771E+02  1.249979080E+02  0.00000E+00  9.000E+00
       5     1     1     2   501     0 -2.432023236E+00 -1.984376681E+00  7.806871052E+01  7.827604072E+01  4.750000000E+00  0.00000E+00  9.000E+00
      -5     1     1     2     0   503 -5.352752918E-01  1.379433940E+01  3.080489128E+00  1.492053057E+01  4.750000000E+00  0.00000E+00  9.000E+00
      21     1     1     2   512   502 -9.521285939E-01  1.155616572E+01 -9.847314499E+00  1.521253161E+01  1.685873940E-07  0.00000E+00  9.000E+00
#rwgt            1           9   1.6998037038295191                2      732799           0
</event>
<event>
      6   9999  3.45752E-01  5.84306E+01 -1.00000E+00  1.31264E-01
      21    -1     0     0   501   502  0.000000000E+00  0.000000000E+00  6.988821748E+01  6.988821748E+01  0.000000000E+00  0.00000E+00  9.000E+00
      21    -1     0     0   502   511  0.000000000E+00  0.000000000E+00 -4.548157420E+02  4.548157420E+02  0.000000000E+00  0.00000E+00  9.000E+00
      25     1     1     2     0     0  1.832647873E+00  2.419928415E+01 -2.943040270E+01  1.306976521E+02  1.250070547E+02  0.00000E+00  9.000E+00
       5     1     1     2   501     0  1.497127003E+00  5.336948172E+00  9.741091874E+00  1.217274726E+01  4.750000000E+00  0.00000E+00  9.000E+00
      -5     1     1     2     0   503  1.310572279E+01  2.653522419E+01 -3.334718447E+01  4.483832406E+01  4.750000000E+00  0.00000E+00  9.000E+00
      21     1     1     2   503   511 -1.643549767E+01 -5.607145652E+01 -3.318910292E+02  3.369952360E+02  5.394796609E-06  0.00000E+00  9.000E+00
#rwgt            1           9  0.17138925660258750                2      735060           0
</event>
<event>
      6   9999  3.45752E-01  1.47300E+01 -1.00000E+00  1.71058E-01
      21    -1     0     0   501   502  0.000000000E+00  0.000000000E+00  3.918692024E+01  3.918692024E+01  0.000000000E+00  0.00000E+00  9.000E+00
       1    -1     0     0   502     0  0.000000000E+00  0.000000000E+00 -1.615560353E+03  1.615560353E+03  0.000000000E+00  0.00000E+00  9.000E+00
      25     1     1     2     0     0 -2.148226061E+01  3.502813487E+01 -1.255549805E+03  1.262425091E+03  1.249933658E+02  0.00000E+00  9.000E+00
       5     1     1     2   501     0  1.029623775E+01 -2.616785807E+00  3.094210916E+01  3.305808069E+01  4.750000000E+00  0.00000E+00  9.000E+00
      -5     1     1     2     0   503  2.277760976E+01 -2.332238321E+01 -7.277058974E+01  7.988037491E+01  4.750000000E+00  0.00000E+00  9.000E+00
       1     1     1     2   503     0 -1.159158690E+01 -9.088965857E+00 -2.789951473E+02  2.793837261E+02  5.394796609E-06  0.00000E+00  9.000E+00
#rwgt            1           9   3.9499790039177200E-004           2      735470           0
</event>
<event>
      6   9999  3.45752E-01  1.77787E+01 -1.00000E+00  1.64214E-01
      21    -1     0     0   501   511  0.000000000E+00  0.000000000E+00  4.846089364E+01  4.846089364E+01  0.000000000E+00  0.00000E+00  9.000E+00
      21    -1     0     0   502   503  0.000000000E+00  0.000000000E+00 -1.516759677E+03  1.516759677E+03  0.000000000E+00  0.00000E+00  9.000E+00
      25     1     1     2     0     0  6.921584095E+00  1.797492650E+01 -1.317374112E+03  1.323431835E+03  1.250050545E+02  0.00000E+00  9.000E+00
       5     1     1     2   501     0 -4.004368221E+00  5.639368343E+00  7.708561643E+00  1.139393974E+01  4.750000000E+00  0.00000E+00  9.000E+00
      -5     1     1     2     0   503  5.073398328E-01 -6.168550465E+00 -1.922277096E+02  1.923859747E+02  4.750000000E+00  0.00000E+00  9.000E+00
      21     1     1     2   502   511 -3.424555707E+00 -1.744574438E+01  3.359447718E+01  3.800882103E+01  2.286830675E-06  0.00000E+00  9.000E+00
#rwgt            1           9   4.3863480868099340E-004           2      739294           0
</event>
<event>
      6   9999  3.45752E-01  6.13854E+00 -1.00000E+00  2.12686E-01
      21    -1     0     0   512   502  0.000000000E+00  0.000000000E+00  3.279218833E+02  3.279218833E+02  0.000000000E+00  0.00000E+00  9.000E+00
      21    -1     0     0   502   503  0.000000000E+00  0.000000000E+00 -4.493766847E+02  4.493766847E+02  0.000000000E+00  0.00000E+00  9.000E+00
      25     1     1     2     0     0  1.817999589E+01 -2.712407121E+01 -2.454064927E+02  2.773397242E+02  1.250069937E+02  0.00000E+00  9.000E+00
       5     1     1     2   501     0 -6.678755544E+00 -1.043881787E+01  1.108974854E+02  1.116888063E+02  4.750000000E+00  0.00000E+00  9.000E+00
      -5     1     1     2     0   503 -9.778369014E+00  3.167107792E+01 -1.860661184E+02  1.890551152E+02  4.750000000E+00  0.00000E+00  9.000E+00
      21     1     1     2   512   501 -1.722871329E+00  5.891811161E+00  1.991203243E+02  1.992149223E+02  3.814697266E-06  0.00000E+00  9.000E+00
#rwgt            1           9  0.93354720391549451                2      741516           0
</event>
<event>
      6   9999  3.45752E-01  3.22605E+00 -1.00000E+00  2.68912E-01
      21    -1     0     0   501   502  0.000000000E+00  0.000000000E+00  1.015871205E+02  1.015871205E+02  0.000000000E+00  0.00000E+00  9.000E+00
      21    -1     0     0   511   503  0.000000000E+00  0.000000000E+00 -1.772847658E+02  1.772847658E+02  0.000000000E+00  0.00000E+00  9.000E+00
      25     1     1     2     0     0 -8.751711476E+00 -1.295349742E+01 -7.249689470E+01  1.453446163E+02  1.249994888E+02  0.00000E+00  9.000E+00
       5     1     1     2   501     0  4.481448674E+00 -1.054426534E+00  6.200213141E+01  6.235400546E+01  4.750000000E+00  0.00000E+00  9.000E+00
      -5     1     1     2     0   503  7.489461080E+00  1.379778907E+01 -2.004588217E+01  2.590117570E+01  4.750000000E+00  0.00000E+00  9.000E+00
      21     1     1     2   511   502 -3.219198278E+00  2.101348811E-01 -4.515699977E+01  4.527208878E+01  4.768371582E-07  0.00000E+00  9.000E+00
#rwgt            1           9   2.6062512039132577E-004           2      747561           0
</event>
<event>
      6   9999 -3.45752E-01  9.73329E+01 -1.00000E+00  1.20936E-01
      21    -1     0     0   501   512  0.000000000E+00  0.000000000E+00  1.136713572E+02  1.136713572E+02  0.000000000E+00  0.00000E+00  9.000E+00
      21    -1     0     0   502   503  0.000000000E+00  0.000000000E+00 -1.451864585E+03  1.451864585E+03  0.000000000E+00  0.00000E+00  9.000E+00
      25     1     1     2     0     0  1.065881170E+01 -1.210512403E+02 -8.448308765E+02  8.626306159E+02  1.250014256E+02  0.00000E+00  9.000E+00
       5     1     1     2   501     0 -6.446810907E+01  2.096090991E+02 -1.772058160E+02  2.819868352E+02  4.750000000E+00  0.00000E+00  9.000E+00
      -5     1     1     2     0   503 -3.200124394E+01 -4.262038232E+01 -3.190861127E+02  3.235414756E+02  4.750000000E+00  0.00000E+00  9.000E+00
      21     1     1     2   502   512  8.581054131E+01 -4.593747645E+01  2.929577446E+00  9.737701559E+01  1.038387501E-06  0.00000E+00  9.000E+00
#rwgt            1           9  -1.3363431928852644E-003           2      754306           0
</event>
<event>
      6   9999 -3.45752E-01  6.51562E+00 -1.00000E+00  2.09189E-01
      21    -1     0     0   502   503  0.000000000E+00  0.000000000E+00  6.172039311E+01  6.172039311E+01  0.000000000E+00  0.00000E+00  9.000E+00
      21    -1     0     0   501   511  0.000000000E+00  0.000000000E+00 -3.289264120E+02  3.289264120E+02  0.000000000E+00  0.00000E+00  9.000E+00
      25     1     1     2     0     0 -6.059619314E+00 -9.306995647E+00 -6.998037345E+00  1.256969577E+02  1.250096536E+02  0.00000E+00  9.000E+00
       5     1     1     2   501     0  3.824767652E+00  1.459335438E+00 -2.362774712E+02  2.363606660E+02  4.750000000E+00  0.00000E+00  9.000E+00
      -5     1     1     2     0   503 -4.133841001E+00  6.471782536E+00 -1.231013287E+01  1.526677706E+01  4.750000000E+00  0.00000E+00  9.000E+00
      21     1     1     2   502   511  6.368692663E+00  1.375877673E+00 -1.162037749E+01  1.332240439E+01  1.685873940E-07  0.00000E+00  9.000E+00
#rwgt            1           9  -6.5624422348640830E-003           2      755151           0
</event>
<event>
      6   9999  3.45752E-01  7.33466E+00 -1.00000E+00  2.02587E-01
      21    -1     0     0   501   512  0.000000000E+00  0.000000000E+00  1.546586755E+01  1.546586755E+01  0.000000000E+00  0.00000E+00  9.000E+00
      21    -1     0     0   502   503  0.000000000E+00  0.000000000E+00 -7.815091415E+02  7.815091415E+02  0.000000000E+00  0.00000E+00  9.000E+00
      25     1     1     2     0     0  1.536123176E+01 -1.049067376E+01 -6.868099892E+02  6.983403505E+02  1.250010487E+02  0.00000E+00  9.000E+00
       5     1     1     2   501     0 -1.796832152E+01  6.477669485E+00 -1.124096476E+01  2.266588999E+01  4.750000000E+00  0.00000E+00  9.000E+00
      -5     1     1     2     0   503 -1.592960536E+00 -2.000051237E+00 -6.840987075E+01  6.862223141E+01  4.750000000E+00  0.00000E+00  9.000E+00
      21     1     1     2   502   512  4.200050294E+00  6.013055513E+00  4.175507790E-01  7.346537125E+00  1.316034923E-07  0.00000E+00  9.000E+00
#rwgt            1           9   817.81859378775687                2      759226           0
</event>
<event>
      6   9999  3.45752E-01  9.42207E+00 -1.00000E+00  1.89959E-01
      21    -1     0     0   501   502  0.000000000E+00  0.000000000E+00  2.488248490E+01  2.488248490E+01  0.000000000E+00  0.00000E+00  9.000E+00
      21    -1     0     0   502   511  0.000000000E+00  0.000000000E+00 -1.449470549E+03  1.449470549E+03  0.000000000E+00  0.00000E+00  9.000E+00
      25     1     1     2     0     0 -9.760354942E+00  8.719219747E-01 -8.858760849E+02  8.947050607E+02  1.249987324E+02  0.00000E+00  9.000E+00
       5     1     1     2   501     0  5.690087093E+00  1.659400948E+00  1.956724226E+01  2.098976351E+01  4.750000000E+00  0.00000E+00  9.000E+00
      -5     1     1     2     0   503  2.425914892E+00  6.746146767E+00 -1.347226069E+02  1.349968106E+02  4.750000000E+00  0.00000E+00  9.000E+00
      21     1     1     2   503   511  1.644352957E+00 -9.277469690E+00 -4.235566142E+02  4.236613988E+02  7.629394531E-06  0.00000E+00  9.000E+00
#rwgt            1           9   2.7507926163702104E-004           2      762223           0
</event>
<event>
      6   9999  3.45752E-01  2.69149E+01 -1.00000E+00  1.50953E-01
      21    -1     0     0   512   502  0.000000000E+00  0.000000000E+00  1.585548197E+02  1.585548197E+02  0.000000000E+00  0.00000E+00  9.000E+00
      21    -1     0     0   502   503  0.000000000E+00  0.000000000E+00 -8.486658978E+02  8.486658978E+02  0.000000000E+00  0.00000E+00  9.000E+00
      25     1     1     2     0     0  2.093580819E+01 -3.109994562E+00 -6.641733691E+02  6.761651717E+02  1.250003801E+02  0.00000E+00  9.000E+00
       5     1     1     2   501     0  1.047377840E+01  1.062388590E+01  1.655656583E+01  2.278704363E+01  4.750000000E+00  0.00000E+00  9.000E+00
      -5     1     1     2     0   503 -7.871587197E+00  5.538901771E+00 -1.738513473E+02  1.741823607E+02  4.750000000E+00  0.00000E+00  9.000E+00
      21     1     1     2   512   501 -2.353799939E+01 -1.305279311E+01  1.313570725E+02  1.340861415E+02  2.697398305E-06  0.00000E+00  9.000E+00
#rwgt            1           9   5.5439210091188140E-004           2      765410           0
</event>
<event>
      6   9999  3.45752E-01  1.86281E+01 -1.00000E+00  1.62602E-01
      21    -1     0     0   511   503  0.000000000E+00  0.000000000E+00  1.296877205E+02  1.296877205E+02  0.000000000E+00  0.00000E+00  9.000E+00
      21    -1     0     0   501   502  0.000000000E+00  0.000000000E+00 -1.951675741E+02  1.951675741E+02  0.000000000E+00  0.00000E+00  9.000E+00
      25     1     1     2     0     0  3.788625755E+01  7.664216955E+01 -1.709877541E+01  1.524041572E+02  1.250010734E+02  0.00000E+00  9.000E+00
       5     1     1     2   501     0 -2.708452264E+01 -2.733687188E+01 -4.159993926E+01  5.686821061E+01  4.750000000E+00  0.00000E+00  9.000E+00
      -5     1     1     2     0   503  7.449492504E+00 -4.557742719E+01 -5.017571260E+01  6.835906262E+01  4.750000000E+00  0.00000E+00  9.000E+00
      21     1     1     2   511   502 -1.825122741E+01 -3.727870487E+00  4.339457374E+01  4.722386420E+01  1.168007728E-06  0.00000E+00  9.000E+00
#rwgt            1           9   6.1777371560153821E-005           2      766759           0
</event>
<event>
      6   9999  3.45752E-01  4.41679E+01 -1.00000E+00  1.37734E-01
      21    -1     0     0   501   512  0.000000000E+00  0.000000000E+00  4.035198264E+02  4.035198264E+02  0.000000000E+00  0.00000E+00  9.000E+00
      21    -1     0     0   502   503  0.000000000E+00  0.000000000E+00 -9.408680234E+02  9.408680234E+02  0.000000000E+00  0.00000E+00  9.000E+00
      25     1     1     2     0     0  9.989177322E+00 -9.305588505E+00 -6.973142642E+02  7.085613117E+02  1.250022870E+02  0.00000E+00  9.000E+00
       5     1     1     2   501     0 -1.381252814E+01 -3.508987486E+00  2.058432414E+00  1.516240650E+01  4.750000000E+00  0.00000E+00  9.000E+00
      -5     1     1     2     0   503 -2.649221013E+01 -1.930661237E+01 -2.289296727E+02  2.313135102E+02  4.750000000E+00  0.00000E+00  9.000E+00
      21     1     1     2   502   512  3.031556094E+01  3.212118836E+01  3.868373074E+02  3.893506214E+02  7.629394531E-06  0.00000E+00  9.000E+00
#rwgt            1           9   2.2572441920185409E-004           2      768480           0
</event>
<event>
      6   9999 -3.45752E-01  1.22367E+01 -1.00000E+00  1.78409E-01
      21    -1     0     0   501   502  0.000000000E+00  0.000000000E+00  7.697235721E+01  7.697235721E+01  0.000000000E+00  0.00000E+00  9.000E+00
      21    -1     0     0   502   511  0.000000000E+00  0.000000000E+00 -1.606219277E+03  1.606219277E+03  0.000000000E+00  0.00000E+00  9.000E+00
      25     1     1     2     0     0  1.737694789E+02 -8.075913595E+01 -2.066097075E+02  3.082717065E+02  1.250040156E+02  0.00000E+00  9.000E+00
       5     1     1     2   501     0 -1.730429436E+00  3.809870916E-01  1.905389393E+01  1.971681798E+01  4.750000000E+00  0.00000E+00  9.000E+00
      -5     1     1     2     0   503 -1.605054539E+02  7.628999262E+01 -1.217550447E+03  1.230460815E+03  4.750000000E+00  0.00000E+00  9.000E+00
      21     1     1     2   503   511 -1.153359551E+01  4.088156240E+00 -1.241406593E+02  1.247422949E+02  1.348699152E-06  0.00000E+00  9.000E+00
#rwgt            1           9  -3.2739834541962769E-002           2      769330           0
</event>
<event>
      6   9999 -3.45752E-01  1.14306E+01 -1.00000E+00  1.81277E-01
      21    -1     0     0   501   502  0.000000000E+00  0.000000000E+00  8.009974242E+00  8.009974242E+00  0.000000000E+00  0.00000E+00  9.000E+00
      21    -1     0     0   502   512  0.000000000E+00  0.000000000E+00 -8.675115540E+02  8.675115540E+02  0.000000000E+00  0.00000E+00  9.000E+00
      25     1     1     2     0     0  3.395347560E+00 -6.691043424E+00 -5.541026020E+02  5.680770523E+02  1.250021818E+02  0.00000E+00  9.000E+00
       5     1     1     2   501     0 -3.210932197E-02 -3.137723444E-01 -6.812695640E+00  8.311125434E+00  4.750000000E+00  0.00000E+00  9.000E+00
      -5     1     1     2     0   503 -1.616642656E+00 -4.291600265E+00 -9.885743550E+01  9.907767872E+01  4.750000000E+00  0.00000E+00  9.000E+00
      21     1     1     2   503   512 -1.746595581E+00  1.129641603E+01 -1.997288467E+02  2.000556718E+02  0.000000000E+00  0.00000E+00  9.000E+00
#rwgt            1           9  -5.3641685241530420E-003           2      773581           0
</event>
<event>
      6   9999 -3.45752E-01  1.24666E+01 -1.00000E+00  1.77642E-01
      21    -1     0     0   511   503  0.000000000E+00  0.000000000E+00  1.206240115E+03  1.206240115E+03  0.000000000E+00  0.00000E+00  9.000E+00
      21    -1     0     0   501   502  0.000000000E+00  0.000000000E+00 -8.769569016E+02  8.769569016E+02  0.000000000E+00  0.00000E+00  9.000E+00
      25     1     1     2     0     0  3.304754768E+01 -4.817927039E+01 -3.703682805E+02  3.952347183E+02  1.249977473E+02  0.00000E+00  9.000E+00
       5     1     1     2   501     0 -2.815615896E+01  3.497528032E+01 -4.693202231E+02  4.714870876E+02  4.750000000E+00  0.00000E+00  9.000E+00
      -5     1     1     2     0   503 -1.230439105E+00  1.287026954E+00 -2.344793847E+01  2.399038844E+01  4.750000000E+00  0.00000E+00  9.000E+00
      21     1     1     2   511   502 -3.660949615E+00  1.191696311E+01  1.192419656E+03  1.192484822E+03  1.525878906E-05  0.00000E+00  9.000E+00
#rwgt            1           9  -5.3014775134987993E-002           2      775949           0
</event>
<event>
      6   9999 -3.45752E-01  1.17047E+01 -1.00000E+00  1.80269E-01
      21    -1     0     0   512   502  0.000000000E+00  0.000000000E+00  8.251503555E+00  8.251503555E+00  0.000000000E+00  0.00000E+00  9.000E+00
      21    -1     0     0   502   503  0.000000000E+00  0.000000000E+00 -2.508611706E+03  2.508611706E+03  0.000000000E+00  0.00000E+00  9.000E+00
      25     1     1     2     0     0 -8.047867456E+00 -7.220891420E+00 -2.346376457E+03  2.349728599E+03  1.250004154E+02  0.00000E+00  9.000E+00
       5     1     1     2   501     0  9.056035703E-01  4.610769383E-01  5.138036307E+00  7.070687864E+00  4.750000000E+00  0.00000E+00  9.000E+00
      -5     1     1     2     0   503 -6.019788932E-01 -2.016611844E+00 -6.708294833E+01  6.728382836E+01  4.750000000E+00  0.00000E+00  9.000E+00
      21     1     1     2   512   501  7.744242779E+00  8.776426325E+00 -9.203883311E+01  9.278009353E+01  0.000000000E+00  0.00000E+00  9.000E+00
#rwgt            1           9  -4.8041585911015742E-003           2      778103           0
</event>
<event>
      6   9999  3.45752E-01  7.94974E+00 -1.00000E+00  1.98340E-01
      21    -1     0     0   501   502  0.000000000E+00  0.000000000E+00  5.275777825E+02  5.275777825E+02  0.000000000E+00  0.00000E+00  9.000E+00
      21    -1     0     0   511   503  0.000000000E+00  0.000000000E+00 -2.469737024E+01  2.469737024E+01  0.000000000E+00  0.00000E+00  9.000E+00
      25     1     1     2     0     0 -4.695236014E+00  8.865059574E+00  1.783279421E+02  2.179974851E+02  1.249856553E+02  0.00000E+00  9.000E+00
       5     1     1     2   501     0 -7.054412179E-01  1.638538750E-01  3.164620357E+02  3.164985103E+02  4.750000000E+00  0.00000E+00  9.000E+00
      -5     1     1     2     0   503  4.007090728E+00 -1.202272869E+00  7.490589952E+00  9.806817730E+00  4.750000000E+00  0.00000E+00  9.000E+00
      21     1     1     2   511   502  1.393586504E+00 -7.826640579E+00  5.998445188E-01  7.972339653E+00  1.330716245E-07  0.00000E+00  9.000E+00
#rwgt            1           9   6.5425250489200995E-004           2      780917           0
</event>
<event>
      6   9999  3.45752E-01  3.40010E+00 -1.00000E+00  2.63423E-01
      21    -1     0     0   512   502  0.000000000E+00  0.000000000E+00  4.350567040E+02  4.350567040E+02  0.000000000E+00  0.00000E+00  9.000E+00
      21    -1     0     0   502   503  0.000000000E+00  0.000000000E+00 -9.023327872E+02  9.023327872E+02  0.000000000E+00  0.00000E+00  9.000E+00
      25     1     1     2     0     0 -2.155021152E+00  3.033651026E+00 -4.168313491E+02  4.351865013E+02  1.250002808E+02  0.00000E+00  9.000E+00
       5     1     1     2   501     0  2.125768873E+00 -1.362278258E+00  5.510761369E+00  7.701018518E+00  4.750000000E+00  0.00000E+00  9.000E+00
      -5     1     1     2     0   503 -1.479529931E+00 -4.718381740E+00 -4.751971067E+02  4.752465727E+02  4.750000000E+00  0.00000E+00  9.000E+00
      21     1     1     2   512   501  1.508782211E+00  3.047008972E+00  4.192416113E+02  4.192553987E+02  7.629394531E-06  0.00000E+00  9.000E+00
#rwgt            1           9   3.5374745311991349                2      783829           0
</event>
<event>
      6   9999  3.45752E-01  3.70931E+00 -1.00000E+00  2.54833E-01
      21    -1     0     0   501   502  0.000000000E+00  0.000000000E+00  1.930131876E+02  1.930131876E+02  0.000000000E+00  0.00000E+00  9.000E+00
      21    -1     0     0   511   503  0.000000000E+00  0.000000000E+00 -5.951297805E+01  5.951297805E+01  0.000000000E+00  0.00000E+00  9.000E+00
      25     1     1     2     0     0  4.406584337E+00 -5.853439011E+00  2.737528004E+01  1.281762709E+02  1.250042788E+02  0.00000E+00  9.000E+00
       5     1     1     2   501     0 -1.657254383E+00 -2.053748895E+00  1.026570449E+02  1.028007575E+02  4.750000000E+00  0.00000E+00  9.000E+00
      -5     1     1     2     0   503  6.136375366E-02  5.486647179E+00  1.098545991E+01  1.316624062E+01  4.750000000E+00  0.00000E+00  9.000E+00
      21     1     1     2   511   502 -2.810693708E+00  2.420540728E+00 -7.517575328E+00  8.382896597E+00  1.460009660E-07  0.00000E+00  9.000E+00
#rwgt            1           9   8.7072311204795837E-004           2      789539           0
</event>
<event>
      6   9999  3.45752E-01  6.13435E+00 -1.00000E+00  2.12727E-01
       2    -1     0     0   501     0  0.000000000E+00  0.000000000E+00  3.195129327E+02  3.195129327E+02  0.000000000E+00  0.00000E+00  9.000E+00
      21    -1     0     0   502   503  0.000000000E+00  0.000000000E+00 -1.041522514E+03  1.041522514E+03  0.000000000E+00  0.00000E+00  9.000E+00
      25     1     1     2     0     0  3.046993680E+01  1.535472102E+01 -7.907620882E+02  8.013081568E+02  1.250035902E+02  0.00000E+00  9.000E+00
       5     1     1     2   501     0  7.710841152E+00  2.229410533E+00  1.561611892E+01  1.818936537E+01  4.750000000E+00  0.00000E+00  9.000E+00
      -5     1     1     2     0   503 -3.234194136E+01 -1.570310044E+01 -2.428224267E+02  2.455155432E+02  4.750000000E+00  0.00000E+00  9.000E+00
       2     1     1     2   502     0 -5.838836592E+00 -1.881031119E+00  2.959588146E+02  2.960223813E+02  6.607249480E-06  0.00000E+00  9.000E+00
#rwgt            1           9   9.3621280028768881E-005           2      794522           0
</event>
<event>
      6   9999  3.45752E-01  6.73097E+00 -1.00000E+00  2.07332E-01
      21    -1     0     0   502   511  0.000000000E+00  0.000000000E+00  1.917562029E+01  1.917562029E+01  0.000000000E+00  0.00000E+00  9.000E+00
      21    -1     0     0   501   502  0.000000000E+00  0.000000000E+00 -8.977171093E+02  8.977171093E+02  0.000000000E+00  0.00000E+00  9.000E+00
      25     1     1     2     0     0  6.455085264E+01 -4.894016391E+01 -5.884175101E+02  6.069792589E+02  1.250068091E+02  0.00000E+00  9.000E+00
       5     1     1     2   501     0 -5.995706807E+01  4.536141979E+01 -2.833110888E+02  2.931556651E+02  4.750000000E+00  0.00000E+00  9.000E+00
      -5     1     1     2     0   503 -1.276315553E-01 -1.457075756E+00 -8.474829624E+00  9.824693213E+00  4.750000000E+00  0.00000E+00  9.000E+00
      21     1     1     2   503   511 -4.466153008E+00  5.035819875E+00  1.661939534E+00  6.933112398E+00  5.960464478E-08  0.00000E+00  9.000E+00
#rwgt            1           9   1.0748596899109477E-003           2      799157           0
</event>
<event>
      6   9999  3.45752E-01  2.35511E+01 -1.00000E+00  1.54975E-01
      21    -1     0     0   501   502  0.000000000E+00  0.000000000E+00  7.076492894E+02  7.076492894E+02  0.000000000E+00  0.00000E+00  9.000E+00
      21    -1     0     0   502   512  0.000000000E+00  0.000000000E+00 -6.037506013E+01  6.037506013E+01  0.000000000E+00  0.00000E+00  9.000E+00
      25     1     1     2     0     0 -5.931334650E+01 -1.417865838E+01  3.025855074E+02  3.330191456E+02  1.249986184E+02  0.00000E+00  9.000E+00
       5     1     1     2   501     0  7.647486651E-01 -1.861282293E+00  3.537462915E+02  3.537839036E+02  4.750000000E+00  0.00000E+00  9.000E+00
      -5     1     1     2     0   503  5.403191118E+01 -7.073996999E+00  2.963082697E+00  5.477984318E+01  4.750000000E+00  0.00000E+00  9.000E+00
      21     1     1     2   503   512  4.516686653E+00  2.311393767E+01 -1.202065235E+01  2.644145715E+01  4.460403188E-07  0.00000E+00  9.000E+00
#rwgt            1           9   2.5626094413980272                2      802635           0
</event>
<event>
      6   9999  3.45752E-01  9.53944E+00 -1.00000E+00  1.89377E-01
      21    -1     0     0   501   502  0.000000000E+00  0.000000000E+00  1.594451384E+01  1.594451384E+01  0.000000000E+00  0.00000E+00  9.000E+00
      21    -1     0     0   511   503  0.000000000E+00  0.000000000E+00 -1.152485493E+03  1.152485493E+03  0.000000000E+00  0.00000E+00  9.000E+00
      25     1     1     2     0     0  3.253605939E+01 -9.244751633E+00 -4.232061741E+02  4.425761770E+02  1.250045840E+02  0.00000E+00  9.000E+00
       5     1     1     2   501     0 -1.307869713E+00  3.860320332E-01  2.977089400E+00  5.769324502E+00  4.750000000E+00  0.00000E+00  9.000E+00
      -5     1     1     2     0   503 -4.025736879E+01  5.780605873E+00 -2.259743685E+02  2.296541941E+02  4.750000000E+00  0.00000E+00  9.000E+00
      21     1     1     2   511   502  9.029179112E+00  3.078113727E+00 -4.903375261E+02  4.904303114E+02  5.394796609E-06  0.00000E+00  9.000E+00
#rwgt            1           9   7.2880092560522489E-004           2      805040           0
</event>
<event>
      6   9999  3.45752E-01  8.34112E+00 -1.00000E+00  1.95892E-01
      21    -1     0     0   501   502  0.000000000E+00  0.000000000E+00  3.255837937E+01  3.255837937E+01  0.000000000E+00  0.00000E+00  9.000E+00
      21    -1     0     0   502   512  0.000000000E+00  0.000000000E+00 -1.333577407E+03  1.333577407E+03  0.000000000E+00  0.00000E+00  9.000E+00
      25     1     1     2     0     0  3.445144088E+01 -7.582547426E+01 -1.005324408E+03  1.016483395E+03  1.249996945E+02  0.00000E+00  9.000E+00
       5     1     1     2   501     0  3.732583536E+00  6.252347698E+01 -2.262956639E+01  6.676658692E+01  4.750000000E+00  0.00000E+00  9.000E+00
      -5     1     1     2     0   503 -3.209265879E+01  1.900020730E+01 -6.840698581E+01  7.805783005E+01  4.750000000E+00  0.00000E+00  9.000E+00
      21     1     1     2   503   512 -6.091365625E+00 -5.698210019E+00 -2.046580681E+02  2.048279745E+02  2.697398305E-06  0.00000E+00  9.000E+00
#rwgt            1           9   3.6788614901278313E-005           2      807837           0
</event>
<event>
      6   9999 -3.45752E-01  1.59664E+01 -1.00000E+00  1.68054E-01
      21    -1     0     0   511   502  0.000000000E+00  0.000000000E+00  6.128578120E+01  6.128578120E+01  0.000000000E+00  0.00000E+00  9.000E+00
      21    -1     0     0   502   503  0.000000000E+00  0.000000000E+00 -2.611934418E+02  2.611934418E+02  0.000000000E+00  0.00000E+00  9.000E+00
      25     1     1     2     0     0 -2.461690512E+01 -8.856842311E+00 -2.270034419E+02  2.608576120E+02  1.258240653E+02  0.00000E+00  9.000E+00
       5     1     1     2   501     0 -2.319507805E+00  3.444858806E-01  1.260331980E+01  1.367131877E+01  4.750000000E+00  0.00000E+00  9.000E+00
      -5     1     1     2     0   503  1.648646603E+01  2.058403889E+01  6.276774561E-01  2.680415449E+01  4.750000000E+00  0.00000E+00  9.000E+00
      21     1     1     2   511   501  1.044994690E+01 -1.207168246E+01  1.386478404E+01  2.114613780E+01  2.384185791E-07  0.00000E+00  9.000E+00
#rwgt            1           9  -4.3365792850601492E-002           2      811831           0
</event>
<event>
      6   9999 -3.45752E-01  5.76973E+00 -1.00000E+00  2.16453E-01
      21    -1     0     0   512   502  0.000000000E+00  0.000000000E+00  1.357105901E+01  1.357105901E+01  0.000000000E+00  0.00000E+00  9.000E+00
      21    -1     0     0   502   503  0.000000000E+00  0.000000000E+00 -8.693904249E+02  8.693904249E+02  0.000000000E+00  0.00000E+00  9.000E+00
      25     1     1     2     0     0  8.540413147E-01  1.049511354E+01 -8.286607603E+02  8.381019182E+02  1.250011708E+02  0.00000E+00  9.000E+00
       5     1     1     2   501     0 -2.091563423E-01 -2.516031316E-01  6.181364183E+00  7.802487659E+00  4.750000000E+00  0.00000E+00  9.000E+00
      -5     1     1     2     0   503 -5.633298151E+00 -7.344273859E+00 -2.178560030E+01  2.414223037E+01  4.750000000E+00  0.00000E+00  9.000E+00
      21     1     1     2   512   501  4.988413179E+00 -2.899236547E+00 -1.155436942E+01  1.291484771E+01  1.685873940E-07  0.00000E+00  9.000E+00
#rwgt            1           9  -4.9067688908900381E-005           2      813792           0
</event>
<event>
      6   9999 -3.45752E-01  1.33501E+01 -1.00000E+00  1.74877E-01
      21    -1     0     0   501   511  0.000000000E+00  0.000000000E+00  4.807783793E+01  4.807783793E+01  0.000000000E+00  0.00000E+00  9.000E+00
      21    -1     0     0   502   503  0.000000000E+00  0.000000000E+00 -1.217069496E+03  1.217069496E+03  0.000000000E+00  0.00000E+00  9.000E+00
      25     1     1     2     0     0  2.761831646E+01  8.250780418E+01 -8.596467327E+02  8.730405566E+02  1.250479884E+02  0.00000E+00  9.000E+00
       5     1     1     2   501     0  2.724415679E+00  1.151863631E-01  2.216628732E+01  2.283292583E+01  4.750000000E+00  0.00000E+00  9.000E+00
      -5     1     1     2     0   503 -4.358670036E+01 -8.094257936E+01 -3.407976592E+02  3.530114851E+02  4.750000000E+00  0.00000E+00  9.000E+00
      21     1     1     2   502   511  1.324396822E+01 -1.680411177E+00  9.286446383E+00  1.626236645E+01  2.920019320E-07  0.00000E+00  9.000E+00
#rwgt            1           9  -1.3065144885811828E-004           2      817525           0
</event>
<event>
      6   9999  3.45752E-01  4.90671E+00 -1.00000E+00  2.30810E-01
      21    -1     0     0   502   512  0.000000000E+00  0.000000000E+00  1.633144988E+02  1.633144988E+02  0.000000000E+00  0.00000E+00  9.000E+00
      21    -1     0     0   501   502  0.000000000E+00  0.000000000E+00 -7.235188676E+02  7.235188676E+02  0.000000000E+00  0.00000E+00  9.000E+00
      25     1     1     2     0     0 -1.039902495E+01  7.086168000E+00 -5.711893423E+02  5.848425990E+02  1.250009893E+02  0.00000E+00  9.000E+00
       5     1     1     2   501     0 -1.325856219E-01 -1.260703753E-01 -3.951262900E+01  3.979753540E+01  4.750000000E+00  0.00000E+00  9.000E+00
      -5     1     1     2     0   503  1.209578575E+01 -1.161081672E+01 -1.050916173E+02  1.065266616E+02  4.750000000E+00  0.00000E+00  9.000E+00
      21     1     1     2   503   512 -1.564175180E+00  4.650719095E+00  1.555892198E+02  1.556665705E+02  1.907348633E-06  0.00000E+00  9.000E+00
#rwgt            1           9   5.5790972643171297E-003           2      820290           0
</event>
<event>
      6   9999  3.45752E-01  4.89841E+01 -1.00000E+00  1.35266E-01
      21    -1     0     0   511   502  0.000000000E+00  0.000000000E+00  3.292993890E+02  3.292993890E+02  0.000000000E+00  0.00000E+00  9.000E+00
      21    -1     0     0   502   503  0.000000000E+00  0.000000000E+00 -1.488372966E+02  1.488372966E+02  0.000000000E+00  0.00000E+00  9.000E+00
      25     1     1     2     0     0 -2.873504982E+01  4.111562373E+00 -8.606859676E+01  1.545166000E+02  1.249998731E+02  0.00000E+00  9.000E+00
       5     1     1     2   501     0 -4.917840465E-01  1.174409287E+01 -4.865715407E+00  1.357951602E+01  4.750000000E+00  0.00000E+00  9.000E+00
      -5     1     1     2     0   503 -1.338439798E+01  8.304738828E+00 -1.330320394E+01  2.115770619E+01  4.750000000E+00  0.00000E+00  9.000E+00
      21     1     1     2   511   501  4.261123184E+01 -2.416039407E+01  2.846996085E+02  2.888828635E+02  3.814697266E-06  0.00000E+00  9.000E+00
#rwgt            1           9  0.71914514470205215                2      824232           0
</event>
<event>
      6   9999  3.45752E-01  5.03347E+00 -1.00000E+00  2.25266E-01
      21    -1     0     0   502   512  0.000000000E+00  0.000000000E+00  1.299887966E+02  1.299887966E+02  0.000000000E+00  0.00000E+00  9.000E+00
      21    -1     0     0   501   502  0.000000000E+00  0.000000000E+00 -1.921016547E+02  1.921016547E+02  0.000000000E+00  0.00000E+00  9.000E+00
      25     1     1     2     0     0 -3.913313504E+00 -1.584129932E+01 -1.617870305E+02  2.050819535E+02  1.249692106E+02  0.00000E+00  9.000E+00
       5     1     1     2   501     0 -4.043402590E-01 -1.534158219E-01 -1.421305985E-01  4.771763675E+00  4.750000000E+00  0.00000E+00  9.000E+00
      -5     1     1     2     0   503 -5.635290298E-01  1.476595883E+01  3.657785362E+00  1.594656699E+01  4.750000000E+00  0.00000E+00  9.000E+00
      21     1     1     2   503   512  4.881182793E+00  1.228756318E+00  9.615851761E+01  9.629016718E+01  0.000000000E+00  0.00000E+00  9.000E+00
#rwgt            1           9   5.2345206373295120E-004           2      824948           0
</event>
<event>
      6   9999  3.45752E-01  9.23689E+00 -1.00000E+00  1.90900E-01
      21    -1     0     0   501   502  0.000000000E+00  0.000000000E+00  9.538607533E+00  9.538607533E+00  0.000000000E+00  0.00000E+00  9.000E+00
      21    -1     0     0   502   511  0.000000000E+00  0.000000000E+00 -2.018100256E+03  2.018100256E+03  0.000000000E+00  0.00000E+00  9.000E+00
      25     1     1     2     0     0 -3.966759404E+01  1.375276424E+01 -9.594233791E+02  9.684426245E+02  1.250009602E+02  0.00000E+00  9.000E+00
       5     1     1     2   501     0  1.781775547E+00  3.875638761E+00  2.268203458E+00  6.775141831E+00  4.750000000E+00  0.00000E+00  9.000E+00
      -5     1     1     2     0   503  3.463510905E+01 -8.982415201E+00 -7.428537365E+02  7.437301331E+02  4.750000000E+00  0.00000E+00  9.000E+00
      21     1     1     2   503   511  3.250709442E+00 -8.645987798E+00 -3.085527363E+02  3.086909641E+02  6.607249480E-06  0.00000E+00  9.000E+00
#rwgt            1           9  0.41595309796827823                2      828386           0
</event>
<event>
      6   9999  3.45752E-01  4.79964E+01 -1.00000E+00  1.35745E-01
      21    -1     0     0   512   502  0.000000000E+00  0.000000000E+00  9.941846812E+00  9.941846812E+00  0.000000000E+00  0.00000E+00  9.000E+00
      21    -1     0     0   502   503  0.000000000E+00  0.000000000E+00 -1.071145901E+03  1.071145901E+03  0.000000000E+00  0.00000E+00  9.000E+00
      25     1     1     2     0     0  3.077452347E+01  2.105922899E+01 -7.562005179E+02  7.673686779E+02  1.249996081E+02  0.00000E+00  9.000E+00
       5     1     1     2   501     0  4.112639595E+00  3.595304148E+00 -5.912606169E+00  9.346733551E+00  4.750000000E+00  0.00000E+00  9.000E+00
      -5     1     1     2     0   503  5.624301495E+00  1.084079431E+00 -6.405886825E+01  6.448960457E+01  4.750000000E+00  0.00000E+00  9.000E+00
      21     1     1     2   512   501 -4.051146456E+01 -2.573861257E+01 -2.350320618E+02  2.398827318E+02  3.814697266E-06  0.00000E+00  9.000E+00
#rwgt            1           9   4.3054325016658143E-004           2      831844           0
</event>
<event>
      6   9999 -3.45752E-01  1.50462E+01 -1.00000E+00  1.70256E-01
      21    -1     0     0   511   502  0.000000000E+00  0.000000000E+00  2.530297418E+01  2.530297418E+01  0.000000000E+00  0.00000E+00  9.000E+00
      21    -1     0     0   502   503  0.000000000E+00  0.000000000E+00 -1.015233976E+03  1.015233976E+03  0.000000000E+00  0.00000E+00  9.000E+00
      25     1     1     2     0     0  4.018643291E+01  4.966590144E+01 -8.980988424E+02  9.090041707E+02  1.250016018E+02  0.00000E+00  9.000E+00
       5     1     1     2   501     0 -1.062269365E+00  2.299433892E+00  5.247038329E+00  7.517294969E+00  4.750000000E+00  0.00000E+00  9.000E+00
      -5     1     1     2     0   503 -4.534488649E+01 -3.826528984E+01 -8.862046551E+01  1.067545809E+02  4.750000000E+00  0.00000E+00  9.000E+00
      21     1     1     2   511   501  6.220722943E+00 -1.370004549E+01 -8.458732097E+00  1.726090348E+01  5.840038640E-07  0.00000E+00  9.000E+00
#rwgt            1           9  -9.7972110137446852E-004           2      832342           0
</event>
<event>
      6   9999  3.45752E-01  6.68043E+00 -1.00000E+00  2.07759E-01
      21    -1     0     0   501   502  0.000000000E+00  0.000000000E+00  3.803355470E+01  3.803355470E+01  0.000000000E+00  0.00000E+00  9.000E+00
      21    -1     0     0   502   512  0.000000000E+00  0.000000000E+00 -1.634327962E+03  1.634327962E+03  0.000000000E+00  0.00000E+00  9.000E+00
      25     1     1     2     0     0  2.888170174E+01  5.474403294E+01 -3.216109769E+02  3.505581875E+02  1.250054419E+02  0.00000E+00  9.000E+00
       5     1     1     2   501     0  3.781908760E+00 -2.693990471E+00  2.193329926E+01  2.291707955E+01  4.750000000E+00  0.00000E+00  9.000E+00
      -5     1     1     2     0   503 -3.877280968E+01 -4.934712342E+01 -8.933583341E+02  8.955725235E+02  4.750000000E+00  0.00000E+00  9.000E+00
      21     1     1     2   503   512  6.109199175E+00 -2.702919051E+00 -4.032583954E+02  4.033137260E+02  0.000000000E+00  0.00000E+00  9.000E+00
#rwgt            1           9   5.3560080407387516E-003           2      834720           0
</event>
<event>
      6   9999  3.45752E-01  2.37235E+01 -1.00000E+00  1.54750E-01
      21    -1     0     0   511   502  0.000000000E+00  0.000000000E+00  7.089374492E+01  7.089374492E+01  0.000000000E+00  0.00000E+00  9.000E+00
      21    -1     0     0   502   503  0.000000000E+00  0.000000000E+00 -1.449214605E+03  1.449214605E+03  0.000000000E+00  0.00000E+00  9.000E+00
      25     1     1     2     0     0  1.021214847E+01 -5.155132297E+00 -1.168927925E+03  1.175641717E+03  1.249403408E+02  0.00000E+00  9.000E+00
       5     1     1     2   501     0  5.086541483E-02 -5.120271569E+00  5.880215244E+01  5.921549966E+01  4.750000000E+00  0.00000E+00  9.000E+00
      -5     1     1     2     0   503  5.984003782E+00 -7.011539761E+00 -2.599185834E+02  2.601253592E+02  4.750000000E+00  0.00000E+00  9.000E+00
      21     1     1     2   511   501 -1.624701767E+01  1.728694363E+01 -8.276503615E+00  2.512577392E+01  5.196212463E-07  0.00000E+00  9.000E+00
#rwgt            1           9   1.2841583161034031E-003           2      839668           0
</event>
<event>
      6   9999  3.45752E-01  2.94675E+01 -1.00000E+00  1.48343E-01
      21    -1     0     0   512   502  0.000000000E+00  0.000000000E+00  1.421671021E+03  1.421671021E+03  0.000000000E+00  0.00000E+00  9.000E+00
      21    -1     0     0   502   503  0.000000000E+00  0.000000000E+00 -1.363712675E+01  1.363712675E+01  0.000000000E+00  0.00000E+00  9.000E+00
      25     1     1     2     0     0  2.169490097E+01  1.060928970E+01  7.098239045E+02  7.211506512E+02  1.250002426E+02  0.00000E+00  9.000E+00
       5     1     1     2   501     0  2.056788906E+00  1.291987001E+00  1.846063946E+02  1.846834671E+02  4.750000000E+00  0.00000E+00  9.000E+00
      -5     1     1     2     0   503  4.940688570E+00 -5.187044001E+00 -5.059972387E+00  9.974048806E+00  4.750000000E+00  0.00000E+00  9.000E+00
      21     1     1     2   512   501 -2.869237845E+01 -6.714232698E+00  5.186635681E+02  5.194999811E+02  7.629394531E-06  0.00000E+00  9.000E+00
#rwgt            1           9   3.3462421162176308E-004           2      842641           0
</event>
<event>
      6   9999 -3.45752E-01  1.96623E+01 -1.00000E+00  1.60777E-01
      21    -1     0     0   502   511  0.000000000E+00  0.000000000E+00  1.169461603E+01  1.169461603E+01  0.000000000E+00  0.00000E+00  9.000E+00
      21    -1     0     0   501   502  0.000000000E+00  0.000000000E+00 -8.257548721E+02  8.257548721E+02  0.000000000E+00  0.00000E+00  9.000E+00
      25     1     1     2     0     0  1.464872255E+01 -2.934033126E+01 -5.094720982E+02  5.256077409E+02  1.250049533E+02  0.00000E+00  9.000E+00
       5     1     1     2   501     0 -9.584813772E+00  2.035989474E+01 -1.874466841E+02  1.888523652E+02  4.750000000E+00  0.00000E+00  9.000E+00
      -5     1     1     2     0   503 -1.085912097E+01 -9.808379217E+00 -7.394475389E+01  7.552823273E+01  4.750000000E+00  0.00000E+00  9.000E+00
      21     1     1     2   503   511  5.795212189E+00  1.878881575E+01 -4.319671994E+01  4.746114932E+01  6.743495762E-07  0.00000E+00  9.000E+00
#rwgt            1           9  -4.3500940617808095E-004           2      844074           0
</event>
<event>
      6   9999  3.45752E-01  1.76581E+01 -1.00000E+00  1.64451E-01
      21    -1     0     0   501   502  0.000000000E+00  0.000000000E+00  6.680657129E+02  6.680657129E+02  0.000000000E+00  0.00000E+00  9.000E+00
      21    -1     0     0   512   503  0.000000000E+00  0.000000000E+00 -1.196216884E+02  1.196216884E+02  0.000000000E+00  0.00000E+00  9.000E+00
      25     1     1     2     0     0  2.328475716E+01 -3.423632208E+01  1.694204283E+02  2.145797496E+02  1.250075268E+02  0.00000E+00  9.000E+00
       5     1     1     2   501     0 -3.611727125E+01  2.123049938E+01  4.635343982E+02  4.654480554E+02  4.750000000E+00  0.00000E+00  9.000E+00
      -5     1     1     2     0   503 -9.121848104E-01  1.920134508E+00  1.012841741E+01  1.138711275E+01  4.750000000E+00  0.00000E+00  9.000E+00
      21     1     1     2   512   502  1.374469890E+01  1.108568819E+01 -9.463921947E+01  9.627248357E+01  2.336015456E-06  0.00000E+00  9.000E+00
#rwgt            1           9   3.3392347390147170E-003           2      845446           0
</event>
<event>
      6   9999  3.45752E-01  3.46167E+00 -1.00000E+00  2.61603E-01
      -1    -1     0     0     0   502  0.000000000E+00  0.000000000E+00  6.657615189E+01  6.657615189E+01  0.000000000E+00  0.00000E+00  9.000E+00
      21    -1     0     0   502   503  0.000000000E+00  0.000000000E+00 -1.442657708E+03  1.442657708E+03  0.000000000E+00  0.00000E+00  9.000E+00
      25     1     1     2     0     0  5.761512895E+00 -8.019195753E+00 -1.358698023E+03  1.364471969E+03  1.250037391E+02  0.00000E+00  9.000E+00
       5     1     1     2   501     0  2.236490615E+00  7.701443215E+00  1.505945990E+01  1.771056042E+01  4.750000000E+00  0.00000E+00  9.000E+00
      -5     1     1     2     0   503 -4.722009565E+00  1.436244932E+00 -7.953641785E+01  7.983084891E+01  4.750000000E+00  0.00000E+00  9.000E+00
      -1     1     1     2     0   501 -3.275993946E+00 -1.118492393E+00  4.709342497E+01  4.722048112E+01  1.168007728E-06  0.00000E+00  9.000E+00
#rwgt            1           9   1.4166004102553003E-004           2      847251           0
</event>
<event>
      6   9999 -3.45752E-01  2.29564E+01 -1.00000E+00  1.55771E-01
       2    -1     0     0   502     0  0.000000000E+00  0.000000000E+00  2.464966088E+02  2.464966088E+02  0.000000000E+00  0.00000E+00  9.000E+00
      21    -1     0     0   501   502  0.000000000E+00  0.000000000E+00 -8.937875441E+02  8.937875441E+02  0.000000000E+00  0.00000E+00  9.000E+00
      25     1     1     2     0     0 -1.110036205E+01 -2.628563031E+01 -7.765878067E+02  7.871013194E+02  1.250028520E+02  0.00000E+00  9.000E+00
       5     1     1     2   501     0  3.172763991E+00 -1.748091776E+01 -2.184165835E+01  2.855292378E+01  4.750000000E+00  0.00000E+00  9.000E+00
      -5     1     1     2     0   503 -1.498689564E+01  4.237943267E+01 -8.025045223E+01  9.210494524E+01  4.750000000E+00  0.00000E+00  9.000E+00
       2     1     1     2   503     0  2.291449369E+01  1.387115402E+00  2.313889820E+02  2.325249645E+02  3.814697266E-06  0.00000E+00  9.000E+00
#rwgt            1           9  -6.0136052019025658E-002           2      853281           0
</event>
<event>
      6   9999  3.45752E-01  1.34110E+01 -1.00000E+00  1.74697E-01
      21    -1     0     0   511   502  0.000000000E+00  0.000000000E+00  3.765760559E+02  3.765760559E+02  0.000000000E+00  0.00000E+00  9.000E+00
      21    -1     0     0   502   503  0.000000000E+00  0.000000000E+00 -3.525131781E+02  3.525131781E+02  0.000000000E+00  0.00000E+00  9.000E+00
      25     1     1     2     0     0 -3.925835909E+00  9.588627609E+00 -3.308695921E+02  3.538469517E+02  1.250024970E+02  0.00000E+00  9.000E+00
       5     1     1     2   501     0 -3.270405391E+00  5.785663015E-01  1.127117538E+01  1.267407531E+01  4.750000000E+00  0.00000E+00  9.000E+00
      -5     1     1     2     0   503 -1.237861113E+00  2.597034220E-01 -8.678168400E+00  9.973607812E+00  4.750000000E+00  0.00000E+00  9.000E+00
      21     1     1     2   511   501  8.434102413E+00 -1.042689733E+01  3.523394629E+02  3.525945992E+02  0.000000000E+00  0.00000E+00  9.000E+00
#rwgt            1           9   1.6027603017132953E-002           2      855047           0
</event>
<event>
      6   9999  3.45752E-01  1.33055E+01 -1.00000E+00  1.75010E-01
      21    -1     0     0   512   502  0.000000000E+00  0.000000000E+00  1.880278162E+01  1.880278162E+01  0.000000000E+00  0.00000E+00  9.000E+00
      21    -1     0     0   502   503  0.000000000E+00  0.000000000E+00 -7.682381754E+02  7.682381754E+02  0.000000000E+00  0.00000E+00  9.000E+00
      25     1     1     2     0     0 -7.249903215E+00 -9.321995472E+00 -7.390084896E+02  7.495681219E+02  1.248173105E+02  0.00000E+00  9.000E+00
       5     1     1     2   501     0 -2.036096157E+00  8.083577989E-01  2.342928432E+00  5.731574263E+00  4.750000000E+00  0.00000E+00  9.000E+00
      -5     1     1     2     0   503 -2.681497964E+00  2.698456717E+00 -1.677600265E+01  1.784569598E+01  4.750000000E+00  0.00000E+00  9.000E+00
      21     1     1     2   512   501  1.196749734E+01  5.815180956E+00  4.006170097E+00  1.389556479E+01  5.870376707E-07  0.00000E+00  9.000E+00
#rwgt            1           9   1.2248018031131824E-004           2      857070           0
</event>
<event>
      6   9999  3.45752E-01  1.94855E+01 -1.00000E+00  1.61079E-01
      21    -1     0     0   502   503  0.000000000E+00  0.000000000E+00  1.938226971E+01  1.938226971E+01  0.000000000E+00  0.00000E+00  9.000E+00
      21    -1     0     0   501   511  0.000000000E+00  0.000000000E+00 -3.928708164E+02  3.928708164E+02  0.000000000E+00  0.00000E+00  9.000E+00
      25     1     1     2     0     0 -3.809855873E+00  3.388913335E+01 -2.671586483E+02  2.969207416E+02  1.250007802E+02  0.00000E+00  9.000E+00
       5     1     1     2   501     0  6.460743294E+00 -1.438575233E+01 -2.754601559E+01  3.209418248E+01  4.750000000E+00  0.00000E+00  9.000E+00
      -5     1     1     2     0   503  4.857744267E+00 -1.522655826E+00 -1.485808703E+01  1.640857734E+01  4.750000000E+00  0.00000E+00  9.000E+00
      21     1     1     2   502   511 -7.508631688E+00 -1.798072519E+01 -6.392579570E+01  6.682958465E+01  9.536743164E-07  0.00000E+00  9.000E+00
#rwgt            1           9   4.2476216070000780E-002           2      858980           0
</event>
<event>
      6   9999  3.45752E-01  3.33566E+01 -1.00000E+00  1.44919E-01
      21    -1     0     0   501   512  0.000000000E+00  0.000000000E+00  1.328817350E+01  1.328817350E+01  0.000000000E+00  0.00000E+00  9.000E+00
      21    -1     0     0   502   503  0.000000000E+00  0.000000000E+00 -1.188478133E+03  1.188478133E+03  0.000000000E+00  0.00000E+00  9.000E+00
      25     1     1     2     0     0  3.483138927E+01 -1.884940487E+01 -1.102932004E+03  1.110700128E+03  1.250089689E+02  0.00000E+00  9.000E+00
       5     1     1     2   501     0  2.977955323E+00 -4.804267382E-01 -6.067861579E+00  8.275292859E+00  4.750000000E+00  0.00000E+00  9.000E+00
      -5     1     1     2     0   503 -6.771144644E+00  7.111386776E+00 -3.663524487E+01  3.822465028E+01  4.750000000E+00  0.00000E+00  9.000E+00
      21     1     1     2   502   512 -3.103819995E+01  1.221844484E+01 -2.955484850E+01  4.456623520E+01  1.507891493E-06  0.00000E+00  9.000E+00
#rwgt            1           9  0.48451362509537155                2      860341           0
</event>
<event>
      6   9999  3.45752E-01  1.14099E+01 -1.00000E+00  1.81355E-01
       1    -1     0     0   501     0  0.000000000E+00  0.000000000E+00  7.810790322E+02  7.810790322E+02  0.000000000E+00  0.00000E+00  9.000E+00
      21    -1     0     0   502   503  0.000000000E+00  0.000000000E+00 -2.259630871E+02  2.259630871E+02  0.000000000E+00  0.00000E+00  9.000E+00
      25     1     1     2     0     0  9.526888770E+00  4.715930105E+00 -2.010839636E+02  2.370084958E+02  1.250010602E+02  0.00000E+00  9.000E+00
       5     1     1     2   501     0  1.039360603E+00 -5.579462503E+00  1.394343495E+02  1.396306234E+02  4.750000000E+00  0.00000E+00  9.000E+00
      -5     1     1     2     0   503  7.672710470E-01 -4.542531573E-01 -5.903465196E+00  7.629446383E+00  4.750000000E+00  0.00000E+00  9.000E+00
       1     1     1     2   502     0 -1.133352042E+01  1.317785555E+00  6.226690244E+02  6.227735537E+02  0.000000000E+00  0.00000E+00  9.000E+00
#rwgt            1           9   1.6894349416664640E-002           2      860951           0
</event>
<event>
      6   9999  3.45752E-01  8.66925E+00 -1.00000E+00  1.93972E-01
      21    -1     0     0   501   502  0.000000000E+00  0.000000000E+00  1.006337702E+02  1.006337702E+02  0.000000000E+00  0.00000E+00  9.000E+00
      21    -1     0     0   511   503  0.000000000E+00  0.000000000E+00 -1.717497795E+03  1.717497795E+03  0.000000000E+00  0.00000E+00  9.000E+00
      25     1     1     2     0     0 -4.554314402E+01  2.984836338E+01 -1.220363098E+03  1.227956565E+03  1.250045211E+02  0.00000E+00  9.000E+00
       5     1     1     2   501     0  2.206206797E+01  6.271778292E-01  9.390227132E+01  9.657808890E+01  4.750000000E+00  0.00000E+00  9.000E+00
      -5     1     1     2     0   503  2.904163212E+01 -3.712656254E+01 -4.103100341E+02  4.130359363E+02  4.750000000E+00  0.00000E+00  9.000E+00
      21     1     1     2   511   502 -5.560556076E+00  6.651021330E+00 -8.009316371E+01  8.056097531E+01  9.536743164E-07  0.00000E+00  9.000E+00
#rwgt            1           9   2.9451296945003444E-004           2      864215           0
</event>
<event>
      6   9999 -3.45752E-01  2.32399E+01 -1.00000E+00  1.55388E-01
       2    -1     0     0   501     0  0.000000000E+00  0.000000000E+00  1.303082909E+02  1.303082909E+02  0.000000000E+00  0.00000E+00  9.000E+00
      21    -1     0     0   502   503  0.000000000E+00  0.000000000E+00 -1.337215249E+03  1.337215249E+03  0.000000000E+00  0.00000E+00  9.000E+00
      25     1     1     2     0     0  5.968051526E+00  2.674545052E+01 -7.051648728E+02  7.166824367E+02  1.250011221E+02  0.00000E+00  9.000E+00
       5     1     1     2   501     0  4.954494656E+00  1.022084807E+01  9.758621451E-01  1.235020484E+01  4.750000000E+00  0.00000E+00  9.000E+00
      -5     1     1     2     0   503 -2.334614870E+00 -1.537135876E+01 -6.193513542E+02  6.195646790E+02  4.750000000E+00  0.00000E+00  9.000E+00
       2     1     1     2   502     0 -8.587931313E+00 -2.159493983E+01  1.166334069E+02  1.189262191E+02  3.814697266E-06  0.00000E+00  9.000E+00
#rwgt            1           9  -76410.423218142707                2      869656           0
</event>
<event>
      6   9999  3.45752E-01  1.05431E+01 -1.00000E+00  1.84806E-01
      21    -1     0     0   511   502  0.000000000E+00  0.000000000E+00  1.598468723E+03  1.598468723E+03  0.000000000E+00  0.00000E+00  9.000E+00
      21    -1     0     0   502   503  0.000000000E+00  0.000000000E+00 -8.974221008E+02  8.974221008E+02  0.000000000E+00  0.00000E+00  9.000E+00
      25     1     1     2     0     0 -3.727493899E+00 -3.355756972E+01 -5.906696025E+02  6.047076628E+02  1.250630779E+02  0.00000E+00  9.000E+00
       5     1     1     2   501     0  8.701196716E+00 -6.555219170E+00  7.243657761E+00  1.391814644E+01  4.750000000E+00  0.00000E+00  9.000E+00
      -5     1     1     2     0   503 -1.537381135E+01  3.838230398E+01 -2.949175607E+02  2.978396976E+02  4.750000000E+00  0.00000E+00  9.000E+00
      21     1     1     2   511   501  1.040010854E+01  1.730484915E+00  1.579390128E+03  1.579425317E+03  3.051757812E-05  0.00000E+00  9.000E+00
#rwgt            1           9   7.4882412272221668                2      871297           0
</event>
<event>
      6   9999  3.45752E-01  4.36812E+00 -1.00000E+00  2.40193E-01
      21    -1     0     0   501   512  0.000000000E+00  0.000000000E+00  7.888892880E+02  7.888892880E+02  0.000000000E+00  0.00000E+00  9.000E+00
      21    -1     0     0   502   503  0.000000000E+00  0.000000000E+00 -1.252987617E+03  1.252987617E+03  0.000000000E+00  0.00000E+00  9.000E+00
      25     1     1     2     0     0  6.449325962E+00 -1.205451495E+01 -6.658633652E+02  6.776323376E+02  1.249986348E+02  0.00000E+00  9.000E+00
       5     1     1     2   501     0  3.404101916E+00  8.449963232E+00  3.946093120E+01  4.077643167E+01  4.750000000E+00  0.00000E+00  9.000E+00
      -5     1     1     2     0   503 -1.213855288E+01  7.327280772E+00 -5.804793119E+02  5.806718759E+02  4.750000000E+00  0.00000E+00  9.000E+00
      21     1     1     2   502   512  2.285125000E+00 -3.722729055E+00  7.427834164E+02  7.427962602E+02  1.078959322E-05  0.00000E+00  9.000E+00
#rwgt            1           9   1.3860914437251550E-004           2      874736           0
</event>
<event>
      6   9999  3.45752E-01  2.01907E+01 -1.00000E+00  1.59896E-01
      21    -1     0     0   511   502  0.000000000E+00  0.000000000E+00  3.003021149E+01  3.003021149E+01  0.000000000E+00  0.00000E+00  9.000E+00
      21    -1     0     0   502   503  0.000000000E+00  0.000000000E+00 -8.384656080E+02  8.384656080E+02  0.000000000E+00  0.00000E+00  9.000E+00
      25     1     1     2     0     0  2.847906696E+01  3.249996130E+01 -4.627816506E+02  4.813095637E+02  1.249989410E+02  0.00000E+00  9.000E+00
       5     1     1     2   501     0 -2.392285502E+01 -5.945404088E+00 -1.825555413E+02  1.842735439E+02  4.750000000E+00  0.00000E+00  9.000E+00
      -5     1     1     2     0   503 -1.855675692E+01 -1.200634868E+01 -1.769750266E+02  1.784130830E+02  4.750000000E+00  0.00000E+00  9.000E+00
      21     1     1     2   511   501  1.400054498E+01 -1.454820853E+01  1.387682194E+01  2.449962894E+01  1.283923342E-06  0.00000E+00  9.000E+00
#rwgt            1           9   2.9353698175033403E-004           2      881717           0
</event>
<event>
      6   9999  3.45752E-01  2.33202E+01 -1.00000E+00  1.55281E-01
      21    -1     0     0   501   502  0.000000000E+00  0.000000000E+00  1.593520595E+03  1.593520595E+03  0.000000000E+00  0.00000E+00  9.000E+00
       3    -1     0     0   502     0  0.000000000E+00  0.000000000E+00 -1.394562530E+02  1.394562530E+02  0.000000000E+00  0.00000E+00  9.000E+00
      25     1     1     2     0     0 -1.929396550E+01 -3.480469598E+01  1.168769482E+03  1.176108573E+03  1.250025920E+02  0.00000E+00  9.000E+00
       5     1     1     2   501     0 -6.321784726E-01 -1.793328279E+00  2.515437048E+02  2.515957345E+02  4.750000000E+00  0.00000E+00  9.000E+00
      -5     1     1     2     0   503  1.023873198E+01  1.538516835E+01  1.679662114E+02  1.690465785E+02  4.750000000E+00  0.00000E+00  9.000E+00
       3     1     1     2   503     0  9.687411990E+00  2.121285591E+01 -1.342150569E+02  1.362259619E+02  5.722045898E-06  0.00000E+00  9.000E+00
#rwgt            1           9   2.7761412604822869E-004           2      883004           0
</event>
<event>
      6   9999  3.45752E-01  1.48893E+01 -1.00000E+00  1.70651E-01
      21    -1     0     0   502   503  0.000000000E+00  0.000000000E+00  1.186541192E+01  1.186541192E+01  0.000000000E+00  0.00000E+00  9.000E+00
       2    -1     0     0   501     0  0.000000000E+00  0.000000000E+00 -1.439254769E+03  1.439254769E+03  0.000000000E+00  0.00000E+00  9.000E+00
      25     1     1     2     0     0 -3.974446793E+01  2.749925076E+01 -7.309032938E+02  7.430891565E+02  1.250041521E+02  0.00000E+00  9.000E+00
       5     1     1     2   501     0  8.735623804E+00 -9.415102421E+00 -1.814274751E+01  2.273053154E+01  4.750000000E+00  0.00000E+00  9.000E+00
      -5     1     1     2     0   503  1.822235131E+01 -2.571275832E+01 -7.158205809E+01  7.835657961E+01  4.750000000E+00  0.00000E+00  9.000E+00
       2     1     1     2   502     0  1.278649282E+01  7.628609978E+00 -6.067612576E+02  6.069439133E+02  0.000000000E+00  0.00000E+00  9.000E+00
#rwgt            1           9   1.8442469079084260E-002           2      884015           0
</event>
<event>
      6   9999  3.45752E-01  1.40589E+01 -1.00000E+00  1.72847E-01
      21    -1     0     0   501   502  0.000000000E+00  0.000000000E+00  1.371477777E+03  1.371477777E+03  0.000000000E+00  0.00000E+00  9.000E+00
      21    -1     0     0   511   503  0.000000000E+00  0.000000000E+00 -5.008435541E+01  5.008435541E+01  0.000000000E+00  0.00000E+00  9.000E+00
      25     1     1     2     0     0 -1.362274195E+01  3.813730364E+01  1.212616861E+02  1.787993844E+02  1.249991613E+02  0.00000E+00  9.000E+00
       5     1     1     2   501     0 -2.387274593E+00  5.754752741E+00  9.342985466E+02  9.343313935E+02  4.750000000E+00  0.00000E+00  9.000E+00
      -5     1     1     2     0   503  2.585390608E+00 -4.806738813E+01  2.825089498E+02  2.866200050E+02  4.750000000E+00  0.00000E+00  9.000E+00
      21     1     1     2   511   502  1.342462594E+01  4.175331747E+00 -1.667576074E+01  2.181134964E+01  7.907449699E-07  0.00000E+00  9.000E+00
#rwgt            1           9   3.1331401140576764E-004           2      885995           0
</event>
<event>
      6   9999  3.45752E-01  5.93176E+00 -1.00000E+00  2.14752E-01
      21    -1     0     0   501   502  0.000000000E+00  0.000000000E+00  6.485238831E+00  6.485238831E+00  0.000000000E+00  0.00000E+00  9.000E+00
      21    -1     0     0   502   512  0.000000000E+00  0.000000000E+00 -7.951330744E+02  7.951330744E+02  0.000000000E+00  0.00000E+00  9.000E+00
      25     1     1     2     0     0  4.835268872E+00  2.907353672E+00 -7.235317930E+02  7.342718975E+02  1.250005262E+02  0.00000E+00  9.000E+00
       5     1     1     2   501     0  3.156229532E-01  2.503988554E-02 -9.421501349E+00  1.055591931E+01  4.750000000E+00  0.00000E+00  9.000E+00
      -5     1     1     2     0   503 -7.348335090E-01  1.027928590E+00 -1.931796889E+01  1.993346532E+01  4.750000000E+00  0.00000E+00  9.000E+00
      21     1     1     2   503   512 -4.416058316E+00 -3.960322147E+00 -3.637657240E+01  3.685703111E+01  6.743495762E-07  0.00000E+00  9.000E+00
#rwgt            1           9   3.3196410509536467E-004           2      889141           0
</event>
<event>
      6   9999  3.45752E-01  1.03635E+02 -1.00000E+00  1.19780E-01
       2    -1     0     0   501     0  0.000000000E+00  0.000000000E+00  7.096226289E+01  7.096226289E+01  0.000000000E+00  0.00000E+00  9.000E+00
      21    -1     0     0   511   502  0.000000000E+00  0.000000000E+00 -9.853731654E+02  9.853731654E+02  0.000000000E+00  0.00000E+00  9.000E+00
      25     1     1     2     0     0 -1.237267922E+01 -1.820655569E+01 -4.378367749E+02  4.558630127E+02  1.250019322E+02  0.00000E+00  9.000E+00
       5     1     1     2   501     0 -5.688477081E+00  1.500454067E+01 -7.216789844E+01  7.408281229E+01  4.750000000E+00  0.00000E+00  9.000E+00
      -5     1     1     2     0   502 -8.168818038E+01  3.131495536E+01 -4.131956554E+02  4.223822882E+02  4.750000000E+00  0.00000E+00  9.000E+00
       2     1     1     2   511     0  9.974933668E+01 -2.811294033E+01  8.789426192E+00  1.040073151E+02  1.918491952E-06  0.00000E+00  9.000E+00
#rwgt            1           4   2.9251296056568982E-005           2      892173           0
</event>
<event>
      6   9999  3.45752E-01  1.34788E+01 -1.00000E+00  1.74497E-01
      21    -1     0     0   501   502  0.000000000E+00  0.000000000E+00  7.142494485E+01  7.142494485E+01  0.000000000E+00  0.00000E+00  9.000E+00
      21    -1     0     0   512   503  0.000000000E+00  0.000000000E+00 -1.555834019E+03  1.555834019E+03  0.000000000E+00  0.00000E+00  9.000E+00
      25     1     1     2     0     0 -7.863536991E+01  1.925207780E+02 -1.085411040E+03  1.112199985E+03  1.249956420E+02  0.00000E+00  9.000E+00
       5     1     1     2   501     0  7.549383991E+00 -4.580335089E+00  2.535618671E+01  2.726667146E+01  4.750000000E+00  0.00000E+00  9.000E+00
      -5     1     1     2     0   503  8.438555924E+01 -1.901314036E+02 -3.144039992E+02  3.770189789E+02  4.750000000E+00  0.00000E+00  9.000E+00
      21     1     1     2   512   502 -1.329957333E+01  2.190960697E+00 -1.099502215E+02  1.107733278E+02  1.907348633E-06  0.00000E+00  9.000E+00
#rwgt            1           9   2.9042667165670363E-005           2      892726           0
</event>
<event>
      6   9999  3.45752E-01  1.56210E+01 -1.00000E+00  1.68859E-01
      21    -1     0     0   501   502  0.000000000E+00  0.000000000E+00  4.605200379E+01  4.605200379E+01  0.000000000E+00  0.00000E+00  9.000E+00
       2    -1     0     0   502     0  0.000000000E+00  0.000000000E+00 -1.368268294E+03  1.368268294E+03  0.000000000E+00  0.00000E+00  9.000E+00
      25     1     1     2     0     0 -1.482680948E+02 -9.028893234E+00 -2.873065534E+02  3.467488912E+02  1.249991563E+02  0.00000E+00  9.000E+00
       5     1     1     2   501     0 -1.403234690E+00 -3.599457616E+00  9.728308218E+00  1.149467892E+01  4.750000000E+00  0.00000E+00  9.000E+00
      -5     1     1     2     0   503  1.351915159E+02  6.767288512E+00 -9.909110733E+02  1.000124922E+03  4.750000000E+00  0.00000E+00  9.000E+00
       2     1     1     2   503     0  1.447981362E+01  5.861062338E+00 -5.372697212E+01  5.595180594E+01  9.536743164E-07  0.00000E+00  9.000E+00
#rwgt            1           9   2.3922315811659336E-004           2      896215           0
</event>
<event>
      6   9999  3.45752E-01  1.68977E+01 -1.00000E+00  1.66007E-01
      21    -1     0     0   511   502  0.000000000E+00  0.000000000E+00  3.422305616E+01  3.422305616E+01  0.000000000E+00  0.00000E+00  9.000E+00
      21    -1     0     0   502   503  0.000000000E+00  0.000000000E+00 -1.159352622E+03  1.159352622E+03  0.000000000E+00  0.00000E+00  9.000E+00
      25     1     1     2     0     0 -3.267873044E+01 -1.876942546E+01 -7.199696852E+02  7.317109410E+02  1.249974513E+02  0.00000E+00  9.000E+00
       5     1     1     2   501     0 -2.202749803E+00 -4.474529632E+00  2.402819001E+01  2.499579840E+01  4.750000000E+00  0.00000E+00  9.000E+00
      -5     1     1     2     0   503  1.902253647E+01  1.741083794E+01 -4.117600718E+02  4.125941267E+02  4.750000000E+00  0.00000E+00  9.000E+00
      21     1     1     2   511   501  1.585894377E+01  5.833117158E+00 -1.742799868E+01  2.427481187E+01  5.840038640E-07  0.00000E+00  9.000E+00
#rwgt            1           9   5.7290433666645877E-004           2      899131           0
</event>
<event>
      6   9999  3.45752E-01  4.84101E+01 -1.00000E+00  1.35543E-01
      21    -1     0     0   501   502  0.000000000E+00  0.000000000E+00  1.090332039E+03  1.090332039E+03  0.000000000E+00  0.00000E+00  9.000E+00
      21    -1     0     0   512   503  0.000000000E+00  0.000000000E+00 -1.113246825E+02  1.113246825E+02  0.000000000E+00  0.00000E+00  9.000E+00
      25     1     1     2     0     0 -3.228206537E+01  8.081464114E+00 -1.865623805E+00  1.293681857E+02  1.250008204E+02  0.00000E+00  9.000E+00
       5     1     1     2   501     0 -5.724838023E+00  7.126402091E+00  9.530340999E+02  9.530897741E+02  4.750000000E+00  0.00000E+00  9.000E+00
      -5     1     1     2     0   503  4.050311722E+00  1.929554126E+01 -3.465205358E+01  4.015034563E+01  4.750000000E+00  0.00000E+00  9.000E+00
      21     1     1     2   512   502  3.395659167E+01 -3.450340746E+01  6.249093357E+01  7.904841569E+01  6.743495762E-07  0.00000E+00  9.000E+00
#rwgt            1           9   2.8151251253901335E-003           2      901427           0
</event>
<event>
      6   9999  3.45752E-01  1.95493E+01 -1.00000E+00  1.60970E-01
      21    -1     0     0   511   502  0.000000000E+00  0.000000000E+00  1.073443185E+02  1.073443185E+02  0.000000000E+00  0.00000E+00  9.000E+00
      21    -1     0     0   502   503  0.000000000E+00  0.000000000E+00 -9.907482345E+02  9.907482345E+02  0.000000000E+00  0.00000E+00  9.000E+00
      25     1     1     2     0     0 -5.777532056E+01  1.671512853E+01 -2.817258493E+02  3.140245123E+02  1.249982279E+02  0.00000E+00  9.000E+00
       5     1     1     2   501     0  1.193001980E+01 -1.596822039E+01 -3.167630882E+02  3.174251502E+02  4.750000000E+00  0.00000E+00  9.000E+00
      -5     1     1     2     0   503  4.047345244E+01  1.804985073E+01 -3.733865424E+02  3.760371924E+02  4.750000000E+00  0.00000E+00  9.000E+00
      21     1     1     2   511   501  5.371848322E+00 -1.879675888E+01  8.847156393E+01  9.060569807E+01  3.162979880E-06  0.00000E+00  9.000E+00
#rwgt            1           9   2.5187713849575105E-002           2      902802           0
</event>
<event>
      6   9999  3.45752E-01  1.04942E+01 -1.00000E+00  1.85014E-01
      21    -1     0     0   501   502  0.000000000E+00  0.000000000E+00  2.131602793E+01  2.131602793E+01  0.000000000E+00  0.00000E+00  9.000E+00
      21    -1     0     0   512   503  0.000000000E+00  0.000000000E+00 -1.113898803E+03  1.113898803E+03  0.000000000E+00  0.00000E+00  9.000E+00
      25     1     1     2     0     0 -1.189615089E+00 -1.825366846E+01 -9.085480288E+02  9.172889746E+02  1.249997224E+02  0.00000E+00  9.000E+00
       5     1     1     2   501     0  6.339392587E-01  5.475211000E+00  1.337321939E+01  1.522449708E+01  4.750000000E+00  0.00000E+00  9.000E+00
      -5     1     1     2     0   503 -5.858683120E+00  2.108410515E+01 -4.845254966E+01  5.337673395E+01  4.750000000E+00  0.00000E+00  9.000E+00
      21     1     1     2   512   502  6.414358950E+00 -8.305647684E+00 -1.489554162E+02  1.493246255E+02  1.907348633E-06  0.00000E+00  9.000E+00
#rwgt            1           9   5.3879251958378942E-002           2      904559           0
</event>
<event>
      6   9999  3.45752E-01  1.92865E+01 -1.00000E+00  1.61424E-01
      21    -1     0     0   501   502  0.000000000E+00  0.000000000E+00  3.227266660E+02  3.227266660E+02  0.000000000E+00  0.00000E+00  9.000E+00
      21    -1     0     0   502   511  0.000000000E+00  0.000000000E+00 -1.000847205E+03  1.000847205E+03  0.000000000E+00  0.00000E+00  9.000E+00
      25     1     1     2     0     0 -7.095297249E+01 -8.189622587E+01 -5.334575525E+01  1.738187329E+02  1.250034647E+02  0.00000E+00  9.000E+00
       5     1     1     2   501     0 -2.965364205E-01 -7.976545282E-01  2.547938603E+02  2.548395533E+02  4.750000000E+00  0.00000E+00  9.000E+00
      -5     1     1     2     0   503  5.286865857E+01  8.853440082E+01 -3.477644055E+02  3.627617392E+02  4.750000000E+00  0.00000E+00  9.000E+00
      21     1     1     2   503   511  1.838085034E+01 -5.840520421E+00 -5.318042384E+02  5.321538456E+02  7.629394531E-06  0.00000E+00  9.000E+00
#rwgt            1           9   3.1644702749337915E-002           2      907559           0
</event>
<event>
      6   9999 -3.45752E-01  3.98416E+01 -1.00000E+00  1.40286E-01
      21    -1     0     0   502   503  0.000000000E+00  0.000000000E+00  2.607703756E+03  2.607703756E+03  0.000000000E+00  0.00000E+00  9.000E+00
      21    -1     0     0   501   512  0.000000000E+00  0.000000000E+00 -7.105576953E+01  7.105576953E+01  0.000000000E+00  0.00000E+00  9.000E+00
      25     1     1     2     0     0 -2.126373527E+00  5.081699445E+00  2.254721640E+03  2.258190758E+03  1.250019196E+02  0.00000E+00  9.000E+00
       5     1     1     2   501     0  8.700410141E+00 -2.693289782E+01  1.473642329E+02  1.501328004E+02  4.750000000E+00  0.00000E+00  9.000E+00
      -5     1     1     2     0   503  2.400187110E+01 -3.692226252E+00  1.958114120E+02  1.973686751E+02  4.750000000E+00  0.00000E+00  9.000E+00
      21     1     1     2   502   512 -3.057590771E+01  2.554342462E+01 -6.124929823E+01  7.306729232E+01  5.722045898E-06  0.00000E+00  9.000E+00
#rwgt            1           9  -2.3861089117501381E-003           2      911221           0
</event>
<event>
      6   9999  3.45752E-01  9.32208E+00 -1.00000E+00  1.90463E-01
      21    -1     0     0   501   502  0.000000000E+00  0.000000000E+00  8.103113399E+00  8.103113399E+00  0.000000000E+00  0.00000E+00  9.000E+00
      21    -1     0     0   502   511  0.000000000E+00  0.000000000E+00 -8.516635998E+02  8.516635998E+02  0.000000000E+00  0.00000E+00  9.000E+00
      25     1     1     2     0     0  1.848662091E+01 -1.104924472E+01 -6.748336021E+02  6.866521080E+02  1.250075435E+02  0.00000E+00  9.000E+00
       5     1     1     2   501     0 -9.884248963E+00  9.419204780E+00 -2.854493205E+01  3.199680362E+01  4.750000000E+00  0.00000E+00  9.000E+00
      -5     1     1     2     0   503  4.883731187E-01 -4.338326442E-01 -1.967408127E+01  2.024990600E+01  4.750000000E+00  0.00000E+00  9.000E+00
      21     1     1     2   503   511 -9.090745068E+00  2.063872585E+00 -1.205078710E+02  1.208678956E+02  1.348699152E-06  0.00000E+00  9.000E+00
#rwgt            1           9   8.9667342610086024E-003           2      911862           0
</event>
<event>
      6   9999  3.45752E-01  2.86673E+01 -1.00000E+00  1.49126E-01
      21    -1     0     0   501   502  0.000000000E+00  0.000000000E+00  2.989573379E+01  2.989573379E+01  0.000000000E+00  0.00000E+00  9.000E+00
      21    -1     0     0   512   503  0.000000000E+00  0.000000000E+00 -1.513066344E+03  1.513066344E+03  0.000000000E+00  0.00000E+00  9.000E+00
      25     1     1     2     0     0 -1.610323058E+01 -6.762842434E+01 -2.399869497E+02  2.793795592E+02  1.250051368E+02  0.00000E+00  9.000E+00
       5     1     1     2   501     0 -4.649933018E+00  3.699051487E+00  6.349696098E+00  9.908884877E+00  4.750000000E+00  0.00000E+00  9.000E+00
      -5     1     1     2     0   503 -6.690142597E+00  7.221653404E+01 -9.470614689E+02  9.498462897E+02  4.750000000E+00  0.00000E+00  9.000E+00
      21     1     1     2   512   502  2.744330620E+01 -8.287161189E+00 -3.024718873E+02  3.038273435E+02  0.000000000E+00  0.00000E+00  9.000E+00
#rwgt            1           9   2.0044913145077576E-002           2      914507           0
</event>
<event>
      6   9999  3.45752E-01  5.84340E+00 -1.00000E+00  2.15670E-01
      21    -1     0     0   501   502  0.000000000E+00  0.000000000E+00  3.524117582E+02  3.524117582E+02  0.000000000E+00  0.00000E+00  9.000E+00
      21    -1     0     0   511   503  0.000000000E+00  0.000000000E+00 -2.256624114E+02  2.256624114E+02  0.000000000E+00  0.00000E+00  9.000E+00
      25     1     1     2     0     0  3.012607479E+00 -2.345774036E+00  2.826108829E+02  3.090436583E+02  1.249979725E+02  0.00000E+00  9.000E+00
       5     1     1     2   501     0 -2.675147516E-02  1.006383848E+00  1.853612332E+01  1.916152112E+01  4.750000000E+00  0.00000E+00  9.000E+00
      -5     1     1     2     0   503 -2.543919353E+00  7.166049863E+00  3.716219190E+01  3.822845541E+01  4.750000000E+00  0.00000E+00  9.000E+00
      21     1     1     2   511   502 -4.419366508E-01 -5.826659675E+00 -2.115598513E+02  2.116405348E+02  4.672030912E-06  0.00000E+00  9.000E+00
#rwgt            1           9   2.8275444882891140E-003           2      916044           0
</event>
<event>
      6   9999  3.45752E-01  1.26904E+01 -1.00000E+00  1.76915E-01
      21    -1     0     0   512   502  0.000000000E+00  0.000000000E+00  5.417817355E+02  5.417817355E+02  0.000000000E+00  0.00000E+00  9.000E+00
      21    -1     0     0   502   503  0.000000000E+00  0.000000000E+00 -2.353295595E+01  2.353295595E+01  0.000000000E+00  0.00000E+00  9.000E+00
      25     1     1     2     0     0  3.089839809E+00 -2.694858518E+00  1.711200697E+02  2.119526571E+02  1.250001648E+02  0.00000E+00  9.000E+00
       5     1     1     2   501     0 -3.132663362E+00 -3.678833157E+00  2.258478715E+02  2.259494877E+02  4.750000000E+00  0.00000E+00  9.000E+00
      -5     1     1     2     0   503 -3.310391369E-01 -6.311218873E+00  3.004854217E+00  8.457701782E+00  4.750000000E+00  0.00000E+00  9.000E+00
      21     1     1     2   512   501  3.738626902E-01  1.268491055E+01  1.182759840E+02  1.189548449E+02  2.336015456E-06  0.00000E+00  9.000E+00
#rwgt            1           9   20.569417330521699                2      919270           0
</event>
<event>
      6   9999 -3.45752E-01  4.75542E+00 -1.00000E+00  2.33261E-01
      21    -1     0     0   511   502  0.000000000E+00  0.000000000E+00  3.472827970E+01  3.472827970E+01  0.000000000E+00  0.00000E+00  9.000E+00
      21    -1     0     0   502   503  0.000000000E+00  0.000000000E+00 -9.008593750E+02  9.008593750E+02  0.000000000E+00  0.00000E+00  9.000E+00
      25     1     1     2     0     0 -1.398983555E+00 -1.399922051E+01 -8.842700335E+02  8.931707670E+02  1.249903659E+02  0.00000E+00  9.000E+00
       5     1     1     2   501     0 -1.313877744E+00  2.720399448E+00  4.293343083E+00  7.079699338E+00  4.750000000E+00  0.00000E+00  9.000E+00
      -5     1     1     2     0   503 -6.964255160E-01  1.459405775E+01 -4.799172886E+00  1.609553014E+01  4.750000000E+00  0.00000E+00  9.000E+00
      21     1     1     2   511   501  3.409286815E+00 -3.315236686E+00  1.864476809E+01  1.924165814E+01  1.215700987E-06  0.00000E+00  9.000E+00
#rwgt            1           9  -1.8250280951664379E-003           2      921635           0
</event>
<event>
      6   9999  3.45752E-01  1.40511E+01 -1.00000E+00  1.72868E-01
      21    -1     0     0   501   512  0.000000000E+00  0.000000000E+00  2.161582317E+01  2.161582317E+01  0.000000000E+00  0.00000E+00  9.000E+00
      21    -1     0     0   502   503  0.000000000E+00  0.000000000E+00 -7.509927673E+02  7.509927673E+02  0.000000000E+00  0.00000E+00  9.000E+00
      25     1     1     2     0     0  2.728793722E+01 -9.302576243E+00 -6.986789724E+02  7.103577956E+02  1.249988874E+02  0.00000E+00  9.000E+00
       5     1     1     2   501     0 -3.311239775E+00  1.162604089E+01 -1.167526292E+01  1.746434654E+01  4.750000000E+00  0.00000E+00  9.000E+00
      -5     1     1     2     0   503 -1.077533650E+01  2.488657706E+00 -2.632879367E+01  2.894942435E+01  4.750000000E+00  0.00000E+00  9.000E+00
      21     1     1     2   502   512 -1.320136095E+01 -4.812122355E+00  7.306084867E+00  1.583702398E+01  9.156639275E-07  0.00000E+00  9.000E+00
#rwgt            1           9   1.2663384631611797E-005           2      926335           0
</event>
<event>
      6   9999  3.45752E-01  2.55797E+01 -1.00000E+00  1.52460E-01
      21    -1     0     0   501   502  0.000000000E+00  0.000000000E+00  1.500997390E+03  1.500997390E+03  0.000000000E+00  0.00000E+00  9.000E+00
      21    -1     0     0   502   511  0.000000000E+00  0.000000000E+00 -8.898308089E+00  8.898308089E+00  0.000000000E+00  0.00000E+00  9.000E+00
      25     1     1     2     0     0 -3.877700002E+00 -2.191678664E+01  1.221913306E+03  1.228492008E+03  1.250004163E+02  0.00000E+00  9.000E+00
       5     1     1     2   501     0  2.379512057E-01 -1.518850037E+00  2.059538768E+02  2.060143816E+02  4.750000000E+00  0.00000E+00  9.000E+00
      -5     1     1     2     0   503  2.859223094E+00 -2.132163152E+00  3.903304436E+01  3.948243063E+01  4.750000000E+00  0.00000E+00  9.000E+00
      21     1     1     2   503   511  7.805257030E-01  2.556779982E+01  2.519885479E+01  3.590687804E+01  8.920806376E-07  0.00000E+00  9.000E+00
#rwgt            1           9   2.8961189278936378E-003           2      928170           0
</event>
<event>
      6   9999  3.45752E-01  1.52229E+01 -1.00000E+00  1.69818E-01
      21    -1     0     0   501   502  0.000000000E+00  0.000000000E+00  3.267185312E+01  3.267185312E+01  0.000000000E+00  0.00000E+00  9.000E+00
      21    -1     0     0   512   503  0.000000000E+00  0.000000000E+00 -1.326510696E+03  1.326510696E+03  0.000000000E+00  0.00000E+00  9.000E+00
      25     1     1     2     0     0 -1.730634484E+00  7.006910983E+00 -1.099599506E+03  1.106705197E+03  1.250009084E+02  0.00000E+00  9.000E+00
       5     1     1     2   501     0 -1.252142231E+01  8.477609330E+00  2.632846488E+01  3.073119652E+01  4.750000000E+00  0.00000E+00  9.000E+00
      -5     1     1     2     0   503  4.666220940E+00 -3.658766633E+00 -7.646410251E+01  7.684062508E+01  4.750000000E+00  0.00000E+00  9.000E+00
      21     1     1     2   512   502  9.585835853E+00 -1.182575368E+01 -1.441036992E+02  1.449055306E+02  1.907348633E-06  0.00000E+00  9.000E+00
#rwgt            1           9   3.5161941525544132E-005           2      929249           0
</event>
<event>
      6   9999  3.45752E-01  2.74208E+01 -1.00000E+00  1.50409E-01
      21    -1     0     0   501   502  0.000000000E+00  0.000000000E+00  3.503868154E+01  3.503868154E+01  0.000000000E+00  0.00000E+00  9.000E+00
      21    -1     0     0   502   511  0.000000000E+00  0.000000000E+00 -1.713027740E+03  1.713027740E+03  0.000000000E+00  0.00000E+00  9.000E+00
      25     1     1     2     0     0  4.515678640E+01 -1.901819740E+01 -9.219572842E+02  9.316822015E+02  1.250026542E+02  0.00000E+00  9.000E+00
       5     1     1     2   501     0 -1.502840647E+00  1.076353931E+00  2.480651817E+01  2.532474899E+01  4.750000000E+00  0.00000E+00  9.000E+00
      -5     1     1     2     0   503 -6.999536026E+01  1.032404358E+01 -2.599082037E+02  2.694081906E+02  4.750000000E+00  0.00000E+00  9.000E+00
      21     1     1     2   503   511  2.634141451E+01  7.617799891E+00 -5.209300892E+02  5.216512808E+02  7.629394531E-06  0.00000E+00  9.000E+00
#rwgt            1           9  0.17805972291356037                2      932438           0
</event>
<event>
      6   9999  3.45752E-01  2.04063E+01 -1.00000E+00  1.59547E-01
      21    -1     0     0   501   502  0.000000000E+00  0.000000000E+00  3.089836483E+01  3.089836483E+01  0.000000000E+00  0.00000E+00  9.000E+00
       1    -1     0     0   502     0  0.000000000E+00  0.000000000E+00 -1.513566652E+03  1.513566652E+03  0.000000000E+00  0.00000E+00  9.000E+00
      25     1     1     2     0     0 -1.591745473E-01  1.607560937E+01 -9.650983609E+02  9.732855924E+02  1.249461794E+02  0.00000E+00  9.000E+00
       5     1     1     2   501     0  3.065825466E+00  1.083839380E+00  2.616726793E+01  2.679295438E+01  4.750000000E+00  0.00000E+00  9.000E+00
      -5     1     1     2     0   503 -5.404960543E-01  3.109217789E+00 -8.164992237E+01  8.184883441E+01  4.750000000E+00  0.00000E+00  9.000E+00
       1     1     1     2   503     0 -2.366154864E+00 -2.026866654E+01 -4.620872723E+02  4.625376361E+02  5.394796609E-06  0.00000E+00  9.000E+00
#rwgt            1           9   3.9462155078176610E-002           2      934343           0
</event>
<event>
      6   9999  3.45752E-01  7.80065E+00 -1.00000E+00  1.99322E-01
      21    -1     0     0   511   502  0.000000000E+00  0.000000000E+00  1.792649226E+01  1.792649226E+01  0.000000000E+00  0.00000E+00  9.000E+00
      21    -1     0     0   502   503  0.000000000E+00  0.000000000E+00 -7.637945590E+02  7.637945590E+02  0.000000000E+00  0.00000E+00  9.000E+00
      25     1     1     2     0     0  1.453735382E+01 -5.917154655E-01 -6.610208220E+02  6.728944571E+02  1.250069540E+02  0.00000E+00  9.000E+00
       5     1     1     2   501     0  1.610382938E-01 -1.920031922E+00 -7.650248826E-02  5.126481108E+00  4.750000000E+00  0.00000E+00  9.000E+00
      -5     1     1     2     0   503 -1.327966685E+01 -5.158808042E+00 -9.190810635E+01  9.312693146E+01  4.750000000E+00  0.00000E+00  9.000E+00
      21     1     1     2   511   501 -1.418725265E+00  7.670555430E+00  7.137364080E+00  1.057318155E+01  1.032382731E-06  0.00000E+00  9.000E+00
#rwgt            1           9   9.9121564035336708E-005           2      936454           0
</event>
<event>
      6   9999  3.45752E-01  3.50439E+01 -1.00000E+00  1.43601E-01
      21    -1     0     0   501   502  0.000000000E+00  0.000000000E+00  1.996176296E+03  1.996176296E+03  0.000000000E+00  0.00000E+00  9.000E+00
      21    -1     0     0   502   512  0.000000000E+00  0.000000000E+00 -4.814022745E+00  4.814022745E+00  0.000000000E+00  0.00000E+00  9.000E+00
      25     1     1     2     0     0  3.506024882E+01  8.199635079E+00  1.215866557E+03  1.222805408E+03  1.250005095E+02  0.00000E+00  9.000E+00
       5     1     1     2   501     0  3.618257018E+00  4.068764575E-01  3.257213353E+02  3.257763160E+02  4.750000000E+00  0.00000E+00  9.000E+00
      -5     1     1     2     0   503 -4.445785989E+00 -1.110194920E+00  2.083063560E+02  2.084108875E+02  4.750000000E+00  0.00000E+00  9.000E+00
      21     1     1     2   503   512 -3.423271985E+01 -7.496316617E+00  2.414680257E+02  2.439977076E+02  0.000000000E+00  0.00000E+00  9.000E+00
#rwgt            1           9   1.5279157731009453E-004           2      939264           0
</event>
<event>
      6   9999  3.45752E-01  4.57868E+01 -1.00000E+00  1.36865E-01
       2    -1     0     0   501     0  0.000000000E+00  0.000000000E+00  5.380838924E+02  5.380838924E+02  0.000000000E+00  0.00000E+00  9.000E+00
      21    -1     0     0   502   503  0.000000000E+00  0.000000000E+00 -5.883650960E+02  5.883650960E+02  0.000000000E+00  0.00000E+00  9.000E+00
      25     1     1     2     0     0 -5.131957385E+01 -7.251445657E+00 -4.592921943E+02  4.788135840E+02  1.250073849E+02  0.00000E+00  9.000E+00
       5     1     1     2   501     0 -1.162718321E+01 -4.116873314E+00  2.513241475E+02  2.516714717E+02  4.750000000E+00  0.00000E+00  9.000E+00
      -5     1     1     2     0   503  5.761112277E+01 -3.410648301E+01 -1.075659651E+02  1.267883788E+02  4.750000000E+00  0.00000E+00  9.000E+00
       2     1     1     2   502     0  5.335634295E+00  4.547480198E+01  2.652528083E+02  2.691755540E+02  0.000000000E+00  0.00000E+00  9.000E+00
#rwgt            1           9   2.6340160084136578E-002           2      940063           0
</event>
<event>
      6   9999 -3.45752E-01  3.34574E+00 -1.00000E+00  2.65082E-01
      21    -1     0     0   501   502  0.000000000E+00  0.000000000E+00  1.393848354E+01  1.393848354E+01  0.000000000E+00  0.00000E+00  9.000E+00
      21    -1     0     0   502   511  0.000000000E+00  0.000000000E+00 -9.028766210E+02  9.028766210E+02  0.000000000E+00  0.00000E+00  9.000E+00
      25     1     1     2     0     0 -2.590425861E+00  4.047259037E+00 -8.665023396E+02  8.754843186E+02  1.249935876E+02  0.00000E+00  9.000E+00
       5     1     1     2   501     0 -2.787449702E+00  3.240588548E-01  4.616317256E+00  7.193592635E+00  4.750000000E+00  0.00000E+00  9.000E+00
      -5     1     1     2     0   503  2.160181833E+00 -3.454564903E+00  5.969499735E-01  6.286434083E+00  4.750000000E+00  0.00000E+00  9.000E+00
      21     1     1     2   503   511  3.217693731E+00 -9.167529896E-01 -2.764906502E+01  2.785075916E+01  3.371747881E-07  0.00000E+00  9.000E+00
#rwgt            1           9  -6.1450637254593463E-003           2      941728           0
</event>
<event>
      6   9999  3.45752E-01  5.06522E+01 -1.00000E+00  1.34487E-01
      21    -1     0     0   501   502  0.000000000E+00  0.000000000E+00  7.062879069E+01  7.062879069E+01  0.000000000E+00  0.00000E+00  9.000E+00
      21    -1     0     0   502   512  0.000000000E+00  0.000000000E+00 -2.419483732E+03  2.419483732E+03  0.000000000E+00  0.00000E+00  9.000E+00
      25     1     1     2     0     0 -2.055223921E+02  1.591146896E+02 -3.507913125E+02  4.541334845E+02  1.250029549E+02  0.00000E+00  9.000E+00
       5     1     1     2   501     0  1.917611228E+02 -2.145039573E+02 -1.278148721E+03  1.310141592E+03  4.750000000E+00  0.00000E+00  9.000E+00
      -5     1     1     2     0   503 -1.135041671E+01  1.140012402E+01 -4.952251850E+02  4.955091736E+02  4.750000000E+00  0.00000E+00  9.000E+00
      21     1     1     2   503   512  2.511168604E+01  4.398914375E+01 -2.246897224E+02  2.303282720E+02  2.697398305E-06  0.00000E+00  9.000E+00
#rwgt            1           9   1.5320240100982492E-003           2      947230           0
</event>
<event>
      6   9999  3.45752E-01  8.68017E+00 -1.00000E+00  1.93910E-01
      21    -1     0     0   502   511  0.000000000E+00  0.000000000E+00  1.721309315E+01  1.721309315E+01  0.000000000E+00  0.00000E+00  9.000E+00
      21    -1     0     0   501   502  0.000000000E+00  0.000000000E+00 -7.314693121E+02  7.314693121E+02  0.000000000E+00  0.00000E+00  9.000E+00
      25     1     1     2     0     0 -1.757822521E+01 -8.285759688E+00 -5.837238112E+02  5.972739696E+02  1.250002371E+02  0.00000E+00  9.000E+00
       5     1     1     2   501     0  1.630306779E+00 -1.641008206E+00 -3.076908318E+01  3.121938160E+01  4.750000000E+00  0.00000E+00  9.000E+00
      -5     1     1     2     0   503  1.854818950E+01  1.645225263E+00 -1.071081031E+02  1.088184283E+02  4.750000000E+00  0.00000E+00  9.000E+00
      21     1     1     2   503   511 -2.600271066E+00  8.281542632E+00  7.344778465E+00  1.137062569E+01  3.153981341E-07  0.00000E+00  9.000E+00
#rwgt            1           9   5.7289107175709772E-002           2      950446           0
</event>
<event>
      6   9999  3.45752E-01  2.74034E+01 -1.00000E+00  1.50427E-01
      21    -1     0     0   502   512  0.000000000E+00  0.000000000E+00  1.960311212E+01  1.960311212E+01  0.000000000E+00  0.00000E+00  9.000E+00
      21    -1     0     0   501   502  0.000000000E+00  0.000000000E+00 -7.473063019E+02  7.473063019E+02  0.000000000E+00  0.00000E+00  9.000E+00
      25     1     1     2     0     0  1.440466576E+01 -1.010495370E+01 -5.591362658E+02  5.732091840E+02  1.250032018E+02  0.00000E+00  9.000E+00
       5     1     1     2   501     0  9.156265820E+00  3.666535871E+00 -1.305595540E+02  1.310177100E+02  4.750000000E+00  0.00000E+00  9.000E+00
      -5     1     1     2     0   503  3.494832781E+00  2.087341721E+00 -3.449184826E+01  3.505454247E+01  4.750000000E+00  0.00000E+00  9.000E+00
      21     1     1     2   503   512 -2.705576436E+01  4.351076105E+00 -3.515521716E+00  2.762797751E+01  1.519626234E-07  0.00000E+00  9.000E+00
#rwgt            1           9   2.0804319111898443E-003           2      952783           0
</event>
<event>
      6   9999  3.45752E-01  1.66057E+01 -1.00000E+00  1.66631E-01
      21    -1     0     0   501   502  0.000000000E+00  0.000000000E+00  2.953754959E+01  2.953754959E+01  0.000000000E+00  0.00000E+00  9.000E+00
      21    -1     0     0   502   511  0.000000000E+00  0.000000000E+00 -4.304055786E+02  4.304055786E+02  0.000000000E+00  0.00000E+00  9.000E+00
      25     1     1     2     0     0  2.380085212E+01 -3.270627663E+01 -1.783903120E+02  2.215499105E+02  1.250003134E+02  0.00000E+00  9.000E+00
       5     1     1     2   501     0  3.077616378E-01  7.948123540E-01 -5.969850481E-01  4.862646918E+00  4.750000000E+00  0.00000E+00  9.000E+00
      -5     1     1     2     0   503 -2.613172510E+01  4.839345715E+01 -1.523015054E+02  1.619972370E+02  4.750000000E+00  0.00000E+00  9.000E+00
      21     1     1     2   503   511  2.023111344E+00 -1.648199287E+01 -6.957922653E+01  7.153333372E+01  1.348699152E-06  0.00000E+00  9.000E+00
#rwgt            1           9   2.8286849377990921                2      953529           0
</event>
<event>
      6   9999 -3.45752E-01  1.22699E+01 -1.00000E+00  1.78297E-01
      21    -1     0     0   501   502  0.000000000E+00  0.000000000E+00  1.223677193E+01  1.223677193E+01  0.000000000E+00  0.00000E+00  9.000E+00
      21    -1     0     0   512   503  0.000000000E+00  0.000000000E+00 -1.064127123E+03  1.064127123E+03  0.000000000E+00  0.00000E+00  9.000E+00
      25     1     1     2     0     0 -1.070949081E+01  5.369547503E+01 -8.502183805E+02  8.611007438E+02  1.250011970E+02  0.00000E+00  9.000E+00
       5     1     1     2   501     0 -2.558367196E-01  3.571609882E-01 -2.870967990E+00  5.567582384E+00  4.750000000E+00  0.00000E+00  9.000E+00
      -5     1     1     2     0   503  8.409287296E+00 -4.205196619E+01 -8.587515868E+01  9.610509534E+01  4.750000000E+00  0.00000E+00  9.000E+00
      21     1     1     2   512   502  2.556040235E+00 -1.200066983E+01 -1.129258434E+02  1.135904729E+02  1.348699152E-06  0.00000E+00  9.000E+00
#rwgt            1           9  -4.7666643730952154E-004           2      955326           0
</event>
<event>
      6   9999  3.45752E-01  3.28378E+01 -1.00000E+00  1.45343E-01
      21    -1     0     0   501   502  0.000000000E+00  0.000000000E+00  5.412958011E+01  5.412958011E+01  0.000000000E+00  0.00000E+00  9.000E+00
      21    -1     0     0   502   511  0.000000000E+00  0.000000000E+00 -1.487692150E+03  1.487692150E+03  0.000000000E+00  0.00000E+00  9.000E+00
      25     1     1     2     0     0  2.733178617E+01  2.381577759E+01 -7.813733766E+02  7.921406705E+02  1.250130809E+02  0.00000E+00  9.000E+00
       5     1     1     2   501     0 -6.188281197E+00  4.426149288E+00  4.571068745E+01  4.658234718E+01  4.750000000E+00  0.00000E+00  9.000E+00
      -5     1     1     2     0   503 -1.922372426E+01  4.539685412E+00 -5.891263245E+02  5.894765043E+02  4.750000000E+00  0.00000E+00  9.000E+00
      21     1     1     2   503   511 -1.919780714E+00 -3.278161229E+01 -1.087735560E+02  1.136222080E+02  1.348699152E-06  0.00000E+00  9.000E+00
#rwgt            1           9   1.0956270057560476E-003           2      957903           0
</event>
<event>
      6   9999 -3.45752E-01  3.99822E+00 -1.00000E+00  2.47890E-01
      21    -1     0     0   502   503  0.000000000E+00  0.000000000E+00  4.335898301E+02  4.335898301E+02  0.000000000E+00  0.00000E+00  9.000E+00
      21    -1     0     0   512   502  0.000000000E+00  0.000000000E+00 -7.316036999E+01  7.316036999E+01  0.000000000E+00  0.00000E+00  9.000E+00
      25     1     1     2     0     0 -2.897460539E+01 -1.189152326E+01  3.969001698E+02  4.173137852E+02  1.250604433E+02  0.00000E+00  9.000E+00
       5     1     1     2   501     0  1.518182292E+00 -7.525181548E+00 -5.104646753E+01  5.183857234E+01  4.750000000E+00  0.00000E+00  9.000E+00
      -5     1     1     2     0   503  2.573749618E+01  1.580684950E+01  1.202239137E+01  3.285385205E+01  4.750000000E+00  0.00000E+00  9.000E+00
      21     1     1     2   512   501  1.718926924E+00  3.609855311E+00  2.553366443E+00  4.743990443E+00  9.424321831E-08  0.00000E+00  9.000E+00
#rwgt            1           9 -0.17672375212542962                2      959688           0
</event>
<event>
      6   9999  3.45752E-01  7.08455E+00 -1.00000E+00  2.04476E-01
      21    -1     0     0   511   502  0.000000000E+00  0.000000000E+00  1.638444920E+02  1.638444920E+02  0.000000000E+00  0.00000E+00  9.000E+00
      21    -1     0     0   502   503  0.000000000E+00  0.000000000E+00 -3.470398070E+02  3.470398070E+02  0.000000000E+00  0.00000E+00  9.000E+00
      25     1     1     2     0     0  6.759823685E+00  6.701361876E+00 -3.275920233E+02  3.507586092E+02  1.249978588E+02  0.00000E+00  9.000E+00
       5     1     1     2   501     0 -3.210162167E+00  2.749559590E+00  4.282816310E+01  4.329756660E+01  4.750000000E+00  0.00000E+00  9.000E+00
      -5     1     1     2     0   503 -9.650999052E-01 -2.854643698E+00 -6.460931141E+00  8.566594404E+00  4.750000000E+00  0.00000E+00  9.000E+00
      21     1     1     2   511   501 -2.584561614E+00 -6.596277767E+00  1.080294764E+02  1.082615288E+02  0.000000000E+00  0.00000E+00  9.000E+00
#rwgt            1           9   1.7727627169185662E-003           2      966344           0
</event>
<event>
      6   9999  3.45752E-01  2.58575E+01 -1.00000E+00  1.52137E-01
      21    -1     0     0   501   512  0.000000000E+00  0.000000000E+00  1.830862391E+02  1.830862391E+02  0.000000000E+00  0.00000E+00  9.000E+00
      21    -1     0     0   502   503  0.000000000E+00  0.000000000E+00 -9.196625677E+02  9.196625677E+02  0.000000000E+00  0.00000E+00  9.000E+00
      25     1     1     2     0     0  2.475565073E+00 -2.255006743E+01 -3.136537972E+02  3.384067744E+02  1.250032258E+02  0.00000E+00  9.000E+00
       5     1     1     2   501     0  3.536504920E+00 -3.370547639E+00  1.599382092E+00  6.999141484E+00  4.750000000E+00  0.00000E+00  9.000E+00
      -5     1     1     2     0   503  9.531535623E+00  5.256421876E+00 -5.898678074E+02  5.899873497E+02  4.750000000E+00  0.00000E+00  9.000E+00
      21     1     1     2   502   512 -1.554360562E+01  2.066419320E+01  1.653458939E+02  1.673555412E+02  3.303624740E-06  0.00000E+00  9.000E+00
#rwgt            1           9   1.0092532673780859E-003           2      969928           0
</event>
<event>
      6   9999  3.45752E-01  9.36741E+00 -1.00000E+00  1.90234E-01
      21    -1     0     0   502   503  0.000000000E+00  0.000000000E+00  7.429842198E+00  7.429842198E+00  0.000000000E+00  0.00000E+00  9.000E+00
      21    -1     0     0   511   502  0.000000000E+00  0.000000000E+00 -1.409129765E+03  1.409129765E+03  0.000000000E+00  0.00000E+00  9.000E+00
      25     1     1     2     0     0 -4.042867127E+00  8.150025262E+00 -5.697558011E+02  5.833777031E+02  1.250004156E+02  0.00000E+00  9.000E+00
       5     1     1     2   501     0 -8.313541521E-01 -1.927897040E+00 -3.699571208E+01  3.735844147E+01  4.750000000E+00  0.00000E+00  9.000E+00
      -5     1     1     2     0   503 -2.736116300E+00 -1.168391838E+01 -1.021924177E+02  1.030041407E+02  4.750000000E+00  0.00000E+00  9.000E+00
      21     1     1     2   511   501  7.610337579E+00  5.461790157E+00 -6.927559915E+02  6.928193214E+02  0.000000000E+00  0.00000E+00  9.000E+00
#rwgt            1           9  0.11987494794965398                2      971208           0
</event>
<event>
      6   9999  3.45752E-01  7.66097E+00 -1.00000E+00  2.00268E-01
      21    -1     0     0   501   512  0.000000000E+00  0.000000000E+00  1.124984365E+01  1.124984365E+01  0.000000000E+00  0.00000E+00  9.000E+00
      21    -1     0     0   502   503  0.000000000E+00  0.000000000E+00 -7.923259888E+02  7.923259888E+02  0.000000000E+00  0.00000E+00  9.000E+00
      25     1     1     2     0     0  1.658857060E+01  4.038583995E+00 -6.386587884E+02  6.510000545E+02  1.249981284E+02  0.00000E+00  9.000E+00
       5     1     1     2   501     0 -3.029419667E-01 -1.735984576E-01  1.703512445E+00  5.058296641E+00  4.750000000E+00  0.00000E+00  9.000E+00
      -5     1     1     2     0   503 -9.679373669E+00  1.416810566E-02 -1.357215273E+02  1.361491313E+02  4.750000000E+00  0.00000E+00  9.000E+00
      21     1     1     2   502   512 -6.606254969E+00 -3.879153643E+00 -8.399341770E+00  1.136834992E+01  4.129530925E-07  0.00000E+00  9.000E+00
#rwgt            1           9   3.8477920772146826E-003           2      973709           0
</event>
<event>
      6   9999  3.45752E-01  1.14435E+01 -1.00000E+00  1.81229E-01
      21    -1     0     0   501   502  0.000000000E+00  0.000000000E+00  3.309379237E+01  3.309379237E+01  0.000000000E+00  0.00000E+00  9.000E+00
      21    -1     0     0   511   503  0.000000000E+00  0.000000000E+00 -2.110086884E+03  2.110086884E+03  0.000000000E+00  0.00000E+00  9.000E+00
      25     1     1     2     0     0 -1.002389319E+01 -1.227317820E+01 -7.311755852E+02  7.419527217E+02  1.249999818E+02  0.00000E+00  9.000E+00
       5     1     1     2   501     0  5.340979410E+00 -7.839484116E+00  2.642828635E+01  2.847806861E+01  4.750000000E+00  0.00000E+00  9.000E+00
      -5     1     1     2     0   503  1.352435449E+01  1.284745475E+01 -4.257580219E+02  4.261929387E+02  4.750000000E+00  0.00000E+00  9.000E+00
      21     1     1     2   511   502 -8.841440716E+00  7.265207568E+00 -9.464877707E+02  9.465569472E+02  1.078959322E-05  0.00000E+00  9.000E+00
#rwgt            1           9   5.9579302839689657E-003           2      977816           0
</event>
<event>
      6   9999  3.45752E-01  2.20628E+01 -1.00000E+00  1.57023E-01
      21    -1     0     0   512   502  0.000000000E+00  0.000000000E+00  4.106594047E+02  4.106594047E+02  0.000000000E+00  0.00000E+00  9.000E+00
      21    -1     0     0   502   503  0.000000000E+00  0.000000000E+00 -1.546969669E+03  1.546969669E+03  0.000000000E+00  0.00000E+00  9.000E+00
      25     1     1     2     0     0 -1.474541368E+01 -1.404860105E+01 -1.583881785E+01  1.276356998E+02  1.250008531E+02  0.00000E+00  9.000E+00
       5     1     1     2   501     0 -2.847217290E+00 -6.989478572E+00  2.262359455E+01  2.431766822E+01  4.750000000E+00  0.00000E+00  9.000E+00
      -5     1     1     2     0   503 -1.501609318E+00  9.984622407E+00 -1.473996904E+03  1.474039139E+03  4.750000000E+00  0.00000E+00  9.000E+00
      21     1     1     2   512   501  1.909424028E+01  1.105345722E+01  3.309018634E+02  3.316365664E+02  8.529922400E-06  0.00000E+00  9.000E+00
#rwgt            1           9   4.9313181719522981E-005           2      981054           0
</event>
<event>
      6   9999 -3.45752E-01  2.83910E+01 -1.00000E+00  1.49404E-01
      21    -1     0     0   501   511  0.000000000E+00  0.000000000E+00  1.208089129E+01  1.208089129E+01  0.000000000E+00  0.00000E+00  9.000E+00
      21    -1     0     0   502   503  0.000000000E+00  0.000000000E+00 -7.542541232E+02  7.542541232E+02  0.000000000E+00  0.00000E+00  9.000E+00
      25     1     1     2     0     0  1.559341505E+01  7.595606658E-01 -6.133400841E+02  6.261433942E+02  1.250030391E+02  0.00000E+00  9.000E+00
       5     1     1     2   501     0  1.799930938E+00  2.198465546E-01 -7.302700840E+00  8.898315764E+00  4.750000000E+00  0.00000E+00  9.000E+00
      -5     1     1     2     0   503  1.094720551E+01 -2.670437968E+00 -8.034609864E+01  8.127133944E+01  4.750000000E+00  0.00000E+00  9.000E+00
      21     1     1     2   502   511 -2.834055150E+01  1.691030748E+00 -4.118434834E+01  5.002196510E+01  8.259061849E-07  0.00000E+00  9.000E+00
#rwgt            1           9  -4.3249051900363586E-004           2      985334           0
</event>
<event>
      6   9999  3.45752E-01  1.17180E+01 -1.00000E+00  1.80221E-01
      21    -1     0     0   501   502  0.000000000E+00  0.000000000E+00  1.056569879E+01  1.056569879E+01  0.000000000E+00  0.00000E+00  9.000E+00
      21    -1     0     0   502   512  0.000000000E+00  0.000000000E+00 -1.080205334E+03  1.080205334E+03  0.000000000E+00  0.00000E+00  9.000E+00
      25     1     1     2     0     0  4.368006446E+00  7.114755418E+00 -7.633737346E+02  7.735855536E+02  1.250018033E+02  0.00000E+00  9.000E+00
       5     1     1     2   501     0 -2.760494567E-01  3.235409152E+00  3.521696256E+00  6.746029958E+00  4.750000000E+00  0.00000E+00  9.000E+00
      -5     1     1     2     0   503  1.543366095E+00 -7.620494526E-02 -3.051452353E+01  3.092064735E+01  4.750000000E+00  0.00000E+00  9.000E+00
      21     1     1     2   503   512 -5.635323085E+00 -1.027395962E+01 -2.792730731E+02  2.795188017E+02  0.000000000E+00  0.00000E+00  9.000E+00
#rwgt            1           9   9.7095229597703738E-006           2      986546           0
</event>
<event>
      6   9999  3.45752E-01  8.85637E+00 -1.00000E+00  1.92926E-01
      21    -1     0     0   501   511  0.000000000E+00  0.000000000E+00  3.532246735E+02  3.532246735E+02  0.000000000E+00  0.00000E+00  9.000E+00
      21    -1     0     0   502   503  0.000000000E+00  0.000000000E+00 -6.423979334E+01  6.423979334E+01  0.000000000E+00  0.00000E+00  9.000E+00
      25     1     1     2     0     0 -4.763336623E+01  6.103341869E+01  1.830003082E+02  2.347509128E+02  1.249994499E+02  0.00000E+00  9.000E+00
       5     1     1     2   501     0 -2.824638378E-01  6.025338311E-01  6.820061191E+01  6.836906317E+01  4.750000000E+00  0.00000E+00  9.000E+00
      -5     1     1     2     0   503  4.777242982E+01 -7.049116471E+01  1.082812101E+01  8.597104197E+01  4.750000000E+00  0.00000E+00  9.000E+00
      21     1     1     2   502   511  1.434002472E-01  8.855212190E+00  2.695583898E+01  2.837344888E+01  3.371747881E-07  0.00000E+00  9.000E+00
#rwgt            1           9  0.42751994675016231                2      989200           0
</event>
<event>
      6   9999  3.45752E-01  1.43645E+01 -1.00000E+00  1.72017E-01
      21    -1     0     0   501   502  0.000000000E+00  0.000000000E+00  2.215644817E+01  2.215644817E+01  0.000000000E+00  0.00000E+00  9.000E+00
       2    -1     0     0   502     0  0.000000000E+00  0.000000000E+00 -3.142184998E+03  3.142184998E+03  0.000000000E+00  0.00000E+00  9.000E+00
      25     1     1     2     0     0 -4.816858130E+01 -3.346839220E+01 -3.837333986E+02  4.078183619E+02  1.249965984E+02  0.00000E+00  9.000E+00
       5     1     1     2   501     0 -3.530290492E+00  1.521041225E+00  7.255605940E+00  9.485928258E+00  4.750000000E+00  0.00000E+00  9.000E+00
      -5     1     1     2     0   503  4.691201891E+01  4.549077686E+01 -6.226289545E+02  6.260667103E+02  4.750000000E+00  0.00000E+00  9.000E+00
       2     1     1     2   503     0  4.786852881E+00 -1.354342588E+01 -2.120921802E+03  2.120970445E+03  4.315837288E-05  0.00000E+00  9.000E+00
#rwgt            1           9   2.6383615846919983E-004           2      993082           0
</event>
<event>
      6   9999  3.45752E-01  2.99884E+00 -1.00000E+00  2.76956E-01
      21    -1     0     0   501   511  0.000000000E+00  0.000000000E+00  1.052667275E+01  1.052667275E+01  0.000000000E+00  0.00000E+00  9.000E+00
      21    -1     0     0   502   503  0.000000000E+00  0.000000000E+00 -6.343746183E+02  6.343746183E+02  0.000000000E+00  0.00000E+00  9.000E+00
      25     1     1     2     0     0  1.179920638E+00 -7.435729360E+00 -6.104206165E+02  6.231345646E+02  1.250066965E+02  0.00000E+00  9.000E+00
       5     1     1     2   501     0  4.331180877E-01 -9.625786565E-01 -1.333265161E+00  5.045220009E+00  4.750000000E+00  0.00000E+00  9.000E+00
      -5     1     1     2     0   503 -1.109552533E+00  5.442038908E+00 -1.155868340E+01  1.367525342E+01  4.750000000E+00  0.00000E+00  9.000E+00
      21     1     1     2   502   511 -5.034861927E-01  2.956269109E+00 -5.353804419E-01  3.046253044E+00  1.260007510E-07  0.00000E+00  9.000E+00
#rwgt            1           9   2.6212099491982325E-004           2      995106           0
</event>
<event>
      6   9999 -3.45752E-01  6.50789E+00 -1.00000E+00  2.09258E-01
      21    -1     0     0   501   502  0.000000000E+00  0.000000000E+00  9.535637923E+00  9.535637923E+00  0.000000000E+00  0.00000E+00  9.000E+00
       2    -1     0     0   502     0  0.000000000E+00  0.000000000E+00 -2.030108873E+03  2.030108873E+03  0.000000000E+00  0.00000E+00  9.000E+00
      25     1     1     2     0     0  1.025758049E+01  1.807332553E+01 -4.722168864E+02  4.889144396E+02  1.249667091E+02  0.00000E+00  9.000E+00
       5     1     1     2   501     0  2.169619687E-01  1.186231996E-01 -5.024455428E+00  6.918727940E+00  4.750000000E+00  0.00000E+00  9.000E+00
      -5     1     1     2     0   503 -4.286222302E+00 -1.617767429E+01 -3.272880803E+02  3.277501164E+02  4.750000000E+00  0.00000E+00  9.000E+00
       2     1     1     2   503     0 -6.188320157E+00 -2.014274442E+00 -1.216043813E+03  1.216061227E+03  0.000000000E+00  0.00000E+00  9.000E+00
#rwgt            1           9  -1.9730243477898723E-004           2     1000486           0
</event>
<event>
      6   9999  3.45752E-01  8.76198E+00 -1.00000E+00  1.93450E-01
      21    -1     0     0   501   502  0.000000000E+00  0.000000000E+00  8.190996747E+00  8.190996747E+00  0.000000000E+00  0.00000E+00  9.000E+00
      21    -1     0     0   502   511  0.000000000E+00  0.000000000E+00 -7.715741983E+02  7.715741983E+02  0.000000000E+00  0.00000E+00  9.000E+00
      25     1     1     2     0     0  5.939767674E+00 -5.769083246E-01 -6.995013267E+02  7.106073255E+02  1.250002054E+02  0.00000E+00  9.000E+00
       5     1     1     2   501     0  7.071822647E-01  2.302703142E-01 -1.812982603E+00  5.138339916E+00  4.750000000E+00  0.00000E+00  9.000E+00
      -5     1     1     2     0   503  1.445523545E+00  3.705838715E+00 -1.669841995E+01  1.781074135E+01  4.750000000E+00  0.00000E+00  9.000E+00
      21     1     1     2   503   511 -8.092473483E+00 -3.359200705E+00 -4.537047226E+01  4.620878823E+01  6.743495762E-07  0.00000E+00  9.000E+00
#rwgt            1           9   5.1562871060227848E-004           2     1003831           0
</event>
<event>
      6   9999  3.45752E-01  4.42391E+01 -1.00000E+00  1.37695E-01
      21    -1     0     0   501   502  0.000000000E+00  0.000000000E+00  3.021701342E+01  3.021701342E+01  0.000000000E+00  0.00000E+00  9.000E+00
      21    -1     0     0   512   503  0.000000000E+00  0.000000000E+00 -3.860875229E+02  3.860875229E+02  0.000000000E+00  0.00000E+00  9.000E+00
      25     1     1     2     0     0 -4.507959724E+01  8.836919607E+00 -1.843384975E+02  2.274108859E+02  1.249990724E+02  0.00000E+00  9.000E+00
       5     1     1     2   501     0 -2.412540568E+00  6.264136017E-01  4.328499012E-01  5.381691651E+00  4.750000000E+00  0.00000E+00  9.000E+00
      -5     1     1     2     0   503  4.003063317E+00 -1.351816365E+00 -4.383250822E-01  6.372327069E+00  4.750000000E+00  0.00000E+00  9.000E+00
      21     1     1     2   512   502  4.348907449E+01 -8.111516845E+00 -1.715265368E+02  1.771396318E+02  0.000000000E+00  0.00000E+00  9.000E+00
#rwgt            1           9   2.7926258143179186E-003           2     1006118           0
</event>
<event>
      6   9999  3.45752E-01  8.97896E+00 -1.00000E+00  1.92259E-01
      21    -1     0     0   511   502  0.000000000E+00  0.000000000E+00  3.844353612E+01  3.844353612E+01  0.000000000E+00  0.00000E+00  9.000E+00
      21    -1     0     0   502   503  0.000000000E+00  0.000000000E+00 -1.920551137E+03  1.920551137E+03  0.000000000E+00  0.00000E+00  9.000E+00
      25     1     1     2     0     0 -1.449971190E+02 -1.692431739E+02 -1.322872493E+03  1.347324628E+03  1.249984094E+02  0.00000E+00  9.000E+00
       5     1     1     2   501     0  1.512347789E+00 -4.846227724E-01  3.802862861E+00  6.288586567E+00  4.750000000E+00  0.00000E+00  9.000E+00
      -5     1     1     2     0   503  1.380207625E+02  1.626027454E+02 -5.361795889E+02  5.770619531E+02  4.750000000E+00  0.00000E+00  9.000E+00
      21     1     1     2   511   501  5.464008783E+00  7.125051259E+00 -2.685838169E+01  2.831950590E+01  0.000000000E+00  0.00000E+00  9.000E+00
#rwgt            1           9   6.2459376640741529E-004           2     1006757           0
</event>
<event>
      6   9999  3.45752E-01  7.45989E+00 -1.00000E+00  2.01679E-01
      21    -1     0     0   501   502  0.000000000E+00  0.000000000E+00  1.861783262E+01  1.861783262E+01  0.000000000E+00  0.00000E+00  9.000E+00
      21    -1     0     0   502   512  0.000000000E+00  0.000000000E+00 -1.426860688E+03  1.426860688E+03  0.000000000E+00  0.00000E+00  9.000E+00
      25     1     1     2     0     0 -4.210600724E+01  1.267891680E+01 -3.137986922E+02  3.406302302E+02  1.250026546E+02  0.00000E+00  9.000E+00
       5     1     1     2   501     0 -1.874831422E+00  1.451143993E+00  3.022909091E+00  6.109115412E+00  4.750000000E+00  0.00000E+00  9.000E+00
      -5     1     1     2     0   503  3.654037766E+01 -1.359198539E+01 -6.358285652E+02  6.370403975E+02  4.750000000E+00  0.00000E+00  9.000E+00
      21     1     1     2   503   512  7.440461000E+00 -5.380753974E-01 -4.616385076E+02  4.616987780E+02  5.394796609E-06  0.00000E+00  9.000E+00
#rwgt            1           9   3.4514088860854413E-004           2     1010924           0
</event>
<event>
      6   9999 -3.45752E-01  2.39731E+00 -1.00000E+00  3.05143E-01
      21    -1     0     0   501   502  0.000000000E+00  0.000000000E+00  1.083854984E+01  1.083854984E+01  0.000000000E+00  0.00000E+00  9.000E+00
      21    -1     0     0   511   503  0.000000000E+00  0.000000000E+00 -8.461107641E+02  8.461107641E+02  0.000000000E+00  0.00000E+00  9.000E+00
      25     1     1     2     0     0  1.515098551E+01 -1.719681544E+01 -7.437439276E+02  7.545234433E+02  1.250012551E+02  0.00000E+00  9.000E+00
       5     1     1     2   501     0  3.462040822E-03  7.308626316E-01  1.462821305E+00  5.023596156E+00  4.750000000E+00  0.00000E+00  9.000E+00
      -5     1     1     2     0   503 -1.749364466E+01  1.699059876E+01 -6.984362997E+01  7.413098676E+01  4.750000000E+00  0.00000E+00  9.000E+00
      21     1     1     2   511   502  2.339197110E+00 -5.246459441E-01 -2.314747795E+01  2.327128771E+01  0.000000000E+00  0.00000E+00  9.000E+00
#rwgt            1           9  -1.5140840041535388E-003           2     1014532           0
</event>
<event>
      6   9999  3.45752E-01  1.61186E+01 -1.00000E+00  1.67708E-01
      21    -1     0     0   512   502  0.000000000E+00  0.000000000E+00  2.326836007E+01  2.326836007E+01  0.000000000E+00  0.00000E+00  9.000E+00
      21    -1     0     0   502   503  0.000000000E+00  0.000000000E+00 -8.576110112E+02  8.576110112E+02  0.000000000E+00  0.00000E+00  9.000E+00
      25     1     1     2     0     0  1.307835374E+01  3.839404113E+01 -7.269802472E+02  7.387629873E+02  1.250013037E+02  0.00000E+00  9.000E+00
       5     1     1     2   501     0  3.299268285E+00  1.430802890E+00  1.795683061E+00  6.222487106E+00  4.750000000E+00  0.00000E+00  9.000E+00
      -5     1     1     2     0   503 -3.209349781E+00 -3.052939054E+01 -1.147134836E+02  1.188448124E+02  4.750000000E+00  0.00000E+00  9.000E+00
      21     1     1     2   512   501 -1.316827224E+01 -9.295453480E+00  5.555396582E+00  1.704908445E+01  3.908537939E-07  0.00000E+00  9.000E+00
#rwgt            1           9  0.12489739692005757                2     1021398           0
</event>
<event>
      6   9999  3.45752E-01  9.13378E+00 -1.00000E+00  1.91436E-01
      21    -1     0     0   511   502  0.000000000E+00  0.000000000E+00  3.235183379E+02  3.235183379E+02  0.000000000E+00  0.00000E+00  9.000E+00
      21    -1     0     0   502   503  0.000000000E+00  0.000000000E+00 -1.763539158E+01  1.763539158E+01  0.000000000E+00  0.00000E+00  9.000E+00
      25     1     1     2     0     0  8.287421372E+00  2.820256568E-01  2.249105366E+02  2.574477682E+02  1.250033718E+02  0.00000E+00  9.000E+00
       5     1     1     2   501     0 -2.894259804E-02  1.132291793E+00  2.339803824E+01  2.390216760E+01  4.750000000E+00  0.00000E+00  9.000E+00
      -5     1     1     2     0   503 -1.678047489E+00  4.920026991E+00  2.543309923E+01  2.638991371E+01  4.750000000E+00  0.00000E+00  9.000E+00
      21     1     1     2   511   501 -6.580431285E+00 -6.334344441E+00  3.214127222E+01  3.341387998E+01  6.743495762E-07  0.00000E+00  9.000E+00
#rwgt            1           9  0.11564898072840467                2     1023247           0
</event>
<event>
      6   9999  3.45752E-01  1.01846E+01 -1.00000E+00  1.86361E-01
      21    -1     0     0   501   502  0.000000000E+00  0.000000000E+00  1.000664093E+01  1.000664093E+01  0.000000000E+00  0.00000E+00  9.000E+00
      21    -1     0     0   502   512  0.000000000E+00  0.000000000E+00 -8.195627956E+02  8.195627956E+02  0.000000000E+00  0.00000E+00  9.000E+00
      25     1     1     2     0     0 -7.702959419E+00 -3.930491659E+01 -6.045888926E+02  6.186731870E+02  1.249982848E+02  0.00000E+00  9.000E+00
       5     1     1     2   501     0  7.275777912E+00  3.243500323E+01 -1.323036170E+02  1.364982635E+02  4.750000000E+00  0.00000E+00  9.000E+00
      -5     1     1     2     0   503 -1.091483130E-01 -3.300556279E+00 -2.665366543E+01  2.727427297E+01  4.750000000E+00  0.00000E+00  9.000E+00
      21     1     1     2   503   512  5.363298199E-01  1.017046964E+01 -4.600997967E+01  4.712371305E+01  6.743495762E-07  0.00000E+00  9.000E+00
#rwgt            1           9   5.2209430838583680E-004           2     1025975           0
</event>
<event>
      6   9999  3.45752E-01  1.15041E+01 -1.00000E+00  1.81004E-01
      21    -1     0     0   501   502  0.000000000E+00  0.000000000E+00  2.069133015E+01  2.069133015E+01  0.000000000E+00  0.00000E+00  9.000E+00
      21    -1     0     0   502   511  0.000000000E+00  0.000000000E+00 -1.154048266E+03  1.154048266E+03  0.000000000E+00  0.00000E+00  9.000E+00
      25     1     1     2     0     0 -4.859595607E-01  5.986730456E+00 -1.000361779E+03  1.008161478E+03  1.250191961E+02  0.00000E+00  9.000E+00
       5     1     1     2   501     0  3.566297713E+00  8.238293199E+00  1.441808098E+01  1.763608554E+01  4.750000000E+00  0.00000E+00  9.000E+00
      -5     1     1     2     0   503  2.135668273E+00 -3.971403768E+00 -2.078904679E+01  2.179633211E+01  4.750000000E+00  0.00000E+00  9.000E+00
      21     1     1     2   503   511 -5.216006425E+00 -1.025361989E+01 -1.266241904E+02  1.271457001E+02  1.348699152E-06  0.00000E+00  9.000E+00
#rwgt            1           9   5.7850944103736573E-006           2     1028612           0
</event>
<event>
      6   9999  3.45752E-01  7.66915E+00 -1.00000E+00  2.00212E-01
      21    -1     0     0   501   502  0.000000000E+00  0.000000000E+00  3.857560610E+02  3.857560610E+02  0.000000000E+00  0.00000E+00  9.000E+00
      21    -1     0     0   502   512  0.000000000E+00  0.000000000E+00 -3.437014222E+01  3.437014222E+01  0.000000000E+00  0.00000E+00  9.000E+00
      25     1     1     2     0     0  6.289358891E+00 -2.436850727E+01  1.286245003E+02  1.811141178E+02  1.249987257E+02  0.00000E+00  9.000E+00
       5     1     1     2   501     0  3.400891570E+00 -2.131881859E-01  2.082563367E+02  2.083383685E+02  4.750000000E+00  0.00000E+00  9.000E+00
      -5     1     1     2     0   503 -6.848831774E+00  1.745834151E+01  9.966074431E+00  2.176201563E+01  4.750000000E+00  0.00000E+00  9.000E+00
      21     1     1     2   503   512 -2.841418688E+00  7.123353949E+00  4.539007411E+00  8.911701292E+00  1.192092896E-07  0.00000E+00  9.000E+00
#rwgt            1           9   3.1237377305177002E-004           2     1031083           0
</event>
<event>
      6   9999 -3.45752E-01  1.58648E+01 -1.00000E+00  1.68288E-01
      21    -1     0     0   501   502  0.000000000E+00  0.000000000E+00  2.084175148E+01  2.084175148E+01  0.000000000E+00  0.00000E+00  9.000E+00
      21    -1     0     0   511   503  0.000000000E+00  0.000000000E+00 -1.011397359E+03  1.011397359E+03  0.000000000E+00  0.00000E+00  9.000E+00
      25     1     1     2     0     0 -2.584090995E+00 -2.114417113E+01 -5.845476839E+02  5.981424749E+02  1.249986880E+02  0.00000E+00  9.000E+00
       5     1     1     2   501     0  1.451951969E+00 -1.283816182E+00  1.288519453E+01  1.386892521E+01  4.750000000E+00  0.00000E+00  9.000E+00
      -5     1     1     2     0   503 -1.818814049E+00  6.840057380E+00 -3.163312143E+02  3.164460367E+02  4.750000000E+00  0.00000E+00  9.000E+00
      21     1     1     2   511   502  2.950953074E+00  1.558792993E+01 -1.025619034E+02  1.037816733E+02  1.907348633E-06  0.00000E+00  9.000E+00
#rwgt            1           9  -3.2575616983926322E-004           2     1034559           0
</event>
<event>
      6   9999  3.45752E-01  3.79904E+01 -1.00000E+00  1.41497E-01
      21    -1     0     0   512   502  0.000000000E+00  0.000000000E+00  2.924292541E+02  2.924292541E+02  0.000000000E+00  0.00000E+00  9.000E+00
      21    -1     0     0   502   503  0.000000000E+00  0.000000000E+00 -3.222403964E+02  3.222403964E+02  0.000000000E+00  0.00000E+00  9.000E+00
      25     1     1     2     0     0  2.572393071E+01 -1.175985670E+00 -2.963446366E+02  3.226571627E+02  1.249975899E+02  0.00000E+00  9.000E+00
       5     1     1     2   501     0  8.756596047E+00  1.834010964E+01  1.742522659E+02  1.754977272E+02  4.750000000E+00  0.00000E+00  9.000E+00
      -5     1     1     2     0   503 -5.215494367E+00  7.060354109E+00 -5.652826282E+00  1.147026271E+01  4.750000000E+00  0.00000E+00  9.000E+00
      21     1     1     2   512   501 -2.926503239E+01 -2.422447808E+01  9.793405470E+01  1.050444978E+02  0.000000000E+00  0.00000E+00  9.000E+00
#rwgt            1           9   3.8130219930202484E-004           2     1036462           0
</event>
<event>
      6   9999  3.45752E-01  3.36370E+00 -1.00000E+00  2.64528E-01
      21    -1     0     0   501   502  0.000000000E+00  0.000000000E+00  1.432293650E+01  1.432293650E+01  0.000000000E+00  0.00000E+00  9.000E+00
      21    -1     0     0   502   511  0.000000000E+00  0.000000000E+00 -3.362378884E+02  3.362378884E+02  0.000000000E+00  0.00000E+00  9.000E+00
      25     1     1     2     0     0 -3.495589900E+00  3.414660398E+00 -2.857772381E+02  3.119584644E+02  1.250022985E+02  0.00000E+00  9.000E+00
       5     1     1     2   501     0 -1.963332843E-01 -8.500394222E-01 -1.116624515E+01  1.216588035E+01  4.750000000E+00  0.00000E+00  9.000E+00
      -5     1     1     2     0   503  2.165970128E+00  4.330383368E-01 -1.345325082E+01  1.443715368E+01  4.750000000E+00  0.00000E+00  9.000E+00
      21     1     1     2   503   511  1.525953056E+00 -2.997659312E+00 -1.151821786E+01  1.199932651E+01  0.000000000E+00  0.00000E+00  9.000E+00
#rwgt            1           9   1.1716013894727900E-002           2     1038030           0
</event>
<event>
      6   9999  3.45752E-01  1.29627E+01 -1.00000E+00  1.76055E-01
      21    -1     0     0   512   503  0.000000000E+00  0.000000000E+00  4.531839600E+00  4.531839600E+00  0.000000000E+00  0.00000E+00  9.000E+00
      21    -1     0     0   501   502  0.000000000E+00  0.000000000E+00 -1.439428339E+03  1.439428339E+03  0.000000000E+00  0.00000E+00  9.000E+00
      25     1     1     2     0     0 -7.425247695E+00  9.197394238E+00 -9.692039466E+02  9.773027958E+02  1.249989533E+02  0.00000E+00  9.000E+00
       5     1     1     2   501     0 -1.506106548E+00  1.014033273E-01 -1.948060221E+02  1.948697704E+02  4.750000000E+00  0.00000E+00  9.000E+00
      -5     1     1     2     0   503  4.113528482E+00  2.735316190E+00 -1.598767197E+02  1.600235328E+02  4.750000000E+00  0.00000E+00  9.000E+00
      21     1     1     2   512   502  4.817825761E+00 -1.203411376E+01 -1.110098114E+02  1.117640799E+02  0.000000000E+00  0.00000E+00  9.000E+00
#rwgt            1           9   3.2199201069688121                2     1042682           0
</event>
<event>
      6   9999 -3.45752E-01  2.72998E+01 -1.00000E+00  1.50537E-01
      21    -1     0     0   511   502  0.000000000E+00  0.000000000E+00  3.060387203E+01  3.060387203E+01  0.000000000E+00  0.00000E+00  9.000E+00
      21    -1     0     0   502   503  0.000000000E+00  0.000000000E+00 -1.167945630E+03  1.167945630E+03  0.000000000E+00  0.00000E+00  9.000E+00
      25     1     1     2     0     0 -3.303126922E+01 -4.528249578E+01 -3.275538238E+02  3.550485272E+02  1.250055201E+02  0.00000E+00  9.000E+00
       5     1     1     2   501     0  1.592491589E+00  1.164495681E+00  1.062391676E+01  1.180348199E+01  4.750000000E+00  0.00000E+00  9.000E+00
      -5     1     1     2     0   503  5.367104951E+01  5.996111652E+01 -7.713565565E+02  7.755574878E+02  4.750000000E+00  0.00000E+00  9.000E+00
      21     1     1     2   511   501 -2.223227188E+01 -1.584311641E+01 -4.905529419E+01  5.614000480E+01  6.743495762E-07  0.00000E+00  9.000E+00
#rwgt            1           9  -2.1500431523249918E-004           2     1044477           0
</event>
<event>
      6   9999  3.45752E-01  1.32418E+01 -1.00000E+00  1.75201E-01
      21    -1     0     0   501   502  0.000000000E+00  0.000000000E+00  1.785617565E+03  1.785617565E+03  0.000000000E+00  0.00000E+00  9.000E+00
      21    -1     0     0   512   503  0.000000000E+00  0.000000000E+00 -2.029036206E+01  2.029036206E+01  0.000000000E+00  0.00000E+00  9.000E+00
      25     1     1     2     0     0  6.426457176E+01 -4.653807355E+01  1.094565998E+03  1.104533244E+03  1.249929453E+02  0.00000E+00  9.000E+00
       5     1     1     2   501     0  1.358610950E+00  1.762104163E-01  3.606074658E+02  3.606413506E+02  4.750000000E+00  0.00000E+00  9.000E+00
      -5     1     1     2     0   503 -6.115415318E+01  5.882672598E+01  3.152799303E+02  3.265339356E+02  4.750000000E+00  0.00000E+00  9.000E+00
      21     1     1     2   512   502 -4.469029525E+00 -1.246486285E+01 -5.126191039E+00  1.419939665E+01  1.016779072E-06  0.00000E+00  9.000E+00
#rwgt            1           9  0.39232481413797321                2     1046137           0
</event>
<event>
      6   9999  3.45752E-01  4.16014E+01 -1.00000E+00  1.39204E-01
      21    -1     0     0   501   502  0.000000000E+00  0.000000000E+00  7.321943551E+02  7.321943551E+02  0.000000000E+00  0.00000E+00  9.000E+00
      21    -1     0     0   511   503  0.000000000E+00  0.000000000E+00 -4.378243751E+02  4.378243751E+02  0.000000000E+00  0.00000E+00  9.000E+00
      25     1     1     2     0     0 -5.178083751E+00 -6.207667340E+01 -3.630339834E+02  3.889712192E+02  1.249984413E+02  0.00000E+00  9.000E+00
       5     1     1     2   501     0  1.301129415E+00  4.366898098E-01  6.955566283E+02  6.955742011E+02  4.750000000E+00  0.00000E+00  9.000E+00
      -5     1     1     2     0   503  2.322944328E+01  2.481394618E+01 -1.211816686E+01  3.639713489E+01  4.750000000E+00  0.00000E+00  9.000E+00
      21     1     1     2   511   502 -1.935248894E+01  3.682603742E+01 -2.603449811E+01  4.907617499E+01  4.768371582E-07  0.00000E+00  9.000E+00
#rwgt            1           9   1.1716463194107136E-004           2     1048377           0
</event>
<event>
      6   9999  3.45752E-01  3.48933E+00 -1.00000E+00  2.60804E-01
      21    -1     0     0   501   502  0.000000000E+00  0.000000000E+00  8.914177044E+00  8.914177044E+00  0.000000000E+00  0.00000E+00  9.000E+00
      21    -1     0     0   512   503  0.000000000E+00  0.000000000E+00 -9.554134195E+02  9.554134195E+02  0.000000000E+00  0.00000E+00  9.000E+00
      25     1     1     2     0     0  4.802101357E+00 -1.079502029E+01 -5.963663222E+02  6.094386040E+02  1.249921163E+02  0.00000E+00  9.000E+00
       5     1     1     2   501     0 -2.309666797E-01 -8.656707719E-01 -1.062282659E+00  4.949108601E+00  4.750000000E+00  0.00000E+00  9.000E+00
      -5     1     1     2     0   503 -7.773892744E+00  1.304552339E+01 -1.505382991E+02  1.513768842E+02  4.750000000E+00  0.00000E+00  9.000E+00
      21     1     1     2   512   502  3.202758066E+00 -1.384832329E+00 -1.985323385E+02  1.985629997E+02  2.697398305E-06  0.00000E+00  9.000E+00
#rwgt            1           9   1.2884908982251553E-002           2     1050653           0
</event>
<event>
      6   9999  3.45752E-01  2.99608E+00 -1.00000E+00  2.77060E-01
      21    -1     0     0   501   511  0.000000000E+00  0.000000000E+00  1.087745562E+01  1.087745562E+01  0.000000000E+00  0.00000E+00  9.000E+00
      21    -1     0     0   502   503  0.000000000E+00  0.000000000E+00 -7.906185972E+02  7.906185972E+02  0.000000000E+00  0.00000E+00  9.000E+00
      25     1     1     2     0     0 -3.016197999E+00  1.500176463E+00 -7.580078569E+02  7.682540090E+02  1.250078532E+02  0.00000E+00  9.000E+00
       5     1     1     2   501     0  2.210464618E-01  1.555744576E+00  3.301277567E+00  5.994175198E+00  4.750000000E+00  0.00000E+00  9.000E+00
      -5     1     1     2     0   503  1.093901045E+00 -5.897013624E-01 -2.324530457E+01  2.375817863E+01  4.750000000E+00  0.00000E+00  9.000E+00
      21     1     1     2   502   511  1.701250492E+00 -2.466219677E+00 -1.789257684E+00  3.489689928E+00  1.115100797E-07  0.00000E+00  9.000E+00
#rwgt            1           9   5.4471201975008500E-006           2     1056068           0
</event>
<event>
      6   9999  3.45752E-01  5.38485E+00 -1.00000E+00  2.20818E-01
       3    -1     0     0   501     0  0.000000000E+00  0.000000000E+00  1.957570444E+02  1.957570444E+02  0.000000000E+00  0.00000E+00  9.000E+00
      21    -1     0     0   502   503  0.000000000E+00  0.000000000E+00 -6.395424757E+02  6.395424757E+02  0.000000000E+00  0.00000E+00  9.000E+00
      25     1     1     2     0     0  3.121447642E+00 -1.764156982E+00 -5.832638954E+02  5.965186883E+02  1.249996725E+02  0.00000E+00  9.000E+00
       5     1     1     2   501     0  2.163139360E-01 -3.353309174E-02 -1.002360761E+01  1.109428347E+01  4.750000000E+00  0.00000E+00  9.000E+00
      -5     1     1     2     0   503  8.736414350E-01 -1.558011760E+00 -3.888890975E+01  3.921862378E+01  4.750000000E+00  0.00000E+00  9.000E+00
       3     1     1     2   502     0 -4.211403013E+00  3.355701834E+00  1.883909815E+02  1.884679245E+02  0.000000000E+00  0.00000E+00  9.000E+00
#rwgt            1           9   1.4071009657181803E-004           2     1061783           0
</event>
<event>
      6   9999  3.45752E-01  1.25993E+01 -1.00000E+00  1.77208E-01
       2    -1     0     0   501     0  0.000000000E+00  0.000000000E+00  2.587434945E+03  2.587434945E+03  0.000000000E+00  0.00000E+00  9.000E+00
      -2    -1     0     0     0   511  0.000000000E+00  0.000000000E+00 -1.078690407E+02  1.078690407E+02  0.000000000E+00  0.00000E+00  9.000E+00
      25     1     1     2     0     0  1.120337486E+02  3.653984328E+02  5.391747808E+02  6.726084433E+02  1.250003927E+02  0.00000E+00  9.000E+00
       5     1     1     2   501     0  3.778567045E+01 -1.647123387E+02  1.147750223E+03  1.160134065E+03  4.750000000E+00  0.00000E+00  9.000E+00
      -5     1     1     2     0   502 -1.384896233E+02 -1.951743611E+02  8.079921989E+02  8.427018233E+02  4.750000000E+00  0.00000E+00  9.000E+00
      21     1     1     2   502   511 -1.132979578E+01 -5.511732947E+00 -1.535129887E+01  1.985965381E+01  4.768371582E-07  0.00000E+00  9.000E+00
#rwgt            1           4   2.7850390449021963E-004           2     1064742           0
</event>
<event>
      6   9999  3.45752E-01  4.60437E+00 -1.00000E+00  2.35845E-01
      21    -1     0     0   512   502  0.000000000E+00  0.000000000E+00  9.896828557E+01  9.896828557E+01  0.000000000E+00  0.00000E+00  9.000E+00
      21    -1     0     0   502   503  0.000000000E+00  0.000000000E+00 -8.490658536E+02  8.490658536E+02  0.000000000E+00  0.00000E+00  9.000E+00
      25     1     1     2     0     0 -4.289080143E+01  1.994441060E+01 -6.957327318E+02  7.084542330E+02  1.250038631E+02  0.00000E+00  9.000E+00
       5     1     1     2   501     0  4.473493939E+01 -2.324719824E+01 -8.526251728E+01  9.916605458E+01  4.750000000E+00  0.00000E+00  9.000E+00
      -5     1     1     2     0   503 -6.087819104E-01 -1.132759784E+00 -5.458544366E+01  5.480681454E+01  4.750000000E+00  0.00000E+00  9.000E+00
      21     1     1     2   512   501 -1.235356044E+00  4.435547425E+00  8.548312470E+01  8.560703706E+01  0.000000000E+00  0.00000E+00  9.000E+00
#rwgt            1           9   2.8174050973192459                2     1066128           0
</event>
<event>
      6   9999  3.45752E-01  8.25370E+00 -1.00000E+00  1.96423E-01
      21    -1     0     0   502   511  0.000000000E+00  0.000000000E+00  2.067023573E+02  2.067023573E+02  0.000000000E+00  0.00000E+00  9.000E+00
      21    -1     0     0   501   502  0.000000000E+00  0.000000000E+00 -7.455641927E+02  7.455641927E+02  0.000000000E+00  0.00000E+00  9.000E+00
      25     1     1     2     0     0 -1.164616173E+01 -1.307478196E+01 -7.184960880E+02  7.294976145E+02  1.249942317E+02  0.00000E+00  9.000E+00
       5     1     1     2   501     0 -5.266702187E-03 -3.346901441E-01 -4.634520534E+00  6.644796898E+00  4.750000000E+00  0.00000E+00  9.000E+00
      -5     1     1     2     0   503  4.677095751E+00  8.995600568E+00 -1.386347041E+01  1.782005516E+01  4.750000000E+00  0.00000E+00  9.000E+00
      21     1     1     2   503   511  6.974332682E+00  4.413871537E+00  1.981322435E+02  1.983040834E+02  2.697398305E-06  0.00000E+00  9.000E+00
#rwgt            1           9   7.2793952642721718E-004           2     1070522           0
</event>
<event>
      6   9999  3.45752E-01  4.53118E+00 -1.00000E+00  2.37150E-01
      21    -1     0     0   512   502  0.000000000E+00  0.000000000E+00  1.114728214E+01  1.114728214E+01  0.000000000E+00  0.00000E+00  9.000E+00
      21    -1     0     0   502   503  0.000000000E+00  0.000000000E+00 -6.867727475E+02  6.867727475E+02  0.000000000E+00  0.00000E+00  9.000E+00
      25     1     1     2     0     0 -3.670525140E+00  1.031906257E+00 -5.610438013E+02  5.748126798E+02  1.249997291E+02  0.00000E+00  9.000E+00
       5     1     1     2   501     0 -8.353142037E-01 -4.014296326E-02 -1.956089610E+00  5.204627541E+00  4.750000000E+00  0.00000E+00  9.000E+00
      -5     1     1     2     0   503  8.624095558E-01 -3.685648790E+00 -1.131754390E+02  1.133383000E+02  4.750000000E+00  0.00000E+00  9.000E+00
      21     1     1     2   512   501  3.643429788E+00  2.693885496E+00  5.498645829E-01  4.564422279E+00  2.552843347E-07  0.00000E+00  9.000E+00
#rwgt            1           9   9.7124575715125880E-003           2     1073501           0
</event>
<event>
      6   9999  3.45752E-01  8.00926E+00 -1.00000E+00  1.97956E-01
      21    -1     0     0   501   511  0.000000000E+00  0.000000000E+00  3.106922665E+01  3.106922665E+01  0.000000000E+00  0.00000E+00  9.000E+00
      21    -1     0     0   502   503  0.000000000E+00  0.000000000E+00 -9.699131798E+02  9.699131798E+02  0.000000000E+00  0.00000E+00  9.000E+00
      25     1     1     2     0     0  2.494127752E+01  3.868371082E-01 -5.340644626E+02  5.490655838E+02  1.250037926E+02  0.00000E+00  9.000E+00
       5     1     1     2   501     0 -2.213072686E+00  2.634205074E+00  1.264782440E+01  1.394154543E+01  4.750000000E+00  0.00000E+00  9.000E+00
      -5     1     1     2     0   503 -1.580801647E+01  1.011236062E+00 -4.259551436E+02  4.262760406E+02  4.750000000E+00  0.00000E+00  9.000E+00
      21     1     1     2   502   511 -6.920188362E+00 -4.032278245E+00  8.527828632E+00  1.169923656E+01  5.591411304E-07  0.00000E+00  9.000E+00
#rwgt            1           9  0.10599413377458423                2     1077548           0
</event>
<event>
      6   9999  3.45752E-01  9.52820E+00 -1.00000E+00  1.89432E-01
      21    -1     0     0   501   512  0.000000000E+00  0.000000000E+00  2.997044219E+01  2.997044219E+01  0.000000000E+00  0.00000E+00  9.000E+00
      21    -1     0     0   502   503  0.000000000E+00  0.000000000E+00 -8.383787630E+02  8.383787630E+02  0.000000000E+00  0.00000E+00  9.000E+00
      25     1     1     2     0     0 -3.453363162E+01  9.815341166E+00 -7.847408427E+02  7.954451059E+02  1.250032548E+02  0.00000E+00  9.000E+00
       5     1     1     2   501     0 -4.650381183E-01 -6.221609941E-01  1.200123620E+01  1.293041047E+01  4.750000000E+00  0.00000E+00  9.000E+00
      -5     1     1     2     0   503  2.818104931E+01 -2.536858397E+00 -4.022775630E+01  4.941095089E+01  4.750000000E+00  0.00000E+00  9.000E+00
      21     1     1     2   502   512  6.817620429E+00 -6.656321775E+00  4.559042011E+00  1.056273790E+01  6.049210766E-07  0.00000E+00  9.000E+00
#rwgt            1           9   1.4552727649883723E-004           2     1080899           0
</event>
<event>
      6   9999  3.45752E-01  2.60715E+01 -1.00000E+00  1.51892E-01
      21    -1     0     0   511   502  0.000000000E+00  0.000000000E+00  6.704989378E+02  6.704989378E+02  0.000000000E+00  0.00000E+00  9.000E+00
      21    -1     0     0   502   503  0.000000000E+00  0.000000000E+00 -9.875535747E+01  9.875535747E+01  0.000000000E+00  0.00000E+00  9.000E+00
      25     1     1     2     0     0 -2.926393726E+01  1.323562427E+01 -4.808621681E+01  1.377172554E+02  1.249887932E+02  0.00000E+00  9.000E+00
       5     1     1     2   501     0 -3.311756223E+00 -1.069926577E+01  5.496677556E+02  5.498023700E+02  4.750000000E+00  0.00000E+00  9.000E+00
      -5     1     1     2     0   503  7.375720498E+00 -9.221046602E+00  1.006610862E+01  1.622707602E+01  4.750000000E+00  0.00000E+00  9.000E+00
      21     1     1     2   511   501  2.519997299E+01  6.684688097E+00  6.009593292E+01  6.550759381E+01  0.000000000E+00  0.00000E+00  9.000E+00
#rwgt            1           9   3.0889384966085589E-005           2     1083961           0
</event>
<event>
      6   9999  3.45752E-01  3.30484E+00 -1.00000E+00  2.66362E-01
      21    -1     0     0   501   502  0.000000000E+00  0.000000000E+00  1.444702706E+01  1.444702706E+01  0.000000000E+00  0.00000E+00  9.000E+00
      21    -1     0     0   512   503  0.000000000E+00  0.000000000E+00 -1.035306964E+03  1.035306964E+03  0.000000000E+00  0.00000E+00  9.000E+00
      25     1     1     2     0     0 -1.418474994E+01  1.185289474E+01 -6.343800154E+02  6.468422735E+02  1.250008984E+02  0.00000E+00  9.000E+00
       5     1     1     2   501     0 -1.963417197E+00  1.279061624E+00  6.739508865E+00  8.571725933E+00  4.750000000E+00  0.00000E+00  9.000E+00
      -5     1     1     2     0   503  1.712564782E+01 -1.628893498E+01 -2.694111264E+02  2.704875871E+02  4.750000000E+00  0.00000E+00  9.000E+00
      21     1     1     2   512   502 -9.774806851E-01  3.156978624E+00 -1.238083039E+02  1.238524045E+02  1.348699152E-06  0.00000E+00  9.000E+00
#rwgt            1           9   1.0590908509291301E-002           2     1086258           0
</event>
<event>
      6   9999 -3.45752E-01  1.52972E+01 -1.00000E+00  1.69636E-01
      21    -1     0     0   501   511  0.000000000E+00  0.000000000E+00  2.476348254E+01  2.476348254E+01  0.000000000E+00  0.00000E+00  9.000E+00
      21    -1     0     0   502   503  0.000000000E+00  0.000000000E+00 -1.012761372E+03  1.012761372E+03  0.000000000E+00  0.00000E+00  9.000E+00
      25     1     1     2     0     0  2.079506161E+01  4.387584671E+01 -9.227174572E+02  9.324108401E+02  1.249997775E+02  0.00000E+00  9.000E+00
       5     1     1     2   501     0  3.375820543E-01  5.369642837E-02  1.192216658E+01  1.283812295E+01  4.750000000E+00  0.00000E+00  9.000E+00
      -5     1     1     2     0   503 -1.992351130E+01 -2.868023298E+01 -5.337701301E+01  6.396225515E+01  4.750000000E+00  0.00000E+00  9.000E+00
      21     1     1     2   502   511 -1.209132362E+00 -1.524931016E+01 -2.382558558E+01  2.831363611E+01  4.768371582E-07  0.00000E+00  9.000E+00
#rwgt            1           9  -2.6990308402607044E-004           2     1092520           0
</event>
<event>
      6   9999  3.45752E-01  2.54394E+01 -1.00000E+00  1.52625E-01
      21    -1     0     0   501   502  0.000000000E+00  0.000000000E+00  5.300267834E+01  5.300267834E+01  0.000000000E+00  0.00000E+00  9.000E+00
       2    -1     0     0   502     0  0.000000000E+00  0.000000000E+00 -3.016412801E+03  3.016412801E+03  0.000000000E+00  0.00000E+00  9.000E+00
      25     1     1     2     0     0  1.762533338E+01 -6.561757695E+01 -8.421601248E+01  1.653246419E+02  1.249943266E+02  0.00000E+00  9.000E+00
       5     1     1     2   501     0  4.967471338E+00 -2.436138125E+00  1.073354116E+01  1.297620693E+01  4.750000000E+00  0.00000E+00  9.000E+00
      -5     1     1     2     0   503 -5.919418475E+00  4.884015119E+01 -1.230900808E+03  1.231892756E+03  4.750000000E+00  0.00000E+00  9.000E+00
       2     1     1     2   503     0 -1.667338624E+01  1.921356389E+01 -1.659026844E+03  1.659221875E+03  0.000000000E+00  0.00000E+00  9.000E+00
#rwgt            1           9   4.7203572128608293E-004           2     1094742           0
</event>
<event>
      6   9999  3.45752E-01  4.46564E+00 -1.00000E+00  2.38350E-01
      21    -1     0     0   511   502  0.000000000E+00  0.000000000E+00  1.051057323E+01  1.051057323E+01  0.000000000E+00  0.00000E+00  9.000E+00
      21    -1     0     0   502   503  0.000000000E+00  0.000000000E+00 -8.035337102E+02  8.035337102E+02  0.000000000E+00  0.00000E+00  9.000E+00
      25     1     1     2     0     0 -2.268309219E+00  6.784263308E+00 -4.591332793E+02  4.758977761E+02  1.249966149E+02  0.00000E+00  9.000E+00
       5     1     1     2   501     0  1.003570923E+00  1.419423283E-01 -1.863350703E+00  5.202103235E+00  4.750000000E+00  0.00000E+00  9.000E+00
      -5     1     1     2     0   503  4.519363781E+00 -3.868535412E+00 -3.203902832E+02  3.204807112E+02  4.750000000E+00  0.00000E+00  9.000E+00
      21     1     1     2   511   501 -3.254625484E+00 -3.057670225E+00 -1.163622377E+01  1.246369279E+01  1.685873940E-07  0.00000E+00  9.000E+00
#rwgt            1           9   3.2323731803710672E-004           2     1096755           0
</event>
<event>
      6   9999  3.45752E-01  6.40257E+01 -1.00000E+00  1.29282E-01
      21    -1     0     0   502   512  0.000000000E+00  0.000000000E+00  7.660208240E+02  7.660208240E+02  0.000000000E+00  0.00000E+00  9.000E+00
      21    -1     0     0   501   502  0.000000000E+00  0.000000000E+00 -3.983086832E+01  3.983086832E+01  0.000000000E+00  0.00000E+00  9.000E+00
      25     1     1     2     0     0  1.378500017E+01 -6.539113203E+01  2.706189711E+02  3.054925246E+02  1.250001149E+02  0.00000E+00  9.000E+00
       5     1     1     2   501     0  1.330896570E+01  4.372037528E+01  7.977146106E+01  9.205785291E+01  4.750000000E+00  0.00000E+00  9.000E+00
      -5     1     1     2     0   503 -6.778438333E+00  8.238791158E+01  1.286538356E+02  1.529970167E+02  4.750000000E+00  0.00000E+00  9.000E+00
      21     1     1     2   503   512 -2.031552754E+01 -6.071715484E+01  2.471456880E+02  2.553042981E+02  2.697398305E-06  0.00000E+00  9.000E+00
#rwgt            1           9   5.4048455011261903E-002           2     1101000           0
</event>
<event>
      6   9999 -3.45752E-01  4.34276E+00 -1.00000E+00  2.40684E-01
      21    -1     0     0   511   502  0.000000000E+00  0.000000000E+00  2.678611515E+02  2.678611515E+02  0.000000000E+00  0.00000E+00  9.000E+00
      21    -1     0     0   502   503  0.000000000E+00  0.000000000E+00 -2.563546884E+01  2.563546884E+01  0.000000000E+00  0.00000E+00  9.000E+00
      25     1     1     2     0     0  1.503860516E+01  3.473227141E+00  1.672358923E+02  2.093599518E+02  1.250020912E+02  0.00000E+00  9.000E+00
       5     1     1     2   501     0  1.300169060E+00 -1.662070822E-01  5.258592443E+01  5.281628549E+01  4.750000000E+00  0.00000E+00  9.000E+00
      -5     1     1     2     0   503 -1.200819920E+01 -3.632072343E+00  6.637558572E+00  1.496691288E+01  4.750000000E+00  0.00000E+00  9.000E+00
      21     1     1     2   511   501 -4.330575024E+00  3.250522844E-01  1.576630733E+01  1.635347015E+01  2.920019320E-07  0.00000E+00  9.000E+00
#rwgt            1           9  -3.9744577969527439                2     1101666           0
</event>
<event>
      6   9999  3.45752E-01  1.12988E+01 -1.00000E+00  1.81775E-01
      21    -1     0     0   512   502  0.000000000E+00  0.000000000E+00  5.424716651E+01  5.424716651E+01  0.000000000E+00  0.00000E+00  9.000E+00
      21    -1     0     0   502   503  0.000000000E+00  0.000000000E+00 -1.323801091E+03  1.323801091E+03  0.000000000E+00  0.00000E+00  9.000E+00
      25     1     1     2     0     0  6.882097938E+00  5.817632297E+01 -4.331428546E+02  4.546178056E+02  1.250310715E+02  0.00000E+00  9.000E+00
       5     1     1     2   501     0 -2.497408690E+00 -1.022270886E+01  3.594237659E+01  3.775126172E+01  4.750000000E+00  0.00000E+00  9.000E+00
      -5     1     1     2     0   503 -3.528854836E+00 -5.921992460E+01 -8.723526266E+02  8.743804206E+02  4.750000000E+00  0.00000E+00  9.000E+00
      21     1     1     2   512   501 -8.558344119E-01  1.126631049E+01 -8.203370352E-04  1.129877008E+01  3.776091261E-07  0.00000E+00  9.000E+00
#rwgt            1           9   3.5063067952443923E-003           2     1106262           0
</event>
<event>
      6   9999 -3.45752E-01  9.42530E+00 -1.00000E+00  1.89943E-01
      21    -1     0     0   501   502  0.000000000E+00  0.000000000E+00  7.075639960E+01  7.075639960E+01  0.000000000E+00  0.00000E+00  9.000E+00
      21    -1     0     0   511   503  0.000000000E+00  0.000000000E+00 -3.736013998E+02  3.736013998E+02  0.000000000E+00  0.00000E+00  9.000E+00
      25     1     1     2     0     0 -3.440462165E+01  1.454942811E+01 -2.666673323E+02  2.968910437E+02  1.250498375E+02  0.00000E+00  9.000E+00
       5     1     1     2   501     0  1.905680800E+01 -1.810920117E+01  3.612094548E+01  4.492649886E+01  4.750000000E+00  0.00000E+00  9.000E+00
      -5     1     1     2     0   503  6.281818727E+00  6.137359067E+00  1.318483560E+01  1.653876696E+01  4.750000000E+00  0.00000E+00  9.000E+00
      21     1     1     2   511   502  9.065994922E+00 -2.577586010E+00 -8.548344893E+01  8.600148984E+01  9.536743164E-07  0.00000E+00  9.000E+00
#rwgt            1           9  -122079.24256478735                2     1110310           0
</event>
<event>
      6   9999  3.45752E-01  2.72171E+01 -1.00000E+00  1.50626E-01
      21    -1     0     0   512   502  0.000000000E+00  0.000000000E+00  3.158384125E+02  3.158384125E+02  0.000000000E+00  0.00000E+00  9.000E+00
      21    -1     0     0   502   503  0.000000000E+00  0.000000000E+00 -3.233709971E+02  3.233709971E+02  0.000000000E+00  0.00000E+00  9.000E+00
      25     1     1     2     0     0  3.925266946E+01  8.535809210E+01  1.591778441E+02  2.231373078E+02  1.250035846E+02  0.00000E+00  9.000E+00
       5     1     1     2   501     0 -4.011588682E+00  9.905321705E-01  6.922609077E+01  6.951178419E+01  4.750000000E+00  0.00000E+00  9.000E+00
      -5     1     1     2     0   503 -5.308305574E+01 -6.579539555E+01 -2.812400984E+02  2.937097212E+02  4.750000000E+00  0.00000E+00  9.000E+00
      21     1     1     2   512   501  1.784197496E+01 -2.055322872E+01  4.530357891E+01  5.285059643E+01  0.000000000E+00  0.00000E+00  9.000E+00
#rwgt            1           9   11.764572753024710                2     1114342           0
</event>
<event>
      6   9999  3.45752E-01  4.44744E+00 -1.00000E+00  2.38689E-01
      21    -1     0     0   511   502  0.000000000E+00  0.000000000E+00  3.569487226E+02  3.569487226E+02  0.000000000E+00  0.00000E+00  9.000E+00
      21    -1     0     0   502   503  0.000000000E+00  0.000000000E+00 -7.828783814E+02  7.828783814E+02  0.000000000E+00  0.00000E+00  9.000E+00
      25     1     1     2     0     0 -1.000970160E+01  1.028025620E-01 -5.401616599E+02  5.545266872E+02  1.250000934E+02  0.00000E+00  9.000E+00
       5     1     1     2   501     0 -2.894224480E-01 -4.223766751E-01  1.234081154E-03  4.777517026E+00  4.750000000E+00  0.00000E+00  9.000E+00
      -5     1     1     2     0   503  1.454467489E+01 -1.005182471E+00 -2.328796885E+02  2.333839535E+02  4.750000000E+00  0.00000E+00  9.000E+00
      21     1     1     2   511   501 -4.245550841E+00  1.324756584E+00  3.471104555E+02  3.471389462E+02  6.607249480E-06  0.00000E+00  9.000E+00
#rwgt            1           9   2.2598414608824411E-004           2     1116737           0
</event>
<event>
      6   9999  3.45752E-01  3.20938E+01 -1.00000E+00  1.45967E-01
      21    -1     0     0   501   512  0.000000000E+00  0.000000000E+00  1.049883453E+02  1.049883453E+02  0.000000000E+00  0.00000E+00  9.000E+00
      21    -1     0     0   502   503  0.000000000E+00  0.000000000E+00 -1.667300964E+02  1.667300964E+02  0.000000000E+00  0.00000E+00  9.000E+00
      25     1     1     2     0     0 -1.578758272E+00 -4.309691987E+01 -6.461806807E+01  1.472933782E+02  1.251399519E+02  0.00000E+00  9.000E+00
       5     1     1     2   501     0 -2.860135645E-01  1.794187043E+00  6.934588391E+00  8.599530630E+00  4.750000000E+00  0.00000E+00  9.000E+00
      -5     1     1     2     0   503 -1.367569814E+01  6.938309194E+01 -2.755978160E+01  7.604697383E+01  4.750000000E+00  0.00000E+00  9.000E+00
      21     1     1     2   502   512  1.554046998E+01 -2.808035912E+01  2.350151023E+01  3.977855903E+01  0.000000000E+00  0.00000E+00  9.000E+00
#rwgt            1           9   9.4626574447299812E-005           2     1120840           0
</event>
<event>
      6   9999  3.45752E-01  2.51627E+01 -1.00000E+00  1.52953E-01
      21    -1     0     0   511   502  0.000000000E+00  0.000000000E+00  1.042872243E+02  1.042872243E+02  0.000000000E+00  0.00000E+00  9.000E+00
      21    -1     0     0   502   503  0.000000000E+00  0.000000000E+00 -8.263631547E+02  8.263631547E+02  0.000000000E+00  0.00000E+00  9.000E+00
      25     1     1     2     0     0  1.233673853E+01 -2.198423339E+01 -7.661263691E+02  7.766667522E+02  1.250045161E+02  0.00000E+00  9.000E+00
       5     1     1     2   501     0  3.450357896E+00 -4.951345920E+00  7.919539807E-01  7.720782806E+00  4.750000000E+00  0.00000E+00  9.000E+00
      -5     1     1     2     0   503  4.231379748E+00  1.169012665E+01 -4.892703146E+01  5.070483747E+01  4.750000000E+00  0.00000E+00  9.000E+00
      21     1     1     2   511   501 -2.001847617E+01  1.524545266E+01  9.218551615E+01  9.555800648E+01  3.303624740E-06  0.00000E+00  9.000E+00
#rwgt            1           9   2.5142666086686967E-005           2     1122136           0
</event>
<event>
      6   9999  3.45752E-01  1.07130E+01 -1.00000E+00  1.84097E-01
      21    -1     0     0   512   502  0.000000000E+00  0.000000000E+00  3.728820600E+01  3.728820600E+01  0.000000000E+00  0.00000E+00  9.000E+00
      21    -1     0     0   502   503  0.000000000E+00  0.000000000E+00 -7.764979081E+02  7.764979081E+02  0.000000000E+00  0.00000E+00  9.000E+00
      25     1     1     2     0     0 -8.895984528E+00 -1.385672069E+01 -7.439275396E+02  7.545349600E+02  1.249946973E+02  0.00000E+00  9.000E+00
       5     1     1     2   501     0 -7.020178929E-01 -3.504755051E-02 -7.131634422E-01  4.854395899E+00  4.750000000E+00  0.00000E+00  9.000E+00
      -5     1     1     2     0   503  2.517569520E+00  5.852088670E+00 -2.282994883E+01  2.417341849E+01  4.750000000E+00  0.00000E+00  9.000E+00
      21     1     1     2   512   501  7.080432901E+00  8.039679571E+00  2.826094983E+01  3.022333970E+01  1.752011592E-06  0.00000E+00  9.000E+00
#rwgt            1           9   2.2163227448420501E-004           2     1123211           0
</event>
<event>
      6   9999  3.45752E-01  6.95147E+00 -1.00000E+00  2.05524E-01
      21    -1     0     0   502   511  0.000000000E+00  0.000000000E+00  3.400194392E+00  3.400194392E+00  0.000000000E+00  0.00000E+00  9.000E+00
      21    -1     0     0   501   502  0.000000000E+00  0.000000000E+00 -2.625018673E+03  2.625018673E+03  0.000000000E+00  0.00000E+00  9.000E+00
      25     1     1     2     0     0 -6.602297336E+00  9.316862663E+00 -2.359261758E+03  2.362598392E+03  1.249988893E+02  0.00000E+00  9.000E+00
       5     1     1     2   501     0 -4.536231227E-02 -3.180669536E+00 -1.312775834E+02  1.314019981E+02  4.750000000E+00  0.00000E+00  9.000E+00
      -5     1     1     2     0   503  1.436725214E+00 -1.535210175E+00 -1.252184340E+02  1.253261336E+02  4.750000000E+00  0.00000E+00  9.000E+00
      21     1     1     2   503   511  5.210934434E+00 -4.600982952E+00 -5.860703422E+00  9.092344384E+00  7.633118912E-07  0.00000E+00  9.000E+00
#rwgt            1           9  0.39870146943299778                2     1125699           0
</event>
<event>
      6   9999 -3.45752E-01  5.22590E+01 -1.00000E+00  1.33769E-01
      21    -1     0     0   501   512  0.000000000E+00  0.000000000E+00  3.122430096E+01  3.122430096E+01  0.000000000E+00  0.00000E+00  9.000E+00
      21    -1     0     0   502   503  0.000000000E+00  0.000000000E+00 -1.002817375E+03  1.002817375E+03  0.000000000E+00  0.00000E+00  9.000E+00
      25     1     1     2     0     0 -3.663125772E+01  7.325221424E+01 -9.045686085E+02  9.168305296E+02  1.250044665E+02  0.00000E+00  9.000E+00
       5     1     1     2   501     0 -2.828652912E+00 -2.049785701E+00 -1.021976073E+00  5.984131834E+00  4.750000000E+00  0.00000E+00  9.000E+00
      -5     1     1     2     0   503  1.257892790E+01 -2.638713109E+01 -3.601432743E+00  2.983358731E+01  4.750000000E+00  0.00000E+00  9.000E+00
      21     1     1     2   502   512  2.688098273E+01 -4.481529745E+01 -6.240105696E+01  8.139342742E+01  1.168007728E-06  0.00000E+00  9.000E+00
#rwgt            1           9  -3.2791654115522202E-004           2     1128546           0
</event>
<event>
      6   9999 -3.45752E-01  8.45908E+00 -1.00000E+00  1.95189E-01
      21    -1     0     0   511   503  0.000000000E+00  0.000000000E+00  4.020888623E+00  4.020888623E+00  0.000000000E+00  0.00000E+00  9.000E+00
      21    -1     0     0   501   502  0.000000000E+00  0.000000000E+00 -5.239807902E+03  5.239807902E+03  0.000000000E+00  0.00000E+00  9.000E+00
      25     1     1     2     0     0  7.527727095E+01 -5.598072872E+01 -3.828930087E+03  3.832118473E+03  1.250034582E+02  0.00000E+00  9.000E+00
       5     1     1     2   501     0 -2.897192983E+01  3.073169381E+01 -8.221011212E+02  8.231990195E+02  4.750000000E+00  0.00000E+00  9.000E+00
      -5     1     1     2     0   503 -5.194659033E+01  1.894567496E+01 -5.475847780E+02  5.503898967E+02  4.750000000E+00  0.00000E+00  9.000E+00
      21     1     1     2   511   502  5.641249209E+00  6.303359939E+00 -3.717102657E+01  3.812140154E+01  1.907348633E-06  0.00000E+00  9.000E+00
#rwgt            1           9  -3.0501285466967056E-005           2     1129209           0
</event>
<event>
      6   9999  3.45752E-01  4.87288E+01 -1.00000E+00  1.35389E-01
      21    -1     0     0   501   502  0.000000000E+00  0.000000000E+00  6.204614385E+02  6.204614385E+02  0.000000000E+00  0.00000E+00  9.000E+00
      21    -1     0     0   512   503  0.000000000E+00  0.000000000E+00 -3.127579912E+02  3.127579912E+02  0.000000000E+00  0.00000E+00  9.000E+00
      25     1     1     2     0     0 -1.553006728E+01  1.738850908E+02 -2.181999435E+02  3.061250269E+02  1.249964357E+02  0.00000E+00  9.000E+00
       5     1     1     2   501     0  6.085584961E+00  7.803372041E+00  3.912808598E+02  3.914347975E+02  4.750000000E+00  0.00000E+00  9.000E+00
      -5     1     1     2     0   503  2.075290050E+01 -1.342899612E+02  1.275323773E+02  1.864176663E+02  4.750000000E+00  0.00000E+00  9.000E+00
      21     1     1     2   512   502 -1.130841818E+01 -4.739850163E+01  7.090153672E+00  4.924193901E+01  1.457574279E-06  0.00000E+00  9.000E+00
#rwgt            1           9   1.8848834537548889E-002           2     1132118           0
</event>
<event>
      6   9999  3.45752E-01  9.22613E+01 -1.00000E+00  1.21941E-01
      21    -1     0     0   502   503  0.000000000E+00  0.000000000E+00  3.266545934E+01  3.266545934E+01  0.000000000E+00  0.00000E+00  9.000E+00
      21    -1     0     0   501   511  0.000000000E+00  0.000000000E+00 -1.736498512E+03  1.736498512E+03  0.000000000E+00  0.00000E+00  9.000E+00
      25     1     1     2     0     0  9.267417321E+01 -1.219129031E+02 -9.083721383E+02  9.296322263E+02  1.249995052E+02  0.00000E+00  9.000E+00
       5     1     1     2   501     0 -5.090873417E+00  4.757637453E+01 -1.550788210E+02  1.623620387E+02  4.750000000E+00  0.00000E+00  9.000E+00
      -5     1     1     2     0   503  3.651830613E+00  6.061426651E+01 -4.774044659E+01  7.738952069E+01  4.750000000E+00  0.00000E+00  9.000E+00
      21     1     1     2   502   511 -9.123513040E+01  1.372226207E+01 -5.926416469E+02  5.997801856E+02  1.078959322E-05  0.00000E+00  9.000E+00
#rwgt            1           9   1.7154248204899095E-002           2     1133949           0
</event>
<event>
      6   9999  3.45752E-01  4.20993E+00 -1.00000E+00  2.43340E-01
      21    -1     0     0   501   512  0.000000000E+00  0.000000000E+00  1.203059035E+01  1.203059035E+01  0.000000000E+00  0.00000E+00  9.000E+00
      21    -1     0     0   502   503  0.000000000E+00  0.000000000E+00 -8.600831687E+02  8.600831687E+02  0.000000000E+00  0.00000E+00  9.000E+00
      25     1     1     2     0     0  7.827184749E-01 -3.466119374E+00 -8.140179342E+02  8.235671666E+02  1.250002163E+02  0.00000E+00  9.000E+00
       5     1     1     2   501     0  1.396515499E+00  1.350927472E+00  5.756111697E+00  7.711717218E+00  4.750000000E+00  0.00000E+00  9.000E+00
      -5     1     1     2     0   503  5.323266082E-01 -1.105207249E+00 -2.370625547E+01  2.420855021E+01  4.750000000E+00  0.00000E+00  9.000E+00
      21     1     1     2   502   512 -2.711560583E+00  3.220399152E+00 -1.608450031E+01  1.662632497E+01  3.371747881E-07  0.00000E+00  9.000E+00
#rwgt            1           9   6.7625966970495481E-004           2     1134495           0
</event>
<event>
      6   9999 -3.45752E-01  7.78670E+00 -1.00000E+00  1.99415E-01
      21    -1     0     0   511   502  0.000000000E+00  0.000000000E+00  2.095703020E+01  2.095703020E+01  0.000000000E+00  0.00000E+00  9.000E+00
      21    -1     0     0   502   503  0.000000000E+00  0.000000000E+00 -2.656206551E+03  2.656206551E+03  0.000000000E+00  0.00000E+00  9.000E+00
      25     1     1     2     0     0  1.267523118E+01  8.954777070E+00 -2.151716307E+03  2.155375605E+03  1.245796310E+02  0.00000E+00  9.000E+00
       5     1     1     2   501     0  1.832052183E-01 -1.120994771E-01 -7.099460149E+01  7.115365114E+01  4.750000000E+00  0.00000E+00  9.000E+00
      -5     1     1     2     0   503 -5.891330275E+00 -1.232005980E+01 -4.306642511E+02  4.309068940E+02  4.750000000E+00  0.00000E+00  9.000E+00
      21     1     1     2   511   501 -6.967106119E+00  3.477382204E+00  1.812563863E+01  1.972743091E+01  2.008950656E-06  0.00000E+00  9.000E+00
#rwgt            1           9  -2.7246872794175481E-005           2     1138983           0
</event>
<event>
      6   9999  3.45752E-01  9.48164E+00 -1.00000E+00  1.89662E-01
       2    -1     0     0   501     0  0.000000000E+00  0.000000000E+00  3.751651909E+02  3.751651909E+02  0.000000000E+00  0.00000E+00  9.000E+00
      21    -1     0     0   502   503  0.000000000E+00  0.000000000E+00 -8.009858328E+02  8.009858328E+02  0.000000000E+00  0.00000E+00  9.000E+00
      25     1     1     2     0     0  2.158987628E+01  4.638899550E-01 -5.002722625E+02  5.161027942E+02  1.249936785E+02  0.00000E+00  9.000E+00
       5     1     1     2   501     0 -2.443904660E-01 -5.989038554E-01 -2.402585289E+00  5.362213032E+00  4.750000000E+00  0.00000E+00  9.000E+00
      -5     1     1     2     0   503 -1.609266579E+01 -7.758609115E+00 -2.885586437E+02  2.891501742E+02  4.750000000E+00  0.00000E+00  9.000E+00
       2     1     1     2   502     0 -5.252820031E+00  7.893623015E+00  3.654128495E+02  3.655358423E+02  9.344061824E-06  0.00000E+00  9.000E+00
#rwgt            1           9   1.3647005329982360E-003           2     1141527           0
</event>
<event>
      6   9999  3.45752E-01  1.58066E+01 -1.00000E+00  1.68423E-01
      21    -1     0     0   501   502  0.000000000E+00  0.000000000E+00  1.507967672E+03  1.507967672E+03  0.000000000E+00  0.00000E+00  9.000E+00
      21    -1     0     0   502   511  0.000000000E+00  0.000000000E+00 -3.464678460E+01  3.464678460E+01  0.000000000E+00  0.00000E+00  9.000E+00
      25     1     1     2     0     0  3.362008537E+01 -2.637998850E+01  2.564170631E+02  2.884456269E+02  1.249998222E+02  0.00000E+00  9.000E+00
       5     1     1     2   501     0  1.237353130E+01 -1.027754316E+01  1.174901068E+03  1.175020771E+03  4.750000000E+00  0.00000E+00  9.000E+00
      -5     1     1     2     0   503 -3.073866648E+01  3.251817850E+01  1.423456665E+01  4.719621741E+01  4.750000000E+00  0.00000E+00  9.000E+00
      21     1     1     2   503   511 -1.525495019E+01  4.139353163E+00  2.776819004E+01  3.195184076E+01  0.000000000E+00  0.00000E+00  9.000E+00
#rwgt            1           9   157.80620254623662                2     1143728           0
</event>
<event>
      6   9999  3.45752E-01  8.14218E+00 -1.00000E+00  1.97114E-01
      21    -1     0     0   501   512  0.000000000E+00  0.000000000E+00  6.166815011E+01  6.166815011E+01  0.000000000E+00  0.00000E+00  9.000E+00
      21    -1     0     0   502   503  0.000000000E+00  0.000000000E+00 -1.376637419E+03  1.376637419E+03  0.000000000E+00  0.00000E+00  9.000E+00
      25     1     1     2     0     0  5.990867242E+00 -7.036713095E+01 -9.813843553E+02  9.918304225E+02  1.249996425E+02  0.00000E+00  9.000E+00
       5     1     1     2   501     0  1.841865703E+01  9.222189030E+01  1.357318583E+01  9.513631195E+01  4.750000000E+00  0.00000E+00  9.000E+00
      -5     1     1     2     0   503 -2.303539398E+01 -1.382936697E+01 -3.379402198E+02  3.390398729E+02  4.750000000E+00  0.00000E+00  9.000E+00
      21     1     1     2   502   512 -1.374130294E+00 -8.025392384E+00 -9.217880040E+00  1.229896213E+01  0.000000000E+00  0.00000E+00  9.000E+00
#rwgt            1           9   4.8185951462198506E-003           2     1146595           0
</event>
<event>
      6   9999 -3.45752E-01  1.15757E+01 -1.00000E+00  1.80740E-01
      21    -1     0     0   501   511  0.000000000E+00  0.000000000E+00  1.912234953E+01  1.912234953E+01  0.000000000E+00  0.00000E+00  9.000E+00
      21    -1     0     0   502   503  0.000000000E+00  0.000000000E+00 -9.502846922E+02  9.502846922E+02  0.000000000E+00  0.00000E+00  9.000E+00
      25     1     1     2     0     0  7.503942951E+01 -5.692345589E+01 -6.486642462E+02  6.672787551E+02  1.249977476E+02  0.00000E+00  9.000E+00
       5     1     1     2   501     0 -2.698538932E+01  1.445014204E+01 -5.295660035E+01  6.135129878E+01  4.750000000E+00  0.00000E+00  9.000E+00
      -5     1     1     2     0   503 -3.669768053E+01  4.023077268E+01 -2.167031306E+02  2.234905907E+02  4.750000000E+00  0.00000E+00  9.000E+00
      21     1     1     2   502   511 -1.135635966E+01  2.242541159E+00 -1.283836548E+01  1.728639707E+01  4.129530925E-07  0.00000E+00  9.000E+00
#rwgt            1           9  -4.6197528534382220E-006           2     1151420           0
</event>
<event>
      6   9999  3.45752E-01  2.81795E+00 -1.00000E+00  2.84221E-01
      21    -1     0     0   501   502  0.000000000E+00  0.000000000E+00  1.789020442E+01  1.789020442E+01  0.000000000E+00  0.00000E+00  9.000E+00
      21    -1     0     0   502   512  0.000000000E+00  0.000000000E+00 -5.760373882E+02  5.760373882E+02  0.000000000E+00  0.00000E+00  9.000E+00
      25     1     1     2     0     0  1.298113583E+01 -2.559848608E+01 -5.128995526E+02  5.286915383E+02  1.249999970E+02  0.00000E+00  9.000E+00
       5     1     1     2   501     0  1.467213994E+00  1.853424145E-01  3.895081368E+00  6.318324744E+00  4.750000000E+00  0.00000E+00  9.000E+00
      -5     1     1     2     0   503 -1.354131148E+01  2.274516472E+01 -3.319096309E+01  4.271899069E+01  4.750000000E+00  0.00000E+00  9.000E+00
      21     1     1     2   503   512 -9.070383466E-01  2.667978940E+00 -1.595174943E+01  1.619873884E+01  3.371747881E-07  0.00000E+00  9.000E+00
#rwgt            1           9   3.3694757011111402E-002           2     1153791           0
</event>
<event>
      6   9999 -3.45752E-01  1.09595E+01 -1.00000E+00  1.83097E-01
       2    -1     0     0   501     0  0.000000000E+00  0.000000000E+00  1.429948532E+03  1.429948532E+03  0.000000000E+00  0.00000E+00  9.000E+00
      21    -1     0     0   502   503  0.000000000E+00  0.000000000E+00 -6.715146984E+02  6.715146984E+02  0.000000000E+00  0.00000E+00  9.000E+00
      25     1     1     2     0     0 -5.699536576E+00  8.068556436E+00 -6.264832606E+02  6.389067410E+02  1.249918458E+02  0.00000E+00  9.000E+00
       5     1     1     2   501     0 -8.250650349E-02  3.819037021E-01 -2.833370285E+00  5.544650118E+00  4.750000000E+00  0.00000E+00  9.000E+00
      -5     1     1     2     0   503  3.382213854E-01  1.061436309E+00 -3.443763053E+01  3.478151718E+01  4.750000000E+00  0.00000E+00  9.000E+00
       2     1     1     2   502     0  5.443821694E+00 -9.511896447E+00  1.422188095E+03  1.422230322E+03  2.642899792E-05  0.00000E+00  9.000E+00
#rwgt            1           9  -3.4566682626596955E-004           2     1160301           0
</event>
<event>
      6   9999  3.45752E-01  4.52128E+00 -1.00000E+00  2.37330E-01
      21    -1     0     0   511   502  0.000000000E+00  0.000000000E+00  9.132404145E+01  9.132404145E+01  0.000000000E+00  0.00000E+00  9.000E+00
      21    -1     0     0   502   503  0.000000000E+00  0.000000000E+00 -8.680093457E+02  8.680093457E+02  0.000000000E+00  0.00000E+00  9.000E+00
      25     1     1     2     0     0  5.047740267E+01 -3.802930106E+01 -4.579137506E+02  4.788568731E+02  1.249988243E+02  0.00000E+00  9.000E+00
       5     1     1     2   501     0 -4.497882781E+01  1.750897527E+01 -2.779166054E+02  2.821167511E+02  4.750000000E+00  0.00000E+00  9.000E+00
      -5     1     1     2     0   503 -3.708850401E+00  1.636835608E+01 -1.189056694E+02  1.201781983E+02  4.750000000E+00  0.00000E+00  9.000E+00
      21     1     1     2   511   501 -1.789724456E+00  4.151969705E+00  7.805072114E+01  7.818156456E+01  1.907348633E-06  0.00000E+00  9.000E+00
#rwgt            1           9   3.7822577974427072E-004           2     1162314           0
</event>
<event>
      6   9999  3.45752E-01  1.42436E+01 -1.00000E+00  1.72342E-01
      21    -1     0     0   501   512  0.000000000E+00  0.000000000E+00  6.402730387E+00  6.402730387E+00  0.000000000E+00  0.00000E+00  9.000E+00
      21    -1     0     0   502   503  0.000000000E+00  0.000000000E+00 -2.336803806E+03  2.336803806E+03  0.000000000E+00  0.00000E+00  9.000E+00
      25     1     1     2     0     0 -4.529038197E+00 -1.218968229E+01 -2.001284218E+03  2.005226364E+03  1.250005814E+02  0.00000E+00  9.000E+00
       5     1     1     2   501     0 -2.955106300E+00 -3.042249633E-02 -4.666584239E+00  7.285127811E+00  4.750000000E+00  0.00000E+00  9.000E+00
      -5     1     1     2     0   503 -5.374234287E+00  6.092943130E+00 -3.108783597E+02  3.110207765E+02  4.750000000E+00  0.00000E+00  9.000E+00
      21     1     1     2   502   512  1.285837878E+01  6.127161653E+00 -1.357191302E+01  1.967426842E+01  8.596304120E-07  0.00000E+00  9.000E+00
#rwgt            1           9   5.6859432391879903                2     1167026           0
</event>
<event>
      6   9999  3.45752E-01  1.33451E+01 -1.00000E+00  1.74892E-01
      21    -1     0     0   511   502  0.000000000E+00  0.000000000E+00  7.857789036E+01  7.857789036E+01  0.000000000E+00  0.00000E+00  9.000E+00
      21    -1     0     0   502   503  0.000000000E+00  0.000000000E+00 -1.500462704E+03  1.500462704E+03  0.000000000E+00  0.00000E+00  9.000E+00
      25     1     1     2     0     0  1.455327591E+01  1.141329223E+01 -1.293331837E+03  1.299489930E+03  1.249991113E+02  0.00000E+00  9.000E+00
       5     1     1     2   501     0 -7.534813443E+00 -1.606836686E+01  6.539135301E+01  6.792317260E+01  4.750000000E+00  0.00000E+00  9.000E+00
      -5     1     1     2     0   503 -6.634891422E+00 -8.684502445E+00 -1.974662455E+02  1.978254862E+02  4.750000000E+00  0.00000E+00  9.000E+00
      21     1     1     2   511   501 -3.835710432E-01  1.333957708E+01  3.521916119E+00  1.380200480E+01  1.032382731E-07  0.00000E+00  9.000E+00
#rwgt            1           9   2.3437363019485728E-002           2     1168634           0
</event>
<event>
      6   9999  3.45752E-01  6.26892E+00 -1.00000E+00  2.11440E-01
      21    -1     0     0   512   502  0.000000000E+00  0.000000000E+00  3.786875326E+01  3.786875326E+01  0.000000000E+00  0.00000E+00  9.000E+00
      21    -1     0     0   502   503  0.000000000E+00  0.000000000E+00 -2.809652393E+02  2.809652393E+02  0.000000000E+00  0.00000E+00  9.000E+00
      25     1     1     2     0     0 -3.422381049E+01 -3.358389359E+01 -2.006168530E+02  2.411856819E+02  1.249970573E+02  0.00000E+00  9.000E+00
       5     1     1     2   501     0  4.321027424E-01  3.103923994E-01  3.657771805E+00  6.018708399E+00  4.750000000E+00  0.00000E+00  9.000E+00
      -5     1     1     2     0   503  3.762658768E+01  2.831436450E+01 -4.490288217E+01  6.524028406E+01  4.750000000E+00  0.00000E+00  9.000E+00
      21     1     1     2   512   501 -3.834879937E+00  4.959136685E+00 -1.234522641E+00  6.389318191E+00  8.296615426E-08  0.00000E+00  9.000E+00
#rwgt            1           9   1.0274107410227575E-002           2     1171827           0
</event>
<event>
      6   9999  3.45752E-01  4.89677E+00 -1.00000E+00  2.30967E-01
      21    -1     0     0   511   502  0.000000000E+00  0.000000000E+00  8.154473154E+01  8.154473154E+01  0.000000000E+00  0.00000E+00  9.000E+00
      21    -1     0     0   502   503  0.000000000E+00  0.000000000E+00 -5.503985148E+02  5.503985148E+02  0.000000000E+00  0.00000E+00  9.000E+00
      25     1     1     2     0     0  1.229182029E+01  1.659923028E+01 -2.228138755E+02  2.563138424E+02  1.249965576E+02  0.00000E+00  9.000E+00
       5     1     1     2   501     0 -6.249185026E+00  1.146171755E+00  2.975923266E+01  3.079838392E+01  4.750000000E+00  0.00000E+00  9.000E+00
      -5     1     1     2     0   503 -1.012078502E+01 -2.045595335E+01 -3.097011110E+02  3.105772319E+02  4.750000000E+00  0.00000E+00  9.000E+00
      21     1     1     2   511   501  4.078149758E+00  2.710551319E+00  3.390197054E+01  3.425378812E+01  8.259061849E-07  0.00000E+00  9.000E+00
#rwgt            1           9  0.11296830108707143                2     1176238           0
</event>
<event>
      6   9999  3.45752E-01  6.24254E+00 -1.00000E+00  2.11688E-01
      21    -1     0     0   512   502  0.000000000E+00  0.000000000E+00  4.763876196E+01  4.763876196E+01  0.000000000E+00  0.00000E+00  9.000E+00
      21    -1     0     0   502   503  0.000000000E+00  0.000000000E+00 -8.680228306E+02  8.680228306E+02  0.000000000E+00  0.00000E+00  9.000E+00
      25     1     1     2     0     0 -1.296374941E+01  2.382874876E+00 -7.793082327E+02  7.893793473E+02  1.249987815E+02  0.00000E+00  9.000E+00
       5     1     1     2   501     0 -5.496064003E-01  2.219247669E+00  7.387101791E+00  9.075180455E+00  4.750000000E+00  0.00000E+00  9.000E+00
      -5     1     1     2     0   503  7.609570472E+00 -2.573657286E+00 -8.228561512E+01  8.281312837E+01  4.750000000E+00  0.00000E+00  9.000E+00
      21     1     1     2   512   501  5.903785334E+00 -2.028465260E+00  3.382267746E+01  3.439393643E+01  1.966049969E-06  0.00000E+00  9.000E+00
#rwgt            1           9   3.3903930299072731E-004           2     1181645           0
</event>
<event>
      6   9999  3.45752E-01  5.09949E+01 -1.00000E+00  1.34331E-01
      21    -1     0     0   501   502  0.000000000E+00  0.000000000E+00  8.929036022E+02  8.929036022E+02  0.000000000E+00  0.00000E+00  9.000E+00
       2    -1     0     0   502     0  0.000000000E+00  0.000000000E+00 -5.042748802E+03  5.042748802E+03  0.000000000E+00  0.00000E+00  9.000E+00
      25     1     1     2     0     0 -2.675247200E+02 -3.393553320E+02  5.804907063E+01  4.535704068E+02  1.249996086E+02  0.00000E+00  9.000E+00
       5     1     1     2   501     0 -1.777984320E+01 -2.053525951E+01  5.894156640E+02  5.900603420E+02  4.750000000E+00  0.00000E+00  9.000E+00
      -5     1     1     2     0   503  3.361697312E+02  3.562549473E+02 -1.224451891E+03  1.318799709E+03  4.750000000E+00  0.00000E+00  9.000E+00
       2     1     1     2   503     0 -5.086516795E+01  3.635644205E+00 -3.572858044E+03  3.573221947E+03  4.315837288E-05  0.00000E+00  9.000E+00
#rwgt            1           9   3.1369769192127997E-004           2     1185573           0
</event>
<event>
      6   9999  3.45752E-01  1.50723E+01 -1.00000E+00  1.70191E-01
       3    -1     0     0   501     0  0.000000000E+00  0.000000000E+00  5.501142870E+02  5.501142870E+02  0.000000000E+00  0.00000E+00  9.000E+00
      21    -1     0     0   502   503  0.000000000E+00  0.000000000E+00 -2.044329676E+03  2.044329676E+03  0.000000000E+00  0.00000E+00  9.000E+00
      25     1     1     2     0     0  2.318840367E+01  1.902567691E+01 -1.412424512E+03  1.418263870E+03  1.250188962E+02  0.00000E+00  9.000E+00
       5     1     1     2   501     0 -1.742761435E+01  9.947717078E+00  3.901324589E+01  4.412793528E+01  4.750000000E+00  0.00000E+00  9.000E+00
      -5     1     1     2     0   503 -1.379709658E+01 -1.622220028E+01 -6.261257416E+02  6.265058072E+02  4.750000000E+00  0.00000E+00  9.000E+00
       3     1     1     2   502     0  8.036307258E+00 -1.275119371E+01  5.053216183E+02  5.055463511E+02  9.344061824E-06  0.00000E+00  9.000E+00
#rwgt            1           9   1.0043109020894094                2     1187949           0
</event>
<event>
      6   9999  3.45752E-01  7.42480E+00 -1.00000E+00  2.01931E-01
      21    -1     0     0   501   502  0.000000000E+00  0.000000000E+00  5.566267516E+01  5.566267516E+01  0.000000000E+00  0.00000E+00  9.000E+00
      21    -1     0     0   502   511  0.000000000E+00  0.000000000E+00 -6.941466060E+02  6.941466060E+02  0.000000000E+00  0.00000E+00  9.000E+00
      25     1     1     2     0     0  9.815188502E+00 -4.918984265E+00 -3.816710160E+02  4.017706447E+02  1.250054087E+02  0.00000E+00  9.000E+00
       5     1     1     2   501     0 -3.991562548E+00  1.294158597E+00  4.489912462E+01  4.534425332E+01  4.750000000E+00  0.00000E+00  9.000E+00
      -5     1     1     2     0   503 -3.608042883E+00 -3.461696493E+00 -2.651636787E+01  2.739856896E+01  4.750000000E+00  0.00000E+00  9.000E+00
      21     1     1     2   503   511 -2.215583071E+00  7.086522161E+00 -2.751956716E+02  2.752958141E+02  6.607249480E-06  0.00000E+00  9.000E+00
#rwgt            1           9   1.2659287155004414E-003           2     1191000           0
</event>
<event>
      6   9999  3.45752E-01  1.66394E+01 -1.00000E+00  1.66558E-01
      21    -1     0     0   501   502  0.000000000E+00  0.000000000E+00  4.658927285E+01  4.658927285E+01  0.000000000E+00  0.00000E+00  9.000E+00
      21    -1     0     0   502   512  0.000000000E+00  0.000000000E+00 -7.421959753E+02  7.421959753E+02  0.000000000E+00  0.00000E+00  9.000E+00
      25     1     1     2     0     0 -1.060583943E+01  7.257410834E+00 -2.383900489E+02  2.694793486E+02  1.249966003E+02  0.00000E+00  9.000E+00
       5     1     1     2   501     0 -5.839958207E+00 -1.800566654E+00  2.979360414E+01  3.078260060E+01  4.750000000E+00  0.00000E+00  9.000E+00
      -5     1     1     2     0   503  7.447985281E-02 -2.481934672E+00 -1.114129388E+01  1.236351391E+01  4.750000000E+00  0.00000E+00  9.000E+00
      21     1     1     2   503   512  1.637131779E+01 -2.974909508E+00 -4.758689638E+02  4.761597850E+02  0.000000000E+00  0.00000E+00  9.000E+00
#rwgt            1           9  0.33758406437593413                2     1195627           0
</event>
<event>
      6   9999  3.45752E-01  7.92933E+00 -1.00000E+00  1.98473E-01
      21    -1     0     0   501   502  0.000000000E+00  0.000000000E+00  1.130011069E+01  1.130011069E+01  0.000000000E+00  0.00000E+00  9.000E+00
      21    -1     0     0   511   503  0.000000000E+00  0.000000000E+00 -1.005582150E+03  1.005582150E+03  0.000000000E+00  0.00000E+00  9.000E+00
      25     1     1     2     0     0 -1.570824635E+01  5.693913582E-01 -8.046419638E+02  8.144450797E+02  1.250000989E+02  0.00000E+00  9.000E+00
       5     1     1     2   501     0 -1.230369055E+00  4.294856640E-01  4.195486496E+00  6.470152462E+00  4.750000000E+00  0.00000E+00  9.000E+00
      -5     1     1     2     0   503  1.425859894E+01  6.463817249E+00 -7.035371199E+01  7.223085122E+01  4.750000000E+00  0.00000E+00  9.000E+00
      21     1     1     2   511   502  2.680016461E+00 -7.462694271E+00 -1.234818502E+02  1.237361775E+02  0.000000000E+00  0.00000E+00  9.000E+00
#rwgt            1           9  0.36914033733883650                2     1197556           0
</event>
<event>
      6   9999 -3.45752E-01  1.04750E+01 -1.00000E+00  1.85096E-01
      21    -1     0     0   501   502  0.000000000E+00  0.000000000E+00  1.225538812E+02  1.225538812E+02  0.000000000E+00  0.00000E+00  9.000E+00
      21    -1     0     0   512   503  0.000000000E+00  0.000000000E+00 -1.067940485E+03  1.067940485E+03  0.000000000E+00  0.00000E+00  9.000E+00
      25     1     1     2     0     0  4.876776940E+01 -1.234512916E+02 -5.004437029E+02  5.326202474E+02  1.249876451E+02  0.00000E+00  9.000E+00
       5     1     1     2   501     0  1.032653207E+01  3.953982808E+00  8.780071225E+01  8.862166110E+01  4.750000000E+00  0.00000E+00  9.000E+00
      -5     1     1     2     0   503 -4.936461313E+01  1.156168350E+02 -1.995609768E+02  2.359052003E+02  4.750000000E+00  0.00000E+00  9.000E+00
      21     1     1     2   512   502 -9.729688328E+00  3.880473772E+00 -3.331826361E+02  3.333472572E+02  6.607249480E-06  0.00000E+00  9.000E+00
#rwgt            1           9  -7.2523730990118999E-004           2     1200398           0
</event>
<event>
      6   9999  3.45752E-01  9.64430E+00 -1.00000E+00  1.88866E-01
      21    -1     0     0   501   502  0.000000000E+00  0.000000000E+00  2.608611682E+03  2.608611682E+03  0.000000000E+00  0.00000E+00  9.000E+00
      21    -1     0     0   502   511  0.000000000E+00  0.000000000E+00 -3.433201119E+01  3.433201119E+01  0.000000000E+00  0.00000E+00  9.000E+00
      25     1     1     2     0     0  1.820944414E+01  1.682271887E+01  1.168199074E+03  1.175130089E+03  1.250082465E+02  0.00000E+00  9.000E+00
       5     1     1     2   501     0 -1.661823449E-01 -1.507377901E+00  1.217319146E+03  1.217329358E+03  4.750000000E+00  0.00000E+00  9.000E+00
      -5     1     1     2     0   503 -8.862584149E+00 -1.826960066E+01  2.183602827E+02  2.193538221E+02  4.750000000E+00  0.00000E+00  9.000E+00
      21     1     1     2   503   511 -9.180677650E+00  2.954259693E+00 -2.959883168E+01  3.113042450E+01  3.739449296E-06  0.00000E+00  9.000E+00
#rwgt            1           9   1.6267850089270595E-002           2     1205125           0
</event>
<event>
      6   9999  3.45752E-01  2.70561E+00 -1.00000E+00  2.89195E-01
      21    -1     0     0   501   502  0.000000000E+00  0.000000000E+00  1.929828016E+01  1.929828016E+01  0.000000000E+00  0.00000E+00  9.000E+00
      21    -1     0     0   512   503  0.000000000E+00  0.000000000E+00 -3.297760109E+02  3.297760109E+02  0.000000000E+00  0.00000E+00  9.000E+00
      25     1     1     2     0     0  1.554003768E+00 -1.444468320E+00 -2.325511112E+02  2.640248677E+02  1.249984401E+02  0.00000E+00  9.000E+00
       5     1     1     2   501     0 -4.308769504E-01 -1.818023321E-01  1.237829711E+00  4.930864978E+00  4.750000000E+00  0.00000E+00  9.000E+00
      -5     1     1     2     0   503 -1.355973269E+00  4.321842147E+00 -2.381179405E+01  2.469981820E+01  4.750000000E+00  0.00000E+00  9.000E+00
      21     1     1     2   512   502  2.328464516E-01 -2.695571495E+00 -5.535265520E+01  5.541874016E+01  6.743495762E-07  0.00000E+00  9.000E+00
#rwgt            1           9   1.0918454023204429E-002           2     1207414           0
</event>
<event>
      6   9999  3.45752E-01  3.28003E+00 -1.00000E+00  2.67153E-01
      21    -1     0     0   501   502  0.000000000E+00  0.000000000E+00  3.072347014E+01  3.072347014E+01  0.000000000E+00  0.00000E+00  9.000E+00
      21    -1     0     0   511   503  0.000000000E+00  0.000000000E+00 -2.814612481E+02  2.814612481E+02  0.000000000E+00  0.00000E+00  9.000E+00
      25     1     1     2     0     0  2.513522165E+01 -1.486655084E+01 -1.626637812E+02  2.072141803E+02  1.250016683E+02  0.00000E+00  9.000E+00
       5     1     1     2   501     0  1.154406459E-01  5.019348754E-01  1.594226412E+00  5.036796900E+00  4.750000000E+00  0.00000E+00  9.000E+00
      -5     1     1     2     0   503 -2.526670284E+01  1.764461105E+01 -4.281721669E+01  5.296805751E+01  4.750000000E+00  0.00000E+00  9.000E+00
      21     1     1     2   511   502  1.604053931E-02 -3.279995083E+00 -4.685100649E+01  4.696568358E+01  0.000000000E+00  0.00000E+00  9.000E+00
#rwgt            1           9   1.0252972813088974E-002           2     1213323           0
</event>
<event>
      6   9999 -3.45752E-01  2.00372E+00 -1.00000E+00  3.32574E-01
      21    -1     0     0   512   502  0.000000000E+00  0.000000000E+00  3.729481486E+01  3.729481486E+01  0.000000000E+00  0.00000E+00  9.000E+00
      21    -1     0     0   502   503  0.000000000E+00  0.000000000E+00 -7.038691923E+02  7.038691923E+02  0.000000000E+00  0.00000E+00  9.000E+00
      25     1     1     2     0     0  3.980587400E+00  3.828603421E+00 -6.604693266E+02  6.725441029E+02  1.267491054E+02  0.00000E+00  9.000E+00
       5     1     1     2   501     0  5.319457979E-01 -2.039775713E+00  1.925589706E+00  5.542025533E+00  4.750000000E+00  0.00000E+00  9.000E+00
      -5     1     1     2     0   503 -3.095931577E+00 -3.205910716E+00 -3.521876960E+01  3.581601440E+01  4.750000000E+00  0.00000E+00  9.000E+00
      21     1     1     2   512   501 -1.416601620E+00  1.417083008E+00  2.718812904E+01  2.726186430E+01  0.000000000E+00  0.00000E+00  9.000E+00
#rwgt            1           9 -0.54301419924480365                2     1218562           0
</event>
<event>
      6   9999  3.45752E-01  1.31821E+01 -1.00000E+00  1.75382E-01
      21    -1     0     0   511   503  0.000000000E+00  0.000000000E+00  7.465598152E+01  7.465598152E+01  0.000000000E+00  0.00000E+00  9.000E+00
      21    -1     0     0   501   502  0.000000000E+00  0.000000000E+00 -5.508648842E+02  5.508648842E+02  0.000000000E+00  0.00000E+00  9.000E+00
      25     1     1     2     0     0 -7.848547398E+00 -6.991581854E+01 -1.820332392E+01  1.445866366E+02  1.249964524E+02  0.00000E+00  9.000E+00
       5     1     1     2   501     0  8.358394009E+00  1.113640626E+00 -2.109484300E+02  2.111703236E+02  4.750000000E+00  0.00000E+00  9.000E+00
      -5     1     1     2     0   503 -1.261793982E+01  7.401396874E+01 -2.451630163E+02  2.564463824E+02  4.750000000E+00  0.00000E+00  9.000E+00
      21     1     1     2   511   502  1.210809321E+01 -5.211790830E+00 -1.894132446E+00  1.331752314E+01  1.134838627E-07  0.00000E+00  9.000E+00
#rwgt            1           9   1.3326288146825274E-006           2     1225920           0
</event>
<event>
      6   9999  3.45752E-01  8.49070E+01 -1.00000E+00  1.23534E-01
      21    -1     0     0   501   502  0.000000000E+00  0.000000000E+00  9.768952040E+02  9.768952040E+02  0.000000000E+00  0.00000E+00  9.000E+00
      -2    -1     0     0     0   503  0.000000000E+00  0.000000000E+00 -1.842531886E+02  1.842531886E+02  0.000000000E+00  0.00000E+00  9.000E+00
      25     1     1     2     0     0 -6.774215452E+01  6.041703467E+01  6.739667177E+02  6.914447998E+02  1.250022281E+02  0.00000E+00  9.000E+00
       5     1     1     2   501     0  2.774572449E+01  1.114244797E+01  2.271231866E+02  2.291320226E+02  4.750000000E+00  0.00000E+00  9.000E+00
      -5     1     1     2     0   503  1.323791588E+01  9.020768172E+00  5.440534373E+01  5.691327263E+01  4.750000000E+00  0.00000E+00  9.000E+00
      -2     1     1     2     0   502  2.675851414E+01 -8.058025081E+01 -1.628532327E+02  1.836582976E+02  4.672030912E-06  0.00000E+00  9.000E+00
#rwgt            1           9  0.46123673187129538                2     1228872           0
</event>
<event>
      6   9999  3.45752E-01  8.84281E+00 -1.00000E+00  1.93001E-01
      21    -1     0     0   511   502  0.000000000E+00  0.000000000E+00  1.749216977E+01  1.749216977E+01  0.000000000E+00  0.00000E+00  9.000E+00
      21    -1     0     0   502   503  0.000000000E+00  0.000000000E+00 -7.233507923E+02  7.233507923E+02  0.000000000E+00  0.00000E+00  9.000E+00
      25     1     1     2     0     0 -2.990419533E+00 -1.428285731E+01 -6.403334246E+02  6.525758648E+02  1.249616819E+02  0.00000E+00  9.000E+00
       5     1     1     2   501     0 -3.615091924E-01  9.623945829E+00 -2.100379086E+01  2.358967470E+01  4.750000000E+00  0.00000E+00  9.000E+00
      -5     1     1     2     0   503 -9.543414536E-01 -3.064512854E+00 -5.247303109E+01  5.278525834E+01  4.750000000E+00  0.00000E+00  9.000E+00
      21     1     1     2   511   501  4.306270179E+00  7.723424338E+00  7.951624034E+00  1.189216427E+01  1.884864366E-07  0.00000E+00  9.000E+00
#rwgt            1           9   1.2059938494465331E-003           2     1229310           0
</event>
<event>
      6   9999 -3.45752E-01  3.05034E+01 -1.00000E+00  1.47372E-01
      21    -1     0     0   501   502  0.000000000E+00  0.000000000E+00  1.488471796E+02  1.488471796E+02  0.000000000E+00  0.00000E+00  9.000E+00
       2    -1     0     0   502     0  0.000000000E+00  0.000000000E+00 -1.315217357E+03  1.315217357E+03  0.000000000E+00  0.00000E+00  9.000E+00
      25     1     1     2     0     0 -8.112688184E+00  1.119756530E+01 -1.694239154E+02  2.109965655E+02  1.249955454E+02  0.00000E+00  9.000E+00
       5     1     1     2   501     0 -1.388731491E+01 -9.992417024E+00  1.121326814E+02  1.135297610E+02  4.750000000E+00  0.00000E+00  9.000E+00
      -5     1     1     2     0   503 -6.495713496E+00 -1.208881473E+01  1.151232073E+01  1.853185808E+01  4.750000000E+00  0.00000E+00  9.000E+00
       2     1     1     2   503     0  2.849571659E+01  1.088366646E+01 -1.120591264E+03  1.121006352E+03  1.525878906E-05  0.00000E+00  9.000E+00
#rwgt            1           9  -8.3447410990390399E-004           2     1231650           0
</event>
<event>
      6   9999  3.45752E-01  5.39320E+00 -1.00000E+00  2.20718E-01
      21    -1     0     0   511   502  0.000000000E+00  0.000000000E+00  1.533595180E+01  1.533595180E+01  0.000000000E+00  0.00000E+00  9.000E+00
      21    -1     0     0   502   503  0.000000000E+00  0.000000000E+00 -7.420169272E+02  7.420169272E+02  0.000000000E+00  0.00000E+00  9.000E+00
      25     1     1     2     0     0 -9.573830305E+00 -9.390708715E+00 -5.787030641E+02  5.922018368E+02  1.250037417E+02  0.00000E+00  9.000E+00
       5     1     1     2   501     0 -2.076559921E-01  3.803570113E-01 -2.852609003E+00  5.557667729E+00  4.750000000E+00  0.00000E+00  9.000E+00
      -5     1     1     2     0   503  4.478832211E+00  9.994463369E+00 -1.510848741E+02  1.515557683E+02  4.750000000E+00  0.00000E+00  9.000E+00
      21     1     1     2   511   501  5.302654086E+00 -9.841116649E-01  5.959571819E+00  8.037606136E+00  3.475518164E-07  0.00000E+00  9.000E+00
#rwgt            1           9   3.6647955496970746E-004           2     1233570           0
</event>
<event>
      6   9999  3.45752E-01  3.18901E+00 -1.00000E+00  2.70151E-01
      21    -1     0     0   501   502  0.000000000E+00  0.000000000E+00  4.865552824E+01  4.865552824E+01  0.000000000E+00  0.00000E+00  9.000E+00
      -3    -1     0     0     0   503  0.000000000E+00  0.000000000E+00 -3.943379305E+02  3.943379305E+02  0.000000000E+00  0.00000E+00  9.000E+00
      25     1     1     2     0     0  1.082251527E+01 -2.438542633E+00 -1.273817254E+02  1.788122026E+02  1.249985060E+02  0.00000E+00  9.000E+00
       5     1     1     2   501     0  2.651916612E+00 -1.237917036E-01  2.055184414E+01  2.126002784E+01  4.750000000E+00  0.00000E+00  9.000E+00
      -5     1     1     2     0   503 -1.041800103E+01  3.472293840E+00 -1.566817925E+01  1.971410436E+01  4.750000000E+00  0.00000E+00  9.000E+00
      -3     1     1     2     0   502 -3.056430852E+00 -9.099595037E-01 -2.231843417E+02  2.232071239E+02  2.697398305E-06  0.00000E+00  9.000E+00
#rwgt            1           9   11.983618471499391                2     1237473           0
</event>
<event>
      6   9999  3.45752E-01  1.04650E+01 -1.00000E+00  1.85138E-01
      21    -1     0     0   501   502  0.000000000E+00  0.000000000E+00  3.993567968E+03  3.993567968E+03  0.000000000E+00  0.00000E+00  9.000E+00
      21    -1     0     0   511   503  0.000000000E+00  0.000000000E+00 -5.557119312E+02  5.557119312E+02  0.000000000E+00  0.00000E+00  9.000E+00
      25     1     1     2     0     0  7.184842857E+00 -1.056777685E+01  4.449413781E+02  4.623439808E+02  1.250033070E+02  0.00000E+00  9.000E+00
       5     1     1     2   501     0  1.643229134E-01  1.994226058E+00  3.532254305E+03  3.532258066E+03  4.750000000E+00  0.00000E+00  9.000E+00
      -5     1     1     2     0   503 -4.524609778E+00 -1.503076493E+00  6.132683733E+00  9.105143730E+00  4.750000000E+00  0.00000E+00  9.000E+00
      21     1     1     2   511   502 -2.824555993E+00  1.007662729E+01 -5.454723307E+02  5.455727084E+02  2.157918644E-05  0.00000E+00  9.000E+00
#rwgt            1           9   1.7575662614421775E-004           2     1243178           0
</event>
<event>
      6   9999  3.45752E-01  1.86848E+00 -1.00000E+00  3.44751E-01
      21    -1     0     0   512   502  0.000000000E+00  0.000000000E+00  1.275187717E+01  1.275187717E+01  0.000000000E+00  0.00000E+00  9.000E+00
      21    -1     0     0   502   503  0.000000000E+00  0.000000000E+00 -1.383067342E+03  1.383067342E+03  0.000000000E+00  0.00000E+00  9.000E+00
      25     1     1     2     0     0 -2.367120591E+00  2.297040729E+00 -1.335380936E+03  1.341222209E+03  1.249955591E+02  0.00000E+00  9.000E+00
       5     1     1     2   501     0  6.008279104E-01 -3.274385744E-01 -5.727142247E+00  7.472005656E+00  4.750000000E+00  0.00000E+00  9.000E+00
      -5     1     1     2     0   503  1.618245332E+00 -1.069968279E-01 -3.790148814E+01  3.823238770E+01  4.750000000E+00  0.00000E+00  9.000E+00
      21     1     1     2   512   501  1.480473492E-01 -1.862605326E+00  8.694102034E+00  8.892616420E+00  7.348554138E-07  0.00000E+00  9.000E+00
#rwgt            1           9   6.0925391823298783E-004           2     1246486           0
</event>
<event>
      6   9999  3.45752E-01  6.53330E+00 -1.00000E+00  2.09033E-01
      21    -1     0     0   501   511  0.000000000E+00  0.000000000E+00  1.982905096E+03  1.982905096E+03  0.000000000E+00  0.00000E+00  9.000E+00
      21    -1     0     0   502   503  0.000000000E+00  0.000000000E+00 -1.117019372E+01  1.117019372E+01  0.000000000E+00  0.00000E+00  9.000E+00
      25     1     1     2     0     0  3.779554676E+00  1.953694308E-01  3.493301857E+02  3.710432273E+02  1.250086986E+02  0.00000E+00  9.000E+00
       5     1     1     2   501     0  4.669253473E-01  2.789850532E+00  3.615503689E+02  3.615926341E+02  4.750000000E+00  0.00000E+00  9.000E+00
      -5     1     1     2     0   503  1.625056784E+00 -1.200781773E-01  2.192046021E+01  2.248831483E+01  4.750000000E+00  0.00000E+00  9.000E+00
      21     1     1     2   502   511 -5.871536807E+00 -2.865141785E+00  1.238933888E+03  1.238951114E+03  1.525878906E-05  0.00000E+00  9.000E+00
#rwgt            1           9   2.6401157956943526E-003           2     1253648           0
</event>
<event>
      6   9999 -3.45752E-01  5.42265E+00 -1.00000E+00  2.20367E-01
      21    -1     0     0   502   512  0.000000000E+00  0.000000000E+00  5.847336498E+01  5.847336498E+01  0.000000000E+00  0.00000E+00  9.000E+00
      21    -1     0     0   501   502  0.000000000E+00  0.000000000E+00 -7.052996637E+02  7.052996637E+02  0.000000000E+00  0.00000E+00  9.000E+00
      25     1     1     2     0     0  2.196472519E+01 -2.238668858E+01 -6.831389799E+02  6.951795855E+02  1.249486986E+02  0.00000E+00  9.000E+00
       5     1     1     2   501     0 -2.630816852E+00 -1.315880987E-01  3.068193599E+01  3.115898279E+01  4.750000000E+00  0.00000E+00  9.000E+00
      -5     1     1     2     0   503 -1.491401248E+01  2.565987593E+01  8.585454476E+00  3.125907116E+01  4.750000000E+00  0.00000E+00  9.000E+00
      21     1     1     2   503   512 -4.419895865E+00 -3.141599259E+00 -2.954709303E+00  6.175389253E+00  1.397852826E-07  0.00000E+00  9.000E+00
#rwgt            1           9 -0.21812269814893881                2     1256982           0
</event>
<event>
      6   9999  3.45752E-01  1.26087E+01 -1.00000E+00  1.77178E-01
      21    -1     0     0   501   502  0.000000000E+00  0.000000000E+00  7.561764608E+00  7.561764608E+00  0.000000000E+00  0.00000E+00  9.000E+00
      21    -1     0     0   511   503  0.000000000E+00  0.000000000E+00 -1.364333300E+03  1.364333300E+03  0.000000000E+00  0.00000E+00  9.000E+00
      25     1     1     2     0     0 -1.821703037E+00  1.031615214E+01 -5.914095939E+02  6.045666238E+02  1.250030129E+02  0.00000E+00  9.000E+00
       5     1     1     2   501     0 -2.420487553E-01  8.406636175E-01 -8.427210151E+00  9.713170123E+00  4.750000000E+00  0.00000E+00  9.000E+00
      -5     1     1     2     0   503 -3.581005808E-01  1.217076937E+00 -2.082236065E+01  2.139492266E+01  4.750000000E+00  0.00000E+00  9.000E+00
      21     1     1     2   511   502  2.421852373E+00 -1.237389269E+01 -7.361123706E+02  7.362203479E+02  1.078959322E-05  0.00000E+00  9.000E+00
#rwgt            1           9   5.3210480742550508E-004           2     1262523           0
</event>
<event>
      6   9999 -3.45752E-01  1.10028E+01 -1.00000E+00  1.82925E-01
      21    -1     0     0   501   502  0.000000000E+00  0.000000000E+00  1.780955512E+01  1.780955512E+01  0.000000000E+00  0.00000E+00  9.000E+00
      21    -1     0     0   512   503  0.000000000E+00  0.000000000E+00 -3.091452284E+03  3.091452284E+03  0.000000000E+00  0.00000E+00  9.000E+00
      25     1     1     2     0     0 -4.550111069E+01  4.155421426E+01 -7.858405735E+02  7.980997463E+02  1.249827763E+02  0.00000E+00  9.000E+00
       5     1     1     2   501     0 -1.721223993E+00 -3.270637438E+00  3.673867273E+00  7.051204296E+00  4.750000000E+00  0.00000E+00  9.000E+00
      -5     1     1     2     0   503  4.223350939E+01 -4.809037520E+01 -1.570614341E+02  1.696679406E+02  4.750000000E+00  0.00000E+00  9.000E+00
      21     1     1     2   512   502  4.988825287E+00  9.806798372E+00 -2.134414589E+03  2.134442948E+03  3.051757812E-05  0.00000E+00  9.000E+00
#rwgt            1           9  -7.0289498107339208E-006           2     1264149           0
</event>
<event>
      6   9999  3.45752E-01  1.15939E+01 -1.00000E+00  1.80673E-01
      21    -1     0     0   511   502  0.000000000E+00  0.000000000E+00  1.038031518E+02  1.038031518E+02  0.000000000E+00  0.00000E+00  9.000E+00
      21    -1     0     0   502   503  0.000000000E+00  0.000000000E+00 -2.085052989E+03  2.085052989E+03  0.000000000E+00  0.00000E+00  9.000E+00
      25     1     1     2     0     0 -4.538439839E+00 -1.470811636E+01 -1.947979039E+03  1.952046187E+03  1.250002258E+02  0.00000E+00  9.000E+00
       5     1     1     2   501     0  8.128266255E+00  1.193336986E+01  2.312943084E+01  2.767683326E+01  4.750000000E+00  0.00000E+00  9.000E+00
      -5     1     1     2     0   503 -5.651476587E+00  1.418384606E+01 -1.318407674E+02  1.328068941E+02  4.750000000E+00  0.00000E+00  9.000E+00
      21     1     1     2   511   501  2.061650170E+00 -1.140909955E+01  7.544053819E+01  7.632622587E+01  4.370284743E-06  0.00000E+00  9.000E+00
#rwgt            1           9   2.4621856728572684E-004           2     1267813           0
</event>
<event>
      6   9999  3.45752E-01  1.10054E+01 -1.00000E+00  1.82915E-01
      21    -1     0     0   501   502  0.000000000E+00  0.000000000E+00  7.714637946E+02  7.714637946E+02  0.000000000E+00  0.00000E+00  9.000E+00
      21    -1     0     0   502   512  0.000000000E+00  0.000000000E+00 -2.879496502E+01  2.879496502E+01  0.000000000E+00  0.00000E+00  9.000E+00
      25     1     1     2     0     0 -6.332802679E+00  5.612623766E+00  1.623190504E+02  2.050463082E+02  1.249996337E+02  0.00000E+00  9.000E+00
       5     1     1     2   501     0 -5.460437087E+00  7.272897613E+00  5.693810949E+02  5.694735333E+02  4.750000000E+00  0.00000E+00  9.000E+00
      -5     1     1     2     0   503  4.345367294E+00 -4.783144857E+00  1.226808780E+01  1.465705189E+01  4.750000000E+00  0.00000E+00  9.000E+00
      21     1     1     2   503   512  7.447872473E+00 -8.102376522E+00 -1.299403564E+00  1.108186624E+01  4.477792740E-07  0.00000E+00  9.000E+00
#rwgt            1           9   4.8375136812049255E-005           2     1271318           0
</event>
<event>
      6   9999  3.45752E-01  1.25323E+01 -1.00000E+00  1.77426E-01
      21    -1     0     0   501   502  0.000000000E+00  0.000000000E+00  1.429450833E+01  1.429450833E+01  0.000000000E+00  0.00000E+00  9.000E+00
      21    -1     0     0   511   503  0.000000000E+00  0.000000000E+00 -1.785281777E+03  1.785281777E+03  0.000000000E+00  0.00000E+00  9.000E+00
      25     1     1     2     0     0  5.482009808E+00  7.951118661E+00 -7.630883720E+02  7.733199661E+02  1.250065347E+02  0.00000E+00  9.000E+00
       5     1     1     2   501     0  1.603425102E+00 -3.921554960E-02  8.234565208E+00  9.640698838E+00  4.750000000E+00  0.00000E+00  9.000E+00
      -5     1     1     2     0   503 -6.186315986E-01  2.822988648E+00 -3.826368987E+01  3.866554581E+01  4.750000000E+00  0.00000E+00  9.000E+00
      21     1     1     2   511   502 -6.466803311E+00 -1.073489176E+01 -9.778697723E+02  9.779500749E+02  1.078959322E-05  0.00000E+00  9.000E+00
#rwgt            1           9   3.3074622335303214E-005           2     1273985           0
</event>
<event>
      6   9999  3.45752E-01  1.06030E+02 -1.00000E+00  1.19364E-01
      21    -1     0     0   512   503  0.000000000E+00  0.000000000E+00  4.112266222E+02  4.112266222E+02  0.000000000E+00  0.00000E+00  9.000E+00
      21    -1     0     0   501   502  0.000000000E+00  0.000000000E+00 -5.169347343E+02  5.169347343E+02  0.000000000E+00  0.00000E+00  9.000E+00
      25     1     1     2     0     0 -8.176992161E+01 -3.122762632E+02  1.124109506E+01  3.463439755E+02  1.250000099E+02  0.00000E+00  9.000E+00
       5     1     1     2   501     0  7.628896638E+01 -1.658074453E+01 -5.835264182E+01  9.758340426E+01  4.750000000E+00  0.00000E+00  9.000E+00
      -5     1     1     2     0   503 -1.001719057E+02  3.377955494E+02 -1.061776836E+02  3.680169927E+02  4.750000000E+00  0.00000E+00  9.000E+00
      21     1     1     2   512   502  1.056528610E+02 -8.938541654E+00  4.758111828E+01  1.162169840E+02  6.743495762E-07  0.00000E+00  9.000E+00
#rwgt            1           9   1.2662185427792314E-003           2     1276348           0
</event>
<event>
      6   9999 -3.45752E-01  2.07061E+01 -1.00000E+00  1.59069E-01
      21    -1     0     0   501   511  0.000000000E+00  0.000000000E+00  1.048118115E+01  1.048118115E+01  0.000000000E+00  0.00000E+00  9.000E+00
      21    -1     0     0   502   503  0.000000000E+00  0.000000000E+00 -7.434710930E+02  7.434710930E+02  0.000000000E+00  0.00000E+00  9.000E+00
      25     1     1     2     0     0 -1.015491715E+01  3.797042568E+01 -5.899283777E+02  6.042920226E+02  1.249339112E+02  0.00000E+00  9.000E+00
       5     1     1     2   501     0  4.782101455E+00 -1.048888401E+01 -4.679487897E+01  4.842735157E+01  4.750000000E+00  0.00000E+00  9.000E+00
      -5     1     1     2     0   503 -3.553645697E+00 -8.798334190E+00 -3.293961022E+01  3.460663959E+01  4.750000000E+00  0.00000E+00  9.000E+00
      21     1     1     2   502   511  8.926461388E+00 -1.868320748E+01 -6.332704497E+01  6.662626043E+01  9.536743164E-07  0.00000E+00  9.000E+00
#rwgt            1           9  -2.1431158278199794E-004           2     1277808           0
</event>
<event>
      6   9999  3.45752E-01  3.89978E+00 -1.00000E+00  2.50153E-01
      21    -1     0     0   501   502  0.000000000E+00  0.000000000E+00  8.596030448E+01  8.596030448E+01  0.000000000E+00  0.00000E+00  9.000E+00
      21    -1     0     0   502   512  0.000000000E+00  0.000000000E+00 -4.681582233E+02  4.681582233E+02  0.000000000E+00  0.00000E+00  9.000E+00
      25     1     1     2     0     0  7.518021662E+00  3.068268995E+01  2.218732082E+01  1.308263748E+02  1.250012601E+02  0.00000E+00  9.000E+00
       5     1     1     2   501     0 -1.001616043E+00  4.458560212E-01  8.129248127E+00  9.478881653E+00  4.750000000E+00  0.00000E+00  9.000E+00
      -5     1     1     2     0   503 -7.586654594E+00 -2.737850224E+01 -3.549542460E+02  3.561210735E+02  4.750000000E+00  0.00000E+00  9.000E+00
      21     1     1     2   503   512  1.070248975E+00 -3.750043733E+00 -5.756024173E+01  5.769219782E+01  6.743495762E-07  0.00000E+00  9.000E+00
#rwgt            1           9   9.4569820460385461E-004           2     1278971           0
</event>
<event>
      6   9999  3.45752E-01  1.84274E+01 -1.00000E+00  1.62973E-01
      21    -1     0     0   511   502  0.000000000E+00  0.000000000E+00  3.249414080E+01  3.249414080E+01  0.000000000E+00  0.00000E+00  9.000E+00
      21    -1     0     0   502   503  0.000000000E+00  0.000000000E+00 -3.862196332E+03  3.862196332E+03  0.000000000E+00  0.00000E+00  9.000E+00
      25     1     1     2     0     0 -1.200532575E+01  4.500199394E+00 -3.725191516E+03  3.727310128E+03  1.249983109E+02  0.00000E+00  9.000E+00
       5     1     1     2   501     0  1.564949022E+01 -1.758333296E+01  1.731712155E+01  2.960617065E+01  4.750000000E+00  0.00000E+00  9.000E+00
      -5     1     1     2     0   503  1.073313231E+01  1.556599121E+00 -1.184493990E+02  1.190396815E+02  4.750000000E+00  0.00000E+00  9.000E+00
      21     1     1     2   511   501 -1.437729677E+01  1.152653444E+01 -3.378397829E+00  1.873449307E+01  5.413860716E-07  0.00000E+00  9.000E+00
#rwgt            1           9   5.8278577789185474E-005           2     1285391           0
</event>
<event>
      6   9999 -3.45752E-01  9.07418E+00 -1.00000E+00  1.91750E-01
      -3    -1     0     0     0   503  0.000000000E+00  0.000000000E+00  3.993504878E+01  3.993504878E+01  0.000000000E+00  0.00000E+00  9.000E+00
      21    -1     0     0   501   502  0.000000000E+00  0.000000000E+00 -7.755455375E+02  7.755455375E+02  0.000000000E+00  0.00000E+00  9.000E+00
      25     1     1     2     0     0 -7.309947143E+00  1.005743187E+01 -4.452964448E+02  4.626732412E+02  1.249920679E+02  0.00000E+00  9.000E+00
       5     1     1     2   501     0  6.962592251E+00 -6.199445370E+00 -3.040522756E+02  3.042322462E+02  4.750000000E+00  0.00000E+00  9.000E+00
      -5     1     1     2     0   503  1.432186953E+00  5.151118144E+00 -1.597732702E+01  1.750493234E+01  4.750000000E+00  0.00000E+00  9.000E+00
      -3     1     1     2     0   502 -1.084832061E+00 -9.009104645E+00  2.971555870E+01  3.107016665E+01  1.215700987E-06  0.00000E+00  9.000E+00
#rwgt            1           9  -1.9626307789720717E-004           2     1288100           0
</event>
<event>
      6   9999  3.45752E-01  1.07552E+01 -1.00000E+00  1.83923E-01
      21    -1     0     0   501   502  0.000000000E+00  0.000000000E+00  1.322156153E+02  1.322156153E+02  0.000000000E+00  0.00000E+00  9.000E+00
      21    -1     0     0   511   503  0.000000000E+00  0.000000000E+00 -1.632901535E+02  1.632901535E+02  0.000000000E+00  0.00000E+00  9.000E+00
      25     1     1     2     0     0 -5.418615825E+01 -5.157136461E+00 -7.509403076E+00  1.365329362E+02  1.249884624E+02  0.00000E+00  9.000E+00
       5     1     1     2   501     0 -4.491712583E-01  1.411066540E+00  4.942346467E+01  4.967327474E+01  4.750000000E+00  0.00000E+00  9.000E+00
      -5     1     1     2     0   503  6.503293817E+01  6.496412911E+00 -4.548546265E+01  7.976826588E+01  4.750000000E+00  0.00000E+00  9.000E+00
      21     1     1     2   511   502 -1.039760867E+01 -2.750342990E+00 -2.750313715E+01  2.953129198E+01  4.768371582E-07  0.00000E+00  9.000E+00
#rwgt            1           9   5.5522616799509912                2     1290579           0
</event>
<event>
      6   9999  3.45752E-01  1.96476E+01 -1.00000E+00  1.60802E-01
      21    -1     0     0   512   503  0.000000000E+00  0.000000000E+00  1.642941854E+03  1.642941854E+03  0.000000000E+00  0.00000E+00  9.000E+00
      21    -1     0     0   501   502  0.000000000E+00  0.000000000E+00 -2.791639752E+03  2.791639752E+03  0.000000000E+00  0.00000E+00  9.000E+00
      25     1     1     2     0     0  6.171885880E+01 -3.907312037E+00 -6.543880825E+02  6.690843267E+02  1.250023561E+02  0.00000E+00  9.000E+00
       5     1     1     2   501     0 -6.355686798E+01  3.182584979E+01 -2.079668356E+03  2.080888126E+03  4.750000000E+00  0.00000E+00  9.000E+00
      -5     1     1     2     0   503  8.391586081E+00 -9.396098384E+00 -4.865197627E+01  5.048051779E+01  4.750000000E+00  0.00000E+00  9.000E+00
      21     1     1     2   512   502 -6.553576902E+00 -1.852243937E+01  1.634010516E+03  1.634128635E+03  0.000000000E+00  0.00000E+00  9.000E+00
#rwgt            1           9   2.3089243375234891E-002           2     1293758           0
</event>
<event>
      6   9999  3.45752E-01  6.54545E+00 -1.00000E+00  2.08926E-01
      21    -1     0     0   511   502  0.000000000E+00  0.000000000E+00  1.175607327E+02  1.175607327E+02  0.000000000E+00  0.00000E+00  9.000E+00
      21    -1     0     0   502   503  0.000000000E+00  0.000000000E+00 -6.575627528E+02  6.575627528E+02  0.000000000E+00  0.00000E+00  9.000E+00
      25     1     1     2     0     0  8.884291378E+00 -1.425827664E+01 -5.899249578E+02  6.032582813E+02  1.250074755E+02  0.00000E+00  9.000E+00
       5     1     1     2   501     0 -1.647331127E+00  1.154552307E+01  1.071197023E+02  1.078573406E+02  4.750000000E+00  0.00000E+00  9.000E+00
      -5     1     1     2     0   503 -4.235978104E+00  8.529717274E+00 -5.642175003E+01  5.741668716E+01  4.750000000E+00  0.00000E+00  9.000E+00
      21     1     1     2   511   501 -3.000982147E+00 -5.816963703E+00 -7.750145500E-01  6.591176536E+00  1.413648275E-07  0.00000E+00  9.000E+00
#rwgt            1           9  0.29710104857060549                2     1295683           0
</event>
<event>
      6   9999  3.45752E-01  1.90458E+01 -1.00000E+00  1.61848E-01
      21    -1     0     0   501   512  0.000000000E+00  0.000000000E+00  1.640179262E+02  1.640179262E+02  0.000000000E+00  0.00000E+00  9.000E+00
      21    -1     0     0   502   503  0.000000000E+00  0.000000000E+00 -1.767302108E+03  1.767302108E+03  0.000000000E+00  0.00000E+00  9.000E+00
      25     1     1     2     0     0 -1.067812926E+01 -3.219103125E+01 -1.524407720E+03  1.529899845E+03  1.249974173E+02  0.00000E+00  9.000E+00
       5     1     1     2   501     0  1.870018922E-01  2.093749928E+01  8.827868407E+01  9.085209082E+01  4.750000000E+00  0.00000E+00  9.000E+00
      -5     1     1     2     0   503 -7.532479678E+00  1.740906508E+01 -2.371874642E+02  2.379921626E+02  4.750000000E+00  0.00000E+00  9.000E+00
      21     1     1     2   502   512  1.802360705E+01 -6.155533105E+00  7.003231773E+01  7.257593627E+01  9.536743164E-07  0.00000E+00  9.000E+00
#rwgt            1           9   3.0823801337708461E-004           2     1300982           0
</event>
<event>
      6   9999  3.45752E-01  1.10394E+01 -1.00000E+00  1.82781E-01
      21    -1     0     0   501   502  0.000000000E+00  0.000000000E+00  7.811157643E+00  7.811157643E+00  0.000000000E+00  0.00000E+00  9.000E+00
      21    -1     0     0   511   503  0.000000000E+00  0.000000000E+00 -1.055401167E+03  1.055401167E+03  0.000000000E+00  0.00000E+00  9.000E+00
      25     1     1     2     0     0  1.165861386E+01  2.261782843E+00 -6.026426434E+02  6.155915652E+02  1.250351173E+02  0.00000E+00  9.000E+00
       5     1     1     2   501     0 -2.714703529E+00 -5.018380450E+00 -2.596708974E+01  2.700751761E+01  4.750000000E+00  0.00000E+00  9.000E+00
      -5     1     1     2     0   503 -1.500966194E+01  1.198015858E+01 -1.374284080E+02  1.388450358E+02  4.750000000E+00  0.00000E+00  9.000E+00
      21     1     1     2   511   502  6.065751606E+00 -9.223560969E+00 -2.815518687E+02  2.817682065E+02  6.607249480E-06  0.00000E+00  9.000E+00
#rwgt            1           9   558.13921925270040                2     1304083           0
</event>
<event>
      6   9999  3.45752E-01  8.08881E+00 -1.00000E+00  1.97449E-01
      21    -1     0     0   512   502  0.000000000E+00  0.000000000E+00  6.267751138E+01  6.267751138E+01  0.000000000E+00  0.00000E+00  9.000E+00
      21    -1     0     0   502   503  0.000000000E+00  0.000000000E+00 -2.651132646E+03  2.651132646E+03  0.000000000E+00  0.00000E+00  9.000E+00
      25     1     1     2     0     0  3.327449050E+00  4.570092487E+00 -2.523202997E+03  2.526303756E+03  1.250013925E+02  0.00000E+00  9.000E+00
       5     1     1     2   501     0  5.817564734E-01  2.080081261E-01 -1.809565307E+01  1.871889067E+01  4.750000000E+00  0.00000E+00  9.000E+00
      -5     1     1     2     0   503  3.156011608E+00 -8.396276497E-01 -1.076255629E+02  1.077798203E+02  4.750000000E+00  0.00000E+00  9.000E+00
      21     1     1     2   512   501 -7.065217132E+00 -3.938472963E+00  6.046907805E+01  6.100769020E+01  2.336015456E-06  0.00000E+00  9.000E+00
#rwgt            1           9   1.6736893354656331E-004           2     1306038           0
</event>
<event>
      6   9999  3.45752E-01  1.85461E+01 -1.00000E+00  1.62753E-01
      21    -1     0     0   511   502  0.000000000E+00  0.000000000E+00  1.630727639E+02  1.630727639E+02  0.000000000E+00  0.00000E+00  9.000E+00
      21    -1     0     0   502   503  0.000000000E+00  0.000000000E+00 -2.782170448E+02  2.782170448E+02  0.000000000E+00  0.00000E+00  9.000E+00
      25     1     1     2     0     0 -4.352448021E+00  1.238566063E+01 -2.488918060E+02  2.788268246E+02  1.249996747E+02  0.00000E+00  9.000E+00
       5     1     1     2   501     0 -6.366440397E-01  5.742696251E+00  1.022888639E+01  1.267187803E+01  4.750000000E+00  0.00000E+00  9.000E+00
      -5     1     1     2     0   503  1.070575639E+00 -9.548935759E-04 -1.203080809E+01  1.297878948E+01  4.750000000E+00  0.00000E+00  9.000E+00
      21     1     1     2   511   501  3.918516421E+00 -1.812740198E+01  1.355494467E+02  1.368123166E+02  2.697398305E-06  0.00000E+00  9.000E+00
#rwgt            1           9  0.10642174260359542                2     1308657           0
</event>
<event>
      6   9999  3.45752E-01  1.96384E+02 -1.00000E+00  1.09169E-01
      21    -1     0     0   501   502  0.000000000E+00  0.000000000E+00  5.401280186E+01  5.401280186E+01  0.000000000E+00  0.00000E+00  9.000E+00
      21    -1     0     0   502   512  0.000000000E+00  0.000000000E+00 -1.882739812E+03  1.882739812E+03  0.000000000E+00  0.00000E+00  9.000E+00
      25     1     1     2     0     0  2.494934596E+01 -1.464379658E+02 -9.513327458E+02  9.709412603E+02  1.250055601E+02  0.00000E+00  9.000E+00
       5     1     1     2   501     0 -2.359571064E+01  7.906457460E+00 -4.857656783E+00  2.579590974E+01  4.750000000E+00  0.00000E+00  9.000E+00
      -5     1     1     2     0   503 -1.437188714E+02  3.258536622E+00 -2.648791732E+02  3.014121281E+02  4.750000000E+00  0.00000E+00  9.000E+00
      21     1     1     2   503   512  1.423652361E+02  1.352729717E+02 -6.076574348E+02  6.386033161E+02  7.629394531E-06  0.00000E+00  9.000E+00
#rwgt            1           9   2.8236304623891679E-005           2     1309815           0
</event>
<event>
      6   9999 -3.45752E-01  1.35322E+01 -1.00000E+00  1.74341E-01
      21    -1     0     0   501   502  0.000000000E+00  0.000000000E+00  4.746812736E+01  4.746812736E+01  0.000000000E+00  0.00000E+00  9.000E+00
       2    -1     0     0   502     0  0.000000000E+00  0.000000000E+00 -2.517448594E+03  2.517448594E+03  0.000000000E+00  0.00000E+00  9.000E+00
      25     1     1     2     0     0 -1.270868726E+02  7.807070502E+01 -6.662492426E+02  6.940883232E+02  1.249977555E+02  0.00000E+00  9.000E+00
       5     1     1     2   501     0  1.659604714E-01 -5.081666600E+00  2.348172049E+01  2.449090802E+01  4.750000000E+00  0.00000E+00  9.000E+00
      -5     1     1     2     0   503  1.402387497E+02 -7.058997667E+01 -6.381295302E+02  6.571770777E+02  4.750000000E+00  0.00000E+00  9.000E+00
       2     1     1     2   503     0 -1.331783750E+01 -2.399061749E+00 -1.189083414E+03  1.189160413E+03  2.157918644E-05  0.00000E+00  9.000E+00
#rwgt            1           9  -6.9473247015500845E-005           2     1310584           0
</event>
<event>
      6   9999 -3.45752E-01  4.05307E+01 -1.00000E+00  1.39855E-01
      21    -1     0     0   501   502  0.000000000E+00  0.000000000E+00  9.413947241E+00  9.413947241E+00  0.000000000E+00  0.00000E+00  9.000E+00
      21    -1     0     0   511   503  0.000000000E+00  0.000000000E+00 -2.727532742E+03  2.727532742E+03  0.000000000E+00  0.00000E+00  9.000E+00
      25     1     1     2     0     0 -7.869152073E+01  1.272466699E+01 -1.145364044E+03  1.154919036E+03  1.249996608E+02  0.00000E+00  9.000E+00
       5     1     1     2   501     0 -6.966849541E+00 -3.230296314E+00 -3.503320085E+00  9.685430213E+00  4.750000000E+00  0.00000E+00  9.000E+00
      -5     1     1     2     0   503  4.564819784E+01 -1.596937533E+01 -5.084597494E+02  5.107765246E+02  4.750000000E+00  0.00000E+00  9.000E+00
      21     1     1     2   511   502  4.001017242E+01  6.475004649E+00 -1.060791681E+03  1.061565698E+03  0.000000000E+00  0.00000E+00  9.000E+00
#rwgt            1           9  -1.2195130937896760E-005           2     1314159           0
</event>
<event>
      6   9999  3.45752E-01  2.00215E+01 -1.00000E+00  1.60175E-01
      21    -1     0     0   501   512  0.000000000E+00  0.000000000E+00  6.475685166E+01  6.475685166E+01  0.000000000E+00  0.00000E+00  9.000E+00
      21    -1     0     0   502   503  0.000000000E+00  0.000000000E+00 -2.454900187E+02  2.454900187E+02  0.000000000E+00  0.00000E+00  9.000E+00
      25     1     1     2     0     0  4.435742472E+01 -6.536930177E+00 -1.620144514E+02  2.094930864E+02  1.250134320E+02  0.00000E+00  9.000E+00
       5     1     1     2   501     0  3.948001225E+00  8.031801926E-01  1.116654387E+01  1.278616495E+01  4.750000000E+00  0.00000E+00  9.000E+00
      -5     1     1     2     0   503 -3.069396254E+01  1.525733389E+01 -4.919832238E+01  6.014933914E+01  4.750000000E+00  0.00000E+00  9.000E+00
      21     1     1     2   502   512 -1.761146340E+01 -9.523583905E+00  1.931306295E+01  2.781827985E+01  6.307962682E-07  0.00000E+00  9.000E+00
#rwgt            1           9   1.5603965025805719                2     1315063           0
</event>
<event>
      6   9999  3.45752E-01  1.04863E+01 -1.00000E+00  1.85047E-01
      21    -1     0     0   501   511  0.000000000E+00  0.000000000E+00  1.162876805E+01  1.162876805E+01  0.000000000E+00  0.00000E+00  9.000E+00
      21    -1     0     0   502   503  0.000000000E+00  0.000000000E+00 -7.256691467E+02  7.256691467E+02  0.000000000E+00  0.00000E+00  9.000E+00
      25     1     1     2     0     0  1.937781930E+01 -2.264822555E+01 -5.743541009E+02  5.885547387E+02  1.250024206E+02  0.00000E+00  9.000E+00
       5     1     1     2   501     0 -4.843438527E+00  3.800213081E+00 -2.450512717E+01  2.570922546E+01  4.750000000E+00  0.00000E+00  9.000E+00
      -5     1     1     2     0   503 -7.468069927E+00  2.659593949E+01 -1.039735461E+02  1.076855461E+02  4.750000000E+00  0.00000E+00  9.000E+00
      21     1     1     2   502   511 -7.066310850E+00 -7.747927019E+00 -1.120760452E+01  1.534840452E+01  3.953724850E-07  0.00000E+00  9.000E+00
#rwgt            1           9   1.0987744776214305E-003           2     1316685           0
</event>
<event>
      6   9999 -3.45752E-01  5.39967E+00 -1.00000E+00  2.20641E-01
       2    -1     0     0   501     0  0.000000000E+00  0.000000000E+00  1.041370760E+02  1.041370760E+02  0.000000000E+00  0.00000E+00  9.000E+00
      21    -1     0     0   502   503  0.000000000E+00  0.000000000E+00 -2.354480803E+03  2.354480803E+03  0.000000000E+00  0.00000E+00  9.000E+00
      25     1     1     2     0     0  2.240060877E+01  1.019013956E+01 -1.792930211E+03  1.797450784E+03  1.249998100E+02  0.00000E+00  9.000E+00
       5     1     1     2   501     0 -1.025678703E+01  6.401211356E+00  2.540191246E+01  2.853062992E+01  4.750000000E+00  0.00000E+00  9.000E+00
      -5     1     1     2     0   503 -1.749366259E+01 -1.585950154E+01 -5.573682227E+02  5.578883851E+02  4.750000000E+00  0.00000E+00  9.000E+00
       2     1     1     2   502     0  5.349840848E+00 -7.318493720E-01  7.455279414E+01  7.474808034E+01  1.651812370E-06  0.00000E+00  9.000E+00
#rwgt            1           9  -2.1029633504444150E-004           2     1319686           0
</event>
<event>
      6   9999  3.45752E-01  2.39196E+01 -1.00000E+00  1.54496E-01
      21    -1     0     0   501   502  0.000000000E+00  0.000000000E+00  1.670665593E+01  1.670665593E+01  0.000000000E+00  0.00000E+00  9.000E+00
      21    -1     0     0   511   503  0.000000000E+00  0.000000000E+00 -1.012635683E+03  1.012635683E+03  0.000000000E+00  0.00000E+00  9.000E+00
      25     1     1     2     0     0 -1.085038109E-01  1.961944596E+01 -8.339359682E+02  8.434807794E+02  1.250027670E+02  0.00000E+00  9.000E+00
       5     1     1     2   501     0  2.174917917E+01  3.806574568E+00 -1.271533600E+01  2.591831542E+01  4.750000000E+00  0.00000E+00  9.000E+00
      -5     1     1     2     0   503  2.250721415E+00 -2.226532578E+01 -2.718836112E+01  3.553280118E+01  4.750000000E+00  0.00000E+00  9.000E+00
      21     1     1     2   511   502 -2.389139678E+01 -1.160694747E+00 -1.220893618E+02  1.244104430E+02  1.348699152E-06  0.00000E+00  9.000E+00
#rwgt            1           9   3.5696388833221524E-003           2     1325920           0
</event>
<event>
      6   9999  3.45752E-01  5.30945E+00 -1.00000E+00  2.21732E-01
      21    -1     0     0   512   502  0.000000000E+00  0.000000000E+00  6.408546938E+01  6.408546938E+01  0.000000000E+00  0.00000E+00  9.000E+00
      21    -1     0     0   502   503  0.000000000E+00  0.000000000E+00 -3.225664899E+02  3.225664899E+02  0.000000000E+00  0.00000E+00  9.000E+00
      25     1     1     2     0     0  4.094662338E+00 -3.707215643E-01 -2.999407709E+02  3.249631542E+02  1.249787256E+02  0.00000E+00  9.000E+00
       5     1     1     2   501     0  1.514054926E+00 -4.970215513E-01  5.767520858E+00  7.639776802E+00  4.750000000E+00  0.00000E+00  9.000E+00
      -5     1     1     2     0   503 -3.530304339E-01  1.140892257E-01 -8.389877362E+00  9.648325709E+00  4.750000000E+00  0.00000E+00  9.000E+00
      21     1     1     2   512   501 -5.255686831E+00  7.536538899E-01  4.408210689E+01  4.440070254E+01  0.000000000E+00  0.00000E+00  9.000E+00
#rwgt            1           9   7.5373389151140155E-002           2     1327198           0
</event>
<event>
      6   9999  3.45752E-01  1.07794E+01 -1.00000E+00  1.83824E-01
      -1    -1     0     0     0   502  0.000000000E+00  0.000000000E+00  3.966700895E+02  3.966700895E+02  0.000000000E+00  0.00000E+00  9.000E+00
      21    -1     0     0   502   503  0.000000000E+00  0.000000000E+00 -4.235413846E+02  4.235413846E+02  0.000000000E+00  0.00000E+00  9.000E+00
      25     1     1     2     0     0  2.697503221E+01 -1.512025660E+01 -2.944353981E+02  3.213584440E+02  1.249910851E+02  0.00000E+00  9.000E+00
       5     1     1     2   501     0  2.981415605E+00  1.041944155E+01  1.041333475E+02  1.048034835E+02  4.750000000E+00  0.00000E+00  9.000E+00
      -5     1     1     2     0   503 -2.678677910E+01  1.500369267E+01 -1.131098424E+02  1.172989397E+02  4.750000000E+00  0.00000E+00  9.000E+00
      -1     1     1     2     0   501 -3.169668711E+00 -1.030287762E+01  2.765405979E+02  2.767506069E+02  3.814697266E-06  0.00000E+00  9.000E+00
#rwgt            1           9   1.6383725547120601E-003           2     1330557           0
</event>
<event>
      6   9999  3.45752E-01  1.63715E+01 -1.00000E+00  1.67143E-01
      21    -1     0     0   501   502  0.000000000E+00  0.000000000E+00  5.022762142E+01  5.022762142E+01  0.000000000E+00  0.00000E+00  9.000E+00
      21    -1     0     0   511   503  0.000000000E+00  0.000000000E+00 -1.775051858E+03  1.775051858E+03  0.000000000E+00  0.00000E+00  9.000E+00
      25     1     1     2     0     0  2.724744357E+00 -1.677408054E+01 -9.821589577E+02  9.902260821E+02  1.249907255E+02  0.00000E+00  9.000E+00
       5     1     1     2   501     0 -4.658653191E+00  1.410862220E+01  4.446851325E+01  4.712501927E+01  4.750000000E+00  0.00000E+00  9.000E+00
      -5     1     1     2     0   503 -1.334026276E+01  8.558295473E+00 -2.510494353E+02  2.515940947E+02  4.750000000E+00  0.00000E+00  9.000E+00
      21     1     1     2   511   502  1.527417159E+01 -5.892837135E+00 -5.360843567E+02  5.363342832E+02  7.629394531E-06  0.00000E+00  9.000E+00
#rwgt            1           9   1.7105083277872560E-003           2     1333911           0
</event>
<event>
      6   9999  3.45752E-01  1.22386E+01 -1.00000E+00  1.78403E-01
      21    -1     0     0   501   512  0.000000000E+00  0.000000000E+00  1.900741450E+01  1.900741450E+01  0.000000000E+00  0.00000E+00  9.000E+00
      21    -1     0     0   502   503  0.000000000E+00  0.000000000E+00 -9.271335667E+02  9.271335667E+02  0.000000000E+00  0.00000E+00  9.000E+00
      25     1     1     2     0     0  2.947857558E+01 -3.715785006E+01 -8.644075870E+02  8.746856170E+02  1.249990393E+02  0.00000E+00  9.000E+00
       5     1     1     2   501     0 -1.382533695E-01 -4.015033134E-02  1.755124150E+00  5.065933954E+00  4.750000000E+00  0.00000E+00  9.000E+00
      -5     1     1     2     0   503 -2.481755352E+01  2.582578430E+01 -3.414667908E+01  4.971358254E+01  4.750000000E+00  0.00000E+00  9.000E+00
      21     1     1     2   502   512 -4.522768694E+00  1.137221609E+01 -1.132701025E+01  1.667584771E+01  2.920019320E-07  0.00000E+00  9.000E+00
#rwgt            1           9   1.4709007020263708E-004           2     1336566           0
</event>
<event>
      6   9999 -3.45752E-01  5.00416E+00 -1.00000E+00  2.25660E-01
      21    -1     0     0   501   502  0.000000000E+00  0.000000000E+00  2.753863968E+00  2.753863968E+00  0.000000000E+00  0.00000E+00  9.000E+00
      21    -1     0     0   511   503  0.000000000E+00  0.000000000E+00 -3.212831811E+03  3.212831811E+03  0.000000000E+00  0.00000E+00  9.000E+00
      25     1     1     2     0     0 -9.953949547E-01  2.206734803E+00 -2.195924417E+03  2.199480363E+03  1.249958381E+02  0.00000E+00  9.000E+00
       5     1     1     2   501     0  7.978992020E-01  8.396447328E-01 -1.120785565E+01  1.222784424E+01  4.750000000E+00  0.00000E+00  9.000E+00
      -5     1     1     2     0   503  2.078009971E+00  1.591003920E+00 -1.554060206E+01  1.645971541E+01  4.750000000E+00  0.00000E+00  9.000E+00
      21     1     1     2   511   502 -1.880514218E+00 -4.637383456E+00 -9.874050716E+02  9.874177521E+02  1.078959322E-05  0.00000E+00  9.000E+00
#rwgt            1           9  -2.3640518741704151E-003           2     1339093           0
</event>
<event>
      6   9999  3.45752E-01  1.38421E+01 -1.00000E+00  1.73452E-01
      21    -1     0     0   512   502  0.000000000E+00  0.000000000E+00  1.013516997E+01  1.013516997E+01  0.000000000E+00  0.00000E+00  9.000E+00
      21    -1     0     0   502   503  0.000000000E+00  0.000000000E+00 -5.362226766E+03  5.362226766E+03  0.000000000E+00  0.00000E+00  9.000E+00
      25     1     1     2     0     0  9.399147374E-01 -3.173509361E+00 -4.985508327E+03  4.987076289E+03  1.250027005E+02  0.00000E+00  9.000E+00
       5     1     1     2   501     0  1.110124545E+00  1.005087090E+01 -9.733868371E+00  1.481766094E+01  4.750000000E+00  0.00000E+00  9.000E+00
      -5     1     1     2     0   503 -4.073023287E+00  6.816069952E+00 -3.565015079E+02  3.566215584E+02  4.750000000E+00  0.00000E+00  9.000E+00
      21     1     1     2   512   501  2.022984004E+00 -1.369343149E+01 -3.478924591E-01  1.384642767E+01  1.163555528E-06  0.00000E+00  9.000E+00
#rwgt            1           9   3.5369401756256999E-005           2     1342847           0
</event>
<event>
      6   9999  3.45752E-01  2.80452E+01 -1.00000E+00  1.49756E-01
      21    -1     0     0   511   502  0.000000000E+00  0.000000000E+00  1.346032376E+02  1.346032376E+02  0.000000000E+00  0.00000E+00  9.000E+00
      21    -1     0     0   502   503  0.000000000E+00  0.000000000E+00 -1.050475645E+03  1.050475645E+03  0.000000000E+00  0.00000E+00  9.000E+00
      25     1     1     2     0     0 -1.050365172E+02 -9.096649455E+01 -2.298063949E+01  1.883122012E+02  1.250032091E+02  0.00000E+00  9.000E+00
       5     1     1     2   501     0  2.518120152E+00 -1.276845074E+00  1.945563141E+01  2.022511696E+01  4.750000000E+00  0.00000E+00  9.000E+00
      -5     1     1     2     0   503  9.812931117E+01  6.454376582E+01 -9.338391665E+02  9.412084843E+02  4.750000000E+00  0.00000E+00  9.000E+00
      21     1     1     2   511   501  4.389085834E+00  2.769957380E+01  2.149176748E+01  3.533307987E+01  2.384185791E-07  0.00000E+00  9.000E+00
#rwgt            1           9  0.18842121457485159                2     1344896           0
</event>
<event>
      6   9999  3.45752E-01  1.67642E+01 -1.00000E+00  1.66290E-01
      21    -1     0     0   501   512  0.000000000E+00  0.000000000E+00  1.629222301E+01  1.629222301E+01  0.000000000E+00  0.00000E+00  9.000E+00
      21    -1     0     0   502   503  0.000000000E+00  0.000000000E+00 -1.104440183E+03  1.104440183E+03  0.000000000E+00  0.00000E+00  9.000E+00
      25     1     1     2     0     0  3.866972487E+00  7.545480482E+01 -7.200840525E+02  7.347478500E+02  1.249999174E+02  0.00000E+00  9.000E+00
       5     1     1     2   501     0 -1.141822055E+01 -1.070214416E+01 -2.123246099E+01  2.680096173E+01  4.750000000E+00  0.00000E+00  9.000E+00
      -5     1     1     2     0   503  2.204465653E+01 -7.317755132E+01 -2.800178193E+02  2.902989192E+02  4.750000000E+00  0.00000E+00  9.000E+00
      21     1     1     2   502   512 -1.449340847E+01  8.424890664E+00 -6.681362689E+01  6.888467471E+01  1.651812370E-06  0.00000E+00  9.000E+00
#rwgt            1           9   4.0517084185632815E-003           2     1348172           0
</event>
<event>
      6   9999  3.45752E-01  1.93338E+01 -1.00000E+00  1.61342E-01
      21    -1     0     0   502   503  0.000000000E+00  0.000000000E+00  2.646699212E+01  2.646699212E+01  0.000000000E+00  0.00000E+00  9.000E+00
      21    -1     0     0   511   502  0.000000000E+00  0.000000000E+00 -3.190537430E+02  3.190537430E+02  0.000000000E+00  0.00000E+00  9.000E+00
      25     1     1     2     0     0  3.891236899E+01  2.357384876E+01 -2.099170845E+02  2.485160941E+02  1.250006713E+02  0.00000E+00  9.000E+00
       5     1     1     2   501     0 -2.033182210E-01 -1.294158355E+00 -5.535959509E+00  7.411176143E+00  4.750000000E+00  0.00000E+00  9.000E+00
      -5     1     1     2     0   503 -2.100642486E+01 -1.450722921E+01 -3.926336963E+01  4.707339248E+01  4.750000000E+00  0.00000E+00  9.000E+00
      21     1     1     2   511   501 -1.770262591E+01 -7.772461193E+00 -3.787033724E+01  4.252007244E+01  6.743495762E-07  0.00000E+00  9.000E+00
#rwgt            1           9   640.65602104197683                2     1350418           0
</event>
<event>
      6   9999  3.45752E-01  7.08538E+01 -1.00000E+00  1.27157E-01
      21    -1     0     0   512   502  0.000000000E+00  0.000000000E+00  2.408298603E+02  2.408298603E+02  0.000000000E+00  0.00000E+00  9.000E+00
      21    -1     0     0   502   503  0.000000000E+00  0.000000000E+00 -1.059694059E+03  1.059694059E+03  0.000000000E+00  0.00000E+00  9.000E+00
      25     1     1     2     0     0 -3.575955732E+02 -1.117172291E+02 -3.087768718E+02  5.013221720E+02  1.250017214E+02  0.00000E+00  9.000E+00
       5     1     1     2   501     0 -5.193105920E-01 -1.174282888E+00  2.527181958E+00  5.531525327E+00  4.750000000E+00  0.00000E+00  9.000E+00
      -5     1     1     2     0   503  3.121196449E+02  5.899622009E+01 -6.013570685E+02  6.801118386E+02  4.750000000E+00  0.00000E+00  9.000E+00
      21     1     1     2   512   501  4.599523883E+01  5.389529190E+01  8.874255978E+01  1.135583832E+02  9.536743164E-07  0.00000E+00  9.000E+00
#rwgt            1           9   2.9959723328437313E-004           2     1351798           0
</event>
<event>
      6   9999  3.45752E-01  4.71167E+00 -1.00000E+00  2.33995E-01
      21    -1     0     0   501   502  0.000000000E+00  0.000000000E+00  1.481057326E+02  1.481057326E+02  0.000000000E+00  0.00000E+00  9.000E+00
      21    -1     0     0   502   511  0.000000000E+00  0.000000000E+00 -7.336383596E+01  7.336383596E+01  0.000000000E+00  0.00000E+00  9.000E+00
      25     1     1     2     0     0 -9.341522378E+00  1.739705361E+01  9.456765349E+01  1.579821910E+02  1.250016402E+02  0.00000E+00  9.000E+00
       5     1     1     2   501     0 -5.859178135E-01 -3.934519841E-01  1.870329516E+01  1.930994184E+01  4.750000000E+00  0.00000E+00  9.000E+00
      -5     1     1     2     0   503  5.623644126E+00 -1.508600819E+01 -2.807331116E+01  3.270911671E+01  4.750000000E+00  0.00000E+00  9.000E+00
      21     1     1     2   503   511  4.303796065E+00 -1.917593440E+00 -1.045574085E+01  1.146831905E+01  0.000000000E+00  0.00000E+00  9.000E+00
#rwgt            1           9   4.7441500306759556E-003           2     1353221           0
</event>
<event>
      6   9999  3.45752E-01  5.04225E+00 -1.00000E+00  2.25149E-01
      21    -1     0     0   501   512  0.000000000E+00  0.000000000E+00  9.799166463E+00  9.799166463E+00  0.000000000E+00  0.00000E+00  9.000E+00
      21    -1     0     0   502   503  0.000000000E+00  0.000000000E+00 -9.227379384E+02  9.227379384E+02  0.000000000E+00  0.00000E+00  9.000E+00
      25     1     1     2     0     0  5.533587681E+00  8.710422893E+00 -8.350830950E+02  8.444486664E+02  1.249931298E+02  0.00000E+00  9.000E+00
       5     1     1     2   501     0  2.765440833E+00  2.455264608E-01  2.200336958E+00  5.925531957E+00  4.750000000E+00  0.00000E+00  9.000E+00
      -5     1     1     2     0   503 -4.103991951E+00 -1.175344288E+01 -6.202652089E+01  6.344161066E+01  4.750000000E+00  0.00000E+00  9.000E+00
      21     1     1     2   502   512 -4.195036563E+00  2.797493531E+00 -1.802949296E+01  1.872129585E+01  4.129530925E-07  0.00000E+00  9.000E+00
#rwgt            1           9   7.4933777775052241E-003           2     1357489           0
</event>
<event>
      6   9999  3.45752E-01  2.95444E+01 -1.00000E+00  1.48269E-01
      21    -1     0     0   501   511  0.000000000E+00  0.000000000E+00  1.688798489E+01  1.688798489E+01  0.000000000E+00  0.00000E+00  9.000E+00
      21    -1     0     0   502   503  0.000000000E+00  0.000000000E+00 -9.155719119E+02  9.155719119E+02  0.000000000E+00  0.00000E+00  9.000E+00
      25     1     1     2     0     0  3.060252586E+01 -7.810592729E+00 -8.222016860E+02  8.322489273E+02  1.250005784E+02  0.00000E+00  9.000E+00
       5     1     1     2   501     0  6.167597142E+00  8.591912908E+00  1.188808661E+00  1.165486971E+01  4.750000000E+00  0.00000E+00  9.000E+00
      -5     1     1     2     0   503 -7.244961219E+00  2.834346227E-01 -3.866179448E+01  3.962154276E+01  4.750000000E+00  0.00000E+00  9.000E+00
      21     1     1     2   502   511 -2.952516179E+01 -1.064754802E+00 -3.900925523E+01  4.893455706E+01  6.743495762E-07  0.00000E+00  9.000E+00
#rwgt            1           9   1.0523024028206232                2     1361671           0
</event>
<event>
      6   9999 -3.45752E-01  7.28319E+01 -1.00000E+00  1.26591E-01
      21    -1     0     0   501   512  0.000000000E+00  0.000000000E+00  2.246563114E+02  2.246563114E+02  0.000000000E+00  0.00000E+00  9.000E+00
      21    -1     0     0   502   503  0.000000000E+00  0.000000000E+00 -2.181803132E+03  2.181803132E+03  0.000000000E+00  0.00000E+00  9.000E+00
      25     1     1     2     0     0 -2.811950531E+01  3.072952885E+01 -2.159546778E+03  2.163562496E+03  1.250014986E+02  0.00000E+00  9.000E+00
       5     1     1     2   501     0 -1.355257085E+01  4.190408321E+01  4.923689818E+01  6.623034809E+01  4.750000000E+00  0.00000E+00  9.000E+00
      -5     1     1     2     0   503  4.848701105E+00 -9.796293495E+00  8.294113897E+00  1.452005833E+01  4.750000000E+00  0.00000E+00  9.000E+00
      21     1     1     2   502   512  3.682337505E+01 -6.283731856E+01  1.448689454E+02  1.621465414E+02  4.264961200E-06  0.00000E+00  9.000E+00
#rwgt            1           9  -4.7609035223579834E-004           2     1362731           0
</event>
<event>
      6   9999  3.45752E-01  5.25398E+00 -1.00000E+00  2.22418E-01
      21    -1     0     0   511   502  0.000000000E+00  0.000000000E+00  1.311312242E+02  1.311312242E+02  0.000000000E+00  0.00000E+00  9.000E+00
      21    -1     0     0   502   503  0.000000000E+00  0.000000000E+00 -3.115900633E+03  3.115900633E+03  0.000000000E+00  0.00000E+00  9.000E+00
      25     1     1     2     0     0  3.334226246E+01  1.279470938E+02 -1.076547516E+03  1.091817246E+03  1.250127179E+02  0.00000E+00  9.000E+00
       5     1     1     2   501     0 -1.569036290E+00 -7.066999939E-01  6.300520133E+00  8.075911943E+00  4.750000000E+00  0.00000E+00  9.000E+00
      -5     1     1     2     0   503 -3.578229335E+01 -1.306362343E+02 -2.028508740E+03  2.033031349E+03  4.750000000E+00  0.00000E+00  9.000E+00
      21     1     1     2   511   501  4.009067182E+00  3.395840402E+00  1.139863272E+02  1.141073492E+02  6.607249480E-06  0.00000E+00  9.000E+00
#rwgt            1           9   2.1223191874417466E-004           2     1364289           0
</event>
<event>
      6   9999 -3.45752E-01  3.85391E+00 -1.00000E+00  2.51243E-01
      21    -1     0     0   512   502  0.000000000E+00  0.000000000E+00  3.106113498E+01  3.106113498E+01  0.000000000E+00  0.00000E+00  9.000E+00
      21    -1     0     0   502   503  0.000000000E+00  0.000000000E+00 -1.046051892E+03  1.046051892E+03  0.000000000E+00  0.00000E+00  9.000E+00
      25     1     1     2     0     0  3.298553976E+01 -1.282745167E+01 -4.497665272E+02  4.681532910E+02  1.249999420E+02  0.00000E+00  9.000E+00
       5     1     1     2   501     0  2.145983920E-01  1.778127456E+00  1.305540504E+01  1.400763686E+01  4.750000000E+00  0.00000E+00  9.000E+00
      -5     1     1     2     0   503 -3.312578629E+01  7.196133291E+00 -5.856423028E+02  5.866417743E+02  4.750000000E+00  0.00000E+00  9.000E+00
      21     1     1     2   512   501 -7.435185901E-02  3.853190927E+00  7.362668299E+00  8.310324482E+00  2.528810911E-07  0.00000E+00  9.000E+00
#rwgt            1           9  -8.3627481150984998E-005           2     1370128           0
</event>
<event>
      6   9999  3.45752E-01  5.32494E+00 -1.00000E+00  2.21543E-01
      21    -1     0     0   511   502  0.000000000E+00  0.000000000E+00  2.028431614E+01  2.028431614E+01  0.000000000E+00  0.00000E+00  9.000E+00
      21    -1     0     0   502   503  0.000000000E+00  0.000000000E+00 -8.639742295E+02  8.639742295E+02  0.000000000E+00  0.00000E+00  9.000E+00
      25     1     1     2     0     0 -9.402798721E+00  3.890653601E+01 -7.700317428E+02  7.811365234E+02  1.249930082E+02  0.00000E+00  9.000E+00
       5     1     1     2   501     0  2.385018472E+00  1.839852624E+00  4.705221257E+00  7.333142428E+00  4.750000000E+00  0.00000E+00  9.000E+00
      -5     1     1     2     0   503  1.226257867E+01 -3.982602194E+01 -7.990669256E+01  9.024480525E+01  4.750000000E+00  0.00000E+00  9.000E+00
      21     1     1     2   511   501 -5.244798423E+00 -9.203666866E-01  1.543300752E+00  5.544074544E+00  3.061091689E-07  0.00000E+00  9.000E+00
#rwgt            1           9   2.6949651316608833E-004           2     1376758           0
</event>
<event>
      6   9999  3.45752E-01  2.61441E+01 -1.00000E+00  1.51810E-01
      21    -1     0     0   501   502  0.000000000E+00  0.000000000E+00  6.873355900E+02  6.873355900E+02  0.000000000E+00  0.00000E+00  9.000E+00
      21    -1     0     0   512   503  0.000000000E+00  0.000000000E+00 -3.905662356E+02  3.905662356E+02  0.000000000E+00  0.00000E+00  9.000E+00
      25     1     1     2     0     0 -1.581036028E+02  3.857862085E+01  4.460860703E+01  2.100007098E+02  1.250012444E+02  0.00000E+00  9.000E+00
       5     1     1     2   501     0 -1.966159582E+00  1.339179140E+01  4.532203396E+02  4.534472898E+02  4.750000000E+00  0.00000E+00  9.000E+00
      -5     1     1     2     0   503  1.795011422E+02 -3.447939472E+01  2.706448566E+01  1.848365159E+02  4.750000000E+00  0.00000E+00  9.000E+00
      21     1     1     2   512   502 -1.943137982E+01 -1.749101752E+01 -2.281240779E+02  2.296173102E+02  2.697398305E-06  0.00000E+00  9.000E+00
#rwgt            1           9   6.4621058801980685E-002           2     1380952           0
</event>
<event>
      6   9999  3.45752E-01  1.42132E+01 -1.00000E+00  1.72425E-01
      21    -1     0     0   511   502  0.000000000E+00  0.000000000E+00  2.603023454E+03  2.603023454E+03  0.000000000E+00  0.00000E+00  9.000E+00
      21    -1     0     0   502   503  0.000000000E+00  0.000000000E+00 -4.667165494E+00  4.667165494E+00  0.000000000E+00  0.00000E+00  9.000E+00
      25     1     1     2     0     0 -7.181822222E+00 -4.673017593E+01  1.183347205E+03  1.190869650E+03  1.249985126E+02  0.00000E+00  9.000E+00
       5     1     1     2   501     0 -2.246225105E+00 -1.750805093E+00  5.162038444E+02  5.162335541E+02  4.750000000E+00  0.00000E+00  9.000E+00
      -5     1     1     2     0   503 -1.710918846E+00  3.965269232E+01  5.284987287E+02  5.300082377E+02  4.750000000E+00  0.00000E+00  9.000E+00
      21     1     1     2   511   501  1.113896617E+01  8.828288712E+00  3.703065107E+02  3.705791779E+02  0.000000000E+00  0.00000E+00  9.000E+00
#rwgt            1           9   2.6613650713746222E-004           2     1383303           0
</event>
<event>
      6   9999 -3.45752E-01  2.51222E+01 -1.00000E+00  1.53002E-01
      21    -1     0     0   501   512  0.000000000E+00  0.000000000E+00  3.208735211E+01  3.208735211E+01  0.000000000E+00  0.00000E+00  9.000E+00
      21    -1     0     0   502   503  0.000000000E+00  0.000000000E+00 -9.151766924E+02  9.151766924E+02  0.000000000E+00  0.00000E+00  9.000E+00
      25     1     1     2     0     0 -5.631064560E+01 -9.529786271E+01 -6.543647415E+02  6.753309090E+02  1.250042010E+02  0.00000E+00  9.000E+00
       5     1     1     2   501     0  5.169685128E+01  7.273443441E+01 -2.143070822E+02  2.321916242E+02  4.750000000E+00  0.00000E+00  9.000E+00
      -5     1     1     2     0   503  3.016680621E+00 -2.507960270E+00 -1.322677147E+01  1.459110038E+01  4.750000000E+00  0.00000E+00  9.000E+00
      21     1     1     2   502   512  1.597113695E+00  2.507138857E+01 -1.190745156E+00  2.515041095E+01  6.194296387E-07  0.00000E+00  9.000E+00
#rwgt            1           9  -5.1969913781952748E-004           2     1385262           0
</event>
<event>
      6   9999  3.45752E-01  5.81297E+00 -1.00000E+00  2.15992E-01
       1    -1     0     0   501     0  0.000000000E+00  0.000000000E+00  1.016797099E+03  1.016797099E+03  0.000000000E+00  0.00000E+00  9.000E+00
      21    -1     0     0   502   503  0.000000000E+00  0.000000000E+00 -1.504103597E+03  1.504103597E+03  0.000000000E+00  0.00000E+00  9.000E+00
      25     1     1     2     0     0 -2.420570138E+02 -2.472975494E+01 -6.389976499E+02  6.950872316E+02  1.250004172E+02  0.00000E+00  9.000E+00
       5     1     1     2   501     0  3.617344867E+00 -9.357531757E+00  4.056023766E+01  4.205168206E+01  4.750000000E+00  0.00000E+00  9.000E+00
      -5     1     1     2     0   503  2.432302657E+02  3.079474763E+01 -8.183309226E+02  8.542817685E+02  4.750000000E+00  0.00000E+00  9.000E+00
       1     1     1     2   502     0 -4.790596751E+00  3.292539068E+00  9.294618362E+02  9.294800136E+02  0.000000000E+00  0.00000E+00  9.000E+00
#rwgt            1           9   3.8014091541558817E-005           2     1387181           0
</event>
<event>
      6   9999 -3.45752E-01  1.03171E+02 -1.00000E+00  1.19862E-01
      21    -1     0     0   511   503  0.000000000E+00  0.000000000E+00  6.209078401E+02  6.209078401E+02  0.000000000E+00  0.00000E+00  9.000E+00
      21    -1     0     0   501   502  0.000000000E+00  0.000000000E+00 -2.566274193E+03  2.566274193E+03  0.000000000E+00  0.00000E+00  9.000E+00
      25     1     1     2     0     0 -1.826584265E+02 -1.054896599E+02 -2.028784117E+03  2.043546553E+03  1.250014050E+02  0.00000E+00  9.000E+00
       5     1     1     2   501     0  7.204283966E+01 -7.216137659E+00 -2.370149132E+02  2.478726991E+02  4.750000000E+00  0.00000E+00  9.000E+00
      -5     1     1     2     0   503  1.179876579E+02  9.798273366E+00 -2.708040847E+02  2.955917934E+02  4.750000000E+00  0.00000E+00  9.000E+00
      21     1     1     2   511   502 -7.372071068E+00  1.029075242E+02  5.912367619E+02  6.001709878E+02  1.525878906E-05  0.00000E+00  9.000E+00
#rwgt            1           9 -0.24143577720387704                2     1393662           0
</event>
<event>
      6   9999  3.45752E-01  3.95302E+00 -1.00000E+00  2.48917E-01
      21    -1     0     0   501   502  0.000000000E+00  0.000000000E+00  6.138803582E+01  6.138803582E+01  0.000000000E+00  0.00000E+00  9.000E+00
      21    -1     0     0   502   512  0.000000000E+00  0.000000000E+00 -2.352613317E+02  2.352613317E+02  0.000000000E+00  0.00000E+00  9.000E+00
      25     1     1     2     0     0  3.090539089E+00 -6.587363992E-01 -1.951444167E+02  2.317659153E+02  1.249964430E+02  0.00000E+00  9.000E+00
       5     1     1     2   501     0 -2.331741928E+00  4.461668127E+00  4.123936501E+01  4.181615990E+01  4.750000000E+00  0.00000E+00  9.000E+00
      -5     1     1     2     0   503 -2.753295836E-01  1.204154847E-01 -2.958078620E+00  5.603841128E+00  4.750000000E+00  0.00000E+00  9.000E+00
      21     1     1     2   503   512 -4.834675775E-01 -3.923347212E+00 -1.701016554E+01  1.746345115E+01  3.371747881E-07  0.00000E+00  9.000E+00
#rwgt            1           9   7.4851335848725379E-004           2     1394297           0
</event>
<event>
      6   9999  3.45752E-01  3.99119E+00 -1.00000E+00  2.48048E-01
      21    -1     0     0   501   502  0.000000000E+00  0.000000000E+00  7.436473649E+00  7.436473649E+00  0.000000000E+00  0.00000E+00  9.000E+00
      21    -1     0     0   511   503  0.000000000E+00  0.000000000E+00 -7.657380256E+02  7.657380256E+02  0.000000000E+00  0.00000E+00  9.000E+00
      25     1     1     2     0     0 -9.497215915E+00  2.076634755E+00 -6.168078108E+02  6.294219022E+02  1.250021840E+02  0.00000E+00  9.000E+00
       5     1     1     2   501     0 -2.461107145E-01  2.197176671E-01 -5.863954870E+00  7.553629132E+00  4.750000000E+00  0.00000E+00  9.000E+00
      -5     1     1     2     0   503  5.943580381E+00 -3.517622404E+00 -8.511429125E+01  8.552604803E+01  4.750000000E+00  0.00000E+00  9.000E+00
      21     1     1     2   511   502  3.799746249E+00  1.221269982E+00 -5.051549506E+01  5.067291991E+01  0.000000000E+00  0.00000E+00  9.000E+00
#rwgt            1           9   1.6992562330098875E-004           2     1399826           0
</event>
<event>
      6   9999  3.45752E-01  2.60708E+01 -1.00000E+00  1.51893E-01
      21    -1     0     0   501   502  0.000000000E+00  0.000000000E+00  1.264824493E+01  1.264824493E+01  0.000000000E+00  0.00000E+00  9.000E+00
      21    -1     0     0   502   512  0.000000000E+00  0.000000000E+00 -2.023293360E+03  2.023293360E+03  0.000000000E+00  0.00000E+00  9.000E+00
      25     1     1     2     0     0 -5.099087150E+01 -6.167229853E+00 -6.276315152E+02  6.420159626E+02  1.250002944E+02  0.00000E+00  9.000E+00
       5     1     1     2   501     0  3.469712749E+01  2.535854258E+00 -7.787354110E+01  8.542348691E+01  4.750000000E+00  0.00000E+00  9.000E+00
      -5     1     1     2     0   503  6.258122337E+00  2.769319361E+01 -1.333284799E+02  1.364005979E+02  4.750000000E+00  0.00000E+00  9.000E+00
      21     1     1     2   503   512  1.003562167E+01 -2.406181802E+01 -1.171811579E+03  1.172101558E+03  0.000000000E+00  0.00000E+00  9.000E+00
#rwgt            1           9   7.3602127896268824E-004           2     1404142           0
</event>
<event>
      6   9999  3.45752E-01  2.31834E+01 -1.00000E+00  1.55464E-01
      21    -1     0     0   501   502  0.000000000E+00  0.000000000E+00  8.490814270E+00  8.490814270E+00  0.000000000E+00  0.00000E+00  9.000E+00
      21    -1     0     0   511   503  0.000000000E+00  0.000000000E+00 -1.135215288E+03  1.135215288E+03  0.000000000E+00  0.00000E+00  9.000E+00
      25     1     1     2     0     0  1.238921468E+01 -1.223444487E+01 -5.811247560E+02  5.946710326E+02  1.249979228E+02  0.00000E+00  9.000E+00
       5     1     1     2   501     0 -3.346598005E+00  4.665247904E+00 -1.401470712E+01  1.587257924E+01  4.750000000E+00  0.00000E+00  9.000E+00
      -5     1     1     2     0   503 -4.460194666E+00 -1.515685776E+01 -1.580534622E+02  1.589121867E+02  4.750000000E+00  0.00000E+00  9.000E+00
      21     1     1     2   511   502 -4.582422007E+00  2.272605472E+01 -3.735315489E+02  3.742503042E+02  5.394796609E-06  0.00000E+00  9.000E+00
#rwgt            1           9   2.0984060355154099E-002           2     1405387           0
</event>
<event>
      6   9999  3.45752E-01  1.57908E+01 -1.00000E+00  1.68460E-01
      21    -1     0     0   501   512  0.000000000E+00  0.000000000E+00  1.955116695E+01  1.955116695E+01  0.000000000E+00  0.00000E+00  9.000E+00
      21    -1     0     0   502   503  0.000000000E+00  0.000000000E+00 -2.447847405E+03  2.447847405E+03  0.000000000E+00  0.00000E+00  9.000E+00
      25     1     1     2     0     0  3.433311887E+01 -1.375377036E+01 -2.028097763E+03  2.032282538E+03  1.249953976E+02  0.00000E+00  9.000E+00
       5     1     1     2   501     0 -6.059477982E+00  6.451162784E-01  1.500329211E+01  1.687586213E+01  4.750000000E+00  0.00000E+00  9.000E+00
      -5     1     1     2     0   503 -2.911707403E+01 -2.659593072E+00 -3.457182301E+02  3.469849198E+02  4.750000000E+00  0.00000E+00  9.000E+00
      21     1     1     2   502   512  8.434331433E-01  1.576824716E+01 -6.948353718E+01  7.125525200E+01  1.651812370E-06  0.00000E+00  9.000E+00
#rwgt            1           9   8.1858730802373183E-003           2     1406586           0
</event>
<event>
      6   9999  3.45752E-01  5.16978E+01 -1.00000E+00  1.34016E-01
      21    -1     0     0   501   511  0.000000000E+00  0.000000000E+00  4.358662940E+02  4.358662940E+02  0.000000000E+00  0.00000E+00  9.000E+00
      21    -1     0     0   502   503  0.000000000E+00  0.000000000E+00 -1.499127592E+03  1.499127592E+03  0.000000000E+00  0.00000E+00  9.000E+00
      25     1     1     2     0     0  1.198779679E+01 -1.042657996E+02 -2.332301796E+02  2.846710827E+02  1.250049776E+02  0.00000E+00  9.000E+00
       5     1     1     2   501     0  9.891837271E+01  2.123198872E+02 -1.542545955E+02  2.805024450E+02  4.750000000E+00  0.00000E+00  9.000E+00
      -5     1     1     2     0   503 -1.263395541E+02 -5.871367540E+01 -1.016087556E+03  1.025604925E+03  4.750000000E+00  0.00000E+00  9.000E+00
      21     1     1     2   502   511  1.543338458E+01 -4.934041219E+01  3.403110327E+02  3.442154335E+02  5.394796609E-06  0.00000E+00  9.000E+00
#rwgt            1           9   33.489025971357378                2     1409226           0
</event>
<event>
      6   9999  3.45752E-01  8.87718E+00 -1.00000E+00  1.92812E-01
      21    -1     0     0   512   503  0.000000000E+00  0.000000000E+00  1.534225390E+02  1.534225390E+02  0.000000000E+00  0.00000E+00  9.000E+00
      21    -1     0     0   501   502  0.000000000E+00  0.000000000E+00 -6.862016778E+02  6.862016778E+02  0.000000000E+00  0.00000E+00  9.000E+00
      25     1     1     2     0     0  1.941354493E+01 -1.546054468E+01 -5.958386212E+02  6.092896767E+02  1.248772736E+02  0.00000E+00  9.000E+00
       5     1     1     2   501     0 -5.770797274E+00  2.483197315E+00 -2.969433014E+01  3.072106952E+01  4.750000000E+00  0.00000E+00  9.000E+00
      -5     1     1     2     0   503 -1.246239518E+01  4.178991310E+00 -5.237789161E+01  5.421052749E+01  4.750000000E+00  0.00000E+00  9.000E+00
      21     1     1     2   512   502 -1.180352476E+00  8.798356057E+00  1.451317042E+02  1.454029431E+02  3.814697266E-06  0.00000E+00  9.000E+00
#rwgt            1           9   7.4665622040183443E-004           2     1410656           0
</event>
<event>
      6   9999  3.45752E-01  1.20776E+01 -1.00000E+00  1.78953E-01
       2    -1     0     0   501     0  0.000000000E+00  0.000000000E+00  2.816756223E+02  2.816756223E+02  0.000000000E+00  0.00000E+00  9.000E+00
      21    -1     0     0   502   503  0.000000000E+00  0.000000000E+00 -7.400624875E+02  7.400624875E+02  0.000000000E+00  0.00000E+00  9.000E+00
      25     1     1     2     0     0 -5.384271297E+00  2.086487240E+00 -7.043816882E+02  7.154101772E+02  1.249992607E+02  0.00000E+00  9.000E+00
       5     1     1     2   501     0 -1.996203591E+00  2.106712392E+00 -1.191148881E+00  5.692486411E+00  4.750000000E+00  0.00000E+00  9.000E+00
      -5     1     1     2     0   503 -9.590220219E-01  4.542982455E+00 -2.617659615E+01  2.700620482E+01  4.750000000E+00  0.00000E+00  9.000E+00
       2     1     1     2   502     0  8.339496910E+00 -8.736182087E+00  2.733625680E+02  2.736292413E+02  5.394796609E-06  0.00000E+00  9.000E+00
#rwgt            1           9   2.2321800841035511E-004           2     1413618           0
</event>
<event>
      6   9999  3.45752E-01  1.88498E+01 -1.00000E+00  1.62199E-01
      21    -1     0     0   501   502  0.000000000E+00  0.000000000E+00  1.155468317E+02  1.155468317E+02  0.000000000E+00  0.00000E+00  9.000E+00
      21    -1     0     0   502   511  0.000000000E+00  0.000000000E+00 -2.863946288E+02  2.863946288E+02  0.000000000E+00  0.00000E+00  9.000E+00
      25     1     1     2     0     0  5.663561930E+01  1.407155207E+01 -4.854301484E+01  1.462412862E+02  1.249979502E+02  0.00000E+00  9.000E+00
       5     1     1     2   501     0 -2.667201852E+00  8.034952755E+00  5.620687230E+01  5.703901669E+01  4.750000000E+00  0.00000E+00  9.000E+00
      -5     1     1     2     0   503 -5.933018875E+01 -4.035320510E+00 -8.871753417E+01  1.069098615E+02  4.750000000E+00  0.00000E+00  9.000E+00
      21     1     1     2   503   511  5.361771305E+00 -1.807118432E+01 -8.979412037E+01  9.175129616E+01  1.651812370E-06  0.00000E+00  9.000E+00
#rwgt            1           9   1.0049793988902601E-004           2     1415456           0
</event>
<event>
      6   9999  3.45752E-01  1.30427E+01 -1.00000E+00  1.75808E-01
      21    -1     0     0   502   503  0.000000000E+00  0.000000000E+00  7.360628346E+02  7.360628346E+02  0.000000000E+00  0.00000E+00  9.000E+00
      21    -1     0     0   512   502  0.000000000E+00  0.000000000E+00 -1.291522230E+01  1.291522230E+01  0.000000000E+00  0.00000E+00  9.000E+00
      25     1     1     2     0     0  2.478218145E+01  2.588245401E+01  3.968142272E+02  4.175814989E+02  1.250148765E+02  0.00000E+00  9.000E+00
       5     1     1     2   501     0  4.836188322E-01  2.226189667E-01  4.049349678E+01  4.077461499E+01  4.750000000E+00  0.00000E+00  9.000E+00
      -5     1     1     2     0   503 -1.637560630E+01 -1.656160632E+01  2.648179431E+02  2.658825921E+02  4.750000000E+00  0.00000E+00  9.000E+00
      21     1     1     2   512   501 -8.890193979E+00 -9.543466656E+00  2.102194516E+01  2.473935090E+01  4.768371582E-07  0.00000E+00  9.000E+00
#rwgt            1           9   1.8153810175622102E-003           2     1417560           0
</event>
<event>
      6   9999  3.45752E-01  1.61033E+01 -1.00000E+00  1.67743E-01
      21    -1     0     0   501   502  0.000000000E+00  0.000000000E+00  2.097325274E+02  2.097325274E+02  0.000000000E+00  0.00000E+00  9.000E+00
      21    -1     0     0   502   511  0.000000000E+00  0.000000000E+00 -3.607764887E+02  3.607764887E+02  0.000000000E+00  0.00000E+00  9.000E+00
      25     1     1     2     0     0  2.216355649E+01  1.170199720E+02 -1.174492707E+01  1.730531874E+02  1.249982611E+02  0.00000E+00  9.000E+00
       5     1     1     2   501     0 -1.768093280E+00 -1.779907363E-01  1.065472520E+02  1.066678829E+02  4.750000000E+00  0.00000E+00  9.000E+00
      -5     1     1     2     0   503 -4.396818479E+00 -1.150092412E+02 -1.294419744E+02  1.732750554E+02  4.750000000E+00  0.00000E+00  9.000E+00
      21     1     1     2   503   511 -1.599864473E+01 -1.832740028E+00 -1.164043119E+02  1.175128904E+02  0.000000000E+00  0.00000E+00  9.000E+00
#rwgt            1           9   7.7967634780222242E-003           2     1419449           0
</event>
<event>
      6   9999  3.45752E-01  2.04747E+00 -1.00000E+00  3.28994E-01
      21    -1     0     0   501   502  0.000000000E+00  0.000000000E+00  1.542956575E+01  1.542956575E+01  0.000000000E+00  0.00000E+00  9.000E+00
      21    -1     0     0   512   503  0.000000000E+00  0.000000000E+00 -9.179510962E+02  9.179510962E+02  0.000000000E+00  0.00000E+00  9.000E+00
      25     1     1     2     0     0 -1.339883405E+01  1.001527326E+01 -8.488245752E+02  8.581427186E+02  1.250037265E+02  0.00000E+00  9.000E+00
       5     1     1     2   501     0  1.155778655E+00  3.318910902E+00  7.494041293E+00  9.543277675E+00  4.750000000E+00  0.00000E+00  9.000E+00
      -5     1     1     2     0   503  1.351851111E+01 -1.493585058E+01 -4.698420068E+01  5.134108870E+01  4.750000000E+00  0.00000E+00  9.000E+00
      21     1     1     2   512   502 -1.275455713E+00  1.601666414E+00 -1.420679588E+01  1.435357696E+01  1.685873940E-07  0.00000E+00  9.000E+00
#rwgt            1           9   1.3396164319587288E-004           2     1422381           0
</event>
<event>
      6   9999  3.45752E-01  3.27112E+01 -1.00000E+00  1.45448E-01
      21    -1     0     0   501   511  0.000000000E+00  0.000000000E+00  2.557369638E+01  2.557369638E+01  0.000000000E+00  0.00000E+00  9.000E+00
      21    -1     0     0   502   503  0.000000000E+00  0.000000000E+00 -9.723620560E+02  9.723620560E+02  0.000000000E+00  0.00000E+00  9.000E+00
      25     1     1     2     0     0 -9.961091907E+01 -4.898709287E+01 -4.740384793E+02  5.026525154E+02  1.250000037E+02  0.00000E+00  9.000E+00
       5     1     1     2   501     0  6.644733081E+01  8.643501415E+00 -3.284316409E+02  3.352310593E+02  4.750000000E+00  0.00000E+00  9.000E+00
      -5     1     1     2     0   503  9.470591460E+00  1.778993215E+01 -1.126009262E+02  1.144888854E+02  4.750000000E+00  0.00000E+00  9.000E+00
      21     1     1     2   502   511  2.369299681E+01  2.255365930E+01 -3.171731318E+01  4.556329225E+01  8.259061849E-07  0.00000E+00  9.000E+00
#rwgt            1           9   8.1236899863926761E-005           2     1431020           0
</event>
<event>
      6   9999  3.45752E-01  2.09293E+02 -1.00000E+00  1.08216E-01
      21    -1     0     0   512   502  0.000000000E+00  0.000000000E+00  8.912969894E+01  8.912969894E+01  0.000000000E+00  0.00000E+00  9.000E+00
       1    -1     0     0   501     0  0.000000000E+00  0.000000000E+00 -1.346785437E+03  1.346785437E+03  0.000000000E+00  0.00000E+00  9.000E+00
      25     1     1     2     0     0 -8.065696813E+01  1.195956591E+01 -3.744205074E+02  4.030688090E+02  1.250006827E+02  0.00000E+00  9.000E+00
       5     1     1     2   501     0 -5.623833472E+01  2.497026967E+01 -1.910473882E+02  2.007683533E+02  4.750000000E+00  0.00000E+00  9.000E+00
      -5     1     1     2     0   502 -2.186799880E+01  9.944441211E+01 -5.907842366E+02  5.995131168E+02  4.750000000E+00  0.00000E+00  9.000E+00
       1     1     1     2   512     0  1.587633017E+02 -1.363742477E+02 -1.014036059E+02  2.325648569E+02  5.722045898E-06  0.00000E+00  9.000E+00
#rwgt            1           1   1.6108521463210475                2     1432849           0
</event>
<event>
      6   9999  3.45752E-01  1.22148E+01 -1.00000E+00  1.78483E-01
      21    -1     0     0   501   502  0.000000000E+00  0.000000000E+00  3.590247630E+03  3.590247630E+03  0.000000000E+00  0.00000E+00  9.000E+00
      21    -1     0     0   511   503  0.000000000E+00  0.000000000E+00 -7.131712351E+00  7.131712351E+00  0.000000000E+00  0.00000E+00  9.000E+00
      25     1     1     2     0     0 -2.854943932E+01 -4.561472449E+01  3.024827030E+03  3.027886676E+03  1.249935411E+02  0.00000E+00  9.000E+00
       5     1     1     2   501     0  1.231032799E+00 -6.314088528E-01  3.521834590E+02  3.522182071E+02  4.750000000E+00  0.00000E+00  9.000E+00
      -5     1     1     2     0   503  3.803553157E+01  4.038569767E+01  1.540085821E+02  1.637648073E+02  4.750000000E+00  0.00000E+00  9.000E+00
      21     1     1     2   511   502 -1.071712506E+01  5.860435673E+00  5.209684589E+01  5.350965173E+01  9.536743164E-07  0.00000E+00  9.000E+00
#rwgt            1           9   5.9021473473591851E-002           2     1433154           0
</event>
<event>
      6   9999 -3.45752E-01  5.22885E+00 -1.00000E+00  2.22733E-01
      21    -1     0     0   501   502  0.000000000E+00  0.000000000E+00  3.583271699E+01  3.583271699E+01  0.000000000E+00  0.00000E+00  9.000E+00
      21    -1     0     0   502   512  0.000000000E+00  0.000000000E+00 -4.857853290E+02  4.857853290E+02  0.000000000E+00  0.00000E+00  9.000E+00
      25     1     1     2     0     0 -4.728673587E+00 -6.261706051E+00 -3.340487657E+02  3.567602971E+02  1.250110491E+02  0.00000E+00  9.000E+00
       5     1     1     2   501     0  2.598605669E+00  3.006897984E-01  2.342934082E+01  2.404869387E+01  4.750000000E+00  0.00000E+00  9.000E+00
      -5     1     1     2     0   503 -4.506475890E-01  1.413398684E+00 -8.341718749E+00  9.713266741E+00  4.750000000E+00  0.00000E+00  9.000E+00
      21     1     1     2   503   512  2.580715507E+00  4.547617568E+00 -1.309914685E+02  1.310957884E+02  0.000000000E+00  0.00000E+00  9.000E+00
#rwgt            1           9  -8.7215162716997019E-005           2     1435745           0
</event>
<event>
      6   9999  3.45752E-01  6.15525E+00 -1.00000E+00  2.12524E-01
      21    -1     0     0   502   511  0.000000000E+00  0.000000000E+00  1.185844104E+01  1.185844104E+01  0.000000000E+00  0.00000E+00  9.000E+00
      21    -1     0     0   501   502  0.000000000E+00  0.000000000E+00 -8.864596090E+02  8.864596090E+02  0.000000000E+00  0.00000E+00  9.000E+00
      25     1     1     2     0     0 -2.318888499E+00 -3.498501732E+00 -7.164698336E+02  7.273074649E+02  1.250180357E+02  0.00000E+00  9.000E+00
       5     1     1     2   501     0 -1.303313860E+00 -3.434280875E+00 -1.299622111E+02  1.301008521E+02  4.750000000E+00  0.00000E+00  9.000E+00
      -5     1     1     2     0   503  8.802017638E+00  1.025793529E+01 -3.098800554E+01  3.413970911E+01  4.750000000E+00  0.00000E+00  9.000E+00
      21     1     1     2   503   511 -5.179815279E+00 -3.325152680E+00  2.818882277E+00  6.770023926E+00  1.954268969E-07  0.00000E+00  9.000E+00
#rwgt            1           9   354.19813022323916                2     1439603           0
</event>
<event>
      6   9999 -3.45752E-01  9.93212E+00 -1.00000E+00  1.87506E-01
      21    -1     0     0   501   502  0.000000000E+00  0.000000000E+00  3.614902637E+00  3.614902637E+00  0.000000000E+00  0.00000E+00  9.000E+00
      21    -1     0     0   502   512  0.000000000E+00  0.000000000E+00 -1.789242266E+03  1.789242266E+03  0.000000000E+00  0.00000E+00  9.000E+00
      25     1     1     2     0     0 -6.704565552E-01 -2.146645440E+01 -1.307630255E+03  1.313765576E+03  1.249873784E+02  0.00000E+00  9.000E+00
       5     1     1     2   501     0  6.884068613E+00  1.405113447E+01 -3.179891574E+02  3.184093145E+02  4.750000000E+00  0.00000E+00  9.000E+00
      -5     1     1     2     0   503 -1.026218931E-02 -3.413221834E-01 -4.898047890E+01  4.921144602E+01  4.750000000E+00  0.00000E+00  9.000E+00
      21     1     1     2   503   512 -6.203349868E+00  7.756642117E+00 -1.110274716E+02  1.114708325E+02  1.348699152E-06  0.00000E+00  9.000E+00
#rwgt            1           9  -1.1818240957745720E-003           2     1443079           0
</event>
<event>
      6   9999  3.45752E-01  8.43723E+00 -1.00000E+00  1.95318E-01
       2    -1     0     0   502     0  0.000000000E+00  0.000000000E+00  6.964459356E+02  6.964459356E+02  0.000000000E+00  0.00000E+00  9.000E+00
      21    -1     0     0   501   502  0.000000000E+00  0.000000000E+00 -6.817900954E+02  6.817900954E+02  0.000000000E+00  0.00000E+00  9.000E+00
      25     1     1     2     0     0  3.134925397E+00  8.711199728E+00 -5.079457168E+02  5.231820675E+02  1.249996468E+02  0.00000E+00  9.000E+00
       5     1     1     2   501     0  1.004699692E+00 -1.606557713E+01 -1.451478438E+02  1.461149248E+02  4.750000000E+00  0.00000E+00  9.000E+00
      -5     1     1     2     0   503  1.333409373E+00  9.331053492E-01 -2.026253040E+01  2.087537555E+01  4.750000000E+00  0.00000E+00  9.000E+00
       2     1     1     2   503     0 -5.473034462E+00  6.421272057E+00  6.880119314E+02  6.880636631E+02  1.078959322E-05  0.00000E+00  9.000E+00
#rwgt            1           9   4.8050836950874965E-004           2     1445235           0
</event>
<event>
      6   9999  3.45752E-01  8.46079E+00 -1.00000E+00  1.95179E-01
      21    -1     0     0   501   502  0.000000000E+00  0.000000000E+00  3.958147900E+02  3.958147900E+02  0.000000000E+00  0.00000E+00  9.000E+00
      21    -1     0     0   511   503  0.000000000E+00  0.000000000E+00 -1.220703917E+02  1.220703917E+02  0.000000000E+00  0.00000E+00  9.000E+00
      25     1     1     2     0     0 -1.159064589E+01 -1.343725946E+01 -4.095354097E+01  1.327325365E+02  1.250033228E+02  0.00000E+00  9.000E+00
       5     1     1     2   501     0  4.180644611E+00 -3.359483012E+00  3.468343002E+02  3.469082850E+02  4.750000000E+00  0.00000E+00  9.000E+00
      -5     1     1     2     0   503  2.119326723E+00  1.019418463E+01 -1.299243916E+01  1.731412491E+01  4.750000000E+00  0.00000E+00  9.000E+00
      21     1     1     2   511   502  5.290674552E+00  6.602557844E+00 -1.914392183E+01  2.093023532E+01  3.371747881E-07  0.00000E+00  9.000E+00
#rwgt            1           9   1.2433788923810179E-003           2     1447888           0
</event>
<event>
      6   9999  3.45752E-01  1.55051E+01 -1.00000E+00  1.69134E-01
      21    -1     0     0   501   502  0.000000000E+00  0.000000000E+00  7.106248025E+01  7.106248025E+01  0.000000000E+00  0.00000E+00  9.000E+00
      21    -1     0     0   502   512  0.000000000E+00  0.000000000E+00 -1.661211420E+02  1.661211420E+02  0.000000000E+00  0.00000E+00  9.000E+00
      25     1     1     2     0     0 -1.640115235E+01 -1.239348043E+00 -5.614149738E+01  1.380070667E+02  1.249941957E+02  0.00000E+00  9.000E+00
       5     1     1     2   501     0 -2.155641771E+00 -1.756453083E+00  2.802276669E+01  2.855818398E+01  4.750000000E+00  0.00000E+00  9.000E+00
      -5     1     1     2     0   503  3.106205298E+00  1.696703144E+00 -1.017267512E+01  1.177170897E+01  4.750000000E+00  0.00000E+00  9.000E+00
      21     1     1     2   503   512  1.545058883E+01  1.299097982E+00 -5.676725595E+01  5.884666260E+01  6.743495762E-07  0.00000E+00  9.000E+00
#rwgt            1           9   2.4574544997656487E-004           2     1451784           0
</event>
<event>
      6   9999  3.45752E-01  1.35242E+01 -1.00000E+00  1.74364E-01
      21    -1     0     0   511   503  0.000000000E+00  0.000000000E+00  3.914855331E+01  3.914855331E+01  0.000000000E+00  0.00000E+00  9.000E+00
      21    -1     0     0   501   502  0.000000000E+00  0.000000000E+00 -1.000136972E+03  1.000136972E+03  0.000000000E+00  0.00000E+00  9.000E+00
      25     1     1     2     0     0  1.690434271E+01  1.915906156E+01 -1.378731928E+02  1.878416150E+02  1.249905140E+02  0.00000E+00  9.000E+00
       5     1     1     2   501     0 -9.265438842E+00 -3.071141635E+01 -8.172283983E+02  8.178715406E+02  4.750000000E+00  0.00000E+00  9.000E+00
      -5     1     1     2     0   503  2.261074674E+00  2.338508315E+00 -1.579210087E+01  1.680874860E+01  4.750000000E+00  0.00000E+00  9.000E+00
      21     1     1     2   511   502 -9.899978540E+00  9.213846469E+00  9.905273505E+00  1.676362088E+01  6.637292341E-07  0.00000E+00  9.000E+00
#rwgt            1           9   2.7522789769561613E-005           2     1453347           0
</event>
<event>
      6   9999  3.45752E-01  3.08528E+01 -1.00000E+00  1.47055E-01
      21    -1     0     0   501   502  0.000000000E+00  0.000000000E+00  4.842130420E+01  4.842130420E+01  0.000000000E+00  0.00000E+00  9.000E+00
      21    -1     0     0   502   512  0.000000000E+00  0.000000000E+00 -1.451553171E+03  1.451553171E+03  0.000000000E+00  0.00000E+00  9.000E+00
      25     1     1     2     0     0 -2.048106680E+00 -1.789350724E+01 -1.268110253E+03  1.274383456E+03  1.250008241E+02  0.00000E+00  9.000E+00
       5     1     1     2   501     0 -1.460575515E+00 -6.285671050E+00  4.265359155E+01  4.339970407E+01  4.750000000E+00  0.00000E+00  9.000E+00
      -5     1     1     2     0   503 -6.155901639E+00 -5.120876668E+00 -4.819258750E+01  4.908366829E+01  4.750000000E+00  0.00000E+00  9.000E+00
      21     1     1     2   503   512  9.664583834E+00  2.930005496E+01 -1.294826171E+02  1.331076464E+02  1.907348633E-06  0.00000E+00  9.000E+00
#rwgt            1           9   3.0260150398400919E-002           2     1456161           0
</event>
<event>
      6   9999 -3.45752E-01  1.78207E+01 -1.00000E+00  1.64131E-01
      21    -1     0     0   501   502  0.000000000E+00  0.000000000E+00  6.546605644E+01  6.546605644E+01  0.000000000E+00  0.00000E+00  9.000E+00
      21    -1     0     0   511   503  0.000000000E+00  0.000000000E+00 -1.406110535E+03  1.406110535E+03  0.000000000E+00  0.00000E+00  9.000E+00
      25     1     1     2     0     0 -1.843838645E+01  3.460784819E+01 -1.322262685E+03  1.328736857E+03  1.250013953E+02  0.00000E+00  9.000E+00
       5     1     1     2   501     0 -4.927559613E+00 -3.592257223E+00  2.497522384E+01  2.614401388E+01  4.750000000E+00  0.00000E+00  9.000E+00
      -5     1     1     2     0   503  5.606742424E+00 -3.249473333E+01  2.776926200E+01  4.337093112E+01  4.750000000E+00  0.00000E+00  9.000E+00
      21     1     1     2   511   502  1.775920364E+01  1.479142359E+00 -7.112627933E+01  7.332478972E+01  1.348699152E-06  0.00000E+00  9.000E+00
#rwgt            1           9  -1.1666602709177586E-004           2     1458283           0
</event>
<event>
      6   9999  3.45752E-01  8.16719E+00 -1.00000E+00  1.96958E-01
      21    -1     0     0   512   502  0.000000000E+00  0.000000000E+00  1.255280416E+01  1.255280416E+01  0.000000000E+00  0.00000E+00  9.000E+00
      21    -1     0     0   502   503  0.000000000E+00  0.000000000E+00 -7.840207239E+02  7.840207239E+02  0.000000000E+00  0.00000E+00  9.000E+00
      25     1     1     2     0     0  4.068923183E+00  5.211174102E+00 -5.412905683E+02  5.555778375E+02  1.250101664E+02  0.00000E+00  9.000E+00
       5     1     1     2   501     0 -2.649171781E+00  2.850814087E-01  2.828893825E+00  6.137142886E+00  4.750000000E+00  0.00000E+00  9.000E+00
      -5     1     1     2     0   503 -9.365074454E+00 -3.605517540E+00 -2.124408170E+02  2.127307397E+02  4.750000000E+00  0.00000E+00  9.000E+00
      21     1     1     2   512   501  7.945323051E+00 -1.890737971E+00 -2.056542825E+01  2.212780801E+01  0.000000000E+00  0.00000E+00  9.000E+00
#rwgt            1           9   5.6987139147510728E-003           2     1461590           0
</event>
<event>
      6   9999  3.45752E-01  6.65638E+01 -1.00000E+00  1.28458E-01
      21    -1     0     0   511   502  0.000000000E+00  0.000000000E+00  1.169450144E+03  1.169450144E+03  0.000000000E+00  0.00000E+00  9.000E+00
      21    -1     0     0   502   503  0.000000000E+00  0.000000000E+00 -1.256304482E+03  1.256304482E+03  0.000000000E+00  0.00000E+00  9.000E+00
      25     1     1     2     0     0  3.394892889E+01 -1.308615334E+02 -2.886712648E+02  3.423930586E+02  1.249985471E+02  0.00000E+00  9.000E+00
       5     1     1     2   501     0  2.079420054E+01 -1.701297807E+01  9.330597946E+01  9.721321157E+01  4.750000000E+00  0.00000E+00  9.000E+00
      -5     1     1     2     0   503 -3.529123605E+01  8.421638511E+01 -9.355299889E+02  9.399876561E+02  4.750000000E+00  0.00000E+00  9.000E+00
      21     1     1     2   511   501 -1.945189338E+01  6.365812637E+01  1.044040936E+03  1.046160700E+03  1.525878906E-05  0.00000E+00  9.000E+00
#rwgt            1           9   9.9980998725726893E-004           2     1464462           0
</event>
<event>
      6   9999  3.45752E-01  8.66719E+00 -1.00000E+00  1.93984E-01
      21    -1     0     0   501   502  0.000000000E+00  0.000000000E+00  7.624213875E+00  7.624213875E+00  0.000000000E+00  0.00000E+00  9.000E+00
      21    -1     0     0   512   503  0.000000000E+00  0.000000000E+00 -8.621011429E+02  8.621011429E+02  0.000000000E+00  0.00000E+00  9.000E+00
      25     1     1     2     0     0  4.677255675E+00 -2.151758298E+01 -6.357157606E+02  6.482628572E+02  1.250012828E+02  0.00000E+00  9.000E+00
       5     1     1     2   501     0 -3.901520415E+00  1.272860104E+01 -4.935262622E+01  5.133695901E+01  4.750000000E+00  0.00000E+00  9.000E+00
      -5     1     1     2     0   503 -6.603555205E-01  1.225558888E-01 -2.493660954E+01  2.539385919E+01  4.750000000E+00  0.00000E+00  9.000E+00
      21     1     1     2   512   502 -1.153797388E-01  8.666426054E+00 -1.444719327E+02  1.447316814E+02  0.000000000E+00  0.00000E+00  9.000E+00
#rwgt            1           9   6.2307791624460014E-004           2     1466775           0
</event>
<event>
      6   9999  3.45752E-01  1.16471E+01 -1.00000E+00  1.80478E-01
      21    -1     0     0   502   503  0.000000000E+00  0.000000000E+00  2.611487806E+01  2.611487806E+01  0.000000000E+00  0.00000E+00  9.000E+00
      21    -1     0     0   501   511  0.000000000E+00  0.000000000E+00 -1.103933626E+03  1.103933626E+03  0.000000000E+00  0.00000E+00  9.000E+00
      25     1     1     2     0     0 -2.196863625E+01  1.079514271E+02 -3.046608935E+02  3.472441391E+02  1.249964021E+02  0.00000E+00  9.000E+00
       5     1     1     2   501     0 -1.088036384E+01 -4.953829562E+00 -1.187765553E+02  1.194711485E+02  4.750000000E+00  0.00000E+00  9.000E+00
      -5     1     1     2     0   503  2.823060910E+01 -9.230524524E+01 -5.983264940E+02  6.060811674E+02  4.750000000E+00  0.00000E+00  9.000E+00
      21     1     1     2   502   511  4.618390989E+00 -1.069235226E+01 -5.605480494E+01  5.725204878E+01  6.743495762E-07  0.00000E+00  9.000E+00
#rwgt            1           9   2.2336462820996868E-004           2     1469142           0
</event>
<event>
      6   9999  3.45752E-01  6.65913E+00 -1.00000E+00  2.07941E-01
      21    -1     0     0   501   502  0.000000000E+00  0.000000000E+00  4.727506918E+00  4.727506918E+00  0.000000000E+00  0.00000E+00  9.000E+00
      21    -1     0     0   512   503  0.000000000E+00  0.000000000E+00 -1.881456943E+03  1.881456943E+03  0.000000000E+00  0.00000E+00  9.000E+00
      25     1     1     2     0     0  8.510142833E+00 -2.555397827E+01 -1.046768757E+03  1.054549295E+03  1.249958308E+02  0.00000E+00  9.000E+00
       5     1     1     2   501     0  1.358809961E-01 -2.303867725E-01 -2.827878939E+01  2.867619171E+01  4.750000000E+00  0.00000E+00  9.000E+00
      -5     1     1     2     0   503 -6.669012998E+00  1.942548181E+01 -1.783507336E+02  1.795922374E+02  4.750000000E+00  0.00000E+00  9.000E+00
      21     1     1     2   512   502 -1.977010831E+00  6.358883231E+00 -6.233311567E+02  6.233667258E+02  0.000000000E+00  0.00000E+00  9.000E+00
#rwgt            1           9   6.9451769073678397E-003           2     1472355           0
</event>
<event>
      6   9999 -3.45752E-01  5.13331E+00 -1.00000E+00  2.23952E-01
       2    -1     0     0   501     0  0.000000000E+00  0.000000000E+00  3.017303703E+03  3.017303703E+03  0.000000000E+00  0.00000E+00  9.000E+00
      21    -1     0     0   502   503  0.000000000E+00  0.000000000E+00 -5.484582488E+02  5.484582488E+02  0.000000000E+00  0.00000E+00  9.000E+00
      25     1     1     2     0     0  3.949605326E+01 -1.064422910E+02 -4.799589556E+02  5.087980957E+02  1.250000146E+02  0.00000E+00  9.000E+00
       5     1     1     2   501     0 -3.922357640E+00  7.531098518E+00  1.122321798E+02  1.126531270E+02  4.750000000E+00  0.00000E+00  9.000E+00
      -5     1     1     2     0   503 -3.562731542E+01  1.040442186E+02  2.369195029E+00  1.101030455E+02  4.750000000E+00  0.00000E+00  9.000E+00
       2     1     1     2   502     0  5.361980633E-02 -5.133026207E+00  2.834203035E+03  2.834207683E+03  0.000000000E+00  0.00000E+00  9.000E+00
#rwgt            1           9  -5.3099151495233826E-005           2     1474992           0
</event>
<event>
      6   9999 -3.45752E-01  5.36812E+01 -1.00000E+00  1.33157E-01
      21    -1     0     0   511   503  0.000000000E+00  0.000000000E+00  7.452917223E+02  7.452917223E+02  0.000000000E+00  0.00000E+00  9.000E+00
      21    -1     0     0   501   502  0.000000000E+00  0.000000000E+00 -1.090211363E+02  1.090211363E+02  0.000000000E+00  0.00000E+00  9.000E+00
      25     1     1     2     0     0 -5.389160202E+01 -1.281660130E+01 -3.887168599E+01  1.421213920E+02  1.249756458E+02  0.00000E+00  9.000E+00
       5     1     1     2   501     0 -8.031058045E+00 -2.836745133E+00 -1.380329879E+01  1.690084536E+01  4.750000000E+00  0.00000E+00  9.000E+00
      -5     1     1     2     0   503  8.720870866E+00  8.495314262E+00  1.823025270E+01  2.243052756E+01  4.750000000E+00  0.00000E+00  9.000E+00
      21     1     1     2   511   502  5.320178920E+01  7.158032168E+00  6.707153181E+02  6.728600937E+02  1.078959322E-05  0.00000E+00  9.000E+00
#rwgt            1           9  -164.30446121272766                2     1482374           0
</event>
<event>
      6   9999  3.45752E-01  4.30648E+00 -1.00000E+00  2.41396E-01
      21    -1     0     0   501   512  0.000000000E+00  0.000000000E+00  9.411937719E+00  9.411937719E+00  0.000000000E+00  0.00000E+00  9.000E+00
      21    -1     0     0   502   503  0.000000000E+00  0.000000000E+00 -1.875713043E+03  1.875713043E+03  0.000000000E+00  0.00000E+00  9.000E+00
      25     1     1     2     0     0 -4.588027416E+01 -1.076554607E+01 -1.668943993E+03  1.674280827E+03  1.249853589E+02  0.00000E+00  9.000E+00
       5     1     1     2   501     0  2.376173061E-01 -2.187536466E+00  4.739320644E-01  5.256318995E+00  4.750000000E+00  0.00000E+00  9.000E+00
      -5     1     1     2     0   503  4.987965143E+01  1.218260514E+01 -1.796680279E+02  1.869212622E+02  4.750000000E+00  0.00000E+00  9.000E+00
      21     1     1     2   502   512 -4.236994571E+00  7.704774015E-01 -1.816301615E+01  1.866657210E+01  2.384185791E-07  0.00000E+00  9.000E+00
#rwgt            1           9   1.1261160458358869E-003           2     1483514           0
</event>
<event>
      6   9999  3.45752E-01  9.98418E+00 -1.00000E+00  1.87266E-01
      21    -1     0     0   501   502  0.000000000E+00  0.000000000E+00  4.064368067E+01  4.064368067E+01  0.000000000E+00  0.00000E+00  9.000E+00
      21    -1     0     0   511   503  0.000000000E+00  0.000000000E+00 -6.670503060E+02  6.670503060E+02  0.000000000E+00  0.00000E+00  9.000E+00
      25     1     1     2     0     0 -9.885845960E+00  3.465806736E+00 -2.786537965E+02  3.055888552E+02  1.250074733E+02  0.00000E+00  9.000E+00
       5     1     1     2   501     0 -2.174942575E-01  1.931995097E+00  2.499655738E+01  2.551803851E+01  4.750000000E+00  0.00000E+00  9.000E+00
      -5     1     1     2     0   503  6.603034459E+00  3.952691812E+00 -9.199995585E+00  1.290063004E+01  4.750000000E+00  0.00000E+00  9.000E+00
      21     1     1     2   511   502  3.500305759E+00 -9.350493645E+00 -3.635493906E+02  3.636864629E+02  7.629394531E-06  0.00000E+00  9.000E+00
#rwgt            1           9  0.14895531421496647                2     1489076           0
</event>
<event>
      6   9999  3.45752E-01  1.35620E+01 -1.00000E+00  1.74254E-01
      21    -1     0     0   501   502  0.000000000E+00  0.000000000E+00  9.035486140E+02  9.035486140E+02  0.000000000E+00  0.00000E+00  9.000E+00
      21    -1     0     0   512   503  0.000000000E+00  0.000000000E+00 -9.085591550E+00  9.085591550E+00  0.000000000E+00  0.00000E+00  9.000E+00
      25     1     1     2     0     0 -6.571647532E+00  1.183458931E+01  6.527568292E+02  6.647551721E+02  1.249988670E+02  0.00000E+00  9.000E+00
       5     1     1     2   501     0 -1.701035091E+00  1.001449047E+00  1.844732161E+02  1.845449170E+02  4.750000000E+00  0.00000E+00  9.000E+00
      -5     1     1     2     0   503 -8.582023335E-01 -2.808303588E+00  4.411109202E+01  4.446317599E+01  4.750000000E+00  0.00000E+00  9.000E+00
      21     1     1     2   512   502  9.130884956E+00 -1.002773477E+01  1.312188517E+01  1.887094049E+01  4.460403188E-07  0.00000E+00  9.000E+00
#rwgt            1           9  0.10557916989265050                2     1491854           0
</event>
<event>
      6   9999 -3.45752E-01  2.01350E+01 -1.00000E+00  1.59988E-01
      21    -1     0     0   501   502  0.000000000E+00  0.000000000E+00  1.021286951E+03  1.021286951E+03  0.000000000E+00  0.00000E+00  9.000E+00
      21    -1     0     0   502   511  0.000000000E+00  0.000000000E+00 -1.183382086E+02  1.183382086E+02  0.000000000E+00  0.00000E+00  9.000E+00
      25     1     1     2     0     0 -1.018947555E+01 -1.120331975E+01 -7.420598516E+00  1.261330413E+02  1.250005562E+02  0.00000E+00  9.000E+00
       5     1     1     2   501     0  1.241331102E+01  8.101138520E+00  7.337439335E+02  7.339090143E+02  4.750000000E+00  0.00000E+00  9.000E+00
      -5     1     1     2     0   503  5.624332922E+00  2.164472326E+01  2.255351297E+02  2.266909447E+02  4.750000000E+00  0.00000E+00  9.000E+00
      21     1     1     2   503   511 -7.848168395E+00 -1.854254203E+01 -4.890972213E+01  5.289215944E+01  2.431401974E-06  0.00000E+00  9.000E+00
#rwgt            1           9  -2.7864172356666399E-004           2     1493471           0
</event>
<event>
      6   9999  3.45752E-01  4.46460E+00 -1.00000E+00  2.38370E-01
      21    -1     0     0   512   502  0.000000000E+00  0.000000000E+00  1.665813337E+03  1.665813337E+03  0.000000000E+00  0.00000E+00  9.000E+00
      21    -1     0     0   502   503  0.000000000E+00  0.000000000E+00 -2.210942665E+01  2.210942665E+01  0.000000000E+00  0.00000E+00  9.000E+00
      25     1     1     2     0     0  4.068494871E+01  2.516798529E+01  2.627411680E+02  2.948670454E+02  1.249998422E+02  0.00000E+00  9.000E+00
       5     1     1     2   501     0 -3.879739877E+00  5.111343764E+00  7.566540153E+02  7.566961343E+02  4.750000000E+00  0.00000E+00  9.000E+00
      -5     1     1     2     0   503 -3.589394941E+01 -2.590871893E+01  7.635108509E+01  8.838375425E+01  4.750000000E+00  0.00000E+00  9.000E+00
      21     1     1     2   512   501 -9.112594130E-01 -4.370610129E+00  5.479576415E+02  5.479758293E+02  0.000000000E+00  0.00000E+00  9.000E+00
#rwgt            1           9   8.0788608496274703E-005           2     1496370           0
</event>
<event>
      6   9999  3.45752E-01  8.19038E+00 -1.00000E+00  1.96814E-01
      21    -1     0     0   501   511  0.000000000E+00  0.000000000E+00  1.132232327E+02  1.132232327E+02  0.000000000E+00  0.00000E+00  9.000E+00
      21    -1     0     0   502   503  0.000000000E+00  0.000000000E+00 -6.068026444E+01  6.068026444E+01  0.000000000E+00  0.00000E+00  9.000E+00
      25     1     1     2     0     0  3.433704390E+00 -1.227152694E+01  1.348436895E+01  1.263639767E+02  1.249945827E+02  0.00000E+00  9.000E+00
       5     1     1     2   501     0 -7.692323191E-02 -5.046243463E-02  1.454534690E+01  1.530157116E+01  4.750000000E+00  0.00000E+00  9.000E+00
      -5     1     1     2     0   503 -7.156349788E+00  5.066264374E+00  5.171026926E+00  1.123309381E+01  4.750000000E+00  0.00000E+00  9.000E+00
      21     1     1     2   502   511  3.799568630E+00  7.255725005E+00  1.934222546E+01  2.100485546E+01  3.371747881E-07  0.00000E+00  9.000E+00
#rwgt            1           9   6.0678784998200645E-004           2     1501975           0
</event>
<event>
      6   9999 -3.45752E-01  2.88261E+01 -1.00000E+00  1.48968E-01
      21    -1     0     0   501   512  0.000000000E+00  0.000000000E+00  5.991336093E+01  5.991336093E+01  0.000000000E+00  0.00000E+00  9.000E+00
      21    -1     0     0   502   503  0.000000000E+00  0.000000000E+00 -3.451859428E+02  3.451859428E+02  0.000000000E+00  0.00000E+00  9.000E+00
      25     1     1     2     0     0  5.856617828E+01 -6.249971978E+01 -1.827755396E+02  2.374193018E+02  1.249992592E+02  0.00000E+00  9.000E+00
       5     1     1     2   501     0  5.564741217E-01  5.003849713E-01  1.157030242E+00  4.945833352E+00  4.750000000E+00  0.00000E+00  9.000E+00
      -5     1     1     2     0   503 -4.138839231E+01  8.472469108E+01 -9.141491328E+01  1.314173549E+02  4.750000000E+00  0.00000E+00  9.000E+00
      21     1     1     2   502   512 -1.773426009E+01 -2.272535627E+01 -1.223915924E+01  3.131681365E+01  6.951036328E-07  0.00000E+00  9.000E+00
#rwgt            1           9 -0.51109978964080405                2     1504514           0
</event>
<event>
      6   9999 -3.45752E-01  4.59266E+01 -1.00000E+00  1.36792E-01
      21    -1     0     0   501   502  0.000000000E+00  0.000000000E+00  3.092384531E+02  3.092384531E+02  0.000000000E+00  0.00000E+00  9.000E+00
      21    -1     0     0   502   511  0.000000000E+00  0.000000000E+00 -4.687334566E+02  4.687334566E+02  0.000000000E+00  0.00000E+00  9.000E+00
      25     1     1     2     0     0  2.889822339E+02 -2.895302361E+01 -5.261036062E+00  3.162288677E+02  1.249960367E+02  0.00000E+00  9.000E+00
       5     1     1     2   501     0 -8.880603960E+01  1.226867419E+02 -1.906600179E+01  1.527240132E+02  4.750000000E+00  0.00000E+00  9.000E+00
      -5     1     1     2     0   503 -1.856079814E+02 -1.372885183E+02 -1.023945057E+02  2.525978173E+02  4.750000000E+00  0.00000E+00  9.000E+00
      21     1     1     2   503   511 -1.456821290E+01  4.355480005E+01 -3.277345998E+01  5.642121156E+01  8.259061849E-07  0.00000E+00  9.000E+00
#rwgt            1           9  -1.6950599908022107E-003           2     1505886           0
</event>
<event>
      6   9999  3.45752E-01  7.13653E+00 -1.00000E+00  2.04075E-01
      21    -1     0     0   501   502  0.000000000E+00  0.000000000E+00  2.130992858E+01  2.130992858E+01  0.000000000E+00  0.00000E+00  9.000E+00
      21    -1     0     0   502   512  0.000000000E+00  0.000000000E+00 -4.823069152E+02  4.823069152E+02  0.000000000E+00  0.00000E+00  9.000E+00
      25     1     1     2     0     0  3.559969182E+00  3.359662540E+01 -2.912676223E+02  3.187527799E+02  1.250004012E+02  0.00000E+00  9.000E+00
       5     1     1     2   501     0  2.122161625E-01 -8.005844345E-01  4.346893953E+00  6.491837812E+00  4.750000000E+00  0.00000E+00  9.000E+00
      -5     1     1     2     0   503  3.033502996E+00 -3.064833145E+01 -1.275317449E+02  1.312837798E+02  4.750000000E+00  0.00000E+00  9.000E+00
      21     1     1     2   503   512 -6.805688340E+00 -2.147709511E+00 -4.654451330E+01  4.708844623E+01  0.000000000E+00  0.00000E+00  9.000E+00
#rwgt            1           9   7.2531069511656124E-002           2     1507519           0
</event>
<event>
      6   9999 -3.45752E-01  1.83348E+02 -1.00000E+00  1.10216E-01
      21    -1     0     0   511   503  0.000000000E+00  0.000000000E+00  3.041503966E+03  3.041503966E+03  0.000000000E+00  0.00000E+00  9.000E+00
      21    -1     0     0   501   502  0.000000000E+00  0.000000000E+00 -4.498237276E+03  4.498237276E+03  0.000000000E+00  0.00000E+00  9.000E+00
      25     1     1     2     0     0  3.197939589E+03  6.590878467E+02 -1.704366162E+03  3.685336168E+03  1.249970270E+02  0.00000E+00  9.000E+00
       5     1     1     2   501     0 -7.484990392E+02 -3.210206349E+02 -8.246998781E+02  1.159076146E+03  4.750000000E+00  0.00000E+00  9.000E+00
      -5     1     1     2     0   503 -2.268340963E+03 -3.094392468E+02  9.999931976E+02  2.498225837E+03  4.750000000E+00  0.00000E+00  9.000E+00
      21     1     1     2   511   502 -1.810995863E+02 -2.862796499E+01  7.233953298E+01  1.971030912E+02  1.348699152E-06  0.00000E+00  9.000E+00
#rwgt            1           9  -1.3863534831269246E-005           2     1510562           0
</event>
<event>
      6   9999 -3.45752E-01  8.51249E+01 -1.00000E+00  1.23484E-01
      21    -1     0     0   502   503  0.000000000E+00  0.000000000E+00  4.482604581E+01  4.482604581E+01  0.000000000E+00  0.00000E+00  9.000E+00
      21    -1     0     0   501   512  0.000000000E+00  0.000000000E+00 -1.171499134E+03  1.171499134E+03  0.000000000E+00  0.00000E+00  9.000E+00
      25     1     1     2     0     0 -4.016657172E+01 -6.692802998E+01 -1.196824381E+02  1.898434107E+02  1.249956795E+02  0.00000E+00  9.000E+00
       5     1     1     2   501     0 -8.103401567E+00  1.434405337E+01 -4.265511443E+02  4.268956058E+02  4.750000000E+00  0.00000E+00  9.000E+00
      -5     1     1     2     0   503 -3.684989180E+01  5.351113369E+01 -2.586124624E+02  2.666914400E+02  4.750000000E+00  0.00000E+00  9.000E+00
      21     1     1     2   502   512  8.511986508E+01 -9.271570857E-01 -3.218270436E+02  3.328947237E+02  3.814697266E-06  0.00000E+00  9.000E+00
#rwgt            1           9  -4.0553270551356768E-002           2     1512481           0
</event>
<event>
      6   9999  3.45752E-01  1.71972E+01 -1.00000E+00  1.65382E-01
      21    -1     0     0   511   502  0.000000000E+00  0.000000000E+00  3.397998092E+01  3.397998092E+01  0.000000000E+00  0.00000E+00  9.000E+00
      21    -1     0     0   502   503  0.000000000E+00  0.000000000E+00 -3.153360097E+02  3.153360097E+02  0.000000000E+00  0.00000E+00  9.000E+00
      25     1     1     2     0     0  5.896309433E-01 -3.675863402E+01 -1.366863237E+02  1.887316949E+02  1.248397241E+02  0.00000E+00  9.000E+00
       5     1     1     2   501     0 -4.323956062E-01 -7.555672222E-02 -3.645837556E+01  3.676912187E+01  4.750000000E+00  0.00000E+00  9.000E+00
      -5     1     1     2     0   503 -8.433216855E+00  2.175934440E+01 -1.031863571E+02  1.058988905E+02  4.750000000E+00  0.00000E+00  9.000E+00
      21     1     1     2   511   501  8.275981517E+00  1.507484635E+01 -5.024972389E+00  1.791628338E+01  2.230201594E-07  0.00000E+00  9.000E+00
#rwgt            1           9  0.84265061604989233                2     1513044           0
</event>
<event>
      6   9999  3.45752E-01  8.45369E+00 -1.00000E+00  1.95221E-01
      21    -1     0     0   501   502  0.000000000E+00  0.000000000E+00  1.125638302E+01  1.125638302E+01  0.000000000E+00  0.00000E+00  9.000E+00
      21    -1     0     0   512   503  0.000000000E+00  0.000000000E+00 -9.166234721E+02  9.166234721E+02  0.000000000E+00  0.00000E+00  9.000E+00
      25     1     1     2     0     0 -4.046486850E+00 -2.348350993E+00 -7.763977324E+02  7.864103318E+02  1.250035295E+02  0.00000E+00  9.000E+00
       5     1     1     2   501     0  1.077790636E+00  2.668276475E+00  4.113625277E+00  6.911276649E+00  4.750000000E+00  0.00000E+00  9.000E+00
      -5     1     1     2     0   503 -1.114136986E+00  7.082467163E+00 -3.243416905E+01  3.355503635E+01  4.750000000E+00  0.00000E+00  9.000E+00
      21     1     1     2   512   502  4.082833200E+00 -7.402392645E+00 -1.006488129E+02  1.010032103E+02  0.000000000E+00  0.00000E+00  9.000E+00
#rwgt            1           9   1.3797555441198313E-004           2     1514572           0
</event>
<event>
      6   9999  3.45752E-01  1.39855E+01 -1.00000E+00  1.73050E-01
      21    -1     0     0   501   502  0.000000000E+00  0.000000000E+00  1.477628015E+02  1.477628015E+02  0.000000000E+00  0.00000E+00  9.000E+00
      21    -1     0     0   511   503  0.000000000E+00  0.000000000E+00 -5.757175692E+02  5.757175692E+02  0.000000000E+00  0.00000E+00  9.000E+00
      25     1     1     2     0     0 -6.732897040E+01 -1.038004268E+01 -1.671825790E+02  2.195816533E+02  1.250006087E+02  0.00000E+00  9.000E+00
       5     1     1     2   501     0  5.349650310E+00 -9.021854918E+00  1.160977717E+02  1.166673379E+02  4.750000000E+00  0.00000E+00  9.000E+00
      -5     1     1     2     0   503  4.987406380E+01  1.239779706E+01 -3.657238770E+02  3.693475928E+02  4.750000000E+00  0.00000E+00  9.000E+00
      21     1     1     2   511   502  1.210525629E+01  7.004100533E+00 -1.114608334E+01  1.788378673E+01  3.153981341E-07  0.00000E+00  9.000E+00
#rwgt            1           9   6.1040463287265707                2     1517105           0
</event>
<event>
      6   9999  3.45752E-01  7.09782E+01 -1.00000E+00  1.27121E-01
      21    -1     0     0   501   512  0.000000000E+00  0.000000000E+00  7.152822814E+01  7.152822814E+01  0.000000000E+00  0.00000E+00  9.000E+00
      21    -1     0     0   502   503  0.000000000E+00  0.000000000E+00 -1.437285162E+03  1.437285162E+03  0.000000000E+00  0.00000E+00  9.000E+00
      25     1     1     2     0     0  2.373347592E+01  5.078674696E+01 -6.594859015E+02  6.735652305E+02  1.250035757E+02  0.00000E+00  9.000E+00
       5     1     1     2   501     0  9.685828618E+00  1.588755346E+01  4.812948964E+01  5.181930050E+01  4.750000000E+00  0.00000E+00  9.000E+00
      -5     1     1     2     0   503  1.218876862E-02 -4.062436365E+00 -6.820389466E+02  6.820675851E+02  4.750000000E+00  0.00000E+00  9.000E+00
      21     1     1     2   502   512 -3.343149330E+01 -6.261186406E+01 -7.236157543E+01  1.013612740E+02  1.651812370E-06  0.00000E+00  9.000E+00
#rwgt            1           9   2.8089198434142766E-002           2     1520512           0
</event>
<event>
      6   9999 -3.45752E-01  4.28381E+01 -1.00000E+00  1.38481E-01
      21    -1     0     0   511   502  0.000000000E+00  0.000000000E+00  2.081136363E+02  2.081136363E+02  0.000000000E+00  0.00000E+00  9.000E+00
      21    -1     0     0   502   503  0.000000000E+00  0.000000000E+00 -9.371099430E+02  9.371099430E+02  0.000000000E+00  0.00000E+00  9.000E+00
      25     1     1     2     0     0 -3.868750314E+02 -3.030854262E+01 -3.754838511E+02  5.542601062E+02  1.250009806E+02  0.00000E+00  9.000E+00
       5     1     1     2   501     0 -2.153717555E+00 -3.402162205E+00  3.730092585E+01  3.781712279E+01  4.750000000E+00  0.00000E+00  9.000E+00
      -5     1     1     2     0   503  3.462576225E+02  3.610589155E+01 -3.559243794E+02  4.978982857E+02  4.750000000E+00  0.00000E+00  9.000E+00
      21     1     1     2   511   501  4.277112650E+01 -2.395186720E+00 -3.488900197E+01  5.524806458E+01  0.000000000E+00  0.00000E+00  9.000E+00
#rwgt            1           9  -5.0216833563757141E-002           2     1521395           0
</event>
<event>
      6   9999 -3.45752E-01  5.60328E+00 -1.00000E+00  2.18282E-01
      21    -1     0     0   501   512  0.000000000E+00  0.000000000E+00  1.381571771E+01  1.381571771E+01  0.000000000E+00  0.00000E+00  9.000E+00
      21    -1     0     0   502   503  0.000000000E+00  0.000000000E+00 -8.428721765E+02  8.428721765E+02  0.000000000E+00  0.00000E+00  9.000E+00
      25     1     1     2     0     0  1.446101441E+01 -7.799794991E+00 -7.933999937E+02  8.033557385E+02  1.250077391E+02  0.00000E+00  9.000E+00
       5     1     1     2   501     0  3.092437803E+00 -1.063607691E+00  4.346867251E+00  7.221647166E+00  4.750000000E+00  0.00000E+00  9.000E+00
      -5     1     1     2     0   503 -1.213317118E+01  1.028370303E+01 -2.422120096E+01  2.936319919E+01  4.750000000E+00  0.00000E+00  9.000E+00
      21     1     1     2   502   512 -5.420281034E+00 -1.420300348E+00 -1.578213136E+01  1.674730934E+01  3.371747881E-07  0.00000E+00  9.000E+00
#rwgt            1           9  -1.5719771494141581E-004           2     1524195           0
</event>
<event>
      6   9999  3.45752E-01  4.01032E+00 -1.00000E+00  2.47619E-01
      21    -1     0     0   501   511  0.000000000E+00  0.000000000E+00  1.228711450E+02  1.228711450E+02  0.000000000E+00  0.00000E+00  9.000E+00
      21    -1     0     0   502   503  0.000000000E+00  0.000000000E+00 -1.081015607E+03  1.081015607E+03  0.000000000E+00  0.00000E+00  9.000E+00
      25     1     1     2     0     0 -5.208448445E+00 -2.902848512E+00 -9.044223703E+02  9.130387145E+02  1.249972633E+02  0.00000E+00  9.000E+00
       5     1     1     2   501     0  7.245857353E+00 -4.230023421E-01  2.125876544E+01  2.296037865E+01  4.750000000E+00  0.00000E+00  9.000E+00
      -5     1     1     2     0   503 -1.924147251E+00 -6.828662363E-01 -1.713535650E+02  1.714315473E+02  4.750000000E+00  0.00000E+00  9.000E+00
      21     1     1     2   502   511 -1.132616566E-01  4.008717090E+00  9.637270790E+01  9.645611162E+01  2.336015456E-06  0.00000E+00  9.000E+00
#rwgt            1           9   4.8073501715156509E-004           2     1528439           0
</event>
<event>
      6   9999  3.45752E-01  2.91200E+00 -1.00000E+00  2.80338E-01
      21    -1     0     0   502   512  0.000000000E+00  0.000000000E+00  3.077325632E+02  3.077325632E+02  0.000000000E+00  0.00000E+00  9.000E+00
      21    -1     0     0   501   502  0.000000000E+00  0.000000000E+00 -8.459547526E+02  8.459547526E+02  0.000000000E+00  0.00000E+00  9.000E+00
      25     1     1     2     0     0  1.885416167E+01  7.649634190E+00 -3.528742219E+02  3.749088773E+02  1.249898133E+02  0.00000E+00  9.000E+00
       5     1     1     2   501     0 -6.402990383E-01  4.607625900E-01 -3.880869415E+02  3.881168109E+02  4.750000000E+00  0.00000E+00  9.000E+00
      -5     1     1     2     0   503 -2.092371798E+01 -7.044367041E+00 -9.259713711E+01  9.531116084E+01  4.750000000E+00  0.00000E+00  9.000E+00
      21     1     1     2   503   512  2.709855345E+00 -1.066029739E+00  2.953361110E+02  2.953504668E+02  7.629394531E-06  0.00000E+00  9.000E+00
#rwgt            1           9   4.0102535641739639E-005           2     1534806           0
</event>
<event>
      6   9999  3.45752E-01  1.03375E+01 -1.00000E+00  1.85688E-01
      21    -1     0     0   511   503  0.000000000E+00  0.000000000E+00  2.117130417E+02  2.117130417E+02  0.000000000E+00  0.00000E+00  9.000E+00
      21    -1     0     0   501   502  0.000000000E+00  0.000000000E+00 -7.930573617E+02  7.930573617E+02  0.000000000E+00  0.00000E+00  9.000E+00
      25     1     1     2     0     0  1.257762962E+01 -3.878590053E+01 -6.829976829E+02  6.955398449E+02  1.250091922E+02  0.00000E+00  9.000E+00
       5     1     1     2   501     0 -2.390305688E-01 -7.241767839E-03 -5.265161864E+00  7.095182698E+00  4.750000000E+00  0.00000E+00  9.000E+00
      -5     1     1     2     0   503 -2.186412407E+01  3.477716510E+01 -9.308905992E+01  1.018608203E+02  4.750000000E+00  0.00000E+00  9.000E+00
      21     1     1     2   511   502  9.525525012E+00  4.015977198E+00  2.000075847E+02  2.002745556E+02  4.672030912E-06  0.00000E+00  9.000E+00
#rwgt            1           9   4.7172542068026115E-005           2     1540879           0
</event>
<event>
      6   9999 -3.45752E-01  2.00551E+01 -1.00000E+00  1.60119E-01
      21    -1     0     0   501   512  0.000000000E+00  0.000000000E+00  1.716198222E+03  1.716198222E+03  0.000000000E+00  0.00000E+00  9.000E+00
      21    -1     0     0   502   503  0.000000000E+00  0.000000000E+00 -1.533531057E+01  1.533531057E+01  0.000000000E+00  0.00000E+00  9.000E+00
      25     1     1     2     0     0 -7.610122392E+01 -1.990962628E+01  3.973685932E+02  4.239266759E+02  1.249969527E+02  0.00000E+00  9.000E+00
       5     1     1     2   501     0 -1.735373401E+00 -2.784599489E+00  4.892366105E+02  4.892706706E+02  4.750000000E+00  0.00000E+00  9.000E+00
      -5     1     1     2     0   503  5.835242977E+01  1.794289394E+01  6.426196527E+02  6.455304284E+02  4.750000000E+00  0.00000E+00  9.000E+00
      21     1     1     2   502   512  1.948416756E+01  4.751331830E+00  1.716380547E+02  1.728057573E+02  2.697398305E-06  0.00000E+00  9.000E+00
#rwgt            1           9  -2.3527391947544637E-004           2     1543218           0
</event>
<event>
      6   9999  3.45752E-01  1.15375E+01 -1.00000E+00  1.80880E-01
      21    -1     0     0   511   503  0.000000000E+00  0.000000000E+00  2.234215011E+01  2.234215011E+01  0.000000000E+00  0.00000E+00  9.000E+00
      21    -1     0     0   501   502  0.000000000E+00  0.000000000E+00 -7.665372934E+02  7.665372934E+02  0.000000000E+00  0.00000E+00  9.000E+00
      25     1     1     2     0     0  7.213750228E+00 -2.833416379E+00 -5.677807400E+02  5.814294781E+02  1.250008115E+02  0.00000E+00  9.000E+00
       5     1     1     2   501     0  7.926166531E+00  1.307214584E+00 -1.604710025E+02  1.607421477E+02  4.750000000E+00  0.00000E+00  9.000E+00
      -5     1     1     2     0   503 -9.366070333E+00  1.151503855E+01 -2.671182072E+01  3.092577004E+01  4.750000000E+00  0.00000E+00  9.000E+00
      21     1     1     2   511   502 -5.773846426E+00 -9.988836757E+00  1.076841985E+01  1.578204766E+01  5.591411304E-07  0.00000E+00  9.000E+00
#rwgt            1           9  0.55710475440890628                2     1545219           0
</event>
<event>
      6   9999 -3.45752E-01  9.47162E+00 -1.00000E+00  1.89712E-01
      21    -1     0     0   501   502  0.000000000E+00  0.000000000E+00  9.259261730E+00  9.259261730E+00  0.000000000E+00  0.00000E+00  9.000E+00
      21    -1     0     0   512   503  0.000000000E+00  0.000000000E+00 -9.356515086E+02  9.356515086E+02  0.000000000E+00  0.00000E+00  9.000E+00
      25     1     1     2     0     0 -2.674237190E+00 -6.116641086E+00 -6.304767934E+02  6.427825786E+02  1.249955657E+02  0.00000E+00  9.000E+00
       5     1     1     2   501     0  1.240477958E+00 -6.606831155E-01  7.381124229E-01  5.008252958E+00  4.750000000E+00  0.00000E+00  9.000E+00
      -5     1     1     2     0   503  4.980005837E+00 -2.005366110E+00 -1.261857909E+02  1.263892332E+02  4.750000000E+00  0.00000E+00  9.000E+00
      21     1     1     2   512   502 -3.546246605E+00  8.782690312E+00 -1.704677749E+02  1.707307055E+02  1.907348633E-06  0.00000E+00  9.000E+00
#rwgt            1           9  -5.0058092072518866E-003           2     1547081           0
</event>
<event>
      6   9999  3.45752E-01  3.03649E+01 -1.00000E+00  1.47499E-01
       3    -1     0     0   502     0  0.000000000E+00  0.000000000E+00  2.055458516E+02  2.055458516E+02  0.000000000E+00  0.00000E+00  9.000E+00
      21    -1     0     0   501   502  0.000000000E+00  0.000000000E+00 -1.224426562E+03  1.224426562E+03  0.000000000E+00  0.00000E+00  9.000E+00
      25     1     1     2     0     0 -2.901361645E+01  1.946898452E+01 -7.652733041E+02  7.762021010E+02  1.250025615E+02  0.00000E+00  9.000E+00
       5     1     1     2   501     0  1.657635777E+01 -3.332588670E+00 -1.927391621E+02  1.935376679E+02  4.750000000E+00  0.00000E+00  9.000E+00
      -5     1     1     2     0   503  4.236249606E+01 -1.098804091E+01 -2.575174151E+02  2.612529420E+02  4.750000000E+00  0.00000E+00  9.000E+00
       3     1     1     2   503     0 -2.992523738E+01 -5.148354938E+00  1.966491713E+02  1.989797024E+02  6.607249480E-06  0.00000E+00  9.000E+00
#rwgt            1           9   6.4882019843061590E-003           2     1549991           0
</event>
<event>
      6   9999  3.45752E-01  1.37970E+01 -1.00000E+00  1.73579E-01
      21    -1     0     0   501   511  0.000000000E+00  0.000000000E+00  5.691577095E+01  5.691577095E+01  0.000000000E+00  0.00000E+00  9.000E+00
      21    -1     0     0   502   503  0.000000000E+00  0.000000000E+00 -1.130417419E+03  1.130417419E+03  0.000000000E+00  0.00000E+00  9.000E+00
      25     1     1     2     0     0  1.439454932E+00 -6.311372588E+00 -1.024157581E+03  1.031777626E+03  1.249976537E+02  0.00000E+00  9.000E+00
       5     1     1     2   501     0 -9.718236687E+00 -7.470955627E+00  2.051156260E+01  2.436279956E+01  4.750000000E+00  0.00000E+00  9.000E+00
      -5     1     1     2     0   503  2.415660494E+00  1.293135595E+00 -9.889266559E+01  9.904458301E+01  4.750000000E+00  0.00000E+00  9.000E+00
      21     1     1     2   502   511  5.863121261E+00  1.248919262E+01  2.903703581E+01  3.214818147E+01  0.000000000E+00  0.00000E+00  9.000E+00
#rwgt            1           9   1.7479006075120254E-003           2     1551137           0
</event>
<event>
      6   9999  3.45752E-01  2.01863E+01 -1.00000E+00  1.59904E-01
      21    -1     0     0   501   502  0.000000000E+00  0.000000000E+00  8.771427793E+02  8.771427793E+02  0.000000000E+00  0.00000E+00  9.000E+00
      21    -1     0     0   512   503  0.000000000E+00  0.000000000E+00 -8.935415531E+01  8.935415531E+01  0.000000000E+00  0.00000E+00  9.000E+00
      25     1     1     2     0     0 -1.587245962E+01 -9.389397786E+00  9.495350594E+01  1.580530026E+02  1.249979503E+02  0.00000E+00  9.000E+00
       5     1     1     2   501     0  2.088129888E+00 -3.160376881E+00  7.428661321E+02  7.428909751E+02  4.750000000E+00  0.00000E+00  9.000E+00
      -5     1     1     2     0   503 -6.400743128E+00  1.276999840E+01 -4.054425635E+01  4.324860223E+01  4.750000000E+00  0.00000E+00  9.000E+00
      21     1     1     2   512   502  2.018507286E+01 -2.202237365E-01 -9.486757648E+00  2.230435464E+01  6.078504936E-07  0.00000E+00  9.000E+00
#rwgt            1           9   1.5677675508142124                2     1554213           0
</event>
<event>
      6   9999  3.45752E-01  2.04859E+00 -1.00000E+00  3.28905E-01
      21    -1     0     0   501   502  0.000000000E+00  0.000000000E+00  2.660872393E+01  2.660872393E+01  0.000000000E+00  0.00000E+00  9.000E+00
      21    -1     0     0   511   503  0.000000000E+00  0.000000000E+00 -1.248645040E+03  1.248645040E+03  0.000000000E+00  0.00000E+00  9.000E+00
      25     1     1     2     0     0 -2.383469045E+01 -2.458327995E+01 -4.487324402E+02  4.670739525E+02  1.249993764E+02  0.00000E+00  9.000E+00
       5     1     1     2   501     0  3.478135848E+00 -2.685697638E+00  1.644614362E+01  1.767338509E+01  4.750000000E+00  0.00000E+00  9.000E+00
      -5     1     1     2     0   503  1.892356219E+01  2.580499811E+01 -7.201442262E+02  7.208704934E+02  4.750000000E+00  0.00000E+00  9.000E+00
      21     1     1     2   511   502  1.432992413E+00  1.463979469E+00 -6.960579274E+01  6.963593244E+01  1.348699152E-06  0.00000E+00  9.000E+00
#rwgt            1           9  0.42301182943364651                2     1556783           0
</event>
<event>
      6   9999  3.45752E-01  7.07291E+00 -1.00000E+00  2.04567E-01
      21    -1     0     0   501   502  0.000000000E+00  0.000000000E+00  4.160635911E+01  4.160635911E+01  0.000000000E+00  0.00000E+00  9.000E+00
      21    -1     0     0   502   512  0.000000000E+00  0.000000000E+00 -2.452566347E+03  2.452566347E+03  0.000000000E+00  0.00000E+00  9.000E+00
      25     1     1     2     0     0 -1.819943306E+02 -2.048000064E+01 -6.286450331E+02  6.666039620E+02  1.249995907E+02  0.00000E+00  9.000E+00
       5     1     1     2   501     0  5.998947900E+00 -4.342180591E-01  1.727520052E+01  1.889896754E+01  4.750000000E+00  0.00000E+00  9.000E+00
      -5     1     1     2     0   503  1.718137442E+02  2.661860480E+01 -1.730065513E+03  1.738786288E+03  4.750000000E+00  0.00000E+00  9.000E+00
      21     1     1     2   503   512  4.181638514E+00 -5.704386099E+00 -6.952464272E+01  6.988348923E+01  1.651812370E-06  0.00000E+00  9.000E+00
#rwgt            1           9   1.0915151221687871E-002           2     1566239           0
</event>
<event>
      6   9999  3.45752E-01  1.91758E+01 -1.00000E+00  1.61618E-01
      21    -1     0     0   511   502  0.000000000E+00  0.000000000E+00  5.490950735E+01  5.490950735E+01  0.000000000E+00  0.00000E+00  9.000E+00
      21    -1     0     0   502   503  0.000000000E+00  0.000000000E+00 -6.304169383E+02  6.304169383E+02  0.000000000E+00  0.00000E+00  9.000E+00
      25     1     1     2     0     0 -6.268281244E-01 -1.009789524E+01 -5.856547753E+02  5.989316588E+02  1.250010227E+02  0.00000E+00  9.000E+00
       5     1     1     2   501     0 -9.562088916E+00  1.368969412E+00  4.230028265E+01  4.364841388E+01  4.750000000E+00  0.00000E+00  9.000E+00
      -5     1     1     2     0   503 -7.068876362E+00  3.694496161E-01 -1.368904278E+01  1.612631074E+01  4.750000000E+00  0.00000E+00  9.000E+00
      21     1     1     2   511   501  1.725779340E+01  8.359476208E+00 -1.846389557E+01  2.662006227E+01  2.384185791E-07  0.00000E+00  9.000E+00
#rwgt            1           9   1.8162024679097431E-004           2     1571262           0
</event>
<event>
      6   9999  3.45752E-01  2.89255E+00 -1.00000E+00  2.81121E-01
      21    -1     0     0   512   502  0.000000000E+00  0.000000000E+00  4.856303584E+01  4.856303584E+01  0.000000000E+00  0.00000E+00  9.000E+00
      21    -1     0     0   502   503  0.000000000E+00  0.000000000E+00 -7.281212429E+02  7.281212429E+02  0.000000000E+00  0.00000E+00  9.000E+00
      25     1     1     2     0     0 -2.008464480E+01 -5.147185892E+00 -4.653637205E+02  4.823057179E+02  1.250021064E+02  0.00000E+00  9.000E+00
       5     1     1     2   501     0 -3.901232588E-01 -1.936518297E-01 -2.738004918E+00  5.499897101E+00  4.750000000E+00  0.00000E+00  9.000E+00
      -5     1     1     2     0   503  2.312091322E+01  4.172607716E+00 -2.495384342E+02  2.506870159E+02  4.750000000E+00  0.00000E+00  9.000E+00
      21     1     1     2   512   501 -2.646145170E+00  1.168230006E+00  3.808195268E+01  3.819164785E+01  2.236564522E-06  0.00000E+00  9.000E+00
#rwgt            1           9   1.5546287463193682E-002           2     1573408           0
</event>
<event>
      6   9999  3.45752E-01  4.27582E+01 -1.00000E+00  1.38527E-01
      21    -1     0     0   501   502  0.000000000E+00  0.000000000E+00  5.180818518E+01  5.180818518E+01  0.000000000E+00  0.00000E+00  9.000E+00
      21    -1     0     0   502   511  0.000000000E+00  0.000000000E+00 -1.530740586E+03  1.530740586E+03  0.000000000E+00  0.00000E+00  9.000E+00
      25     1     1     2     0     0  1.630826417E+01 -5.230352056E+01 -1.785242696E+02  2.245398267E+02  1.246820003E+02  0.00000E+00  9.000E+00
       5     1     1     2   501     0  1.965101387E+00 -3.973956774E+00  2.606826410E+01  2.686579329E+01  4.750000000E+00  0.00000E+00  9.000E+00
      -5     1     1     2     0   503 -5.725622422E+00  1.540182244E+01 -1.127260840E+03  1.127390599E+03  4.750000000E+00  0.00000E+00  9.000E+00
      21     1     1     2   503   511 -1.254774314E+01  4.087565490E+01 -1.992155545E+02  2.037525513E+02  0.000000000E+00  0.00000E+00  9.000E+00
#rwgt            1           9   1.9326785777467890E-004           2     1579122           0
</event>
<event>
      6   9999  3.45752E-01  9.44186E+01 -1.00000E+00  1.21505E-01
      21    -1     0     0   512   503  0.000000000E+00  0.000000000E+00  5.846278803E+01  5.846278803E+01  0.000000000E+00  0.00000E+00  9.000E+00
      21    -1     0     0   501   502  0.000000000E+00  0.000000000E+00 -2.204993154E+03  2.204993154E+03  0.000000000E+00  0.00000E+00  9.000E+00
      25     1     1     2     0     0  8.095774653E+01  5.766732314E+01 -1.125594439E+03  1.136867825E+03  1.250037376E+02  0.00000E+00  9.000E+00
       5     1     1     2   501     0  4.427652976E+00 -4.238408911E+01 -7.389056817E+02  7.401487581E+02  4.750000000E+00  0.00000E+00  9.000E+00
      -5     1     1     2     0   503 -1.653124063E+02  3.498154738E+01 -1.669882599E+02  2.376121667E+02  4.750000000E+00  0.00000E+00  9.000E+00
      21     1     1     2   512   502  7.992700675E+01 -5.026478140E+01 -1.150419855E+02  1.488271920E+02  3.015782986E-06  0.00000E+00  9.000E+00
#rwgt            1           9   301.37574840103844                2     1580605           0
</event>
<event>
      6   9999  3.45752E-01  7.48655E+00 -1.00000E+00  2.01488E-01
      21    -1     0     0   501   511  0.000000000E+00  0.000000000E+00  2.777509071E+01  2.777509071E+01  0.000000000E+00  0.00000E+00  9.000E+00
      21    -1     0     0   502   503  0.000000000E+00  0.000000000E+00 -1.015033388E+03  1.015033388E+03  0.000000000E+00  0.00000E+00  9.000E+00
      25     1     1     2     0     0 -4.683620767E+01  6.574507943E+01 -4.840481371E+02  5.064027486E+02  1.250003958E+02  0.00000E+00  9.000E+00
       5     1     1     2   501     0 -2.268078701E+00  3.073121315E+00  1.119692741E+01  1.274840927E+01  4.750000000E+00  0.00000E+00  9.000E+00
      -5     1     1     2     0   503  5.376773794E+01 -6.296152257E+01 -5.043323676E+02  5.111054906E+02  4.750000000E+00  0.00000E+00  9.000E+00
      21     1     1     2   502   511 -4.663451577E+00 -5.856678174E+00 -1.007471995E+01  1.255183022E+01  2.384185791E-07  0.00000E+00  9.000E+00
#rwgt            1           9   1.0898811353686310E-003           2     1581713           0
</event>
<event>
      6   9999  3.45752E-01  3.74108E+00 -1.00000E+00  2.54023E-01
      21    -1     0     0   512   503  0.000000000E+00  0.000000000E+00  9.784721957E+00  9.784721957E+00  0.000000000E+00  0.00000E+00  9.000E+00
      21    -1     0     0   501   502  0.000000000E+00  0.000000000E+00 -7.162303673E+02  7.162303673E+02  0.000000000E+00  0.00000E+00  9.000E+00
      25     1     1     2     0     0 -4.476352708E+00 -2.488137950E+01 -5.279433528E+02  5.431273845E+02  1.249962051E+02  0.00000E+00  9.000E+00
       5     1     1     2   501     0  1.259873169E-01  2.981721789E+00 -5.350360851E+01  5.379688802E+01  4.750000000E+00  0.00000E+00  9.000E+00
      -5     1     1     2     0   503  5.354216960E+00  1.829577175E+01 -1.235127356E+02  1.250654279E+02  4.750000000E+00  0.00000E+00  9.000E+00
      21     1     1     2   512   502 -1.003851569E+00  3.603885963E+00 -1.485948404E+00  4.025388760E+00  1.349357536E-07  0.00000E+00  9.000E+00
#rwgt            1           9   3.2137610330644267E-004           2     1585748           0
</event>
<event>
      6   9999  3.45752E-01  8.08281E+00 -1.00000E+00  1.97487E-01
      21    -1     0     0   501   511  0.000000000E+00  0.000000000E+00  5.879795154E+02  5.879795154E+02  0.000000000E+00  0.00000E+00  9.000E+00
      21    -1     0     0   502   503  0.000000000E+00  0.000000000E+00 -4.076214556E+01  4.076214556E+01  0.000000000E+00  0.00000E+00  9.000E+00
      25     1     1     2     0     0 -6.993607992E-01  6.158150527E+00  6.023973710E+01  1.388934087E+02  1.249965644E+02  0.00000E+00  9.000E+00
       5     1     1     2   501     0 -8.769292939E-01  2.943437230E-01  3.226828408E+01  3.262913270E+01  4.750000000E+00  0.00000E+00  9.000E+00
      -5     1     1     2     0   503 -5.900687658E-01  1.334587033E+00  3.846687007E+00  6.284011826E+00  4.750000000E+00  0.00000E+00  9.000E+00
      21     1     1     2   502   511  2.166358859E+00 -7.787081283E+00  4.508626616E+02  4.509351078E+02  5.394796609E-06  0.00000E+00  9.000E+00
#rwgt            1           9   3.4273798354513273E-004           2     1590094           0
</event>
<event>
      6   9999 -3.45752E-01  1.18142E+01 -1.00000E+00  1.79876E-01
      21    -1     0     0   501   502  0.000000000E+00  0.000000000E+00  2.052873466E+03  2.052873466E+03  0.000000000E+00  0.00000E+00  9.000E+00
      21    -1     0     0   512   503  0.000000000E+00  0.000000000E+00 -1.889394593E+01  1.889394593E+01  0.000000000E+00  0.00000E+00  9.000E+00
      25     1     1     2     0     0  2.097568502E+01  6.293831718E+00  2.775694338E+02  3.052079031E+02  1.250099270E+02  0.00000E+00  9.000E+00
       5     1     1     2   501     0  9.434906647E-01 -3.619240580E+00  1.430723778E+03  1.430736552E+03  4.750000000E+00  0.00000E+00  9.000E+00
      -5     1     1     2     0   503 -1.145204441E+01  2.803907303E+00  3.235713961E+02  3.238209723E+02  4.750000000E+00  0.00000E+00  9.000E+00
      21     1     1     2   512   502 -1.046713127E+01 -5.478498441E+00  2.114911974E+00  1.200198462E+01  3.153981341E-07  0.00000E+00  9.000E+00
#rwgt            1           9  -2.6464116824488674E-003           2     1592520           0
</event>
<event>
      6   9999  3.45752E-01  5.83460E+00 -1.00000E+00  2.15763E-01
      21    -1     0     0   511   502  0.000000000E+00  0.000000000E+00  8.796269198E+01  8.796269198E+01  0.000000000E+00  0.00000E+00  9.000E+00
      21    -1     0     0   502   503  0.000000000E+00  0.000000000E+00 -1.687153763E+03  1.687153763E+03  0.000000000E+00  0.00000E+00  9.000E+00
      25     1     1     2     0     0 -5.571067329E+00  6.418045327E+00 -1.538701885E+03  1.543794107E+03  1.249980922E+02  0.00000E+00  9.000E+00
       5     1     1     2   501     0  6.575111719E-01  2.039010185E+00 -2.267549937E+00  5.682795632E+00  4.750000000E+00  0.00000E+00  9.000E+00
      -5     1     1     2     0   503  1.391640928E+00 -3.805319858E+00 -1.417601327E+02  1.418975505E+02  4.750000000E+00  0.00000E+00  9.000E+00
      21     1     1     2   511   501  3.521915229E+00 -4.651735655E+00  8.353849683E+01  8.374200251E+01  2.697398305E-06  0.00000E+00  9.000E+00
#rwgt            1           9   7.4816836778687210E-002           2     1595286           0
</event>
<event>
      6   9999  3.45752E-01  5.45361E+00 -1.00000E+00  2.20002E-01
      21    -1     0     0   501   502  0.000000000E+00  0.000000000E+00  4.509329127E+01  4.509329127E+01  0.000000000E+00  0.00000E+00  9.000E+00
      21    -1     0     0   512   503  0.000000000E+00  0.000000000E+00 -1.221530829E+03  1.221530829E+03  0.000000000E+00  0.00000E+00  9.000E+00
      25     1     1     2     0     0  2.836882042E+01 -1.488984533E+01 -5.310583085E+02  5.465114503E+02  1.250013631E+02  0.00000E+00  9.000E+00
       5     1     1     2   501     0 -4.984767694E-01  1.048567406E+01  3.581632233E+01  3.762405195E+01  4.750000000E+00  0.00000E+00  9.000E+00
      -5     1     1     2     0   503 -3.294337911E+01  6.405717534E+00 -6.444325777E+02  6.453233369E+02  4.750000000E+00  0.00000E+00  9.000E+00
      21     1     1     2   512   502  5.073035459E+00 -2.001546264E+00 -3.676297440E+01  3.716528168E+01  4.768371582E-07  0.00000E+00  9.000E+00
#rwgt            1           9   6.4965038459689501E-004           2     1598888           0
</event>
<event>
      6   9999  3.45752E-01  2.37796E+01 -1.00000E+00  1.54677E-01
      21    -1     0     0   511   502  0.000000000E+00  0.000000000E+00  7.325362599E+01  7.325362599E+01  0.000000000E+00  0.00000E+00  9.000E+00
      21    -1     0     0   502   503  0.000000000E+00  0.000000000E+00 -1.432248779E+03  1.432248779E+03  0.000000000E+00  0.00000E+00  9.000E+00
      25     1     1     2     0     0  1.427064840E+02  2.144485709E+02 -6.781458125E+02  7.361106453E+02  1.249952357E+02  0.00000E+00  9.000E+00
       5     1     1     2   501     0 -3.474137073E+00 -3.016340845E+00  1.181916699E+01  1.354338026E+01  4.750000000E+00  0.00000E+00  9.000E+00
      -5     1     1     2     0   503 -1.469435714E+02 -2.339268474E+02 -6.595000313E+02  7.150363885E+02  4.750000000E+00  0.00000E+00  9.000E+00
      21     1     1     2   511   501  7.711224484E+00  2.249461731E+01 -3.316847630E+01  4.081199102E+01  4.768371582E-07  0.00000E+00  9.000E+00
#rwgt            1           9   1.7452526880273612E-004           2     1604596           0
</event>
<event>
      6   9999  3.45752E-01  5.52968E+00 -1.00000E+00  2.19118E-01
      21    -1     0     0   501   512  0.000000000E+00  0.000000000E+00  9.091623532E+00  9.091623532E+00  0.000000000E+00  0.00000E+00  9.000E+00
      21    -1     0     0   502   503  0.000000000E+00  0.000000000E+00 -7.139342018E+02  7.139342018E+02  0.000000000E+00  0.00000E+00  9.000E+00
      25     1     1     2     0     0  1.434009285E+01 -2.529677560E+00 -4.840486122E+02  5.001408845E+02  1.250032315E+02  0.00000E+00  9.000E+00
       5     1     1     2   501     0  2.524306802E-01 -2.071009060E-02 -1.022669715E+01  1.127882905E+01  4.750000000E+00  0.00000E+00  9.000E+00
      -5     1     1     2     0   503 -9.955449950E+00  5.562846911E+00 -1.866305228E+02  1.870389553E+02  4.750000000E+00  0.00000E+00  9.000E+00
      21     1     1     2   502   512 -4.637073584E+00 -3.012459260E+00 -2.393674611E+01  2.456715646E+01  0.000000000E+00  0.00000E+00  9.000E+00
#rwgt            1           9   7.7266826166456611E-004           2     1607794           0
</event>
<event>
      6   9999  3.45752E-01  1.34107E+01 -1.00000E+00  1.74697E-01
      21    -1     0     0   511   502  0.000000000E+00  0.000000000E+00  1.564763529E+01  1.564763529E+01  0.000000000E+00  0.00000E+00  9.000E+00
      21    -1     0     0   502   503  0.000000000E+00  0.000000000E+00 -7.670764680E+02  7.670764680E+02  0.000000000E+00  0.00000E+00  9.000E+00
      25     1     1     2     0     0  1.892179070E+01 -1.958324663E+01 -6.234278061E+02  6.364187468E+02  1.250002167E+02  0.00000E+00  9.000E+00
       5     1     1     2   501     0  7.216557163E-01 -1.730533064E+00  3.094594641E+00  5.971142910E+00  4.750000000E+00  0.00000E+00  9.000E+00
      -5     1     1     2     0   503 -1.704639881E+01  8.156968292E+00 -1.232838848E+02  1.248142403E+02  4.750000000E+00  0.00000E+00  9.000E+00
      21     1     1     2   511   501 -2.597047602E+00  1.315681140E+01 -7.811736485E+00  1.551997324E+01  2.528810911E-07  0.00000E+00  9.000E+00
#rwgt            1           9   4.6916598803080947E-004           2     1610976           0
</event>
<event>
      6   9999  3.45752E-01  3.61292E+01 -1.00000E+00  1.42798E-01
      21    -1     0     0   512   503  0.000000000E+00  0.000000000E+00  1.461421407E+02  1.461421407E+02  0.000000000E+00  0.00000E+00  9.000E+00
      21    -1     0     0   501   502  0.000000000E+00  0.000000000E+00 -8.025938563E+02  8.025938563E+02  0.000000000E+00  0.00000E+00  9.000E+00
      25     1     1     2     0     0 -3.384220362E+01 -4.005017822E+01 -6.114272912E+02  6.262722728E+02  1.249972630E+02  0.00000E+00  9.000E+00
       5     1     1     2   501     0  9.228098285E+00  2.920673349E+00 -5.816483136E+01  5.915571180E+01  4.750000000E+00  0.00000E+00  9.000E+00
      -5     1     1     2     0   503  4.087399746E+01  4.865991540E+00 -1.191623005E+02  1.261609207E+02  4.750000000E+00  0.00000E+00  9.000E+00
      21     1     1     2   512   502 -1.625989213E+01  3.226351333E+01  1.323027075E+02  1.371470918E+02  2.697398305E-06  0.00000E+00  9.000E+00
#rwgt            1           9   3.3200484937267261E-003           2     1613893           0
</event>
<event>
      6   9999  3.45752E-01  9.76823E+00 -1.00000E+00  1.88273E-01
      21    -1     0     0   501   502  0.000000000E+00  0.000000000E+00  9.980489459E+00  9.980489459E+00  0.000000000E+00  0.00000E+00  9.000E+00
      21    -1     0     0   502   511  0.000000000E+00  0.000000000E+00 -2.368364754E+03  2.368364754E+03  0.000000000E+00  0.00000E+00  9.000E+00
      25     1     1     2     0     0 -1.023937141E+02 -2.978875720E+00 -1.368763876E+03  1.378272125E+03  1.250046181E+02  0.00000E+00  9.000E+00
       5     1     1     2   501     0 -6.342317944E-01 -1.699912360E+00 -3.995150659E-01  5.100398444E+00  4.750000000E+00  0.00000E+00  9.000E+00
      -5     1     1     2     0   503  9.326733090E+01  5.064442711E+00 -7.907520970E+02  7.962637032E+02  4.750000000E+00  0.00000E+00  9.000E+00
      21     1     1     2   503   511  9.760614992E+00 -3.856546311E-01 -1.984687762E+02  1.987090171E+02  0.000000000E+00  0.00000E+00  9.000E+00
#rwgt            1           9   5.1087428085918925E-003           2     1615085           0
</event>
<event>
      6   9999  3.45752E-01  1.44753E+01 -1.00000E+00  1.71723E-01
      21    -1     0     0   512   502  0.000000000E+00  0.000000000E+00  9.012953576E+00  9.012953576E+00  0.000000000E+00  0.00000E+00  9.000E+00
      21    -1     0     0   502   503  0.000000000E+00  0.000000000E+00 -8.035265861E+02  8.035265861E+02  0.000000000E+00  0.00000E+00  9.000E+00
      25     1     1     2     0     0  8.670088146E-02 -1.014508412E+01 -6.138231305E+02  6.265031478E+02  1.249977137E+02  0.00000E+00  9.000E+00
       5     1     1     2   501     0  2.338927934E-01 -1.939326322E+00 -2.730762794E+00  5.816808219E+00  4.750000000E+00  0.00000E+00  9.000E+00
      -5     1     1     2     0   503 -1.721520568E+00 -2.322904241E+00 -1.300980657E+02  1.302168527E+02  4.750000000E+00  0.00000E+00  9.000E+00
      21     1     1     2   512   501  1.400926893E+00  1.440731468E+01 -4.786167344E+01  5.000273089E+01  1.168007728E-06  0.00000E+00  9.000E+00
#rwgt            1           9   3.8788433353755515E-002           2     1618084           0
</event>
<event>
      6   9999  3.45752E-01  3.83343E+01 -1.00000E+00  1.41266E-01
      21    -1     0     0   501   502  0.000000000E+00  0.000000000E+00  9.510607362E+00  9.510607362E+00  0.000000000E+00  0.00000E+00  9.000E+00
      21    -1     0     0   511   503  0.000000000E+00  0.000000000E+00 -1.005322680E+03  1.005322680E+03  0.000000000E+00  0.00000E+00  9.000E+00
      25     1     1     2     0     0 -3.045880185E+01  3.276780661E+01 -5.850271004E+02  5.999034422E+02  1.250038560E+02  0.00000E+00  9.000E+00
       5     1     1     2   501     0 -2.570258253E+00 -4.341582116E+00 -5.167649690E+01  5.213902947E+01  4.750000000E+00  0.00000E+00  9.000E+00
      -5     1     1     2     0   503  1.390144069E+00 -6.781418716E+00 -1.474569853E+02  1.476957858E+02  4.750000000E+00  0.00000E+00  9.000E+00
      21     1     1     2   511   502  3.163891603E+01 -2.164480578E+01 -2.116514902E+02  2.150950300E+02  3.814697266E-06  0.00000E+00  9.000E+00
#rwgt            1           9  0.36120066530425715                2     1619653           0
</event>
<event>
      6   9999  3.45752E-01  7.38104E+01 -1.00000E+00  1.26319E-01
      21    -1     0     0   501   502  0.000000000E+00  0.000000000E+00  2.578640481E+02  2.578640481E+02  0.000000000E+00  0.00000E+00  9.000E+00
       2    -1     0     0   502     0  0.000000000E+00  0.000000000E+00 -8.484654563E+02  8.484654563E+02  0.000000000E+00  0.00000E+00  9.000E+00
      25     1     1     2     0     0 -1.577963729E+02  2.781448300E+02 -4.977449062E+02  6.046809368E+02  1.249992080E+02  0.00000E+00  9.000E+00
       5     1     1     2   501     0  9.957975663E+01 -2.556174042E+02  8.801531579E+01  2.881417075E+02  4.750000000E+00  0.00000E+00  9.000E+00
      -5     1     1     2     0   503  1.130032027E+01  3.445364815E+01 -3.825694878E+01  5.292360285E+01  4.750000000E+00  0.00000E+00  9.000E+00
       2     1     1     2   503     0  4.691629596E+01 -5.698107391E+01 -1.426148690E+02  1.605832572E+02  0.000000000E+00  0.00000E+00  9.000E+00
#rwgt            1           9  0.77013286061137509                2     1620375           0
</event>
<event>
      6   9999  3.45752E-01  4.49161E+00 -1.00000E+00  2.37871E-01
      21    -1     0     0   511   502  0.000000000E+00  0.000000000E+00  8.745507112E+00  8.745507112E+00  0.000000000E+00  0.00000E+00  9.000E+00
      21    -1     0     0   502   503  0.000000000E+00  0.000000000E+00 -7.195650027E+02  7.195650027E+02  0.000000000E+00  0.00000E+00  9.000E+00
      25     1     1     2     0     0 -1.714545655E+00  1.057832832E+00 -6.343716710E+02  6.465713211E+02  1.249919901E+02  0.00000E+00  9.000E+00
       5     1     1     2   501     0  7.591281169E-01 -1.864272838E-01 -3.712657637E+00  6.079256316E+00  4.750000000E+00  0.00000E+00  9.000E+00
      -5     1     1     2     0   503  5.224112527E+00  5.260280769E-01 -7.009122438E+01  7.044792610E+01  4.750000000E+00  0.00000E+00  9.000E+00
      21     1     1     2   511   501 -4.268694990E+00 -1.397433626E+00 -2.643942578E+00  5.212006332E+00  1.460009660E-07  0.00000E+00  9.000E+00
#rwgt            1           9   5.0829520840461005E-004           2     1621554           0
</event>
<event>
      6   9999  3.45752E-01  2.80647E+01 -1.00000E+00  1.49736E-01
      21    -1     0     0   512   503  0.000000000E+00  0.000000000E+00  5.212616257E+01  5.212616257E+01  0.000000000E+00  0.00000E+00  9.000E+00
      21    -1     0     0   501   502  0.000000000E+00  0.000000000E+00 -1.158162944E+03  1.158162944E+03  0.000000000E+00  0.00000E+00  9.000E+00
      25     1     1     2     0     0  2.857191079E+01 -3.754217662E+00 -1.052028370E+03  1.059821433E+03  1.250093158E+02  0.00000E+00  9.000E+00
       5     1     1     2   501     0  7.913281090E-01  1.628126258E+00 -5.338409486E+01  5.362556367E+01  4.750000000E+00  0.00000E+00  9.000E+00
      -5     1     1     2     0   503 -1.614582801E+00 -2.073620953E+00 -4.446109903E+01  4.479127826E+01  4.750000000E+00  0.00000E+00  9.000E+00
      21     1     1     2   512   502 -2.774865610E+01  4.199712357E+00  4.383678319E+01  5.205083150E+01  1.581489940E-06  0.00000E+00  9.000E+00
#rwgt            1           9   2.1014960275640925E-003           2     1625423           0
</event>
<event>
      6   9999 -3.45752E-01  2.24490E+01 -1.00000E+00  1.56473E-01
      21    -1     0     0   501   511  0.000000000E+00  0.000000000E+00  1.427612387E+01  1.427612387E+01  0.000000000E+00  0.00000E+00  9.000E+00
      21    -1     0     0   502   503  0.000000000E+00  0.000000000E+00 -9.352242045E+02  9.352242045E+02  0.000000000E+00  0.00000E+00  9.000E+00
      25     1     1     2     0     0 -7.261004782E+00 -1.770253222E+01 -8.387704510E+02  8.482495528E+02  1.250013301E+02  0.00000E+00  9.000E+00
       5     1     1     2   501     0  1.864365438E+00 -4.218621994E+00  4.495689289E+00  8.002896488E+00  4.750000000E+00  0.00000E+00  9.000E+00
      -5     1     1     2     0   503  6.282252726E+00 -5.104187260E-01 -7.264072169E+00  1.072643795E+01  4.750000000E+00  0.00000E+00  9.000E+00
      21     1     1     2   502   511 -8.856133817E-01  2.243157294E+01 -7.940924680E+01  8.252144117E+01  9.536743164E-07  0.00000E+00  9.000E+00
#rwgt            1           9  -1.9581188628690116E-004           2     1626173           0
</event>
<event>
      6   9999  3.45752E-01  2.40301E+01 -1.00000E+00  1.54354E-01
      21    -1     0     0   501   502  0.000000000E+00  0.000000000E+00  2.246952001E+02  2.246952001E+02  0.000000000E+00  0.00000E+00  9.000E+00
      21    -1     0     0   502   512  0.000000000E+00  0.000000000E+00 -1.139034277E+02  1.139034277E+02  0.000000000E+00  0.00000E+00  9.000E+00
      25     1     1     2     0     0  1.546446000E+01  5.819812446E+01  7.163448494E+01  1.561497728E+02  1.250003236E+02  0.00000E+00  9.000E+00
       5     1     1     2   501     0  2.671602379E-01  3.819990368E+00  9.267541782E+01  9.287604250E+01  4.750000000E+00  0.00000E+00  9.000E+00
      -5     1     1     2     0   503 -1.491448426E+00 -4.266188169E+01 -1.773309701E+01  4.646811592E+01  4.750000000E+00  0.00000E+00  9.000E+00
      21     1     1     2   503   512 -1.424017181E+01 -1.935623314E+01 -3.578503338E+01  4.310469660E+01  8.259061849E-07  0.00000E+00  9.000E+00
#rwgt            1           9   1.7562184256087087E-002           2     1627458           0
</event>
<event>
      6   9999  3.45752E-01  5.85256E+01 -1.00000E+00  1.31228E-01
      21    -1     0     0   511   502  0.000000000E+00  0.000000000E+00  2.305162067E+02  2.305162067E+02  0.000000000E+00  0.00000E+00  9.000E+00
      21    -1     0     0   502   503  0.000000000E+00  0.000000000E+00 -8.855431849E+02  8.855431849E+02  0.000000000E+00  0.00000E+00  9.000E+00
      25     1     1     2     0     0  1.210559633E+01  4.483340018E+01 -8.663287842E+02  8.765318732E+02  1.250039325E+02  0.00000E+00  9.000E+00
       5     1     1     2   501     0  1.216946389E+00  8.275922649E+00 -1.040210009E+00  9.675556370E+00  4.750000000E+00  0.00000E+00  9.000E+00
      -5     1     1     2     0   503 -4.795382654E+00  4.791761165E+00 -1.263787623E+00  8.373549368E+00  4.750000000E+00  0.00000E+00  9.000E+00
      21     1     1     2   511   501 -8.527160062E+00 -5.790108399E+01  2.136058036E+02  2.214784128E+02  4.672030912E-06  0.00000E+00  9.000E+00
#rwgt            1           9   2.1420114977327263E-004           2     1628866           0
</event>
<event>
      6   9999  3.45752E-01  5.83093E+00 -1.00000E+00  2.15802E-01
      21    -1     0     0   501   512  0.000000000E+00  0.000000000E+00  2.342523141E+01  2.342523141E+01  0.000000000E+00  0.00000E+00  9.000E+00
      21    -1     0     0   502   503  0.000000000E+00  0.000000000E+00 -8.041865339E+02  8.041865339E+02  0.000000000E+00  0.00000E+00  9.000E+00
      25     1     1     2     0     0 -7.660041038E+00  2.928004133E+00 -5.823894953E+02  5.957080252E+02  1.249931106E+02  0.00000E+00  9.000E+00
       5     1     1     2   501     0 -1.482364772E-01 -1.899756627E+00  2.178072962E+00  5.562153461E+00  4.750000000E+00  0.00000E+00  9.000E+00
      -5     1     1     2     0   503  2.395216826E+00 -3.195854131E+00 -2.127390419E+02  2.128295398E+02  4.750000000E+00  0.00000E+00  9.000E+00
      21     1     1     2   502   512  5.413060689E+00  2.167606625E+00  1.218916177E+01  1.351204681E+01  6.307962682E-07  0.00000E+00  9.000E+00
#rwgt            1           9   3.4863415154739639E-003           2     1629635           0
</event>
<event>
      6   9999  3.45752E-01  4.76737E+01 -1.00000E+00  1.35904E-01
      21    -1     0     0   511   502  0.000000000E+00  0.000000000E+00  1.632101695E+02  1.632101695E+02  0.000000000E+00  0.00000E+00  9.000E+00
      21    -1     0     0   502   503  0.000000000E+00  0.000000000E+00 -1.235485649E+03  1.235485649E+03  0.000000000E+00  0.00000E+00  9.000E+00
      25     1     1     2     0     0  5.082492318E+01  1.140567141E+02 -3.945032172E+02  4.322587963E+02  1.249910868E+02  0.00000E+00  9.000E+00
       5     1     1     2   501     0  2.400485222E+00  5.538222741E-01  1.219841572E+02  1.221014584E+02  4.750000000E+00  0.00000E+00  9.000E+00
      -5     1     1     2     0   503 -6.452583549E+00 -1.053861646E+02 -7.882352683E+02  7.952894317E+02  4.750000000E+00  0.00000E+00  9.000E+00
      21     1     1     2   511   501 -4.677282485E+01 -9.224371804E+00 -1.152115176E+01  4.904613254E+01  7.152557373E-07  0.00000E+00  9.000E+00
#rwgt            1           9  0.89015034897632783                2     1633095           0
</event>
<event>
      6   9999  3.45752E-01  1.79110E+01 -1.00000E+00  1.63955E-01
      21    -1     0     0   501   502  0.000000000E+00  0.000000000E+00  1.186417238E+01  1.186417238E+01  0.000000000E+00  0.00000E+00  9.000E+00
      21    -1     0     0   512   503  0.000000000E+00  0.000000000E+00 -1.488074441E+03  1.488074441E+03  0.000000000E+00  0.00000E+00  9.000E+00
      25     1     1     2     0     0  2.353772839E+01  4.535057217E+01 -4.955310430E+02  5.136062098E+02  1.250184990E+02  0.00000E+00  9.000E+00
       5     1     1     2   501     0  1.161307783E+01  1.611642612E+00 -8.117718381E+01  8.215691475E+01  4.750000000E+00  0.00000E+00  9.000E+00
      -5     1     1     2     0   503 -1.769698291E+01 -4.294116801E+01 -2.438645529E+02  2.482933945E+02  4.750000000E+00  0.00000E+00  9.000E+00
      21     1     1     2   512   502 -1.745382332E+01 -4.021046777E+00 -6.556374886E+02  6.558820940E+02  0.000000000E+00  0.00000E+00  9.000E+00
#rwgt            1           9   3.9012129731038334E-002           2     1635643           0
</event>
<event>
      6   9999  3.45752E-01  4.38207E+01 -1.00000E+00  1.37926E-01
      21    -1     0     0   501   511  0.000000000E+00  0.000000000E+00  4.842332869E+02  4.842332869E+02  0.000000000E+00  0.00000E+00  9.000E+00
      21    -1     0     0   502   503  0.000000000E+00  0.000000000E+00 -3.982047109E+02  3.982047109E+02  0.000000000E+00  0.00000E+00  9.000E+00
      25     1     1     2     0     0  2.340675178E+02  3.077722343E+02  4.905013820E+01  4.093143256E+02  1.249837992E+02  0.00000E+00  9.000E+00
       5     1     1     2   501     0  5.377963377E+00  1.158429663E-01  7.472408949E+01  7.506788901E+01  4.750000000E+00  0.00000E+00  9.000E+00
      -5     1     1     2     0   503 -2.071173780E+02 -2.783052367E+02 -5.437757088E+01  3.511849879E+02  4.750000000E+00  0.00000E+00  9.000E+00
      21     1     1     2   502   511 -3.232810314E+01 -2.958284059E+01  1.663191928E+01  4.687079527E+01  5.331201500E-07  0.00000E+00  9.000E+00
#rwgt            1           9   1.3771735027349223E-003           2     1638647           0
</event>
<event>
      6   9999  3.45752E-01  4.32239E+00 -1.00000E+00  2.41082E-01
      21    -1     0     0   512   503  0.000000000E+00  0.000000000E+00  4.617577448E+01  4.617577448E+01  0.000000000E+00  0.00000E+00  9.000E+00
      21    -1     0     0   501   502  0.000000000E+00  0.000000000E+00 -1.441516797E+02  1.441516797E+02  0.000000000E+00  0.00000E+00  9.000E+00
      25     1     1     2     0     0 -5.017390591E+00  6.891461165E+00 -5.015502493E+01  1.349561363E+02  1.249998630E+02  0.00000E+00  9.000E+00
       5     1     1     2   501     0  8.331232491E+00 -7.853115608E+00 -4.350687725E+01  4.523816672E+01  4.750000000E+00  0.00000E+00  9.000E+00
      -5     1     1     2     0   503  9.113406832E-01  5.012840719E-02 -2.510443304E+00  5.449576156E+00  4.750000000E+00  0.00000E+00  9.000E+00
      21     1     1     2   512   502 -4.225182584E+00  9.115260357E-01 -1.803559742E+00  4.683575058E+00  9.185692672E-08  0.00000E+00  9.000E+00
#rwgt            1           9   139.49298143305811                2     1640762           0
</event>
<event>
      6   9999 -3.45752E-01  2.09825E+00 -1.00000E+00  3.25032E-01
      21    -1     0     0   501   511  0.000000000E+00  0.000000000E+00  2.727066932E+01  2.727066932E+01  0.000000000E+00  0.00000E+00  9.000E+00
      21    -1     0     0   502   503  0.000000000E+00  0.000000000E+00 -8.400452856E+02  8.400452856E+02  0.000000000E+00  0.00000E+00  9.000E+00
      25     1     1     2     0     0 -4.422931950E+00  4.351457277E+00 -7.434950827E+02  7.539563160E+02  1.250067637E+02  0.00000E+00  9.000E+00
       5     1     1     2   501     0 -2.013471999E+00 -1.322598269E+00  5.755344197E+00  7.841544650E+00  4.750000000E+00  0.00000E+00  9.000E+00
      -5     1     1     2     0   503  4.435318525E+00 -2.397753891E+00 -9.007064891E+01  9.033662364E+01  4.750000000E+00  0.00000E+00  9.000E+00
      21     1     1     2   502   511  2.001085423E+00 -6.311051165E-01  1.503577113E+01  1.518147061E+01  4.129530925E-07  0.00000E+00  9.000E+00
#rwgt            1           9  -2.2920276320273392E-003           2     1644820           0
</event>
<event>
      6   9999  3.45752E-01  2.89434E+01 -1.00000E+00  1.48852E-01
      21    -1     0     0   501   502  0.000000000E+00  0.000000000E+00  8.710192998E+01  8.710192998E+01  0.000000000E+00  0.00000E+00  9.000E+00
      21    -1     0     0   512   503  0.000000000E+00  0.000000000E+00 -8.481565072E+02  8.481565072E+02  0.000000000E+00  0.00000E+00  9.000E+00
      25     1     1     2     0     0 -5.351847189E+01  9.690671099E+01 -3.933985384E+02  4.273679748E+02  1.250033533E+02  0.00000E+00  9.000E+00
       5     1     1     2   501     0  1.366249914E+00  7.821015110E+00  6.123477977E+01  6.192976401E+01  4.750000000E+00  0.00000E+00  9.000E+00
      -5     1     1     2     0   503  3.049299100E+01 -8.552876667E+01 -2.837614174E+02  2.979733158E+02  4.750000000E+00  0.00000E+00  9.000E+00
      21     1     1     2   512   502  2.165923098E+01 -1.919895942E+01 -1.451294012E+02  1.479873826E+02  2.697398305E-06  0.00000E+00  9.000E+00
#rwgt            1           9   5.8823633179260280E-002           2     1653188           0
</event>
<event>
      6   9999 -3.45752E-01  8.80520E+01 -1.00000E+00  1.22831E-01
      21    -1     0     0   511   503  0.000000000E+00  0.000000000E+00  9.177873713E+01  9.177873713E+01  0.000000000E+00  0.00000E+00  9.000E+00
      21    -1     0     0   501   502  0.000000000E+00  0.000000000E+00 -1.130938984E+03  1.130938984E+03  0.000000000E+00  0.00000E+00  9.000E+00
      25     1     1     2     0     0 -8.615283415E+01  1.944782897E+01 -5.201242871E+02  5.421759847E+02  1.249999816E+02  0.00000E+00  9.000E+00
       5     1     1     2   501     0  3.489264258E+01 -3.108844821E+01 -3.928976342E+02  3.956957184E+02  4.750000000E+00  0.00000E+00  9.000E+00
      -5     1     1     2     0   503  4.981684150E+01 -7.639950800E+01 -1.650075387E+02  1.885965345E+02  4.750000000E+00  0.00000E+00  9.000E+00
      21     1     1     2   511   502  1.443350076E+00  8.804012723E+01  3.886921344E+01  9.624948320E+01  2.654916936E-06  0.00000E+00  9.000E+00
#rwgt            1           9 -0.33202567756777729                2     1655168           0
</event>
<event>
      6   9999  3.45752E-01  3.36548E+01 -1.00000E+00  1.44679E-01
      21    -1     0     0   512   502  0.000000000E+00  0.000000000E+00  4.548471332E+03  4.548471332E+03  0.000000000E+00  0.00000E+00  9.000E+00
      21    -1     0     0   502   503  0.000000000E+00  0.000000000E+00 -2.282227330E+01  2.282227330E+01  0.000000000E+00  0.00000E+00  9.000E+00
      25     1     1     2     0     0 -8.770345153E+00 -1.299619421E+01  1.969943787E+02  2.338361281E+02  1.250069180E+02  0.00000E+00  9.000E+00
       5     1     1     2   501     0  1.803534171E+01  1.665326265E+01  3.709700201E+03  3.709784461E+03  4.750000000E+00  0.00000E+00  9.000E+00
      -5     1     1     2     0   503  1.817257593E+00  2.812072379E+01  4.898862861E+01  5.671442290E+01  4.750000000E+00  0.00000E+00  9.000E+00
      21     1     1     2   512   501 -1.108225415E+01 -3.177779223E+01  5.699658498E+02  5.709585926E+02  1.078959322E-05  0.00000E+00  9.000E+00
#rwgt            1           9   2.6195308613605451E-003           2     1655674           0
</event>
<event>
      6   9999  3.45752E-01  3.83185E+00 -1.00000E+00  2.51775E-01
      21    -1     0     0   501   502  0.000000000E+00  0.000000000E+00  5.473961106E+03  5.473961106E+03  0.000000000E+00  0.00000E+00  9.000E+00
      21    -1     0     0   511   503  0.000000000E+00  0.000000000E+00 -1.404191127E+03  1.404191127E+03  0.000000000E+00  0.00000E+00  9.000E+00
      25     1     1     2     0     0 -1.096640009E+01  1.781490191E+01  1.026761846E+03  1.034557112E+03  1.250235859E+02  0.00000E+00  9.000E+00
       5     1     1     2   501     0  4.520788507E+00 -6.123169253E+00  4.363828944E+03  4.363838167E+03  4.750000000E+00  0.00000E+00  9.000E+00
      -5     1     1     2     0   503  1.021997239E+01 -1.235302709E+01  7.858579679E+01  8.034509986E+01  4.750000000E+00  0.00000E+00  9.000E+00
      21     1     1     2   511   502 -3.774360807E+00  6.612944309E-01 -1.399406608E+03  1.399411854E+03  2.642899792E-05  0.00000E+00  9.000E+00
#rwgt            1           9   9.3580141378879435E-004           2     1657488           0
</event>
<event>
      6   9999  3.45752E-01  1.06500E+01 -1.00000E+00  1.84358E-01
      21    -1     0     0   501   502  0.000000000E+00  0.000000000E+00  3.245136820E+01  3.245136820E+01  0.000000000E+00  0.00000E+00  9.000E+00
      21    -1     0     0   502   512  0.000000000E+00  0.000000000E+00 -3.250038325E+02  3.250038325E+02  0.000000000E+00  0.00000E+00  9.000E+00
      25     1     1     2     0     0 -7.409117227E+00 -4.050185639E+00 -2.694158281E+02  2.971323779E+02  1.250258475E+02  0.00000E+00  9.000E+00
       5     1     1     2   501     0 -7.864254735E-01  2.595583039E-01  1.582297888E+01  1.654131180E+01  4.750000000E+00  0.00000E+00  9.000E+00
      -5     1     1     2     0   503  9.287504065E-01 -3.994970969E+00 -4.523301086E+00  7.735962970E+00  4.750000000E+00  0.00000E+00  9.000E+00
      21     1     1     2   503   512  7.266792294E+00  7.785598304E+00 -3.443631406E+01  3.604554810E+01  6.743495762E-07  0.00000E+00  9.000E+00
#rwgt            1           9   3.8011336877596838E-003           2     1662887           0
</event>
<event>
      6   9999  3.45752E-01  2.69785E+01 -1.00000E+00  1.50883E-01
      21    -1     0     0   501   502  0.000000000E+00  0.000000000E+00  1.117601043E+01  1.117601043E+01  0.000000000E+00  0.00000E+00  9.000E+00
      21    -1     0     0   511   503  0.000000000E+00  0.000000000E+00 -1.264621813E+03  1.264621813E+03  0.000000000E+00  0.00000E+00  9.000E+00
      25     1     1     2     0     0 -7.710757185E+00  1.644907758E+01 -6.950354682E+02  7.064201746E+02  1.250005323E+02  0.00000E+00  9.000E+00
       5     1     1     2   501     0 -2.543642530E+00  7.382273065E+00  7.324566752E-01  9.168809394E+00  4.750000000E+00  0.00000E+00  9.000E+00
      -5     1     1     2     0   503  5.539932912E-01  1.342863201E+00 -3.268856829E+01  3.306380478E+01  4.750000000E+00  0.00000E+00  9.000E+00
      21     1     1     2   511   502  9.700406423E+00 -2.517421385E+01 -5.264542224E+02  5.271450343E+02  7.629394531E-06  0.00000E+00  9.000E+00
#rwgt            1           9   4.7873832502640171E-002           2     1665467           0
</event>
<event>
      6   9999 -3.45752E-01  9.46699E+00 -1.00000E+00  1.89735E-01
      -3    -1     0     0     0   502  0.000000000E+00  0.000000000E+00  8.217071586E+01  8.217071586E+01  0.000000000E+00  0.00000E+00  9.000E+00
      21    -1     0     0   502   503  0.000000000E+00  0.000000000E+00 -4.929377277E+02  4.929377277E+02  0.000000000E+00  0.00000E+00  9.000E+00
      25     1     1     2     0     0 -4.562761634E-01 -1.772612941E+01 -4.466666456E+02  4.641662059E+02  1.249990022E+02  0.00000E+00  9.000E+00
       5     1     1     2   501     0  3.514021379E+00 -1.659336861E+00  8.007467764E+00  1.008879503E+01  4.750000000E+00  0.00000E+00  9.000E+00
      -5     1     1     2     0   503  1.668815003E+00  1.118281270E+01 -3.508605638E+01  3.716764851E+01  4.750000000E+00  0.00000E+00  9.000E+00
      -3     1     1     2     0   501 -4.726560219E+00  8.202653567E+00  6.297822232E+01  6.368579421E+01  6.743495762E-07  0.00000E+00  9.000E+00
#rwgt            1           9  -7.7174682120435085E-004           2     1666388           0
</event>
<event>
      6   9999 -3.45752E-01  1.23824E+01 -1.00000E+00  1.77920E-01
      21    -1     0     0   501   511  0.000000000E+00  0.000000000E+00  1.043382316E+01  1.043382316E+01  0.000000000E+00  0.00000E+00  9.000E+00
      21    -1     0     0   502   503  0.000000000E+00  0.000000000E+00 -1.958313044E+03  1.958313044E+03  0.000000000E+00  0.00000E+00  9.000E+00
      25     1     1     2     0     0  9.000267581E+00 -1.173770359E+01 -1.879186819E+03  1.883399198E+03  1.250226359E+02  0.00000E+00  9.000E+00
       5     1     1     2   501     0  1.233440819E+00 -2.449297420E+00  2.115690423E+00  5.878697141E+00  4.750000000E+00  0.00000E+00  9.000E+00
      -5     1     1     2     0   503  2.143666583E+00  1.453942059E+01 -1.252590443E+01  1.988594577E+01  4.750000000E+00  0.00000E+00  9.000E+00
      21     1     1     2   502   511 -1.237737498E+01 -3.524195785E-01 -5.828218827E+01  5.958302678E+01  6.743495762E-07  0.00000E+00  9.000E+00
#rwgt            1           9  -1.2012594192249452E-002           2     1669077           0
</event>
<event>
      6   9999  3.45752E-01  5.32076E+01 -1.00000E+00  1.33358E-01
      -2    -1     0     0     0   512  0.000000000E+00  0.000000000E+00  4.722410756E+01  4.722410756E+01  0.000000000E+00  0.00000E+00  9.000E+00
       2    -1     0     0   501     0  0.000000000E+00  0.000000000E+00 -1.900493086E+03  1.900493086E+03  0.000000000E+00  0.00000E+00  9.000E+00
      25     1     1     2     0     0 -1.801710421E+02 -8.440307402E+01 -1.363425689E+03  1.383524571E+03  1.250005734E+02  0.00000E+00  9.000E+00
       5     1     1     2   501     0  9.047022292E+01 -1.552544950E+01 -5.232227497E+01  1.057642840E+02  4.750000000E+00  0.00000E+00  9.000E+00
      -5     1     1     2     0   502  5.535954867E+01  5.928707561E+01 -3.046579812E+02  3.153072865E+02  4.750000000E+00  0.00000E+00  9.000E+00
      21     1     1     2   502   512  3.434127054E+01  4.064144791E+01 -1.328630330E+02  1.431210526E+02  2.697398305E-06  0.00000E+00  9.000E+00
#rwgt            1           3   5.9051530479585293E-003           2     1671430           0
</event>
<event>
      6   9999  3.45752E-01  1.49876E+01 -1.00000E+00  1.70402E-01
      21    -1     0     0   501   511  0.000000000E+00  0.000000000E+00  1.876654294E+01  1.876654294E+01  0.000000000E+00  0.00000E+00  9.000E+00
      21    -1     0     0   502   503  0.000000000E+00  0.000000000E+00 -2.189465099E+03  2.189465099E+03  0.000000000E+00  0.00000E+00  9.000E+00
      25     1     1     2     0     0 -1.082957293E+01 -1.370577219E+01 -2.088379273E+03  2.092189875E+03  1.250014263E+02  0.00000E+00  9.000E+00
       5     1     1     2   501     0  9.025131473E-02  2.197270159E+00  1.475163131E+01  1.565277188E+01  4.750000000E+00  0.00000E+00  9.000E+00
      -5     1     1     2     0   503  7.154693366E+00 -3.044154823E+00 -5.451018803E+01  5.526644203E+01  4.750000000E+00  0.00000E+00  9.000E+00
      21     1     1     2   502   511  3.584628254E+00  1.455265686E+01 -4.256072640E+01  4.512255326E+01  4.768371582E-07  0.00000E+00  9.000E+00
#rwgt            1           9   7.4024635995451581E-004           2     1674122           0
</event>
<event>
      6   9999 -3.45752E-01  8.05795E+00 -1.00000E+00  1.97645E-01
      21    -1     0     0   512   502  0.000000000E+00  0.000000000E+00  6.541819896E+01  6.541819896E+01  0.000000000E+00  0.00000E+00  9.000E+00
      21    -1     0     0   502   503  0.000000000E+00  0.000000000E+00 -7.478259877E+02  7.478259877E+02  0.000000000E+00  0.00000E+00  9.000E+00
      25     1     1     2     0     0 -1.994758435E+01  9.675789706E-01 -7.076458005E+02  7.188780734E+02  1.249970525E+02  0.00000E+00  9.000E+00
       5     1     1     2   501     0  8.627715774E-01 -9.418620225E-01  2.260086991E+00  5.413129601E+00  4.750000000E+00  0.00000E+00  9.000E+00
      -5     1     1     2     0   503  1.472975990E+01 -6.805402169E+00 -3.049939855E+01  3.487198213E+01  4.750000000E+00  0.00000E+00  9.000E+00
      21     1     1     2   512   501  4.355052874E+00  6.779685221E+00  5.347732332E+01  5.408100153E+01  2.236564522E-06  0.00000E+00  9.000E+00
#rwgt            1           9  -1.0648853333939500E-003           2     1676670           0
</event>
<event>
      6   9999 -3.45752E-01  1.44944E+01 -1.00000E+00  1.71672E-01
       2    -1     0     0   501     0  0.000000000E+00  0.000000000E+00  2.168827282E+02  2.168827282E+02  0.000000000E+00  0.00000E+00  9.000E+00
      21    -1     0     0   502   503  0.000000000E+00  0.000000000E+00 -9.128054320E+01  9.128054320E+01  0.000000000E+00  0.00000E+00  9.000E+00
      25     1     1     2     0     0 -1.560464133E+01 -2.424262422E+00 -3.967881666E+01  1.321019518E+02  1.250085409E+02  0.00000E+00  9.000E+00
       5     1     1     2   501     0 -5.720936486E-01 -6.411139544E-02  9.942981606E-01  4.886975572E+00  4.750000000E+00  0.00000E+00  9.000E+00
      -5     1     1     2     0   503  2.120672731E+00 -1.049378133E+00 -8.745760999E-01  5.378273947E+00  4.750000000E+00  0.00000E+00  9.000E+00
       2     1     1     2   502     0  1.405606225E+01  3.537751950E+00  1.651612796E+02  1.657960701E+02  1.907348633E-06  0.00000E+00  9.000E+00
#rwgt            1           9  -5.1902872247118806E-004           2     1680068           0
</event>
<event>
      6   9999  3.45752E-01  1.28682E+01 -1.00000E+00  1.76350E-01
      21    -1     0     0   511   502  0.000000000E+00  0.000000000E+00  1.307786846E+01  1.307786846E+01  0.000000000E+00  0.00000E+00  9.000E+00
      21    -1     0     0   502   503  0.000000000E+00  0.000000000E+00 -8.855944423E+02  8.855944423E+02  0.000000000E+00  0.00000E+00  9.000E+00
      25     1     1     2     0     0  2.372379899E+01  3.434128475E+01 -5.789801169E+02  5.937917370E+02  1.250140338E+02  0.00000E+00  9.000E+00
       5     1     1     2   501     0 -5.281764646E-01  1.877708277E+00 -1.269418562E-01  5.136474763E+00  4.750000000E+00  0.00000E+00  9.000E+00
      -5     1     1     2     0   503 -1.887618338E+01 -2.409740618E+01 -2.777662225E+02  2.794881610E+02  4.750000000E+00  0.00000E+00  9.000E+00
      21     1     1     2   511   501 -4.319439145E+00 -1.212158685E+01 -1.564329258E+01  2.025593802E+01  2.384185791E-07  0.00000E+00  9.000E+00
#rwgt            1           9   8.7316058670943385E-004           2     1681820           0
</event>
<event>
      6   9999  3.45752E-01  3.69424E+01 -1.00000E+00  1.42218E-01
      21    -1     0     0   501   502  0.000000000E+00  0.000000000E+00  9.789637650E+00  9.789637650E+00  0.000000000E+00  0.00000E+00  9.000E+00
      21    -1     0     0   512   503  0.000000000E+00  0.000000000E+00 -1.168376278E+03  1.168376278E+03  0.000000000E+00  0.00000E+00  9.000E+00
      25     1     1     2     0     0 -3.330483155E+01  5.660556527E+00 -4.917914989E+02  5.085498227E+02  1.249911598E+02  0.00000E+00  9.000E+00
       5     1     1     2   501     0  9.754131493E-02  4.834727420E+00 -3.033307694E+02  3.034064967E+02  4.750000000E+00  0.00000E+00  9.000E+00
      -5     1     1     2     0   503 -3.222922822E+00 -4.364732758E+00 -8.501810195E+01  8.532337477E+01  4.750000000E+00  0.00000E+00  9.000E+00
      21     1     1     2   512   502  3.643021306E+01 -6.130551188E+00 -2.784462702E+02  2.808862216E+02  3.814697266E-06  0.00000E+00  9.000E+00
#rwgt            1           9   1.4226548211444789E-002           2     1683853           0
</event>
<event>
      6   9999  3.45752E-01  2.38140E+01 -1.00000E+00  1.54632E-01
      21    -1     0     0   502   503  0.000000000E+00  0.000000000E+00  1.224116189E+03  1.224116189E+03  0.000000000E+00  0.00000E+00  9.000E+00
      21    -1     0     0   501   511  0.000000000E+00  0.000000000E+00 -1.240146481E+01  1.240146481E+01  0.000000000E+00  0.00000E+00  9.000E+00
      25     1     1     2     0     0  3.667074840E+00  2.909196820E+01  4.825888505E+02  4.993747195E+02  1.249932867E+02  0.00000E+00  9.000E+00
       5     1     1     2   501     0 -5.087957207E-01  1.719227325E-01  5.400061970E+01  5.421178708E+01  4.750000000E+00  0.00000E+00  9.000E+00
      -5     1     1     2     0   503 -2.668288054E+01 -2.556282495E+01  6.362634122E+02  6.373532195E+02  4.750000000E+00  0.00000E+00  9.000E+00
      21     1     1     2   502   511  2.352460142E+01 -3.701065983E+00  3.886184181E+01  4.557792788E+01  6.743495762E-07  0.00000E+00  9.000E+00
#rwgt            1           9   1.3403762079372555E-004           2     1685193           0
</event>
<event>
      6   9999  3.45752E-01  7.01241E+01 -1.00000E+00  1.27371E-01
      -2    -1     0     0     0   502  0.000000000E+00  0.000000000E+00  1.088581154E+02  1.088581154E+02  0.000000000E+00  0.00000E+00  9.000E+00
       2    -1     0     0   512     0  0.000000000E+00  0.000000000E+00 -1.949212902E+03  1.949212902E+03  0.000000000E+00  0.00000E+00  9.000E+00
      25     1     1     2     0     0 -2.356784450E+02 -1.660121783E+02 -1.919382908E+02  3.681980657E+02  1.250005413E+02  0.00000E+00  9.000E+00
       5     1     1     2   501     0 -9.918733734E+00  1.163027205E+02 -5.565390847E+02  5.686677583E+02  4.750000000E+00  0.00000E+00  9.000E+00
      -5     1     1     2     0   502  1.764388403E+02  3.811165710E+01 -8.687706331E+02  8.873376687E+02  4.750000000E+00  0.00000E+00  9.000E+00
      21     1     1     2   512   501  6.915833838E+01  1.159780074E+01 -2.231067778E+02  2.338675245E+02  2.697398305E-06  0.00000E+00  9.000E+00
#rwgt            1           3   3.3424070624195145E-004           2     1686555           0
</event>
<event>
      6   9999  3.45752E-01  4.68570E+00 -1.00000E+00  2.34436E-01
      21    -1     0     0   501   511  0.000000000E+00  0.000000000E+00  2.628629749E+02  2.628629749E+02  0.000000000E+00  0.00000E+00  9.000E+00
      21    -1     0     0   502   503  0.000000000E+00  0.000000000E+00 -7.616666557E+02  7.616666557E+02  0.000000000E+00  0.00000E+00  9.000E+00
      25     1     1     2     0     0  1.471184518E-01 -1.138223561E+01 -6.455167135E+02  6.576070128E+02  1.250023157E+02  0.00000E+00  9.000E+00
       5     1     1     2   501     0  1.005638593E+00 -1.676780753E+00  2.817779962E-01  5.144395155E+00  4.750000000E+00  0.00000E+00  9.000E+00
      -5     1     1     2     0   503  4.359925739E-01  8.650876051E+00 -1.074252296E+02  1.078784974E+02  4.750000000E+00  0.00000E+00  9.000E+00
      21     1     1     2   502   511 -1.588749618E+00  4.408140312E+00  2.538564843E+02  2.538997252E+02  2.697398305E-06  0.00000E+00  9.000E+00
#rwgt            1           9   3.8866696501512464E-004           2     1688783           0
</event>
<event>
      6   9999  3.45752E-01  1.50731E+01 -1.00000E+00  1.70189E-01
      21    -1     0     0   501   502  0.000000000E+00  0.000000000E+00  6.350590083E+00  6.350590083E+00  0.000000000E+00  0.00000E+00  9.000E+00
      21    -1     0     0   502   512  0.000000000E+00  0.000000000E+00 -1.687472002E+03  1.687472002E+03  0.000000000E+00  0.00000E+00  9.000E+00
      25     1     1     2     0     0 -3.447027116E+01  3.541319436E+01 -1.140081276E+03  1.147977409E+03  1.249980866E+02  0.00000E+00  9.000E+00
       5     1     1     2   501     0 -8.373434424E-01  5.831789513E-01 -6.044287152E+00  7.754814563E+00  4.750000000E+00  0.00000E+00  9.000E+00
      -5     1     1     2     0   503  2.024672134E+01 -3.660311521E+01 -3.621983933E+02  3.646367458E+02  4.750000000E+00  0.00000E+00  9.000E+00
      21     1     1     2   503   512  1.506089326E+01  6.067419017E-01 -1.727974554E+02  1.734536227E+02  0.000000000E+00  0.00000E+00  9.000E+00
#rwgt            1           9   3.2547904451092852E-004           2     1692882           0
</event>
<event>
      6   9999  3.45752E-01  5.98629E+00 -1.00000E+00  2.14196E-01
      21    -1     0     0   501   511  0.000000000E+00  0.000000000E+00  1.223631966E+02  1.223631966E+02  0.000000000E+00  0.00000E+00  9.000E+00
      21    -1     0     0   502   503  0.000000000E+00  0.000000000E+00 -1.575152797E+02  1.575152797E+02  0.000000000E+00  0.00000E+00  9.000E+00
      25     1     1     2     0     0  6.289114763E+00 -2.743165396E+01 -6.364220158E+01  1.430696428E+02  1.250061769E+02  0.00000E+00  9.000E+00
       5     1     1     2   501     0  2.701018775E+00  5.020389156E+00 -1.324901458E+01  1.518547651E+01  4.750000000E+00  0.00000E+00  9.000E+00
      -5     1     1     2     0   503 -8.492970013E+00  1.644565037E+01 -3.753727780E+01  4.212124975E+01  4.750000000E+00  0.00000E+00  9.000E+00
      21     1     1     2   502   511 -4.971635241E-01  5.965614432E+00  7.927641087E+01  7.950210719E+01  9.536743164E-07  0.00000E+00  9.000E+00
#rwgt            1           9   3.2443317129631795E-004           2     1695130           0
</event>
<event>
      6   9999  3.45752E-01  1.42530E+01 -1.00000E+00  1.72317E-01
      21    -1     0     0   501   502  0.000000000E+00  0.000000000E+00  1.148336962E+01  1.148336962E+01  0.000000000E+00  0.00000E+00  9.000E+00
      21    -1     0     0   512   503  0.000000000E+00  0.000000000E+00 -2.214060598E+03  2.214060598E+03  0.000000000E+00  0.00000E+00  9.000E+00
      25     1     1     2     0     0  4.588043121E+01 -1.765537488E+01 -1.813115592E+03  1.818084228E+03  1.250015339E+02  0.00000E+00  9.000E+00
       5     1     1     2   501     0 -1.842003318E-01  1.290644049E+00  6.654489142E+00  8.279155607E+00  4.750000000E+00  0.00000E+00  9.000E+00
      -5     1     1     2     0   503 -3.162008803E+01  1.412620957E+01 -2.953463537E+02  2.974078192E+02  4.750000000E+00  0.00000E+00  9.000E+00
      21     1     1     2   512   502 -1.407614285E+01  2.238521263E+00 -1.007697717E+02  1.017727648E+02  1.348699152E-06  0.00000E+00  9.000E+00
#rwgt            1           9   1.5229539530362375E-003           2     1698606           0
</event>
<event>
      6   9999  3.45752E-01  2.02050E+02 -1.00000E+00  1.08741E-01
      21    -1     0     0   511   502  0.000000000E+00  0.000000000E+00  4.722256713E+01  4.722256713E+01  0.000000000E+00  0.00000E+00  9.000E+00
       2    -1     0     0   501     0  0.000000000E+00  0.000000000E+00 -2.321460727E+03  2.321460727E+03  0.000000000E+00  0.00000E+00  9.000E+00
      25     1     1     2     0     0  5.860671355E+01 -2.240141811E+02 -7.864439525E+02  8.292980556E+02  1.249962974E+02  0.00000E+00  9.000E+00
       5     1     1     2   501     0 -6.267880363E+00 -2.018076138E+01 -1.043336468E+01  2.404094534E+01  4.750000000E+00  0.00000E+00  9.000E+00
      -5     1     1     2     0   502 -1.117214838E+02  5.106871018E+01 -3.754757861E+02  3.950877517E+02  4.750000000E+00  0.00000E+00  9.000E+00
       2     1     1     2   511     0  5.938265064E+01  1.931262323E+02 -1.101885056E+03  1.120256541E+03  2.157918644E-05  0.00000E+00  9.000E+00
#rwgt            1           3   2.1320481403837098E-005           2     1701004           0
</event>
<event>
      6   9999 -3.45752E-01  3.19667E+01 -1.00000E+00  1.46076E-01
      21    -1     0     0   512   502  0.000000000E+00  0.000000000E+00  7.134129796E+01  7.134129796E+01  0.000000000E+00  0.00000E+00  9.000E+00
      21    -1     0     0   502   503  0.000000000E+00  0.000000000E+00 -1.512475066E+03  1.512475066E+03  0.000000000E+00  0.00000E+00  9.000E+00
      25     1     1     2     0     0 -7.434277801E+01  3.586074948E+01 -1.149108767E+03  1.158831525E+03  1.250068169E+02  0.00000E+00  9.000E+00
       5     1     1     2   501     0 -2.608710302E-01  5.834491978E+00  5.917929511E+01  5.965618845E+01  4.750000000E+00  0.00000E+00  9.000E+00
      -5     1     1     2     0   503  4.310017903E+01 -3.627269776E+01 -2.975554583E+02  3.028781063E+02  4.750000000E+00  0.00000E+00  9.000E+00
      21     1     1     2   512   501  3.150347001E+01 -5.422543698E+00 -5.364883840E+01  6.245054415E+01  6.743495762E-07  0.00000E+00  9.000E+00
#rwgt            1           9  -9.6472117331858186E-003           2     1701797           0
</event>
<event>
      6   9999  3.45752E-01  9.09839E+00 -1.00000E+00  1.91622E-01
      21    -1     0     0   501   502  0.000000000E+00  0.000000000E+00  1.194620013E+03  1.194620013E+03  0.000000000E+00  0.00000E+00  9.000E+00
      21    -1     0     0   502   511  0.000000000E+00  0.000000000E+00 -1.652488431E+01  1.652488431E+01  0.000000000E+00  0.00000E+00  9.000E+00
      25     1     1     2     0     0 -1.240614255E+00 -3.370901825E+00  3.740239739E+02  3.943750294E+02  1.249993147E+02  0.00000E+00  9.000E+00
       5     1     1     2   501     0 -3.067071970E+00  6.090450172E+00  7.781089143E+02  7.781532918E+02  4.750000000E+00  0.00000E+00  9.000E+00
      -5     1     1     2     0   503  1.092220530E-01  5.352224170E+00  2.832600724E+01  2.921614997E+01  4.750000000E+00  0.00000E+00  9.000E+00
      21     1     1     2   503   511  4.198464172E+00 -8.071772517E+00 -2.363766980E+00  9.400425911E+00  3.804905812E-07  0.00000E+00  9.000E+00
#rwgt            1           9  0.20543662766056789                2     1703847           0
</event>
<event>
      6   9999  3.45752E-01  4.01577E+00 -1.00000E+00  2.47497E-01
      21    -1     0     0   502   503  0.000000000E+00  0.000000000E+00  2.490495850E+01  2.490495850E+01  0.000000000E+00  0.00000E+00  9.000E+00
      21    -1     0     0   512   502  0.000000000E+00  0.000000000E+00 -1.059534113E+03  1.059534113E+03  0.000000000E+00  0.00000E+00  9.000E+00
      25     1     1     2     0     0  3.160224502E+01  1.129358927E+01 -2.893786608E+02  3.170034417E+02  1.249997026E+02  0.00000E+00  9.000E+00
       5     1     1     2   501     0  2.844088275E-01 -1.166175266E+00 -6.735069706E+02  6.735247900E+02  4.750000000E+00  0.00000E+00  9.000E+00
      -5     1     1     2     0   503 -3.145692891E+01 -1.412012471E+01 -1.649586822E+01  3.851743069E+01  4.750000000E+00  0.00000E+00  9.000E+00
      21     1     1     2   512   501 -4.297249329E-01  3.992710701E+00 -5.524765476E+01  5.539340898E+01  9.536743164E-07  0.00000E+00  9.000E+00
#rwgt            1           9   8509.2119949966836                2     1706781           0
</event>
<event>
      6   9999  3.45752E-01  5.00100E+00 -1.00000E+00  2.25703E-01
      21    -1     0     0   511   502  0.000000000E+00  0.000000000E+00  8.881108469E+01  8.881108469E+01  0.000000000E+00  0.00000E+00  9.000E+00
      21    -1     0     0   502   503  0.000000000E+00  0.000000000E+00 -2.063882221E+02  2.063882221E+02  0.000000000E+00  0.00000E+00  9.000E+00
      25     1     1     2     0     0 -3.650460655E+00  1.322706619E+01 -1.664750842E+02  2.086282978E+02  1.249941271E+02  0.00000E+00  9.000E+00
       5     1     1     2   501     0  7.288608969E-01 -7.380824967E-02  9.820787735E+00  1.093375771E+01  4.750000000E+00  0.00000E+00  9.000E+00
      -5     1     1     2     0   503  7.905758682E+00 -1.356337358E+01 -1.446064144E+01  2.186638456E+01  4.750000000E+00  0.00000E+00  9.000E+00
      21     1     1     2   511   501 -4.984158924E+00  4.101156369E-01  5.353780049E+01  5.377086680E+01  1.168007728E-06  0.00000E+00  9.000E+00
#rwgt            1           9   3.1647285159219481E-004           2     1712680           0
</event>
<event>
      6   9999  3.45752E-01  7.07283E+00 -1.00000E+00  2.04567E-01
      21    -1     0     0   501   512  0.000000000E+00  0.000000000E+00  5.504680269E+02  5.504680269E+02  0.000000000E+00  0.00000E+00  9.000E+00
      21    -1     0     0   502   503  0.000000000E+00  0.000000000E+00 -7.926410915E+02  7.926410915E+02  0.000000000E+00  0.00000E+00  9.000E+00
      25     1     1     2     0     0  1.105725940E+01  1.489191128E+01 -6.812225793E+02  6.928441032E+02  1.249988671E+02  0.00000E+00  9.000E+00
       5     1     1     2   501     0  1.769013386E+00  8.434724473E-01  2.220055878E+00  5.597499641E+00  4.750000000E+00  0.00000E+00  9.000E+00
      -5     1     1     2     0   503 -9.010384003E+00 -9.780222702E+00 -1.034160675E+02  1.043756930E+02  4.750000000E+00  0.00000E+00  9.000E+00
      21     1     1     2   502   512 -3.815888783E+00 -5.955161026E+00  5.402455263E+02  5.402918227E+02  0.000000000E+00  0.00000E+00  9.000E+00
#rwgt            1           9   8.4928273383356261E-005           2     1716486           0
</event>
<event>
      6   9999  3.45752E-01  5.13511E+00 -1.00000E+00  2.23929E-01
      21    -1     0     0   501   502  0.000000000E+00  0.000000000E+00  2.301297101E+01  2.301297101E+01  0.000000000E+00  0.00000E+00  9.000E+00
      21    -1     0     0   511   503  0.000000000E+00  0.000000000E+00 -2.125026008E+03  2.125026008E+03  0.000000000E+00  0.00000E+00  9.000E+00
      25     1     1     2     0     0 -8.204020044E+01 -3.810084532E+01 -7.554469599E+02  7.710428954E+02  1.249990733E+02  0.00000E+00  9.000E+00
       5     1     1     2   501     0 -4.170478879E+00  1.683932670E+00  1.178478779E+01  1.347858473E+01  4.750000000E+00  0.00000E+00  9.000E+00
      -5     1     1     2     0   503  8.720824032E+01  3.137962486E+01 -8.349880687E+02  8.401295111E+02  4.750000000E+00  0.00000E+00  9.000E+00
      21     1     1     2   511   502 -9.975610008E-01  5.037287794E+00 -5.233627961E+02  5.233879878E+02  1.078959322E-05  0.00000E+00  9.000E+00
#rwgt            1           9   6.3122183807850868E-002           2     1719903           0
</event>
<event>
      6   9999  3.45752E-01  1.17437E+01 -1.00000E+00  1.80129E-01
      21    -1     0     0   502   503  0.000000000E+00  0.000000000E+00  9.171488117E+00  9.171488117E+00  0.000000000E+00  0.00000E+00  9.000E+00
      21    -1     0     0   512   502  0.000000000E+00  0.000000000E+00 -8.275444536E+02  8.275444536E+02  0.000000000E+00  0.00000E+00  9.000E+00
      25     1     1     2     0     0 -1.868102533E+01 -2.852611916E+01 -6.481379248E+02  6.609622382E+02  1.250023622E+02  0.00000E+00  9.000E+00
       5     1     1     2   501     0  1.416270851E+01  1.482077885E+01 -8.013391408E+01  8.285073617E+01  4.750000000E+00  0.00000E+00  9.000E+00
      -5     1     1     2     0   503  6.105762102E+00  2.069413487E+00 -1.616237855E+01  1.803739957E+01  4.750000000E+00  0.00000E+00  9.000E+00
      21     1     1     2   512   501 -1.587445282E+00  1.163592683E+01 -7.393874805E+01  7.486556778E+01  9.536743164E-07  0.00000E+00  9.000E+00
#rwgt            1           9  0.22819395657152478                2     1725245           0
</event>
<event>
      6   9999  3.45752E-01  1.77737E+01 -1.00000E+00  1.64224E-01
      21    -1     0     0   501   511  0.000000000E+00  0.000000000E+00  1.678717659E+02  1.678717659E+02  0.000000000E+00  0.00000E+00  9.000E+00
      21    -1     0     0   502   503  0.000000000E+00  0.000000000E+00 -4.094163060E+02  4.094163060E+02  0.000000000E+00  0.00000E+00  9.000E+00
      25     1     1     2     0     0 -2.712668670E+01 -1.792932902E+02 -2.235001257E+02  3.138082639E+02  1.250654998E+02  0.00000E+00  9.000E+00
       5     1     1     2   501     0  2.410023865E+00 -1.050441070E+00  3.913675467E+01  3.951151361E+01  4.750000000E+00  0.00000E+00  9.000E+00
      -5     1     1     2     0   503  3.375744076E+01  1.956462724E+02 -4.994583371E+01  2.047783619E+02  4.750000000E+00  0.00000E+00  9.000E+00
      21     1     1     2   502   511 -9.040777927E+00 -1.530254117E+01 -7.235335273E+00  1.918993247E+01  3.153981341E-07  0.00000E+00  9.000E+00
#rwgt            1           9   1.4230873064735515E-002           2     1727256           0
</event>
<event>
      6   9999  3.45752E-01  3.77863E+00 -1.00000E+00  2.53081E-01
      21    -1     0     0   501   512  0.000000000E+00  0.000000000E+00  3.856116607E+02  3.856116607E+02  0.000000000E+00  0.00000E+00  9.000E+00
      21    -1     0     0   502   503  0.000000000E+00  0.000000000E+00 -1.403302061E+02  1.403302061E+02  0.000000000E+00  0.00000E+00  9.000E+00
      25     1     1     2     0     0  5.956659921E+00  8.969797212E+00 -8.961349591E+01  1.541852946E+02  1.250063493E+02  0.00000E+00  9.000E+00
       5     1     1     2   501     0 -1.477596547E+00  1.978464733E+00  2.153182395E+01  2.218737381E+01  4.750000000E+00  0.00000E+00  9.000E+00
      -5     1     1     2     0   503 -5.494175555E+00 -7.308540490E+00 -1.662524565E+01  1.955919277E+01  4.750000000E+00  0.00000E+00  9.000E+00
      21     1     1     2   502   512  1.015112181E+00 -3.639721456E+00  3.299883722E+02  3.300100056E+02  3.814697266E-06  0.00000E+00  9.000E+00
#rwgt            1           9   2.0307392634219035                2     1729759           0
</event>
<event>
      6   9999  3.45752E-01  5.43534E+00 -1.00000E+00  2.20217E-01
      21    -1     0     0   501   502  0.000000000E+00  0.000000000E+00  9.870760935E+00  9.870760935E+00  0.000000000E+00  0.00000E+00  9.000E+00
      21    -1     0     0   502   511  0.000000000E+00  0.000000000E+00 -1.525073054E+03  1.525073054E+03  0.000000000E+00  0.00000E+00  9.000E+00
      25     1     1     2     0     0  5.399217068E+00  9.068063182E+00 -5.361319017E+02  5.506122998E+02  1.250004292E+02  0.00000E+00  9.000E+00
       5     1     1     2   501     0 -2.236675665E-01 -9.027014562E-01  7.842393894E-02  4.840820944E+00  4.750000000E+00  0.00000E+00  9.000E+00
      -5     1     1     2     0   503 -8.144184670E-02 -1.006088237E+01 -1.913887001E+02  1.917118281E+02  4.750000000E+00  0.00000E+00  9.000E+00
      21     1     1     2   503   511 -5.094107655E+00  1.895520643E+00 -7.877601155E+02  7.877788665E+02  1.078959322E-05  0.00000E+00  9.000E+00
#rwgt            1           9   3.7850315466991742E-004           2     1734787           0
</event>
<event>
      6   9999  3.45752E-01  6.80473E+00 -1.00000E+00  2.06717E-01
      21    -1     0     0   501   502  0.000000000E+00  0.000000000E+00  1.036843045E+02  1.036843045E+02  0.000000000E+00  0.00000E+00  9.000E+00
      21    -1     0     0   502   512  0.000000000E+00  0.000000000E+00 -8.559594024E+01  8.559594024E+01  0.000000000E+00  0.00000E+00  9.000E+00
      25     1     1     2     0     0 -7.790651101E+00  9.181034344E-01  1.359551046E+01  1.259806922E+02  1.249990390E+02  0.00000E+00  9.000E+00
       5     1     1     2   501     0  4.813973368E-01  1.581327772E-01  3.159750890E+01  3.195656143E+01  4.750000000E+00  0.00000E+00  9.000E+00
      -5     1     1     2     0   503  3.283340343E+00  4.409780419E+00 -6.887298897E+00  1.001118740E+01  4.750000000E+00  0.00000E+00  9.000E+00
      21     1     1     2   503   512  4.025913422E+00 -5.486016631E+00 -2.021735619E+01  2.133180369E+01  2.384185791E-07  0.00000E+00  9.000E+00
#rwgt            1           9   2.0877293015146674E-003           2     1738087           0
</event>
<event>
      6   9999  3.45752E-01  8.57535E+00 -1.00000E+00  1.94510E-01
      21    -1     0     0   501   511  0.000000000E+00  0.000000000E+00  1.270722031E+01  1.270722031E+01  0.000000000E+00  0.00000E+00  9.000E+00
      21    -1     0     0   502   503  0.000000000E+00  0.000000000E+00 -9.278947323E+02  9.278947323E+02  0.000000000E+00  0.00000E+00  9.000E+00
      25     1     1     2     0     0  1.617432637E+01 -2.423075715E+01 -8.158809895E+02  8.259129754E+02  1.249868614E+02  0.00000E+00  9.000E+00
       5     1     1     2   501     0  6.038681517E-01  2.023583772E+00  5.780839042E-01  5.230318253E+00  4.750000000E+00  0.00000E+00  9.000E+00
      -5     1     1     2     0   503 -1.881042757E+01  3.053824376E+01 -7.965614423E+01  8.748760102E+01  4.750000000E+00  0.00000E+00  9.000E+00
      21     1     1     2   502   511  2.032233046E+00 -8.331070386E+00 -2.022846209E+01  2.197105786E+01  2.384185791E-07  0.00000E+00  9.000E+00
#rwgt            1           9   5.4867204187400808E-005           2     1741056           0
</event>
<event>
      6   9999  3.45752E-01  1.85204E+01 -1.00000E+00  1.62801E-01
      21    -1     0     0   501   502  0.000000000E+00  0.000000000E+00  6.936255000E+01  6.936255000E+01  0.000000000E+00  0.00000E+00  9.000E+00
      21    -1     0     0   502   512  0.000000000E+00  0.000000000E+00 -1.786027528E+03  1.786027528E+03  0.000000000E+00  0.00000E+00  9.000E+00
      25     1     1     2     0     0 -1.829623370E+02  2.058904394E+02 -9.998476001E+02  1.044598553E+03  1.249992929E+02  0.00000E+00  9.000E+00
       5     1     1     2   501     0  4.339538865E+00  3.600710925E+00  2.073469864E+01  2.200652050E+01  4.750000000E+00  0.00000E+00  9.000E+00
      -5     1     1     2     0   503  1.711030134E+02 -1.925661134E+02 -6.480631784E+02  6.973997382E+02  4.750000000E+00  0.00000E+00  9.000E+00
      21     1     1     2   503   512  7.519784678E+00 -1.692503695E+01 -8.948889769E+01  9.138526603E+01  0.000000000E+00  0.00000E+00  9.000E+00
#rwgt            1           9   8.3944941787574539E-003           2     1743716           0
</event>
<event>
      6   9999  3.45752E-01  1.30037E+01 -1.00000E+00  1.75928E-01
      21    -1     0     0   501   502  0.000000000E+00  0.000000000E+00  1.866933545E+01  1.866933545E+01  0.000000000E+00  0.00000E+00  9.000E+00
      21    -1     0     0   511   503  0.000000000E+00  0.000000000E+00 -1.383619630E+03  1.383619630E+03  0.000000000E+00  0.00000E+00  9.000E+00
      25     1     1     2     0     0 -1.064637958E+01  1.378764005E+01 -1.150374380E+03  1.157276886E+03  1.250005249E+02  0.00000E+00  9.000E+00
       5     1     1     2   501     0  5.839273331E-01 -6.171688458E-02  1.419504579E+01  1.498020711E+01  4.750000000E+00  0.00000E+00  9.000E+00
      -5     1     1     2     0   503  9.516192777E-01 -4.447555820E+00 -2.513322738E+01  2.597937548E+01  4.750000000E+00  0.00000E+00  9.000E+00
      21     1     1     2   511   502  9.110832966E+00 -9.278367347E+00 -2.036377329E+02  2.040524973E+02  2.697398305E-06  0.00000E+00  9.000E+00
#rwgt            1           9   2.5179116484633864E-004           2     1746843           0
</event>
<event>
      6   9999  3.45752E-01  7.38899E+00 -1.00000E+00  2.02190E-01
      21    -1     0     0   501   502  0.000000000E+00  0.000000000E+00  6.752266213E+01  6.752266213E+01  0.000000000E+00  0.00000E+00  9.000E+00
      21    -1     0     0   512   503  0.000000000E+00  0.000000000E+00 -1.489481984E+03  1.489481984E+03  0.000000000E+00  0.00000E+00  9.000E+00
      25     1     1     2     0     0 -2.610748016E+01  4.623156051E+01 -7.600323887E+01  1.556292207E+02  1.250000173E+02  0.00000E+00  9.000E+00
       5     1     1     2   501     0  1.291406274E+00 -3.253198515E+00  2.649757837E+01  2.714655025E+01  4.750000000E+00  0.00000E+00  9.000E+00
      -5     1     1     2     0   503  2.392841721E+01 -3.564288456E+01 -1.347796281E+03  1.348488176E+03  4.750000000E+00  0.00000E+00  9.000E+00
      21     1     1     2   512   502  8.876566734E-01 -7.335477441E+00 -2.465738038E+01  2.574069873E+01  0.000000000E+00  0.00000E+00  9.000E+00
#rwgt            1           9   7.5049600376657288E-003           2     1749394           0
</event>
<event>
      6   9999  3.45752E-01  1.56510E+01 -1.00000E+00  1.68788E-01
      21    -1     0     0   511   502  0.000000000E+00  0.000000000E+00  4.639488554E+01  4.639488554E+01  0.000000000E+00  0.00000E+00  9.000E+00
      21    -1     0     0   502   503  0.000000000E+00  0.000000000E+00 -1.050008396E+03  1.050008396E+03  0.000000000E+00  0.00000E+00  9.000E+00
      25     1     1     2     0     0 -2.656801940E-01  1.382081596E+00 -9.559387038E+02  9.640776736E+02  1.249998986E+02  0.00000E+00  9.000E+00
       5     1     1     2   501     0 -1.253395150E+01  3.163389273E+00  1.726962820E+01  2.208867425E+01  4.750000000E+00  0.00000E+00  9.000E+00
      -5     1     1     2     0   503 -1.339657562E+00  2.165284507E+00 -8.479074588E+01  8.496185159E+01  4.750000000E+00  0.00000E+00  9.000E+00
      21     1     1     2   511   501  1.413928925E+01 -6.710755376E+00  1.984631072E+01  2.527508234E+01  1.526623782E-06  0.00000E+00  9.000E+00
#rwgt            1           9   2.0614330395797909E-004           2     1754353           0
</event>
<event>
      6   9999  3.45752E-01  6.28268E+00 -1.00000E+00  2.11310E-01
      21    -1     0     0   512   502  0.000000000E+00  0.000000000E+00  1.385153755E+02  1.385153755E+02  0.000000000E+00  0.00000E+00  9.000E+00
      21    -1     0     0   502   503  0.000000000E+00  0.000000000E+00 -4.260165457E+01  4.260165457E+01  0.000000000E+00  0.00000E+00  9.000E+00
      25     1     1     2     0     0  1.024660092E+00 -3.630673181E+00  6.255032362E+01  1.398277504E+02  1.250001004E+02  0.00000E+00  9.000E+00
       5     1     1     2   501     0  3.226022596E-01 -9.458172214E-01  1.937498097E+01  1.997375854E+01  4.750000000E+00  0.00000E+00  9.000E+00
      -5     1     1     2     0   503  3.036201244E+00  7.567826648E-02 -3.624917160E-01  5.649614628E+00  4.750000000E+00  0.00000E+00  9.000E+00
      21     1     1     2   512   501 -4.383463596E+00  4.500812136E+00  1.435090804E+01  1.566590644E+01  1.685873940E-07  0.00000E+00  9.000E+00
#rwgt            1           9  0.18105588303342804                2     1756552           0
</event>
<event>
      6   9999 -3.45752E-01  6.45689E+00 -1.00000E+00  2.09713E-01
      21    -1     0     0   511   502  0.000000000E+00  0.000000000E+00  2.983863934E+01  2.983863934E+01  0.000000000E+00  0.00000E+00  9.000E+00
      21    -1     0     0   502   503  0.000000000E+00  0.000000000E+00 -3.814241653E+02  3.814241653E+02  0.000000000E+00  0.00000E+00  9.000E+00
      25     1     1     2     0     0 -6.060882101E-01 -4.946092685E+00 -3.424974940E+02  3.646307567E+02  1.250048967E+02  0.00000E+00  9.000E+00
       5     1     1     2   501     0  2.518482756E+00 -2.292992294E+00  1.679024108E+01  1.777850569E+01  4.750000000E+00  0.00000E+00  9.000E+00
      -5     1     1     2     0   503  1.316510640E+00  1.647522530E+00 -1.762116338E+01  1.837159301E+01  4.750000000E+00  0.00000E+00  9.000E+00
      21     1     1     2   511   501 -3.228905186E+00  5.591562449E+00 -8.257109665E+00  1.048194921E+01  2.064765462E-07  0.00000E+00  9.000E+00
#rwgt            1           9  -9.7995464846936074E-003           2     1759542           0
</event>
<event>
      6   9999  3.45752E-01  4.52407E+00 -1.00000E+00  2.37279E-01
      21    -1     0     0   512   502  0.000000000E+00  0.000000000E+00  1.331402128E+01  1.331402128E+01  0.000000000E+00  0.00000E+00  9.000E+00
      21    -1     0     0   502   503  0.000000000E+00  0.000000000E+00 -4.655869842E+03  4.655869842E+03  0.000000000E+00  0.00000E+00  9.000E+00
      25     1     1     2     0     0 -6.782921642E+01 -2.351336575E+01 -1.372070735E+03  1.379622024E+03  1.250005785E+02  0.00000E+00  9.000E+00
       5     1     1     2   501     0 -7.862315921E+00 -2.027859404E+00  3.940695231E+00  1.019900997E+01  4.750000000E+00  0.00000E+00  9.000E+00
      -5     1     1     2     0   503  7.791396595E+01  2.160067125E+01 -3.273793025E+03  3.274794727E+03  4.750000000E+00  0.00000E+00  9.000E+00
      21     1     1     2   512   501 -2.222433616E+00  3.940553902E+00 -6.327556872E-01  4.568102012E+00  1.664333634E-07  0.00000E+00  9.000E+00
#rwgt            1           9   7.1206099953711036E-002           2     1763397           0
</event>
<event>
      6   9999  3.45752E-01  1.10764E+01 -1.00000E+00  1.82635E-01
      21    -1     0     0   502   511  0.000000000E+00  0.000000000E+00  2.815016653E+01  2.815016653E+01  0.000000000E+00  0.00000E+00  9.000E+00
      21    -1     0     0   501   502  0.000000000E+00  0.000000000E+00 -3.856863190E+02  3.856863190E+02  0.000000000E+00  0.00000E+00  9.000E+00
      25     1     1     2     0     0  2.856610755E+01 -3.440787378E+00 -2.198832401E+02  2.545618097E+02  1.250008567E+02  0.00000E+00  9.000E+00
       5     1     1     2   501     0 -2.781418297E+01  2.010919857E+00 -1.045007160E+02  1.082618803E+02  4.750000000E+00  0.00000E+00  9.000E+00
      -5     1     1     2     0   503 -5.854841289E+00 -8.400997947E+00 -3.746337389E+01  3.912700878E+01  4.750000000E+00  0.00000E+00  9.000E+00
      21     1     1     2   503   511  5.102916708E+00  9.830865469E+00  4.311177539E+00  1.188578675E+01  1.576990671E-07  0.00000E+00  9.000E+00
#rwgt            1           9   7.6527559362148695E-002           2     1769392           0
</event>
<event>
      6   9999 -3.45752E-01  1.74141E+01 -1.00000E+00  1.64940E-01
      21    -1     0     0   512   503  0.000000000E+00  0.000000000E+00  6.411659616E+01  6.411659616E+01  0.000000000E+00  0.00000E+00  9.000E+00
      21    -1     0     0   501   502  0.000000000E+00  0.000000000E+00 -1.441142089E+03  1.441142089E+03  0.000000000E+00  0.00000E+00  9.000E+00
      25     1     1     2     0     0 -8.798067115E+01 -1.269005877E+02 -1.294920096E+03  1.310071346E+03  1.249980697E+02  0.00000E+00  9.000E+00
       5     1     1     2   501     0  2.256265862E-01 -2.428547455E-01  5.358576856E-01  4.791610297E+00  4.750000000E+00  0.00000E+00  9.000E+00
      -5     1     1     2     0   503  9.958169210E+01  1.143614291E+02 -6.335934622E+01  1.644141695E+02  4.750000000E+00  0.00000E+00  9.000E+00
      21     1     1     2   512   502 -1.182664754E+01  1.278201340E+01 -1.928190735E+01  2.598155903E+01  2.384185791E-07  0.00000E+00  9.000E+00
#rwgt            1           9  -1.0832852897386053E-006           2     1771666           0
</event>
<event>
      6   9999  3.45752E-01  1.36081E+01 -1.00000E+00  1.74120E-01
      21    -1     0     0   511   502  0.000000000E+00  0.000000000E+00  1.317427614E+01  1.317427614E+01  0.000000000E+00  0.00000E+00  9.000E+00
      21    -1     0     0   502   503  0.000000000E+00  0.000000000E+00 -8.323788641E+02  8.323788641E+02  0.000000000E+00  0.00000E+00  9.000E+00
      25     1     1     2     0     0 -2.361921739E+01  3.041183694E+00 -7.845440919E+02  7.947960174E+02  1.249966437E+02  0.00000E+00  9.000E+00
       5     1     1     2   501     0 -3.687221824E+00 -2.246970237E+00 -3.364064697E+00  7.247338223E+00  4.750000000E+00  0.00000E+00  9.000E+00
      -5     1     1     2     0   503  1.469720685E+01  4.323137343E+00 -1.265887635E+01  2.043298941E+01  4.750000000E+00  0.00000E+00  9.000E+00
      21     1     1     2   511   501  1.260923236E+01 -5.117350799E+00 -1.863755504E+01  2.307679522E+01  4.768371582E-07  0.00000E+00  9.000E+00
#rwgt            1           9   1.6846565523395481E-003           2     1774331           0
</event>
<event>
      6   9999 -3.45752E-01  9.40930E+00 -1.00000E+00  1.90023E-01
      21    -1     0     0   501   502  0.000000000E+00  0.000000000E+00  1.423140039E+01  1.423140039E+01  0.000000000E+00  0.00000E+00  9.000E+00
      21    -1     0     0   512   503  0.000000000E+00  0.000000000E+00 -7.723593823E+02  7.723593823E+02  0.000000000E+00  0.00000E+00  9.000E+00
      25     1     1     2     0     0  2.594188575E+00 -8.486828699E+00 -5.395075216E+02  5.538696891E+02  1.249980422E+02  0.00000E+00  9.000E+00
       5     1     1     2   501     0 -5.750823369E-01 -7.856637734E-01  5.254549162E+00  7.149879310E+00  4.750000000E+00  0.00000E+00  9.000E+00
      -5     1     1     2     0   503 -3.543996454E+00 -1.242064911E-02 -1.105539301E+01  1.254369482E+01  4.750000000E+00  0.00000E+00  9.000E+00
      21     1     1     2   512   502  1.524890216E+00  9.284913122E+00 -2.128196164E+02  2.130275194E+02  4.672030912E-06  0.00000E+00  9.000E+00
#rwgt            1           9  -2.9617230902327872E-005           2     1776316           0
</event>
<event>
      6   9999  3.45752E-01  2.01303E+01 -1.00000E+00  1.59995E-01
      21    -1     0     0   511   502  0.000000000E+00  0.000000000E+00  1.107300138E+02  1.107300138E+02  0.000000000E+00  0.00000E+00  9.000E+00
      21    -1     0     0   502   503  0.000000000E+00  0.000000000E+00 -1.725477441E+03  1.725477441E+03  0.000000000E+00  0.00000E+00  9.000E+00
      25     1     1     2     0     0  1.062753577E+01 -3.591844090E+01 -1.002882003E+03  1.011325925E+03  1.249189144E+02  0.00000E+00  9.000E+00
       5     1     1     2   501     0 -1.887316154E+01  2.802511073E+00  9.730165763E+01  9.926845104E+01  4.750000000E+00  0.00000E+00  9.000E+00
      -5     1     1     2     0   503 -7.042685900E+00  2.002031423E+01 -7.046457802E+02  7.049813121E+02  4.750000000E+00  0.00000E+00  9.000E+00
      21     1     1     2   511   501  1.528831167E+01  1.309561559E+01 -4.521301147E+00  2.063176642E+01  3.625608999E-07  0.00000E+00  9.000E+00
#rwgt            1           9   5.6326020137195746E-005           2     1778836           0
</event>
<event>
      6   9999 -3.45752E-01  9.74544E+01 -1.00000E+00  1.20913E-01
      21    -1     0     0   501   502  0.000000000E+00  0.000000000E+00  5.891722715E+01  5.891722715E+01  0.000000000E+00  0.00000E+00  9.000E+00
      21    -1     0     0   512   503  0.000000000E+00  0.000000000E+00 -2.403561383E+03  2.403561383E+03  0.000000000E+00  0.00000E+00  9.000E+00
      25     1     1     2     0     0  1.392746508E+02  1.545198016E+02 -4.085494421E+02  4.751857159E+02  1.249600759E+02  0.00000E+00  9.000E+00
       5     1     1     2   501     0 -1.465986423E+02  1.746401269E+00 -3.324836218E+02  3.634035403E+02  4.750000000E+00  0.00000E+00  9.000E+00
      -5     1     1     2     0   503 -7.963139317E+01 -1.122648478E+02 -6.022018532E+02  6.177492933E+02  4.750000000E+00  0.00000E+00  9.000E+00
      21     1     1     2   512   502  8.695538468E+01 -4.400135504E+01 -1.001409239E+03  1.006140061E+03  1.525878906E-05  0.00000E+00  9.000E+00
#rwgt            1           9  -2.8164399437370261E-002           2     1782133           0
</event>
<event>
      6   9999  3.45752E-01  3.12515E+01 -1.00000E+00  1.46699E-01
      21    -1     0     0   502   503  0.000000000E+00  0.000000000E+00  7.202971215E+00  7.202971215E+00  0.000000000E+00  0.00000E+00  9.000E+00
      21    -1     0     0   511   502  0.000000000E+00  0.000000000E+00 -1.105306954E+03  1.105306954E+03  0.000000000E+00  0.00000E+00  9.000E+00
      25     1     1     2     0     0 -3.001835365E+01  1.532520350E+01 -6.814726442E+02  6.936611995E+02  1.249997259E+02  0.00000E+00  9.000E+00
       5     1     1     2   501     0  8.279758217E-01  5.218974599E-01 -2.476626882E+01  2.523664978E+01  4.750000000E+00  0.00000E+00  9.000E+00
      -5     1     1     2     0   503  1.713401150E+00 -9.584511140E-01 -3.416928781E+01  3.455368434E+01  4.750000000E+00  0.00000E+00  9.000E+00
      21     1     1     2   511   501  2.747697668E+01 -1.488864985E+01 -3.576957820E+02  3.590583917E+02  0.000000000E+00  0.00000E+00  9.000E+00
#rwgt            1           9   1.3902564032903689E-003           2     1782858           0
</event>
<event>
      6   9999 -3.45752E-01  6.68098E+00 -1.00000E+00  2.07755E-01
      21    -1     0     0   501   502  0.000000000E+00  0.000000000E+00  3.572746586E+01  3.572746586E+01  0.000000000E+00  0.00000E+00  9.000E+00
      21    -1     0     0   512   503  0.000000000E+00  0.000000000E+00 -6.521751664E+02  6.521751664E+02  0.000000000E+00  0.00000E+00  9.000E+00
      25     1     1     2     0     0 -6.740175754E+01 -1.892903222E+01 -4.459730318E+02  4.684208007E+02  1.249991847E+02  0.00000E+00  9.000E+00
       5     1     1     2   501     0 -2.445133445E+00 -1.524771445E-01  1.425924421E+01  1.522795036E+01  4.750000000E+00  0.00000E+00  9.000E+00
      -5     1     1     2     0   503  7.185600218E+01  1.270977917E+01 -1.303466323E+02  1.494577886E+02  4.750000000E+00  0.00000E+00  9.000E+00
      21     1     1     2   512   502 -2.009111190E+00  6.371730196E+00 -5.438728055E+01  5.479609255E+01  1.168007728E-06  0.00000E+00  9.000E+00
#rwgt            1           9 -0.24301433571342837                2     1783723           0
</event>
<event>
      6   9999 -3.45752E-01  3.58365E+00 -1.00000E+00  2.58163E-01
      21    -1     0     0   501   502  0.000000000E+00  0.000000000E+00  2.033740776E+01  2.033740776E+01  0.000000000E+00  0.00000E+00  9.000E+00
      21    -1     0     0   502   511  0.000000000E+00  0.000000000E+00 -1.026546754E+03  1.026546754E+03  0.000000000E+00  0.00000E+00  9.000E+00
      25     1     1     2     0     0  4.064179436E+00 -4.081911730E-01 -8.964904667E+02  9.051730109E+02  1.250053547E+02  0.00000E+00  9.000E+00
       5     1     1     2   501     0 -2.338685814E+00  1.906424740E+00  1.522559529E+01  1.623222593E+01  4.750000000E+00  0.00000E+00  9.000E+00
      -5     1     1     2     0   503  1.634683231E+00 -2.525357457E-01 -2.673085985E+01  2.719995095E+01  4.750000000E+00  0.00000E+00  9.000E+00
      21     1     1     2   503   511 -3.360176853E+00 -1.245697821E+00 -9.821361494E+01  9.827897390E+01  0.000000000E+00  0.00000E+00  9.000E+00
#rwgt            1           9  -1.5397492929105829E-002           2     1787747           0
</event>
<event>
      6   9999  3.45752E-01  2.81359E+01 -1.00000E+00  1.49663E-01
      21    -1     0     0   501   502  0.000000000E+00  0.000000000E+00  1.131892281E+02  1.131892281E+02  0.000000000E+00  0.00000E+00  9.000E+00
      21    -1     0     0   502   512  0.000000000E+00  0.000000000E+00 -5.807684470E+02  5.807684470E+02  0.000000000E+00  0.00000E+00  9.000E+00
      25     1     1     2     0     0 -3.288006275E+01 -4.511495730E+01 -4.448337978E+02  4.654259730E+02  1.250110825E+02  0.00000E+00  9.000E+00
       5     1     1     2   501     0 -1.556161027E+00  2.016358270E+00  7.555957074E+01  7.575155819E+01  4.750000000E+00  0.00000E+00  9.000E+00
      -5     1     1     2     0   503  6.591771758E+00  4.713774429E+01  2.720212213E+00  4.791012884E+01  4.750000000E+00  0.00000E+00  9.000E+00
      21     1     1     2   503   512  2.784445201E+01 -4.039145252E+00 -1.010252041E+02  1.048700151E+02  0.000000000E+00  0.00000E+00  9.000E+00
#rwgt            1           9   3.1687878234376264E-002           2     1793990           0
</event>
<event>
      6   9999  3.45752E-01  1.01159E+01 -1.00000E+00  1.86668E-01
      21    -1     0     0   511   502  0.000000000E+00  0.000000000E+00  1.010791742E+02  1.010791742E+02  0.000000000E+00  0.00000E+00  9.000E+00
      21    -1     0     0   502   503  0.000000000E+00  0.000000000E+00 -9.140552060E+02  9.140552060E+02  0.000000000E+00  0.00000E+00  9.000E+00
      25     1     1     2     0     0  5.951801730E+00 -6.380821277E+00 -8.868320287E+02  8.956408867E+02  1.250016476E+02  0.00000E+00  9.000E+00
       5     1     1     2   501     0  2.232500779E+00  4.235265035E+00  1.008615101E+01  1.213319710E+01  4.750000000E+00  0.00000E+00  9.000E+00
      -5     1     1     2     0   503  1.758656603E+00  2.832746501E-01 -2.119587286E+01  2.179450949E+01  4.750000000E+00  0.00000E+00  9.000E+00
      21     1     1     2   511   501 -9.942959112E+00  1.862281592E+00  8.496571879E+01  8.556578696E+01  3.303624740E-06  0.00000E+00  9.000E+00
#rwgt            1           9   1.4823597090727394E-004           2     1795680           0
</event>
<event>
      6   9999  3.45752E-01  1.22996E+01 -1.00000E+00  1.78197E-01
      21    -1     0     0   512   503  0.000000000E+00  0.000000000E+00  1.841457250E+01  1.841457250E+01  0.000000000E+00  0.00000E+00  9.000E+00
      21    -1     0     0   501   502  0.000000000E+00  0.000000000E+00 -7.343334101E+02  7.343334101E+02  0.000000000E+00  0.00000E+00  9.000E+00
      25     1     1     2     0     0  9.279900987E+00 -5.786102733E+00 -7.076567668E+02  7.186950704E+02  1.249996366E+02  0.00000E+00  9.000E+00
       5     1     1     2   501     0  2.842901592E-01 -2.962172255E-01 -1.252391023E+01  1.340072360E+01  4.750000000E+00  0.00000E+00  9.000E+00
      -5     1     1     2     0   503  1.446370116E+00  6.007281383E-01 -3.503344449E+00  6.106454220E+00  4.750000000E+00  0.00000E+00  9.000E+00
      21     1     1     2   512   502 -1.101056126E+01  5.481591820E+00  7.765183848E+00  1.454573437E+01  7.996802250E-07  0.00000E+00  9.000E+00
#rwgt            1           9   1.9226348320142828E-004           2     1798475           0
</event>
<event>
      6   9999  3.45752E-01  4.58877E+01 -1.00000E+00  1.36813E-01
      21    -1     0     0   501   502  0.000000000E+00  0.000000000E+00  2.987014014E+03  2.987014014E+03  0.000000000E+00  0.00000E+00  9.000E+00
       1    -1     0     0   502     0  0.000000000E+00  0.000000000E+00 -2.789956305E+02  2.789956305E+02  0.000000000E+00  0.00000E+00  9.000E+00
      25     1     1     2     0     0 -2.082720350E+01  1.195609973E+01  1.110031791E+03  1.117305641E+03  1.249983858E+02  0.00000E+00  9.000E+00
       5     1     1     2   501     0  2.385520248E-01  1.179040607E+00  1.862366735E+03  1.862373181E+03  4.750000000E+00  0.00000E+00  9.000E+00
      -5     1     1     2     0   503  2.625384750E+01  3.240148331E+01 -4.241383919E+01  5.967090484E+01  4.750000000E+00  0.00000E+00  9.000E+00
       1     1     1     2   503     0 -5.665196028E+00 -4.553662365E+01 -2.219663035E+02  2.266599180E+02  1.144409180E-05  0.00000E+00  9.000E+00
#rwgt            1           9   2.4580120696676118E-003           2     1800140           0
</event>
<event>
      6   9999  3.45752E-01  9.80134E+00 -1.00000E+00  1.88116E-01
      21    -1     0     0   501   502  0.000000000E+00  0.000000000E+00  4.547495322E+01  4.547495322E+01  0.000000000E+00  0.00000E+00  9.000E+00
      21    -1     0     0   502   511  0.000000000E+00  0.000000000E+00 -3.406149730E+02  3.406149730E+02  0.000000000E+00  0.00000E+00  9.000E+00
      25     1     1     2     0     0  1.818299398E+01 -4.208963836E+01 -1.078605780E+02  1.713657489E+02  1.250206251E+02  0.00000E+00  9.000E+00
       5     1     1     2   501     0 -2.067943396E-01 -1.876776745E-01  1.781775034E+00  5.080866961E+00  4.750000000E+00  0.00000E+00  9.000E+00
      -5     1     1     2     0   503 -2.749920689E+01  4.459648093E+01 -5.834643063E+01  7.856157431E+01  4.750000000E+00  0.00000E+00  9.000E+00
      21     1     1     2   503   511  9.523007243E+00 -2.319164895E+00 -1.307147862E+02  1.310817360E+02  1.907348633E-06  0.00000E+00  9.000E+00
#rwgt            1           9   1.3696378535095390E-002           2     1802163           0
</event>
<event>
      6   9999  3.45752E-01  1.60236E+01 -1.00000E+00  1.67924E-01
      21    -1     0     0   501   502  0.000000000E+00  0.000000000E+00  1.978985434E+01  1.978985434E+01  0.000000000E+00  0.00000E+00  9.000E+00
      21    -1     0     0   512   503  0.000000000E+00  0.000000000E+00 -1.258041200E+03  1.258041200E+03  0.000000000E+00  0.00000E+00  9.000E+00
      25     1     1     2     0     0  6.679006548E+00  1.796432647E+01 -4.430516629E+02  4.607461350E+02  1.249995948E+02  0.00000E+00  9.000E+00
       5     1     1     2   501     0 -2.562034755E+00  1.185482327E+00  9.976007343E+00  1.140406125E+01  4.750000000E+00  0.00000E+00  9.000E+00
      -5     1     1     2     0   503 -3.460441247E+00 -3.139678131E+00 -5.282216462E+02  5.282636674E+02  4.750000000E+00  0.00000E+00  9.000E+00
      21     1     1     2   512   502 -6.565305465E-01 -1.601013067E+01 -2.769540442E+02  2.774171911E+02  0.000000000E+00  0.00000E+00  9.000E+00
#rwgt            1           9   1.0753311780703807                2     1804557           0
</event>
<event>
      6   9999  3.45752E-01  6.29372E+00 -1.00000E+00  2.11207E-01
      21    -1     0     0   501   502  0.000000000E+00  0.000000000E+00  9.055523243E+01  9.055523243E+01  0.000000000E+00  0.00000E+00  9.000E+00
      21    -1     0     0   511   503  0.000000000E+00  0.000000000E+00 -2.035564843E+02  2.035564843E+02  0.000000000E+00  0.00000E+00  9.000E+00
      25     1     1     2     0     0  2.031874804E+01 -1.950605534E+01 -7.151169410E+01  1.467377730E+02  1.249988556E+02  0.00000E+00  9.000E+00
       5     1     1     2   501     0  2.153000741E+00  1.796726083E+00  4.985754445E+01  5.016174713E+01  4.750000000E+00  0.00000E+00  9.000E+00
      -5     1     1     2     0   503 -2.032367316E+01  1.179353374E+01 -8.482954117E+01  8.815187283E+01  4.750000000E+00  0.00000E+00  9.000E+00
      21     1     1     2   511   502 -2.148075619E+00  5.915795520E+00 -6.517561018E+00  9.060323787E+00  1.884864366E-07  0.00000E+00  9.000E+00
#rwgt            1           9   5.5284435792484418E-003           2     1806613           0
</event>
<event>
      6   9999  3.45752E-01  6.76657E+00 -1.00000E+00  2.07034E-01
      21    -1     0     0   501   502  0.000000000E+00  0.000000000E+00  2.608424575E+02  2.608424575E+02  0.000000000E+00  0.00000E+00  9.000E+00
      21    -1     0     0   512   503  0.000000000E+00  0.000000000E+00 -2.570627245E+01  2.570627245E+01  0.000000000E+00  0.00000E+00  9.000E+00
      25     1     1     2     0     0 -1.006646167E+01  1.836075146E+00  1.514842823E+02  1.966667888E+02  1.250025327E+02  0.00000E+00  9.000E+00
       5     1     1     2   501     0  3.980269671E-01  5.692702831E-02  6.321553118E+01  6.339501202E+01  4.750000000E+00  0.00000E+00  9.000E+00
      -5     1     1     2     0   503  7.277069124E+00  4.436910615E+00  1.454752929E+01  1.751670686E+01  4.750000000E+00  0.00000E+00  9.000E+00
      21     1     1     2   512   502  2.391365574E+00 -6.329912790E+00  5.888842261E+00  8.970222317E+00  1.460009660E-07  0.00000E+00  9.000E+00
#rwgt            1           9   2.3023433539310010E-004           2     1810860           0
</event>
<event>
      6   9999  3.45752E-01  1.20919E+01 -1.00000E+00  1.78903E-01
       1    -1     0     0   501     0  0.000000000E+00  0.000000000E+00  1.874713620E+02  1.874713620E+02  0.000000000E+00  0.00000E+00  9.000E+00
      21    -1     0     0   502   503  0.000000000E+00  0.000000000E+00 -1.537699028E+03  1.537699028E+03  0.000000000E+00  0.00000E+00  9.000E+00
      25     1     1     2     0     0  5.483608174E+00 -2.778372987E+01 -1.190845481E+03  1.197722868E+03  1.250004104E+02  0.00000E+00  9.000E+00
       5     1     1     2   501     0  4.427425882E+00  3.040730969E+00  7.401315763E+01  7.435965403E+01  4.750000000E+00  0.00000E+00  9.000E+00
      -5     1     1     2     0   503 -2.018417740E+01  1.836516459E+01 -3.423477661E+02  3.434664987E+02  4.750000000E+00  0.00000E+00  9.000E+00
       1     1     1     2   502     0  1.027314335E+01  6.377834309E+00  1.089524231E+02  1.096213699E+02  3.303624740E-06  0.00000E+00  9.000E+00
#rwgt            1           9   1.6428987228316665E-003           2     1813809           0
</event>
<event>
      6   9999 -3.45752E-01  6.58456E+01 -1.00000E+00  1.28687E-01
      21    -1     0     0   502   503  0.000000000E+00  0.000000000E+00  3.283566007E+01  3.283566007E+01  0.000000000E+00  0.00000E+00  9.000E+00
      21    -1     0     0   501   511  0.000000000E+00  0.000000000E+00 -2.181354819E+03  2.181354819E+03  0.000000000E+00  0.00000E+00  9.000E+00
      25     1     1     2     0     0  9.399844225E+01 -1.638709170E+02 -6.677969859E+02  7.051716533E+02  1.249994468E+02  0.00000E+00  9.000E+00
       5     1     1     2   501     0 -7.925867983E+00  3.778570837E+01 -1.200692982E+02  1.262132244E+02  4.750000000E+00  0.00000E+00  9.000E+00
      -5     1     1     2     0   503 -1.006734807E+02  6.187885239E+01 -3.390771003E+02  3.591099895E+02  4.750000000E+00  0.00000E+00  9.000E+00
      21     1     1     2   502   511  1.460090645E+01  6.420635628E+01 -1.021575774E+03  1.023695612E+03  1.525878906E-05  0.00000E+00  9.000E+00
#rwgt            1           9  -1.1706232752412265E-003           2     1817704           0
</event>
<event>
      6   9999  3.45752E-01  5.15323E+00 -1.00000E+00  2.23695E-01
      21    -1     0     0   501   502  0.000000000E+00  0.000000000E+00  8.867970999E+02  8.867970999E+02  0.000000000E+00  0.00000E+00  9.000E+00
      21    -1     0     0   512   503  0.000000000E+00  0.000000000E+00 -1.599952635E+01  1.599952635E+01  0.000000000E+00  0.00000E+00  9.000E+00
      25     1     1     2     0     0  5.513158943E+01 -6.627084023E+00  7.251160844E+02  7.379039866E+02  1.250021886E+02  0.00000E+00  9.000E+00
       5     1     1     2   501     0 -8.369507351E+00  1.525770725E+01  3.712566396E+01  4.127618815E+01  4.750000000E+00  0.00000E+00  9.000E+00
      -5     1     1     2     0   503 -4.255415915E+01 -1.160537913E+01  1.097059965E+02  1.183364249E+02  4.750000000E+00  0.00000E+00  9.000E+00
      21     1     1     2   512   502 -4.207922930E+00  2.974755902E+00 -1.150171245E+00  5.280026700E+00  3.754974356E-07  0.00000E+00  9.000E+00
#rwgt            1           9   1.0642786143428902E-003           2     1819148           0
</event>
<event>
      6   9999  3.45752E-01  3.65873E+00 -1.00000E+00  2.56149E-01
      21    -1     0     0   501   511  0.000000000E+00  0.000000000E+00  4.831707711E+01  4.831707711E+01  0.000000000E+00  0.00000E+00  9.000E+00
      21    -1     0     0   502   503  0.000000000E+00  0.000000000E+00 -2.044695494E+02  2.044695494E+02  0.000000000E+00  0.00000E+00  9.000E+00
      25     1     1     2     0     0  4.570813073E-01 -5.382763920E+00 -1.722722942E+02  2.129155993E+02  1.250045039E+02  0.00000E+00  9.000E+00
       5     1     1     2   501     0  2.354654284E-01  9.555849777E-01  1.309740845E+01  1.396686059E+01  4.750000000E+00  0.00000E+00  9.000E+00
      -5     1     1     2     0   503 -2.360648341E+00  1.170845401E+00 -1.053974414E+01  1.185716012E+01  4.750000000E+00  0.00000E+00  9.000E+00
      21     1     1     2   502   511  1.668101606E+00  3.256333541E+00  1.356215766E+01  1.404700649E+01  3.769728732E-07  0.00000E+00  9.000E+00
#rwgt            1           9   2.9040741601906121E-003           2     1823527           0
</event>
<event>
      6   9999  3.45752E-01  1.80411E+01 -1.00000E+00  1.63704E-01
      21    -1     0     0   512   502  0.000000000E+00  0.000000000E+00  4.633716173E+01  4.633716173E+01  0.000000000E+00  0.00000E+00  9.000E+00
      21    -1     0     0   502   503  0.000000000E+00  0.000000000E+00 -1.260003962E+03  1.260003962E+03  0.000000000E+00  0.00000E+00  9.000E+00
      25     1     1     2     0     0  2.004693485E+00  2.397734844E+01 -1.520276825E+02  1.982829088E+02  1.249990546E+02  0.00000E+00  9.000E+00
       5     1     1     2   501     0  8.057948344E-01 -3.243030957E-01  1.701673423E+01  1.768859016E+01  4.750000000E+00  0.00000E+00  9.000E+00
      -5     1     1     2     0   503 -2.373321752E+00 -4.168882766E+01 -1.069153345E+03  1.069978985E+03  4.750000000E+00  0.00000E+00  9.000E+00
      21     1     1     2   512   501 -4.371665671E-01  1.803578232E+01 -9.502507634E+00  2.039064025E+01  4.298152060E-07  0.00000E+00  9.000E+00
#rwgt            1           9   1.5107191953346675E-002           2     1828446           0
</event>
<event>
      6   9999  3.45752E-01  3.79580E+01 -1.00000E+00  1.41519E-01
      21    -1     0     0   511   502  0.000000000E+00  0.000000000E+00  3.708553969E+01  3.708553969E+01  0.000000000E+00  0.00000E+00  9.000E+00
      21    -1     0     0   502   503  0.000000000E+00  0.000000000E+00 -3.487596390E+03  3.487596390E+03  0.000000000E+00  0.00000E+00  9.000E+00
      25     1     1     2     0     0  6.115063748E+01 -8.187184562E+01 -3.284864272E+03  3.288829605E+03  1.249979358E+02  0.00000E+00  9.000E+00
       5     1     1     2   501     0  2.095110815E+00  1.146095431E+00  7.109163513E+00  8.877259144E+00  4.750000000E+00  0.00000E+00  9.000E+00
      -5     1     1     2     0   503 -3.207417581E+01  1.023853743E+02 -1.107339469E+02  1.542598040E+02  4.750000000E+00  0.00000E+00  9.000E+00
      21     1     1     2   511   501 -3.117157248E+01 -2.165962409E+01 -6.202179420E+01  7.271526114E+01  1.784161275E-06  0.00000E+00  9.000E+00
#rwgt            1           9   5.5384869293150668E-004           2     1831192           0
</event>
<event>
      6   9999 -3.45752E-01  1.75734E+00 -1.00000E+00  3.56253E-01
      21    -1     0     0   501   512  0.000000000E+00  0.000000000E+00  4.192324082E+02  4.192324082E+02  0.000000000E+00  0.00000E+00  9.000E+00
      21    -1     0     0   502   503  0.000000000E+00  0.000000000E+00 -1.331734739E+03  1.331734739E+03  0.000000000E+00  0.00000E+00  9.000E+00
      25     1     1     2     0     0 -1.286211899E-01  1.013709261E+00 -1.278830031E+03  1.284925345E+03  1.250034028E+02  0.00000E+00  9.000E+00
       5     1     1     2   501     0 -6.406198350E-01  5.148477856E-01 -4.996564530E+00  6.942882623E+00  4.750000000E+00  0.00000E+00  9.000E+00
      -5     1     1     2     0   503 -5.412342422E-01 -3.577066772E-01 -4.375453955E+01  4.401639603E+01  4.750000000E+00  0.00000E+00  9.000E+00
      21     1     1     2   502   512  1.310475267E+00 -1.170850369E+00  4.150788037E+02  4.150825238E+02  9.344061824E-06  0.00000E+00  9.000E+00
#rwgt            1           9  -1.6154934075871105E-004           2     1833064           0
</event>
<event>
      6   9999  3.45752E-01  7.75116E+01 -1.00000E+00  1.25332E-01
      21    -1     0     0   511   502  0.000000000E+00  0.000000000E+00  3.593374055E+01  3.593374055E+01  0.000000000E+00  0.00000E+00  9.000E+00
      21    -1     0     0   502   503  0.000000000E+00  0.000000000E+00 -9.547561379E+02  9.547561379E+02  0.000000000E+00  0.00000E+00  9.000E+00
      25     1     1     2     0     0 -7.338124715E+01 -1.217262590E+01 -5.907174937E+02  6.083625197E+02  1.249992710E+02  0.00000E+00  9.000E+00
       5     1     1     2   501     0 -2.217487208E+01  1.898368497E+01 -1.102625330E+02  1.141599489E+02  4.750000000E+00  0.00000E+00  9.000E+00
      -5     1     1     2     0   503  1.846699895E+01 -1.489243570E+01 -1.805275269E+02  1.821416075E+02  4.750000000E+00  0.00000E+00  9.000E+00
      21     1     1     2   511   501  7.708912027E+01  8.081376631E+00 -3.731484368E+01  8.602580236E+01  2.023048729E-06  0.00000E+00  9.000E+00
#rwgt            1           9   47.647220983634796                2     1840581           0
</event>
<event>
      6   9999  3.45752E-01  5.55971E+01 -1.00000E+00  1.32367E-01
      21    -1     0     0   501   512  0.000000000E+00  0.000000000E+00  2.432799560E+01  2.432799560E+01  0.000000000E+00  0.00000E+00  9.000E+00
      21    -1     0     0   502   503  0.000000000E+00  0.000000000E+00 -8.946815951E+02  8.946815951E+02  0.000000000E+00  0.00000E+00  9.000E+00
      25     1     1     2     0     0 -8.756725084E+00  7.292431790E+01 -5.852970086E+02  6.029873406E+02  1.250060329E+02  0.00000E+00  9.000E+00
       5     1     1     2   501     0  1.355078532E+00  1.203619550E+00 -7.692390915E+00  9.220646173E+00  4.750000000E+00  0.00000E+00  9.000E+00
      -5     1     1     2     0   503  4.790572742E+01 -3.604304643E+01 -2.150038935E+02  2.232561234E+02  4.750000000E+00  0.00000E+00  9.000E+00
      21     1     1     2   502   512 -4.050408087E+01 -3.808489102E+01 -6.236030645E+01  8.354548049E+01  9.536743164E-07  0.00000E+00  9.000E+00
#rwgt            1           9   4.1506219847459023E-004           2     1841215           0
</event>
<event>
      6   9999  3.45752E-01  8.33387E+00 -1.00000E+00  1.95936E-01
       1    -1     0     0   511     0  0.000000000E+00  0.000000000E+00  2.184125667E+03  2.184125667E+03  0.000000000E+00  0.00000E+00  9.000E+00
      -1    -1     0     0     0   502  0.000000000E+00  0.000000000E+00 -2.259307364E+01  2.259307364E+01  0.000000000E+00  0.00000E+00  9.000E+00
      25     1     1     2     0     0 -4.831543249E+01  1.372716150E+02  5.212635300E+02  5.554445153E+02  1.250002583E+02  0.00000E+00  9.000E+00
       5     1     1     2   501     0 -1.265907121E+01 -9.401080175E+01  1.180784432E+03  1.184598126E+03  4.750000000E+00  0.00000E+00  9.000E+00
      -5     1     1     2     0   502  6.134001905E+01 -3.493496321E+01  3.628849505E+02  3.697175941E+02  4.750000000E+00  0.00000E+00  9.000E+00
      21     1     1     2   511   501 -3.655153426E-01 -8.325850032E+00  9.659968153E+01  9.695850582E+01  1.348699152E-06  0.00000E+00  9.000E+00
#rwgt            1           2   3.1953767119685954E-004           2     1842368           0
</event>
<event>
      6   9999  3.45752E-01  3.44318E+00 -1.00000E+00  2.62143E-01
      21    -1     0     0   512   503  0.000000000E+00  0.000000000E+00  3.025435851E+02  3.025435851E+02  0.000000000E+00  0.00000E+00  9.000E+00
      21    -1     0     0   501   502  0.000000000E+00  0.000000000E+00 -7.326649819E+02  7.326649819E+02  0.000000000E+00  0.00000E+00  9.000E+00
      25     1     1     2     0     0  8.787739232E+00 -3.474061318E-01 -5.479297087E+02  5.620758370E+02  1.249997433E+02  0.00000E+00  9.000E+00
       5     1     1     2   501     0  3.087035381E+00  1.152737009E-01 -1.096366366E+02  1.097829570E+02  4.750000000E+00  0.00000E+00  9.000E+00
      -5     1     1     2     0   503 -1.474609877E+01 -1.668127101E+00 -6.704897112E+01  6.883572551E+01  4.750000000E+00  0.00000E+00  9.000E+00
      21     1     1     2   512   502  2.871324161E+00  1.900259532E+00  2.944939196E+02  2.945140474E+02  7.629394531E-06  0.00000E+00  9.000E+00
#rwgt            1           9  0.65948395237458013                2     1843286           0
</event>
<event>
      6   9999  3.45752E-01  1.56990E+01 -1.00000E+00  1.68675E-01
      21    -1     0     0   511   502  0.000000000E+00  0.000000000E+00  6.705023770E+01  6.705023770E+01  0.000000000E+00  0.00000E+00  9.000E+00
      21    -1     0     0   502   503  0.000000000E+00  0.000000000E+00 -1.412147250E+03  1.412147250E+03  0.000000000E+00  0.00000E+00  9.000E+00
      25     1     1     2     0     0 -2.925119055E+01  4.845308159E+01 -3.736006801E+02  3.980015940E+02  1.249978697E+02  0.00000E+00  9.000E+00
       5     1     1     2   501     0  1.263961406E+01 -5.129480776E-01  4.534366439E+01  4.731419829E+01  4.750000000E+00  0.00000E+00  9.000E+00
      -5     1     1     2     0   503  2.313155457E+01 -3.365910833E+01 -1.017344096E+03  1.018174630E+03  4.750000000E+00  0.00000E+00  9.000E+00
      21     1     1     2   511   501 -6.519978083E+00 -1.428102519E+01  5.040994543E-01  1.570706563E+01  3.265530914E-07  0.00000E+00  9.000E+00
#rwgt            1           9   4.3919142522891601E-004           2     1849279           0
</event>
<event>
      6   9999  3.45752E-01  1.29733E+01 -1.00000E+00  1.76022E-01
      21    -1     0     0   512   502  0.000000000E+00  0.000000000E+00  1.009089009E+02  1.009089009E+02  0.000000000E+00  0.00000E+00  9.000E+00
      21    -1     0     0   502   503  0.000000000E+00  0.000000000E+00 -3.907016180E+02  3.907016180E+02  0.000000000E+00  0.00000E+00  9.000E+00
      25     1     1     2     0     0 -1.437077539E+02  1.882896275E+01 -1.959527141E+02  2.739067826E+02  1.249840432E+02  0.00000E+00  9.000E+00
       5     1     1     2   501     0 -2.764322766E+00  2.615650638E+00  2.618316120E+01  2.688128604E+01  4.750000000E+00  0.00000E+00  9.000E+00
      -5     1     1     2     0   503  1.335391904E+02 -2.042157933E+01 -1.121957742E+02  1.756707446E+02  4.750000000E+00  0.00000E+00  9.000E+00
      21     1     1     2   512   501  1.293288634E+01 -1.023034061E+00 -7.827390123E+00  1.515170564E+01  0.000000000E+00  0.00000E+00  9.000E+00
#rwgt            1           9   3.4091576341408011E-002           2     1852304           0
</event>
<event>
      6   9999  3.45752E-01  1.26074E+01 -1.00000E+00  1.77182E-01
      21    -1     0     0   501   502  0.000000000E+00  0.000000000E+00  7.360694609E+02  7.360694609E+02  0.000000000E+00  0.00000E+00  9.000E+00
      21    -1     0     0   511   503  0.000000000E+00  0.000000000E+00 -1.604391281E+02  1.604391281E+02  0.000000000E+00  0.00000E+00  9.000E+00
      25     1     1     2     0     0  9.091641270E+00  6.100615345E+00  5.310484008E+01  1.362547608E+02  1.250014414E+02  0.00000E+00  9.000E+00
       5     1     1     2   501     0  1.518015172E-01 -7.636628783E+00  6.393423773E+02  6.394056452E+02  4.750000000E+00  0.00000E+00  9.000E+00
      -5     1     1     2     0   503  2.592843661E+00 -2.805450706E+00 -3.914903141E+00  7.244470893E+00  4.750000000E+00  0.00000E+00  9.000E+00
      21     1     1     2   511   502 -1.183628645E+01  4.341464145E+00 -1.129019814E+02  1.136037121E+02  0.000000000E+00  0.00000E+00  9.000E+00
#rwgt            1           9   520.21076537976603                2     1855338           0
</event>
<event>
      6   9999  3.45752E-01  4.82128E+01 -1.00000E+00  1.35639E-01
      21    -1     0     0   502   512  0.000000000E+00  0.000000000E+00  2.042099510E+01  2.042099510E+01  0.000000000E+00  0.00000E+00  9.000E+00
      21    -1     0     0   501   502  0.000000000E+00  0.000000000E+00 -9.170028716E+02  9.170028716E+02  0.000000000E+00  0.00000E+00  9.000E+00
      25     1     1     2     0     0  5.815026025E+01 -1.959204037E+01 -5.418529438E+02  5.594697307E+02  1.250458561E+02  0.00000E+00  9.000E+00
       5     1     1     2   501     0 -4.067174081E+00  8.676248727E+00 -1.651861340E+02  1.655319926E+02  4.750000000E+00  0.00000E+00  9.000E+00
      -5     1     1     2     0   503 -1.153183227E+01 -1.175278665E+01 -1.473828297E+02  1.483757802E+02  4.750000000E+00  0.00000E+00  9.000E+00
      21     1     1     2   503   512 -4.255125390E+01  2.266857830E+01 -4.215996891E+01  6.404636312E+01  1.581489940E-06  0.00000E+00  9.000E+00
#rwgt            1           9  0.11130270954987299                2     1858710           0
</event>
<event>
      6   9999  3.45752E-01  3.50587E+00 -1.00000E+00  2.60331E-01
      21    -1     0     0   501   502  0.000000000E+00  0.000000000E+00  4.619819642E+03  4.619819642E+03  0.000000000E+00  0.00000E+00  9.000E+00
      21    -1     0     0   502   511  0.000000000E+00  0.000000000E+00 -1.042832357E+01  1.042832357E+01  0.000000000E+00  0.00000E+00  9.000E+00
      25     1     1     2     0     0 -2.367629648E+00  3.767530951E+00  3.094220281E+03  3.096747310E+03  1.249998287E+02  0.00000E+00  9.000E+00
       5     1     1     2   501     0  4.710936681E-01 -1.780404005E+00  1.466910714E+03  1.466919560E+03  4.750000000E+00  0.00000E+00  9.000E+00
      -5     1     1     2     0   503  4.171247175E+00 -4.654863746E+00  5.680513219E+01  5.734503120E+01  4.750000000E+00  0.00000E+00  9.000E+00
      21     1     1     2   503   511 -2.274711196E+00  2.667736799E+00 -8.544808208E+00  9.236063986E+00  2.139134222E-06  0.00000E+00  9.000E+00
#rwgt            1           9   1.4844681579769229E-002           2     1859266           0
</event>
<event>
      6   9999  3.45752E-01  3.24914E+01 -1.00000E+00  1.45631E-01
      21    -1     0     0   501   512  0.000000000E+00  0.000000000E+00  6.079292004E+02  6.079292004E+02  0.000000000E+00  0.00000E+00  9.000E+00
      21    -1     0     0   502   503  0.000000000E+00  0.000000000E+00 -1.103002903E+03  1.103002903E+03  0.000000000E+00  0.00000E+00  9.000E+00
      25     1     1     2     0     0  6.409262315E+01  6.193270802E+01 -4.527373801E+02  4.780571464E+02  1.249959008E+02  0.00000E+00  9.000E+00
       5     1     1     2   501     0 -1.138950599E+02 -4.065900022E+01 -3.634168659E+02  3.830399716E+02  4.750000000E+00  0.00000E+00  9.000E+00
      -5     1     1     2     0   503  7.560417115E+01 -1.526277242E+00 -2.584841534E+02  2.693602425E+02  4.750000000E+00  0.00000E+00  9.000E+00
      21     1     1     2   502   512 -2.580173436E+01 -1.974743056E+01  5.795646963E+02  5.804747434E+02  1.321449896E-05  0.00000E+00  9.000E+00
#rwgt            1           9   5.4519391966567187E-004           2     1864562           0
</event>
<event>
      6   9999 -3.45752E-01  2.50988E+01 -1.00000E+00  1.53030E-01
      21    -1     0     0   501   502  0.000000000E+00  0.000000000E+00  8.842938695E+01  8.842938695E+01  0.000000000E+00  0.00000E+00  9.000E+00
      21    -1     0     0   502   511  0.000000000E+00  0.000000000E+00 -1.626799253E+03  1.626799253E+03  0.000000000E+00  0.00000E+00  9.000E+00
      25     1     1     2     0     0  6.163136247E+00  3.015456880E+01 -4.503856537E+02  4.684227704E+02  1.250014897E+02  0.00000E+00  9.000E+00
       5     1     1     2   501     0  1.012673162E-01  5.165341587E+00  5.861720399E+01  5.903583753E+01  4.750000000E+00  0.00000E+00  9.000E+00
      -5     1     1     2     0   503  4.979376848E+00 -1.288055023E+01  1.784180455E+01  2.305634962E+01  4.750000000E+00  0.00000E+00  9.000E+00
      21     1     1     2   503   511 -1.124378041E+01 -2.243936015E+01 -1.164443221E+03  1.164713683E+03  1.525878906E-05  0.00000E+00  9.000E+00
#rwgt            1           9  -4.9024287140597790E-002           2     1866377           0
</event>
<event>
      6   9999  3.45752E-01  3.76982E+01 -1.00000E+00  1.41695E-01
      21    -1     0     0   501   512  0.000000000E+00  0.000000000E+00  1.527832421E+02  1.527832421E+02  0.000000000E+00  0.00000E+00  9.000E+00
      21    -1     0     0   502   503  0.000000000E+00  0.000000000E+00 -1.548287332E+03  1.548287332E+03  0.000000000E+00  0.00000E+00  9.000E+00
      25     1     1     2     0     0 -2.260389708E+01  1.389859816E+02 -5.474148265E+02  5.788923369E+02  1.250012249E+02  0.00000E+00  9.000E+00
       5     1     1     2   501     0  3.620447332E+00  4.813269495E+00  5.822649828E+01  5.872957350E+01  4.750000000E+00  0.00000E+00  9.000E+00
      -5     1     1     2     0   503  4.627820205E+01 -1.177963527E+02 -9.760202139E+02  9.842030650E+02  4.750000000E+00  0.00000E+00  9.000E+00
      21     1     1     2   502   512 -2.729475231E+01 -2.600289841E+01  6.970445227E+01  7.924559859E+01  1.907348633E-06  0.00000E+00  9.000E+00
#rwgt            1           9   4.3526521454267105E-005           2     1868413           0
</event>
<event>
      6   9999  3.45752E-01  1.03883E+01 -1.00000E+00  1.85468E-01
      21    -1     0     0   501   502  0.000000000E+00  0.000000000E+00  1.234000157E+02  1.234000157E+02  0.000000000E+00  0.00000E+00  9.000E+00
      21    -1     0     0   511   503  0.000000000E+00  0.000000000E+00 -1.798620623E+02  1.798620623E+02  0.000000000E+00  0.00000E+00  9.000E+00
      25     1     1     2     0     0  4.179217891E+01  8.630345040E+00 -3.099496381E+01  1.356731271E+02  1.250017623E+02  0.00000E+00  9.000E+00
       5     1     1     2   501     0  1.416276674E+00  9.596827272E-01  6.518234812E+01  6.537757901E+01  4.750000000E+00  0.00000E+00  9.000E+00
      -5     1     1     2     0   503 -3.350768148E+01 -1.330638460E+01 -6.401476262E+01  7.362252999E+01  4.750000000E+00  0.00000E+00  9.000E+00
      21     1     1     2   511   502 -9.700774104E+00  3.716356836E+00 -2.663466830E+01  2.858884191E+01  3.371747881E-07  0.00000E+00  9.000E+00
#rwgt            1           9   3.1584035080735422E-003           2     1870463           0
</event>
<event>
      6   9999 -3.45752E-01  4.76686E+01 -1.00000E+00  1.35907E-01
      21    -1     0     0   501   502  0.000000000E+00  0.000000000E+00  1.724684307E+01  1.724684307E+01  0.000000000E+00  0.00000E+00  9.000E+00
      21    -1     0     0   502   512  0.000000000E+00  0.000000000E+00 -1.528307469E+03  1.528307469E+03  0.000000000E+00  0.00000E+00  9.000E+00
      25     1     1     2     0     0 -7.765452287E+01  1.165206957E+01 -3.332616098E+02  3.644898556E+02  1.249942344E+02  0.00000E+00  9.000E+00
       5     1     1     2   501     0  2.382554444E+00 -8.005382496E+00 -9.409303715E+01  9.458237074E+01  4.750000000E+00  0.00000E+00  9.000E+00
      -5     1     1     2     0   503  2.864707969E+01  6.273775381E+00 -4.585599616E+02  4.595212904E+02  4.750000000E+00  0.00000E+00  9.000E+00
      21     1     1     2   503   512  4.662488873E+01 -9.920462451E+00 -6.251460173E+02  6.269607953E+02  7.629394531E-06  0.00000E+00  9.000E+00
#rwgt            1           9  -1.1657845382899036E-004           2     1874110           0
</event>
<event>
      6   9999  3.45752E-01  3.63815E+00 -1.00000E+00  2.56693E-01
      21    -1     0     0   511   502  0.000000000E+00  0.000000000E+00  2.294321416E+01  2.294321416E+01  0.000000000E+00  0.00000E+00  9.000E+00
      21    -1     0     0   502   503  0.000000000E+00  0.000000000E+00 -9.449128716E+02  9.449128716E+02  0.000000000E+00  0.00000E+00  9.000E+00
      25     1     1     2     0     0 -3.975580699E+01 -1.284896412E-02 -6.880400878E+02  7.004320820E+02  1.250016592E+02  0.00000E+00  9.000E+00
       5     1     1     2   501     0 -3.171538907E-01 -2.921744644E+00  8.638584019E+00  1.028711875E+01  4.750000000E+00  0.00000E+00  9.000E+00
      -5     1     1     2     0   503  4.181623059E+01 -2.586999231E-01 -2.474751884E+02  2.510282762E+02  4.750000000E+00  0.00000E+00  9.000E+00
      21     1     1     2   511   501 -1.743269704E+00  3.193293532E+00  4.907034669E+00  6.108608850E+00  3.209808354E-07  0.00000E+00  9.000E+00
#rwgt            1           9   4.6643873619939264E-004           2     1874821           0
</event>
<event>
      6   9999  3.45752E-01  5.57920E+00 -1.00000E+00  2.18553E-01
      21    -1     0     0   501   512  0.000000000E+00  0.000000000E+00  1.112476414E+01  1.112476414E+01  0.000000000E+00  0.00000E+00  9.000E+00
      21    -1     0     0   502   503  0.000000000E+00  0.000000000E+00 -8.183956058E+02  8.183956058E+02  0.000000000E+00  0.00000E+00  9.000E+00
      25     1     1     2     0     0 -3.529044447E+01 -7.081451024E+00 -5.164802570E+02  5.326093716E+02  1.250012974E+02  0.00000E+00  9.000E+00
       5     1     1     2   501     0  2.119006362E+00 -1.262969765E+01 -5.869248194E+01  6.026084456E+01  4.750000000E+00  0.00000E+00  9.000E+00
      -5     1     1     2     0   503  3.609503149E+01  1.495929467E+01 -2.172868978E+02  2.208229840E+02  4.750000000E+00  0.00000E+00  9.000E+00
      21     1     1     2   502   512 -2.923593383E+00  4.751854014E+00 -1.481120492E+01  1.582716987E+01  0.000000000E+00  0.00000E+00  9.000E+00
#rwgt            1           9   1.3810623509945102E-005           2     1880666           0
</event>
<event>
      6   9999  3.45752E-01  4.49373E+00 -1.00000E+00  2.37832E-01
      21    -1     0     0   511   502  0.000000000E+00  0.000000000E+00  4.501645989E+00  4.501645989E+00  0.000000000E+00  0.00000E+00  9.000E+00
      21    -1     0     0   502   503  0.000000000E+00  0.000000000E+00 -1.730609303E+03  1.730609303E+03  0.000000000E+00  0.00000E+00  9.000E+00
      25     1     1     2     0     0 -3.064576037E+00  2.651223066E+00 -1.664428277E+03  1.669119701E+03  1.249906732E+02  0.00000E+00  9.000E+00
       5     1     1     2   501     0  4.473409793E-01 -5.898551352E-01 -2.754182753E+00  5.540403024E+00  4.750000000E+00  0.00000E+00  9.000E+00
      -5     1     1     2     0   503 -1.372362953E+00  6.662619683E-03 -5.174293605E+01  5.197862402E+01  4.750000000E+00  0.00000E+00  9.000E+00
      21     1     1     2   511   501  3.989598011E+00 -2.068030551E+00 -7.182261672E+00  8.472220805E+00  4.460403188E-07  0.00000E+00  9.000E+00
#rwgt            1           9   1.0551069843314236E-002           2     1884467           0
</event>
<event>
      6   9999 -3.45752E-01  3.82684E+00 -1.00000E+00  2.51896E-01
       2    -1     0     0   501     0  0.000000000E+00  0.000000000E+00  8.010818441E+02  8.010818441E+02  0.000000000E+00  0.00000E+00  9.000E+00
      21    -1     0     0   502   503  0.000000000E+00  0.000000000E+00 -9.198038019E+02  9.198038019E+02  0.000000000E+00  0.00000E+00  9.000E+00
      25     1     1     2     0     0  3.286145298E+00 -3.934532617E+00 -6.151721368E+02  6.277650013E+02  1.250034386E+02  0.00000E+00  9.000E+00
       5     1     1     2   501     0  3.226841367E+00 -1.123026916E+00  8.883701875E+00  1.063749753E+01  4.750000000E+00  0.00000E+00  9.000E+00
      -5     1     1     2     0   503 -8.544066573E+00  1.814194209E+00 -2.973705865E+02  2.975367550E+02  4.750000000E+00  0.00000E+00  9.000E+00
       2     1     1     2   502     0  2.031079909E+00  3.243365323E+00  7.849370636E+02  7.849463921E+02  1.078959322E-05  0.00000E+00  9.000E+00
#rwgt            1           9  -2.6195184193322535E-004           2     1888154           0
</event>
<event>
      6   9999  3.45752E-01  2.97552E+01 -1.00000E+00  1.48069E-01
      21    -1     0     0   501   502  0.000000000E+00  0.000000000E+00  1.679319573E+02  1.679319573E+02  0.000000000E+00  0.00000E+00  9.000E+00
      21    -1     0     0   511   503  0.000000000E+00  0.000000000E+00 -6.813153382E+02  6.813153382E+02  0.000000000E+00  0.00000E+00  9.000E+00
      25     1     1     2     0     0  1.155899159E+02  3.652411392E+01 -1.323280887E+02  2.187003300E+02  1.249962868E+02  0.00000E+00  9.000E+00
       5     1     1     2   501     0 -9.548506797E-01 -1.558112948E+00  1.169561308E+02  1.170668120E+02  4.750000000E+00  0.00000E+00  9.000E+00
      -5     1     1     2     0   503 -8.563257939E+01 -4.161630330E+01 -3.810010135E+02  3.927457067E+02  4.750000000E+00  0.00000E+00  9.000E+00
      21     1     1     2   511   502 -2.900248586E+01  6.650302331E+00 -1.170104094E+02  1.207344467E+02  1.907348633E-06  0.00000E+00  9.000E+00
#rwgt            1           9   6.7425841514474882                2     1893135           0
</event>
<event>
      6   9999  3.45752E-01  1.19381E+01 -1.00000E+00  1.79438E-01
      21    -1     0     0   501   502  0.000000000E+00  0.000000000E+00  1.242631860E+01  1.242631860E+01  0.000000000E+00  0.00000E+00  9.000E+00
      21    -1     0     0   512   503  0.000000000E+00  0.000000000E+00 -1.050229700E+03  1.050229700E+03  0.000000000E+00  0.00000E+00  9.000E+00
      25     1     1     2     0     0  3.141662122E-01 -9.303545787E+00 -6.974332063E+02  7.086074732E+02  1.249992770E+02  0.00000E+00  9.000E+00
       5     1     1     2   501     0 -4.671401173E-01 -6.599712104E-01  5.588187355E+00  7.378625875E+00  4.750000000E+00  0.00000E+00  9.000E+00
      -5     1     1     2     0   503  1.618194841E+00 -1.884285791E+00 -2.927833197E+01  2.976495104E+01  4.750000000E+00  0.00000E+00  9.000E+00
      21     1     1     2   512   502 -1.465220936E+00  1.184780279E+01 -3.166800305E+02  3.169049685E+02  0.000000000E+00  0.00000E+00  9.000E+00
#rwgt            1           9   3.7250097520630061E-003           2     1895358           0
</event>
<event>
      6   9999  3.45752E-01  4.47822E+01 -1.00000E+00  1.37399E-01
      21    -1     0     0   501   502  0.000000000E+00  0.000000000E+00  2.318702444E+02  2.318702444E+02  0.000000000E+00  0.00000E+00  9.000E+00
      21    -1     0     0   502   511  0.000000000E+00  0.000000000E+00 -5.597204311E+02  5.597204311E+02  0.000000000E+00  0.00000E+00  9.000E+00
      25     1     1     2     0     0  4.843283957E+01  9.618229277E+01 -4.071148444E+02  4.392769646E+02  1.249999268E+02  0.00000E+00  9.000E+00
       5     1     1     2   501     0  9.350068402E+00  9.477330557E+00  1.416671269E+02  1.423705760E+02  4.750000000E+00  0.00000E+00  9.000E+00
      -5     1     1     2     0   503 -1.372587311E+01 -9.763298919E+01  3.338823922E+01  1.042014260E+02  4.750000000E+00  0.00000E+00  9.000E+00
      21     1     1     2   503   511 -4.405703487E+01 -8.026634138E+00 -9.579070838E+01  1.057417088E+02  1.907348633E-06  0.00000E+00  9.000E+00
#rwgt            1           9   5.7656768721416930E-003           2     1897303           0
</event>
<event>
      6   9999  3.45752E-01  7.47317E+01 -1.00000E+00  1.26067E-01
      21    -1     0     0   501   502  0.000000000E+00  0.000000000E+00  8.252140469E+01  8.252140469E+01  0.000000000E+00  0.00000E+00  9.000E+00
      21    -1     0     0   512   503  0.000000000E+00  0.000000000E+00 -1.921937583E+03  1.921937583E+03  0.000000000E+00  0.00000E+00  9.000E+00
      25     1     1     2     0     0  7.525688844E+01  2.769000899E+02 -8.817283366E+02  9.356319524E+02  1.250001270E+02  0.00000E+00  9.000E+00
       5     1     1     2   501     0 -7.700381949E+01 -1.161006702E+02 -5.668368524E+01  1.504810836E+02  4.750000000E+00  0.00000E+00  9.000E+00
      -5     1     1     2     0   503 -3.593949017E+01 -9.626602508E+01 -5.298994506E+02  5.397914271E+02  4.750000000E+00  0.00000E+00  9.000E+00
      21     1     1     2   512   502  3.768642122E+01 -6.453339462E+01 -3.711047055E+02  3.785545242E+02  5.394796609E-06  0.00000E+00  9.000E+00
#rwgt            1           9   3.8470082459273369E-003           2     1899919           0
</event>
<event>
      6   9999  3.45752E-01  4.51787E+00 -1.00000E+00  2.37392E-01
      21    -1     0     0   501   502  0.000000000E+00  0.000000000E+00  5.898911038E+01  5.898911038E+01  0.000000000E+00  0.00000E+00  9.000E+00
      21    -1     0     0   502   511  0.000000000E+00  0.000000000E+00 -3.616796221E+02  3.616796221E+02  0.000000000E+00  0.00000E+00  9.000E+00
      25     1     1     2     0     0  1.490120499E+01 -2.167865135E+01 -2.986631562E+02  3.248367549E+02  1.250089061E+02  0.00000E+00  9.000E+00
       5     1     1     2   501     0  2.329049907E+00 -1.668311620E+00  3.534003644E+01  3.577273281E+01  4.750000000E+00  0.00000E+00  9.000E+00
      -5     1     1     2     0   503 -1.367828980E+01  2.055507325E+01 -5.302444979E+00  2.569601274E+01  4.750000000E+00  0.00000E+00  9.000E+00
      21     1     1     2   503   511 -3.551965093E+00  2.791889723E+00 -3.406494697E+01  3.436323204E+01  4.768371582E-07  0.00000E+00  9.000E+00
#rwgt            1           9   9.6788035191014643E-002           2     1901187           0
</event>
<event>
      6   9999 -3.45752E-01  1.16151E+01 -1.00000E+00  1.80595E-01
      21    -1     0     0   501   502  0.000000000E+00  0.000000000E+00  5.932418435E+01  5.932418435E+01  0.000000000E+00  0.00000E+00  9.000E+00
      21    -1     0     0   512   503  0.000000000E+00  0.000000000E+00 -6.401211784E+02  6.401211784E+02  0.000000000E+00  0.00000E+00  9.000E+00
      25     1     1     2     0     0  4.890556592E+01  1.387764187E+00 -1.824427555E+02  2.265029901E+02  1.249982609E+02  0.00000E+00  9.000E+00
       5     1     1     2   501     0  2.001159060E-01 -1.110956221E-01  9.815719937E+00  1.090702739E+01  4.750000000E+00  0.00000E+00  9.000E+00
      -5     1     1     2     0   503 -3.812187100E+01  2.500327994E+00  1.305426273E+01  4.065101431E+01  4.750000000E+00  0.00000E+00  9.000E+00
      21     1     1     2   512   502 -1.098381082E+01 -3.776996559E+00 -4.212242213E+02  4.213843310E+02  5.394796609E-06  0.00000E+00  9.000E+00
#rwgt            1           9 -0.54330879995301495                2     1905993           0
</event>
<event>
      6   9999  3.45752E-01  1.94326E+01 -1.00000E+00  1.61170E-01
      21    -1     0     0   501   511  0.000000000E+00  0.000000000E+00  6.402340721E+01  6.402340721E+01  0.000000000E+00  0.00000E+00  9.000E+00
      21    -1     0     0   502   503  0.000000000E+00  0.000000000E+00 -1.365581556E+03  1.365581556E+03  0.000000000E+00  0.00000E+00  9.000E+00
      25     1     1     2     0     0  1.340940449E+01  1.087533314E+01 -2.493177232E+02  2.794316562E+02  1.249985535E+02  0.00000E+00  9.000E+00
       5     1     1     2   501     0 -7.063753029E-02 -3.593699881E+00  3.765695984E+01  3.812517269E+01  4.750000000E+00  0.00000E+00  9.000E+00
      -5     1     1     2     0   503 -2.681107423E+01  6.722743728E+00 -1.092127891E+03  1.092487951E+03  4.750000000E+00  0.00000E+00  9.000E+00
      21     1     1     2   502   511  1.347230727E+01 -1.400437698E+01  2.230505632E+00  1.956018388E+01  7.096458018E-07  0.00000E+00  9.000E+00
#rwgt            1           9   1.0466242168153360E-003           2     1908153           0
</event>
<event>
      6   9999  3.45752E-01  2.93485E+00 -1.00000E+00  2.79430E-01
       2    -1     0     0   501     0  0.000000000E+00  0.000000000E+00  1.003647802E+03  1.003647802E+03  0.000000000E+00  0.00000E+00  9.000E+00
      21    -1     0     0   502   503  0.000000000E+00  0.000000000E+00 -1.277715485E+03  1.277715485E+03  0.000000000E+00  0.00000E+00  9.000E+00
      25     1     1     2     0     0 -5.630993587E+00 -1.904171380E+00 -1.233006986E+03  1.239341161E+03  1.249998106E+02  0.00000E+00  9.000E+00
       5     1     1     2   501     0 -2.525671532E-01  1.104316032E+00  3.753012031E+01  3.784647585E+01  4.750000000E+00  0.00000E+00  9.000E+00
      -5     1     1     2     0   503  5.057544469E+00  3.616063025E+00 -4.101115782E+01  4.175083513E+01  4.750000000E+00  0.00000E+00  9.000E+00
       2     1     1     2   502     0  8.260162708E-01 -2.816207676E+00  9.624203402E+02  9.624248151E+02  1.078959322E-05  0.00000E+00  9.000E+00
#rwgt            1           9   5.6706894411308311E-003           2     1911110           0
</event>
<event>
      6   9999  3.45752E-01  2.72119E+01 -1.00000E+00  1.50632E-01
      21    -1     0     0   511   502  0.000000000E+00  0.000000000E+00  5.415224897E+01  5.415224897E+01  0.000000000E+00  0.00000E+00  9.000E+00
      21    -1     0     0   502   503  0.000000000E+00  0.000000000E+00 -1.982766521E+03  1.982766521E+03  0.000000000E+00  0.00000E+00  9.000E+00
      25     1     1     2     0     0 -6.099138427E+01 -6.281812830E+01 -3.020194715E+02  3.383884457E+02  1.249996513E+02  0.00000E+00  9.000E+00
       5     1     1     2   501     0  7.482561359E-01 -2.188268742E+00  3.034172816E+01  3.079823656E+01  4.750000000E+00  0.00000E+00  9.000E+00
      -5     1     1     2     0   503  3.428401516E+01  7.316785319E+01 -1.619124055E+03  1.621145952E+03  4.750000000E+00  0.00000E+00  9.000E+00
      21     1     1     2   511   501  2.595911298E+01 -8.161456141E+00 -3.781247383E+01  4.658613625E+01  4.768371582E-07  0.00000E+00  9.000E+00
#rwgt            1           9   2.4097080736610598E-004           2     1919273           0
</event>
<event>
      6   9999  3.45752E-01  2.33390E+01 -1.00000E+00  1.55255E-01
      21    -1     0     0   501   502  0.000000000E+00  0.000000000E+00  6.027282231E+01  6.027282231E+01  0.000000000E+00  0.00000E+00  9.000E+00
      21    -1     0     0   512   503  0.000000000E+00  0.000000000E+00 -2.130239681E+02  2.130239681E+02  0.000000000E+00  0.00000E+00  9.000E+00
      25     1     1     2     0     0  5.940139009E+00 -1.520716872E+01 -1.373793490E+02  1.864524829E+02  1.249995985E+02  0.00000E+00  9.000E+00
       5     1     1     2   501     0 -1.486885201E+00 -7.276179964E+00  3.057442582E+01  3.181998800E+01  4.750000000E+00  0.00000E+00  9.000E+00
      -5     1     1     2     0   503 -8.443054397E-01 -5.749351009E-01 -1.978243197E+00  5.245888694E+00  4.750000000E+00  0.00000E+00  9.000E+00
      21     1     1     2   512   502 -3.608948369E+00  2.305828378E+01 -4.396797938E+01  4.977843077E+01  4.768371582E-07  0.00000E+00  9.000E+00
#rwgt            1           9  0.53760830872286247                2     1921716           0
</event>
<event>
      6   9999  3.45752E-01  1.23882E+01 -1.00000E+00  1.77901E-01
      21    -1     0     0   502   503  0.000000000E+00  0.000000000E+00  2.549638538E+00  2.549638538E+00  0.000000000E+00  0.00000E+00  9.000E+00
      21    -1     0     0   501   511  0.000000000E+00  0.000000000E+00 -4.600139348E+03  4.600139348E+03  0.000000000E+00  0.00000E+00  9.000E+00
      25     1     1     2     0     0 -5.110354364E+01 -2.769619877E+01 -2.252096659E+03  2.256310771E+03  1.249811181E+02  0.00000E+00  9.000E+00
       5     1     1     2   501     0  5.630301815E+00 -3.517589963E+00 -2.564744948E+02  2.566043700E+02  4.750000000E+00  0.00000E+00  9.000E+00
      -5     1     1     2     0   503  3.478022511E+01  2.495868418E+01 -1.467954220E+03  1.468585971E+03  4.750000000E+00  0.00000E+00  9.000E+00
      21     1     1     2   502   511  1.069301671E+01  6.255104548E+00 -6.210643351E+02  6.211878744E+02  0.000000000E+00  0.00000E+00  9.000E+00
#rwgt            1           9  0.41953061510905049                2     1922992           0
</event>
<event>
      6   9999  3.45752E-01  9.56142E+00 -1.00000E+00  1.89269E-01
      -3    -1     0     0     0   502  0.000000000E+00  0.000000000E+00  1.657818046E+01  1.657818046E+01  0.000000000E+00  0.00000E+00  9.000E+00
      21    -1     0     0   502   503  0.000000000E+00  0.000000000E+00 -7.495113878E+02  7.495113878E+02  0.000000000E+00  0.00000E+00  9.000E+00
      25     1     1     2     0     0 -8.382749363E+00 -3.478007727E+00 -6.431242597E+02  6.552220366E+02  1.249989472E+02  0.00000E+00  9.000E+00
       5     1     1     2   501     0  4.205883371E+00  3.840637832E+00 -3.050492137E+01  3.139351337E+01  4.750000000E+00  0.00000E+00  9.000E+00
      -5     1     1     2     0   503 -4.262029591E+00 -4.857723497E+00 -6.682779384E+01  6.730734658E+01  4.750000000E+00  0.00000E+00  9.000E+00
      -3     1     1     2     0   501  8.438895583E+00  4.495093392E+00  7.523767554E+00  1.216667175E+01  5.397430145E-07  0.00000E+00  9.000E+00
#rwgt            1           9   33.910233112453341                2     1924990           0
</event>
<event>
      6   9999  3.45752E-01  1.40128E+01 -1.00000E+00  1.72974E-01
      21    -1     0     0   501   511  0.000000000E+00  0.000000000E+00  5.162681995E+02  5.162681995E+02  0.000000000E+00  0.00000E+00  9.000E+00
      21    -1     0     0   502   503  0.000000000E+00  0.000000000E+00 -1.251576966E+03  1.251576966E+03  0.000000000E+00  0.00000E+00  9.000E+00
      25     1     1     2     0     0 -7.706413758E+01  5.508586327E+01 -1.563946331E+02  2.214902371E+02  1.250012408E+02  0.00000E+00  9.000E+00
       5     1     1     2   501     0 -2.099523985E+01 -6.033514766E+01 -1.877280332E+02  1.983570192E+02  4.750000000E+00  0.00000E+00  9.000E+00
      -5     1     1     2     0   503  1.119235721E+02  3.213657613E+00 -8.658773590E+02  8.730998666E+02  4.750000000E+00  0.00000E+00  9.000E+00
      21     1     1     2   502   511 -1.386419467E+01  2.035626780E+00  4.746912589E+02  4.748980427E+02  1.206313194E-05  0.00000E+00  9.000E+00
#rwgt            1           9   7.6405056922777418E-003           2     1926946           0
</event>
<event>
      6   9999  3.45752E-01  3.04441E+00 -1.00000E+00  2.75253E-01
      21    -1     0     0   501   502  0.000000000E+00  0.000000000E+00  2.172238638E+02  2.172238638E+02  0.000000000E+00  0.00000E+00  9.000E+00
      21    -1     0     0   502   512  0.000000000E+00  0.000000000E+00 -5.169045697E+01  5.169045697E+01  0.000000000E+00  0.00000E+00  9.000E+00
      25     1     1     2     0     0 -1.101569850E+01 -8.091954496E+00  1.084253703E+02  1.660390057E+02  1.250042606E+02  0.00000E+00  9.000E+00
       5     1     1     2   501     0  6.207733308E-01 -7.427935772E-03  4.180810784E+01  4.208165628E+01  4.750000000E+00  0.00000E+00  9.000E+00
      -5     1     1     2     0   503  9.548485331E+00  5.175009159E+00  3.701470688E+01  3.886650637E+01  4.750000000E+00  0.00000E+00  9.000E+00
      21     1     1     2   503   512  8.464398403E-01  2.924373272E+00 -2.171477819E+01  2.192715238E+01  5.331201500E-07  0.00000E+00  9.000E+00
#rwgt            1           9   3.5309031634301582E-004           2     1930387           0
</event>
<event>
      6   9999  3.45752E-01  9.31015E+00 -1.00000E+00  1.90524E-01
      21    -1     0     0   501   502  0.000000000E+00  0.000000000E+00  4.110191773E+00  4.110191773E+00  0.000000000E+00  0.00000E+00  9.000E+00
      21    -1     0     0   511   503  0.000000000E+00  0.000000000E+00 -3.290627654E+03  3.290627654E+03  0.000000000E+00  0.00000E+00  9.000E+00
      25     1     1     2     0     0  2.406332977E+01  4.289991779E+01 -2.033146928E+03  2.037579141E+03  1.249915009E+02  0.00000E+00  9.000E+00
       5     1     1     2   501     0 -6.846749390E-01  9.850760500E-01 -3.113014563E+00  5.804525327E+00  4.750000000E+00  0.00000E+00  9.000E+00
      -5     1     1     2     0   503 -1.486972019E+01 -4.010652128E+01 -1.011158329E+03  1.012073797E+03  4.750000000E+00  0.00000E+00  9.000E+00
      21     1     1     2   511   502 -8.508934639E+00 -3.778472563E+00 -2.390991902E+02  2.392803828E+02  2.697398305E-06  0.00000E+00  9.000E+00
#rwgt            1           9   8.8962565550364183E-004           2     1936533           0
</event>
<event>
      6   9999  3.45752E-01  1.26757E+01 -1.00000E+00  1.76962E-01
      21    -1     0     0   512   502  0.000000000E+00  0.000000000E+00  3.863765308E+01  3.863765308E+01  0.000000000E+00  0.00000E+00  9.000E+00
      21    -1     0     0   502   503  0.000000000E+00  0.000000000E+00 -1.205329572E+03  1.205329572E+03  0.000000000E+00  0.00000E+00  9.000E+00
      25     1     1     2     0     0 -6.331102469E+01  1.270269788E+02 -5.188972396E+02  5.522905921E+02  1.250056542E+02  0.00000E+00  9.000E+00
       5     1     1     2   501     0  8.258170241E+01 -1.591500203E+02 -4.767105777E+02  5.093368276E+02  4.750000000E+00  0.00000E+00  9.000E+00
      -5     1     1     2     0   503 -2.519047336E+01  4.333152125E+01 -1.394955444E+02  1.483028998E+02  4.750000000E+00  0.00000E+00  9.000E+00
      21     1     1     2   512   501  5.919795645E+00 -1.120847981E+01 -3.158855712E+01  3.403690557E+01  3.371747881E-07  0.00000E+00  9.000E+00
#rwgt            1           9  0.10875288413714974                2     1939048           0
</event>
<event>
      6   9999  3.45752E-01  1.10352E+02 -1.00000E+00  1.18645E-01
      21    -1     0     0   511   503  0.000000000E+00  0.000000000E+00  7.305567486E+01  7.305567486E+01  0.000000000E+00  0.00000E+00  9.000E+00
      21    -1     0     0   501   502  0.000000000E+00  0.000000000E+00 -1.623727474E+03  1.623727474E+03  0.000000000E+00  0.00000E+00  9.000E+00
      25     1     1     2     0     0 -7.492300593E+01 -1.251659811E+02 -3.039959281E+02  3.596093791E+02  1.250016064E+02  0.00000E+00  9.000E+00
       5     1     1     2   501     0  1.111044312E+02 -1.157566749E+02 -8.545989829E+02  8.695434357E+02  4.750000000E+00  0.00000E+00  9.000E+00
      -5     1     1     2     0   503 -2.174386553E+01  1.315193837E+02 -1.449550473E+02  1.969890154E+02  4.750000000E+00  0.00000E+00  9.000E+00
      21     1     1     2   511   502 -1.443755975E+01  1.094032723E+02 -2.471218407E+02  2.706413185E+02  3.814697266E-06  0.00000E+00  9.000E+00
#rwgt            1           9   9.9494451050589176E-003           2     1942675           0
</event>
<event>
      6   9999  3.45752E-01  1.34399E+01 -1.00000E+00  1.74611E-01
      21    -1     0     0   501   502  0.000000000E+00  0.000000000E+00  8.818097085E+01  8.818097085E+01  0.000000000E+00  0.00000E+00  9.000E+00
      21    -1     0     0   512   503  0.000000000E+00  0.000000000E+00 -1.748797525E+02  1.748797525E+02  0.000000000E+00  0.00000E+00  9.000E+00
      25     1     1     2     0     0  1.038215180E+00 -1.171901192E+01 -1.229548244E+02  1.757292873E+02  1.249979217E+02  0.00000E+00  9.000E+00
       5     1     1     2   501     0 -1.175431110E+00 -7.722402952E-01  5.810159899E+01  5.831240261E+01  4.750000000E+00  0.00000E+00  9.000E+00
      -5     1     1     2     0   503  1.079037369E+00 -9.155689189E-01 -2.750322210E+00  5.668276664E+00  4.750000000E+00  0.00000E+00  9.000E+00
      21     1     1     2   512   502 -9.418214386E-01  1.340682113E+01 -1.909523399E+01  2.335075677E+01  3.371747881E-07  0.00000E+00  9.000E+00
#rwgt            1           9   2.1811780708042886E-005           2     1943503           0
</event>
<event>
      6   9999  3.45752E-01  1.36498E+01 -1.00000E+00  1.74000E-01
      21    -1     0     0   501   502  0.000000000E+00  0.000000000E+00  1.372411279E+01  1.372411279E+01  0.000000000E+00  0.00000E+00  9.000E+00
       2    -1     0     0   502     0  0.000000000E+00  0.000000000E+00 -1.697282169E+03  1.697282169E+03  0.000000000E+00  0.00000E+00  9.000E+00
      25     1     1     2     0     0 -6.614394985E+00 -1.643459646E+01 -7.880948802E+02  7.981402190E+02  1.249816898E+02  0.00000E+00  9.000E+00
       5     1     1     2   501     0  1.243082114E+00 -6.100005136E+00  6.391738986E+00  1.010802370E+01  4.750000000E+00  0.00000E+00  9.000E+00
      -5     1     1     2     0   503  4.368973793E+00  8.921695347E+00 -7.631566008E+01  7.710594693E+01  4.750000000E+00  0.00000E+00  9.000E+00
       2     1     1     2   503     0  1.002339078E+00  1.361290625E+01 -8.255392549E+02  8.256520922E+02  0.000000000E+00  0.00000E+00  9.000E+00
#rwgt            1           9   3.8500733210547504E-003           2     1945771           0
</event>
<event>
      6   9999  3.45752E-01  7.77327E+00 -1.00000E+00  1.99505E-01
      21    -1     0     0   501   511  0.000000000E+00  0.000000000E+00  1.472794325E+01  1.472794325E+01  0.000000000E+00  0.00000E+00  9.000E+00
      21    -1     0     0   502   503  0.000000000E+00  0.000000000E+00 -7.948867207E+02  7.948867207E+02  0.000000000E+00  0.00000E+00  9.000E+00
      25     1     1     2     0     0 -3.666711068E+01 -8.841943972E+00 -5.240371556E+02  5.400548615E+02  1.249866232E+02  0.00000E+00  9.000E+00
       5     1     1     2   501     0 -1.010845758E-01 -3.633636425E-01 -8.455411435E+00  9.705603215E+00  4.750000000E+00  0.00000E+00  9.000E+00
      -5     1     1     2     0   503  3.037753472E+01  4.780011893E+00 -2.498499047E+02  2.517800241E+02  4.750000000E+00  0.00000E+00  9.000E+00
      21     1     1     2   502   511  6.390660528E+00  4.425295721E+00  2.183694303E+00  8.074175191E+00  4.420398764E-07  0.00000E+00  9.000E+00
#rwgt            1           9   1.8088757436617497E-003           2     1947714           0
</event>
<event>
      6   9999  3.45752E-01  7.57910E+00 -1.00000E+00  2.00835E-01
      21    -1     0     0   501   512  0.000000000E+00  0.000000000E+00  7.316539086E+00  7.316539086E+00  0.000000000E+00  0.00000E+00  9.000E+00
      21    -1     0     0   502   503  0.000000000E+00  0.000000000E+00 -1.142140305E+03  1.142140305E+03  0.000000000E+00  0.00000E+00  9.000E+00
      25     1     1     2     0     0  1.653559870E+01 -7.815793780E+00 -1.044801024E+03  1.052410557E+03  1.249971474E+02  0.00000E+00  9.000E+00
       5     1     1     2   501     0  4.856626717E-01 -7.106348684E-02 -3.836065569E+00  6.125260590E+00  4.750000000E+00  0.00000E+00  9.000E+00
      -5     1     1     2     0   503 -1.442237139E+01  1.500644165E+01 -6.177372980E+01  6.535865881E+01  4.750000000E+00  0.00000E+00  9.000E+00
      21     1     1     2   502   512 -2.598889983E+00 -7.119584382E+00 -2.441294579E+01  2.556236752E+01  0.000000000E+00  0.00000E+00  9.000E+00
#rwgt            1           9   5.6157702639313972E-005           2     1950562           0
</event>
<event>
      6   9999 -3.45752E-01  1.67101E+01 -1.00000E+00  1.66406E-01
      21    -1     0     0   501   502  0.000000000E+00  0.000000000E+00  7.984452801E+00  7.984452801E+00  0.000000000E+00  0.00000E+00  9.000E+00
       1    -1     0     0   502     0  0.000000000E+00  0.000000000E+00 -2.472614156E+03  2.472614156E+03  0.000000000E+00  0.00000E+00  9.000E+00
      25     1     1     2     0     0  7.935338295E+00 -4.400061305E+00 -6.270997981E+02  6.395012923E+02  1.250016633E+02  0.00000E+00  9.000E+00
       5     1     1     2   501     0  2.113567365E+00 -6.491835573E-01 -2.818725843E+00  5.949480790E+00  4.750000000E+00  0.00000E+00  9.000E+00
      -5     1     1     2     0   503  6.434250694E+00  2.304855258E+00 -9.703170137E+01  9.738801523E+01  4.750000000E+00  0.00000E+00  9.000E+00
       1     1     1     2   503     0 -1.648315635E+01  2.744389605E+00 -1.737679478E+03  1.737759820E+03  3.051757812E-05  0.00000E+00  9.000E+00
#rwgt            1           9  -2.1907890194793135E-004           2     1953290           0
</event>
<event>
      6   9999  3.45752E-01  8.34987E+00 -1.00000E+00  1.95840E-01
      21    -1     0     0   502   503  0.000000000E+00  0.000000000E+00  7.063448406E+00  7.063448406E+00  0.000000000E+00  0.00000E+00  9.000E+00
      21    -1     0     0   511   502  0.000000000E+00  0.000000000E+00 -8.093658525E+02  8.093658525E+02  0.000000000E+00  0.00000E+00  9.000E+00
      25     1     1     2     0     0 -5.399623970E+00 -4.347047947E+00 -5.874209509E+02  6.006052281E+02  1.249608486E+02  0.00000E+00  9.000E+00
       5     1     1     2   501     0 -6.005056652E-01  3.925955542E-01 -9.116437818E+01  9.129085982E+01  4.750000000E+00  0.00000E+00  9.000E+00
      -5     1     1     2     0   503 -5.526056148E-01 -1.220678233E+00 -2.630915152E+01  2.676806646E+01  4.750000000E+00  0.00000E+00  9.000E+00
      21     1     1     2   511   501  6.552735250E+00  5.175130625E+00 -9.740792357E+01  9.776514661E+01  0.000000000E+00  0.00000E+00  9.000E+00
#rwgt            1           9  0.11660964231520086                2     1955168           0
</event>
<event>
      6   9999  3.45752E-01  2.23707E+01 -1.00000E+00  1.56584E-01
      21    -1     0     0   501   502  0.000000000E+00  0.000000000E+00  1.986783279E+02  1.986783279E+02  0.000000000E+00  0.00000E+00  9.000E+00
      21    -1     0     0   512   503  0.000000000E+00  0.000000000E+00 -1.461128043E+03  1.461128043E+03  0.000000000E+00  0.00000E+00  9.000E+00
      25     1     1     2     0     0  3.826004267E+01 -7.281379027E+00 -4.120857959E+02  4.323887317E+02  1.250138503E+02  0.00000E+00  9.000E+00
       5     1     1     2   501     0 -1.098847347E+00  8.893129973E+00  1.875807693E+02  1.878547384E+02  4.750000000E+00  0.00000E+00  9.000E+00
      -5     1     1     2     0   503 -2.096710265E+01 -1.704541325E+01 -2.928265920E+02  2.941090631E+02  4.750000000E+00  0.00000E+00  9.000E+00
      21     1     1     2   512   502 -1.619409267E+01  1.543366231E+01 -7.451180962E+02  7.454538375E+02  1.078959322E-05  0.00000E+00  9.000E+00
#rwgt            1           9   1.0077992280478308E-003           2     1957396           0
</event>
<event>
      6   9999  3.45752E-01  8.99357E+00 -1.00000E+00  1.92181E-01
      21    -1     0     0   511   502  0.000000000E+00  0.000000000E+00  2.493610051E+01  2.493610051E+01  0.000000000E+00  0.00000E+00  9.000E+00
      21    -1     0     0   502   503  0.000000000E+00  0.000000000E+00 -1.053997300E+03  1.053997300E+03  0.000000000E+00  0.00000E+00  9.000E+00
      25     1     1     2     0     0  4.395264723E+01  6.231802506E+00 -9.244821764E+02  9.339499841E+02  1.249984311E+02  0.00000E+00  9.000E+00
       5     1     1     2   501     0 -1.371950173E+00 -6.043761780E+00  1.431356702E+01  1.630490738E+01  4.750000000E+00  0.00000E+00  9.000E+00
      -5     1     1     2     0   503 -3.784196170E+01 -7.831902231E+00 -1.062845075E+02  1.131914829E+02  4.750000000E+00  0.00000E+00  9.000E+00
      21     1     1     2   511   501 -4.738735360E+00  7.643861505E+00 -1.260808245E+01  1.548702601E+01  3.371747881E-07  0.00000E+00  9.000E+00
#rwgt            1           9   9.4024152702127845E-005           2     1960558           0
</event>
<event>
      6   9999  3.45752E-01  8.30241E+00 -1.00000E+00  1.96126E-01
      21    -1     0     0   501   502  0.000000000E+00  0.000000000E+00  2.689298646E+01  2.689298646E+01  0.000000000E+00  0.00000E+00  9.000E+00
      21    -1     0     0   502   512  0.000000000E+00  0.000000000E+00 -2.852520473E+02  2.852520473E+02  0.000000000E+00  0.00000E+00  9.000E+00
      25     1     1     2     0     0 -1.286666079E+01 -1.599796402E+01 -2.331385287E+02  2.653293128E+02  1.249983394E+02  0.00000E+00  9.000E+00
       5     1     1     2   501     0 -1.216324660E-01 -1.714583365E-01  1.122663036E+00  4.885392995E+00  4.750000000E+00  0.00000E+00  9.000E+00
      -5     1     1     2     0   503  4.877623151E+00  1.439541286E+01 -1.805697427E+00  1.602629596E+01  4.750000000E+00  0.00000E+00  9.000E+00
      21     1     1     2   503   512  8.110670101E+00  1.774009490E+00 -2.453749770E+01  2.590403197E+01  3.371747881E-07  0.00000E+00  9.000E+00
#rwgt            1           9   8.4127233860420034                2     1964643           0
</event>
<event>
      6   9999  3.45752E-01  1.85975E+01 -1.00000E+00  1.62659E-01
      21    -1     0     0   501   502  0.000000000E+00  0.000000000E+00  1.688557661E+03  1.688557661E+03  0.000000000E+00  0.00000E+00  9.000E+00
      21    -1     0     0   511   503  0.000000000E+00  0.000000000E+00 -1.487896706E+01  1.487896706E+01  0.000000000E+00  0.00000E+00  9.000E+00
      25     1     1     2     0     0  6.452362750E+01  7.814088424E+01  7.630487832E+02  7.798307114E+02  1.249927866E+02  0.00000E+00  9.000E+00
       5     1     1     2   501     0 -7.508027431E-01  2.835660662E+00  5.051329035E+02  5.051637530E+02  4.750000000E+00  0.00000E+00  9.000E+00
      -5     1     1     2     0   503 -5.339226807E+01 -6.554571165E+01  3.307507529E+02  3.414170436E+02  4.750000000E+00  0.00000E+00  9.000E+00
      21     1     1     2   511   502 -1.038055668E+01 -1.543083325E+01  7.474625476E+01  7.702512040E+01  1.348699152E-06  0.00000E+00  9.000E+00
#rwgt            1           9   6.9755133719442669E-002           2     1967622           0
</event>
<event>
      6   9999  3.45752E-01  3.44327E+00 -1.00000E+00  2.62140E-01
      21    -1     0     0   512   502  0.000000000E+00  0.000000000E+00  2.061076587E+01  2.061076587E+01  0.000000000E+00  0.00000E+00  9.000E+00
      21    -1     0     0   502   503  0.000000000E+00  0.000000000E+00 -1.000539666E+03  1.000539666E+03  0.000000000E+00  0.00000E+00  9.000E+00
      25     1     1     2     0     0 -7.827037823E+00  6.282515067E+00 -9.242840294E+02  9.327530342E+02  1.250060930E+02  0.00000E+00  9.000E+00
       5     1     1     2   501     0 -2.431973416E-01  1.228756278E+00  1.530323803E+01  1.607235456E+01  4.750000000E+00  0.00000E+00  9.000E+00
      -5     1     1     2     0   503  7.186849523E+00 -4.183246866E+00 -6.203696909E+01  6.277179617E+01  4.750000000E+00  0.00000E+00  9.000E+00
      21     1     1     2   512   501  8.833856418E-01 -3.328024479E+00 -8.911139797E+00  9.553247071E+00  1.192092896E-07  0.00000E+00  9.000E+00
#rwgt            1           9   1.5632730899273386E-003           2     1969576           0
</event>
<event>
      6   9999 -3.45752E-01  3.33684E+01 -1.00000E+00  1.44909E-01
      -2    -1     0     0     0   511  0.000000000E+00  0.000000000E+00  2.531755341E+01  2.531755341E+01  0.000000000E+00  0.00000E+00  9.000E+00
       2    -1     0     0   501     0  0.000000000E+00  0.000000000E+00 -2.884698003E+03  2.884698003E+03  0.000000000E+00  0.00000E+00  9.000E+00
      25     1     1     2     0     0  9.572053663E+00 -1.654033357E+02 -8.797722412E+02  9.039245468E+02  1.250220071E+02  0.00000E+00  9.000E+00
       5     1     1     2   501     0  2.579572097E+01  1.976865113E+02 -1.622412057E+03  1.634621920E+03  4.750000000E+00  0.00000E+00  9.000E+00
      -5     1     1     2     0   502 -4.318114415E+01  1.575426347E-01 -3.134667567E+02  3.164626456E+02  4.750000000E+00  0.00000E+00  9.000E+00
      21     1     1     2   502   511  7.813369522E+00 -3.244071819E+01 -4.372939538E+01  5.500644472E+01  6.743495762E-07  0.00000E+00  9.000E+00
#rwgt            1           3  -1.9892744598317439E-003           2     1976546           0
</event>
<event>
      6   9999  3.45752E-01  2.28393E+01 -1.00000E+00  1.55931E-01
      21    -1     0     0   501   502  0.000000000E+00  0.000000000E+00  4.184159687E+01  4.184159687E+01  0.000000000E+00  0.00000E+00  9.000E+00
      21    -1     0     0   502   512  0.000000000E+00  0.000000000E+00 -1.434405063E+03  1.434405063E+03  0.000000000E+00  0.00000E+00  9.000E+00
      25     1     1     2     0     0 -7.239479500E+01  1.564757209E+02 -8.228284384E+02  8.499394564E+02  1.249991318E+02  0.00000E+00  9.000E+00
       5     1     1     2   501     0 -2.113020350E+00  6.321105646E-01  9.824651910E+00  1.113331505E+01  4.750000000E+00  0.00000E+00  9.000E+00
      -5     1     1     2     0   503  7.733594304E+01 -1.344443124E+02 -3.310057144E+02  3.655727926E+02  4.750000000E+00  0.00000E+00  9.000E+00
      21     1     1     2   503   512 -2.828127695E+00 -2.266351911E+01 -2.485539656E+02  2.496010962E+02  3.814697266E-06  0.00000E+00  9.000E+00
#rwgt            1           9   8.9644061017128190E-006           2     1979527           0
</event>
<event>
      6   9999  3.45752E-01  2.06898E+01 -1.00000E+00  1.59094E-01
      21    -1     0     0   511   502  0.000000000E+00  0.000000000E+00  4.657444447E+01  4.657444447E+01  0.000000000E+00  0.00000E+00  9.000E+00
      21    -1     0     0   502   503  0.000000000E+00  0.000000000E+00 -7.355010281E+02  7.355010281E+02  0.000000000E+00  0.00000E+00  9.000E+00
      25     1     1     2     0     0  3.794288280E+00  2.502141100E+01 -5.238487281E+02  5.391504637E+02  1.250010598E+02  0.00000E+00  9.000E+00
       5     1     1     2   501     0 -4.118948153E+00 -3.309584700E+00 -1.570915706E+02  1.572521641E+02  4.750000000E+00  0.00000E+00  9.000E+00
      -5     1     1     2     0   503  9.599844052E-01 -1.031762258E+00 -4.392527289E+01  4.420382565E+01  4.750000000E+00  0.00000E+00  9.000E+00
      21     1     1     2   511   501 -6.353245315E-01 -2.068006405E+01  3.593898795E+01  4.146901905E+01  4.768371582E-07  0.00000E+00  9.000E+00
#rwgt            1           9   2.3014010610236539E-005           2     1981942           0
</event>
<event>
      6   9999  3.45752E-01  1.75901E+01 -1.00000E+00  1.64587E-01
      21    -1     0     0   501   502  0.000000000E+00  0.000000000E+00  4.873294304E+00  4.873294304E+00  0.000000000E+00  0.00000E+00  9.000E+00
      21    -1     0     0   512   503  0.000000000E+00  0.000000000E+00 -2.000544445E+03  2.000544445E+03  0.000000000E+00  0.00000E+00  9.000E+00
      25     1     1     2     0     0 -4.849541497E+00 -1.687992779E+01 -1.277924187E+03  1.284144513E+03  1.250138128E+02  0.00000E+00  9.000E+00
       5     1     1     2   501     0 -1.476719341E+00 -3.835310229E+00 -4.922327086E+00  7.980107049E+00  4.750000000E+00  0.00000E+00  9.000E+00
      -5     1     1     2     0   503  1.890268975E+00  3.693670960E+00 -9.028673988E+01  9.050676340E+01  4.750000000E+00  0.00000E+00  9.000E+00
      21     1     1     2   512   502  4.435991862E+00  1.702156706E+01 -6.225378969E+02  6.227863557E+02  1.321449896E-05  0.00000E+00  9.000E+00
#rwgt            1           9  0.10730363919054324                2     1983105           0
</event>
<event>
      6   9999  3.45752E-01  2.18021E+01 -1.00000E+00  1.57402E-01
      21    -1     0     0   501   502  0.000000000E+00  0.000000000E+00  2.612824249E+01  2.612824249E+01  0.000000000E+00  0.00000E+00  9.000E+00
      21    -1     0     0   502   511  0.000000000E+00  0.000000000E+00 -1.205141623E+03  1.205141623E+03  0.000000000E+00  0.00000E+00  9.000E+00
      25     1     1     2     0     0 -4.506219936E+00  3.377026991E+01 -9.864148659E+02  9.948866074E+02  1.249973472E+02  0.00000E+00  9.000E+00
       5     1     1     2   501     0 -8.862701484E+00 -1.928539858E+01  1.516681755E+01  2.651544702E+01  4.750000000E+00  0.00000E+00  9.000E+00
      -5     1     1     2     0   503  2.951163420E+00  4.667229287E+00 -7.140549160E+01  7.177603448E+01  4.750000000E+00  0.00000E+00  9.000E+00
      21     1     1     2   503   511  1.041775800E+01 -1.915210061E+01 -1.363598404E+02  1.380917764E+02  1.907348633E-06  0.00000E+00  9.000E+00
#rwgt            1           9  0.16112023031190201                2     1984612           0
</event>
<event>
      6   9999  3.45752E-01  5.09488E+00 -1.00000E+00  2.24453E-01
      21    -1     0     0   501   502  0.000000000E+00  0.000000000E+00  1.219072827E+02  1.219072827E+02  0.000000000E+00  0.00000E+00  9.000E+00
      21    -1     0     0   502   512  0.000000000E+00  0.000000000E+00 -4.734589491E+02  4.734589491E+02  0.000000000E+00  0.00000E+00  9.000E+00
      25     1     1     2     0     0 -1.494626984E+01 -3.787382341E+01 -4.000310617E+02  4.210791992E+02  1.250000966E+02  0.00000E+00  9.000E+00
       5     1     1     2   501     0  9.046836491E+00 -2.784810759E+00  1.020068726E+02  1.025551802E+02  4.750000000E+00  0.00000E+00  9.000E+00
      -5     1     1     2     0   503  1.080694923E+01  3.928967698E+01 -4.008866156E+01  5.735967359E+01  4.750000000E+00  0.00000E+00  9.000E+00
      21     1     1     2   503   512 -4.907515888E+00  1.368957187E+00 -1.343881574E+01  1.437217884E+01  1.685873940E-07  0.00000E+00  9.000E+00
#rwgt            1           9   5.2013111298660135                2     1987100           0
</event>
<event>
      6   9999  3.45752E-01  2.22662E+01 -1.00000E+00  1.56732E-01
      21    -1     0     0   501   502  0.000000000E+00  0.000000000E+00  5.697545510E+02  5.697545510E+02  0.000000000E+00  0.00000E+00  9.000E+00
      21    -1     0     0   511   503  0.000000000E+00  0.000000000E+00 -2.225845450E+02  2.225845450E+02  0.000000000E+00  0.00000E+00  9.000E+00
      25     1     1     2     0     0 -2.809383809E+01  1.310492397E+01 -1.436080917E+02  1.928970695E+02  1.249999706E+02  0.00000E+00  9.000E+00
       5     1     1     2   501     0 -4.303922497E-01 -4.935482457E+00  5.155080809E+02  5.155537685E+02  4.750000000E+00  0.00000E+00  9.000E+00
      -5     1     1     2     0   503  2.957720440E+01  1.407187674E+01  1.653645921E+01  3.699791506E+01  4.750000000E+00  0.00000E+00  9.000E+00
      21     1     1     2   511   502 -1.052974061E+00 -2.224131826E+01 -4.126644245E+01  4.689034298E+01  1.066240300E-06  0.00000E+00  9.000E+00
#rwgt            1           9   2.2456934661847237E-005           2     1992906           0
</event>
<event>
      6   9999  3.45752E-01  5.99166E+00 -1.00000E+00  2.14142E-01
      21    -1     0     0   501   502  0.000000000E+00  0.000000000E+00  1.079890920E+01  1.079890920E+01  0.000000000E+00  0.00000E+00  9.000E+00
      21    -1     0     0   512   503  0.000000000E+00  0.000000000E+00 -9.947522752E+02  9.947522752E+02  0.000000000E+00  0.00000E+00  9.000E+00
      25     1     1     2     0     0  3.892797787E+00 -5.302336233E+00 -8.506357189E+02  8.597964145E+02  1.250019179E+02  0.00000E+00  9.000E+00
       5     1     1     2   501     0  2.039322514E-01 -1.344639806E+00  3.523053865E+00  6.068282550E+00  4.750000000E+00  0.00000E+00  9.000E+00
      -5     1     1     2     0   503  7.933745393E-01  1.010918725E+01 -2.196457318E+01  2.465421029E+01  4.750000000E+00  0.00000E+00  9.000E+00
      21     1     1     2   512   502 -4.890104577E+00 -3.462211208E+00 -1.148761278E+02  1.150322771E+02  1.907348633E-06  0.00000E+00  9.000E+00
#rwgt            1           9   2.3794800070880318E-005           2     1995467           0
</event>
<event>
      6   9999  3.45752E-01  2.05467E+01 -1.00000E+00  1.59321E-01
      21    -1     0     0   501   502  0.000000000E+00  0.000000000E+00  5.639535143E+01  5.639535143E+01  0.000000000E+00  0.00000E+00  9.000E+00
      21    -1     0     0   502   511  0.000000000E+00  0.000000000E+00 -1.025649734E+03  1.025649734E+03  0.000000000E+00  0.00000E+00  9.000E+00
      25     1     1     2     0     0  1.630780313E+02 -3.460930185E+00 -3.786948782E+02  4.308505747E+02  1.249639331E+02  0.00000E+00  9.000E+00
       5     1     1     2   501     0 -1.686924910E+01 -8.328037516E+01 -9.643531425E+01  1.286177468E+02  4.750000000E+00  0.00000E+00  9.000E+00
      -5     1     1     2     0   503 -1.284819537E+02  7.635244930E+01 -4.334643232E+02  4.585315594E+02  4.750000000E+00  0.00000E+00  9.000E+00
      21     1     1     2   503   511 -1.772682856E+01  1.038885604E+01 -6.065986681E+01  6.404520452E+01  6.743495762E-07  0.00000E+00  9.000E+00
#rwgt            1           9   1457.2415519227757                2     1999799           0
</event>
<event>
      6   9999  3.45752E-01  1.98224E+01 -1.00000E+00  1.60507E-01
      21    -1     0     0   501   512  0.000000000E+00  0.000000000E+00  5.837968340E+01  5.837968340E+01  0.000000000E+00  0.00000E+00  9.000E+00
      21    -1     0     0   502   503  0.000000000E+00  0.000000000E+00 -8.236822169E+02  8.236822169E+02  0.000000000E+00  0.00000E+00  9.000E+00
      25     1     1     2     0     0  5.913737147E+00 -1.011215139E+01 -5.318034322E+02  5.464092282E+02  1.249436925E+02  0.00000E+00  9.000E+00
       5     1     1     2   501     0  4.542071214E-01  3.322467126E+00 -1.106203264E+00  5.918722630E+00  4.750000000E+00  0.00000E+00  9.000E+00
      -5     1     1     2     0   503 -6.131999949E+00  2.661068096E+01 -2.783277698E+02  2.797045579E+02  4.750000000E+00  0.00000E+00  9.000E+00
      21     1     1     2   502   512 -2.359443199E-01 -1.982099669E+01  4.593487175E+01  5.002939158E+01  2.336015456E-06  0.00000E+00  9.000E+00
#rwgt            1           9   7.5264352984543440E-005           2     2002177           0
</event>
<event>
      6   9999  3.45752E-01  1.96495E+00 -1.00000E+00  3.35885E-01
      21    -1     0     0   501   502  0.000000000E+00  0.000000000E+00  8.559098009E+01  8.559098009E+01  0.000000000E+00  0.00000E+00  9.000E+00
      21    -1     0     0   511   503  0.000000000E+00  0.000000000E+00 -2.063806408E+02  2.063806408E+02  0.000000000E+00  0.00000E+00  9.000E+00
      25     1     1     2     0     0  6.411996199E+00 -1.526542697E+01 -6.679560853E+01  1.426881539E+02  1.249964359E+02  0.00000E+00  9.000E+00
       5     1     1     2   501     0  2.302624250E+00  1.265697765E+00  4.640633910E+01  4.672274476E+01  4.750000000E+00  0.00000E+00  9.000E+00
      -5     1     1     2     0   503 -6.775614075E+00  1.368145926E+01 -5.943208447E+01  6.154532020E+01  4.750000000E+00  0.00000E+00  9.000E+00
      21     1     1     2   511   502 -1.939006373E+00  3.182699516E-01 -4.096830682E+01  4.101540205E+01  8.259061849E-07  0.00000E+00  9.000E+00
#rwgt            1           9   7.9365334978602524                2     2003504           0
</event>
<event>
      6   9999 -3.45752E-01  8.62000E+00 -1.00000E+00  1.94253E-01
      21    -1     0     0   501   512  0.000000000E+00  0.000000000E+00  9.660987464E+01  9.660987464E+01  0.000000000E+00  0.00000E+00  9.000E+00
      21    -1     0     0   502   503  0.000000000E+00  0.000000000E+00 -9.654852187E+02  9.654852187E+02  0.000000000E+00  0.00000E+00  9.000E+00
      25     1     1     2     0     0  4.291195927E+01 -1.168674277E+01 -6.488134451E+02  6.622403749E+02  1.250016457E+02  0.00000E+00  9.000E+00
       5     1     1     2   501     0  1.470110534E+00  4.044378947E+00  4.494399922E+00  7.828177100E+00  4.750000000E+00  0.00000E+00  9.000E+00
      -5     1     1     2     0   503 -3.894955530E+01  1.433505982E+01 -3.066495654E+02  3.094819546E+02  4.750000000E+00  0.00000E+00  9.000E+00
      21     1     1     2   502   512 -5.432514497E+00 -6.692695990E+00  8.209326647E+01  8.254458670E+01  3.568322551E-06  0.00000E+00  9.000E+00
#rwgt            1           9  -1.2423998713696587E-004           2     2012231           0
</event>
<event>
      6   9999  3.45752E-01  3.84645E+00 -1.00000E+00  2.51422E-01
      21    -1     0     0   502   503  0.000000000E+00  0.000000000E+00  1.622909593E+01  1.622909593E+01  0.000000000E+00  0.00000E+00  9.000E+00
      21    -1     0     0   501   511  0.000000000E+00  0.000000000E+00 -9.341131234E+02  9.341131234E+02  0.000000000E+00  0.00000E+00  9.000E+00
      25     1     1     2     0     0  1.434380042E+01  9.598990595E+00 -2.413939895E+02  2.724092493E+02  1.250514122E+02  0.00000E+00  9.000E+00
       5     1     1     2   501     0 -1.407553567E+01 -1.243327298E+01 -6.413894400E+02  6.416819175E+02  4.750000000E+00  0.00000E+00  9.000E+00
      -5     1     1     2     0   503  1.940293679E+00 -3.149196617E-01 -1.776338848E+01  1.849227904E+01  4.750000000E+00  0.00000E+00  9.000E+00
      21     1     1     2   502   511 -2.208558430E+00  3.149202044E+00 -1.733720949E+01  1.775877351E+01  2.384185791E-07  0.00000E+00  9.000E+00
#rwgt            1           9   1.3825572914690401E-004           2     2016019           0
</event>
<event>
      6   9999  3.45752E-01  1.35135E+01 -1.00000E+00  1.74395E-01
      21    -1     0     0   501   502  0.000000000E+00  0.000000000E+00  3.257081249E+02  3.257081249E+02  0.000000000E+00  0.00000E+00  9.000E+00
       1    -1     0     0   502     0  0.000000000E+00  0.000000000E+00 -9.019145247E+02  9.019145247E+02  0.000000000E+00  0.00000E+00  9.000E+00
      25     1     1     2     0     0 -1.195524137E+01 -7.357644006E+01 -3.193853209E+01  1.490004989E+02  1.249986341E+02  0.00000E+00  9.000E+00
       5     1     1     2   501     0 -2.854717869E+00  6.101119739E+00  2.131478152E+02  2.133071182E+02  4.750000000E+00  0.00000E+00  9.000E+00
      -5     1     1     2     0   503  2.484078286E+01  7.653050590E+01  2.375393739E+01  8.402853603E+01  4.750000000E+00  0.00000E+00  9.000E+00
       1     1     1     2   503     0 -1.003082363E+01 -9.055185578E+00 -7.811696203E+02  7.812864964E+02  0.000000000E+00  0.00000E+00  9.000E+00
#rwgt            1           9   1.1683843308310671E-002           2     2021852           0
</event>
<event>
      6   9999  3.45752E-01  1.49133E+02 -1.00000E+00  1.13493E-01
      21    -1     0     0   501   511  0.000000000E+00  0.000000000E+00  2.562020403E+02  2.562020403E+02  0.000000000E+00  0.00000E+00  9.000E+00
      21    -1     0     0   502   503  0.000000000E+00  0.000000000E+00 -2.404160923E+03  2.404160923E+03  0.000000000E+00  0.00000E+00  9.000E+00
      25     1     1     2     0     0 -3.567600023E+02  4.457381221E+02 -3.527816688E+02  6.826318240E+02  1.247843281E+02  0.00000E+00  9.000E+00
       5     1     1     2   501     0  2.710096844E+02 -4.145275801E+02 -1.130053790E+03  1.233824742E+03  4.750000000E+00  0.00000E+00  9.000E+00
      -5     1     1     2     0   503  1.101023108E+02  1.159202985E+02 -4.813917155E+02  5.072677604E+02  4.750000000E+00  0.00000E+00  9.000E+00
      21     1     1     2   502   511 -2.435199282E+01 -1.471308405E+02 -1.837317090E+02  2.366386373E+02  2.697398305E-06  0.00000E+00  9.000E+00
#rwgt            1           9   5.9253689706298017E-004           2     2024475           0
</event>
<event>
      6   9999  3.45752E-01  6.84756E+00 -1.00000E+00  2.06365E-01
      21    -1     0     0   501   502  0.000000000E+00  0.000000000E+00  1.502852794E+01  1.502852794E+01  0.000000000E+00  0.00000E+00  9.000E+00
      21    -1     0     0   502   512  0.000000000E+00  0.000000000E+00 -1.283202148E+03  1.283202148E+03  0.000000000E+00  0.00000E+00  9.000E+00
      25     1     1     2     0     0 -6.980483076E-01  1.806265922E+00 -8.641082020E+02  8.731046580E+02  1.250000373E+02  0.00000E+00  9.000E+00
       5     1     1     2   501     0  4.368912501E+00  2.214795272E+00  8.938604508E+00  1.124517074E+01  4.750000000E+00  0.00000E+00  9.000E+00
      -5     1     1     2     0   503  3.174274355E+00 -3.838949114E+00 -2.862736896E+01  2.944320467E+01  4.750000000E+00  0.00000E+00  9.000E+00
      21     1     1     2   503   512 -6.845138548E+00 -1.821120794E-01 -3.843766540E+02  3.844376428E+02  0.000000000E+00  0.00000E+00  9.000E+00
#rwgt            1           9   1.9518895037410868E-004           2     2025339           0
</event>
<event>
      6   9999 -3.45752E-01  2.96416E+01 -1.00000E+00  1.48176E-01
      21    -1     0     0   501   511  0.000000000E+00  0.000000000E+00  5.011405885E+01  5.011405885E+01  0.000000000E+00  0.00000E+00  9.000E+00
      21    -1     0     0   502   503  0.000000000E+00  0.000000000E+00 -7.829997946E+02  7.829997946E+02  0.000000000E+00  0.00000E+00  9.000E+00
      25     1     1     2     0     0  1.489112341E+00  1.839682356E+01 -3.360416439E+02  3.590160859E+02  1.250116113E+02  0.00000E+00  9.000E+00
       5     1     1     2   501     0 -6.965417752E+00  5.432298409E+00 -1.602723234E+02  1.605858246E+02  4.750000000E+00  0.00000E+00  9.000E+00
      -5     1     1     2     0   503 -2.217103214E+01 -1.314026466E+01 -2.685980873E+02  2.698735189E+02  4.750000000E+00  0.00000E+00  9.000E+00
      21     1     1     2   502   511  2.764733755E+01 -1.068885731E+01  3.202631888E+01  4.363842396E+01  8.259061849E-07  0.00000E+00  9.000E+00
#rwgt            1           9  -1.7474376556953213E-004           2     2028537           0
</event>
<event>
      6   9999  3.45752E-01  2.11517E+01 -1.00000E+00  1.58376E-01
      21    -1     0     0   512   502  0.000000000E+00  0.000000000E+00  4.356071619E+01  4.356071619E+01  0.000000000E+00  0.00000E+00  9.000E+00
      21    -1     0     0   502   503  0.000000000E+00  0.000000000E+00 -7.396499635E+02  7.396499635E+02  0.000000000E+00  0.00000E+00  9.000E+00
      25     1     1     2     0     0  3.099279794E+01  4.799824411E+00 -6.052619257E+02  6.188281949E+02  1.249909769E+02  0.00000E+00  9.000E+00
       5     1     1     2   501     0 -1.559860926E+01 -3.710818491E+00 -1.684516808E+01  2.373623754E+01  4.750000000E+00  0.00000E+00  9.000E+00
      -5     1     1     2     0   503  4.641080279E+00 -7.869935017E+00 -1.036776838E+02  1.041878118E+02  4.750000000E+00  0.00000E+00  9.000E+00
      21     1     1     2   512   501 -2.003526896E+01  6.780929096E+00  2.969553023E+01  3.645843548E+01  1.581489940E-06  0.00000E+00  9.000E+00
#rwgt            1           9   2.2327087287614606                2     2029935           0
</event>
<event>
      6   9999 -3.45752E-01  1.63758E+01 -1.00000E+00  1.67133E-01
      21    -1     0     0   501   511  0.000000000E+00  0.000000000E+00  3.369800222E+01  3.369800222E+01  0.000000000E+00  0.00000E+00  9.000E+00
      21    -1     0     0   502   503  0.000000000E+00  0.000000000E+00 -1.160070490E+03  1.160070490E+03  0.000000000E+00  0.00000E+00  9.000E+00
      25     1     1     2     0     0  7.166528328E+01 -5.634254653E+01 -6.460022958E+02  6.642699059E+02  1.250005853E+02  0.00000E+00  9.000E+00
       5     1     1     2   501     0 -7.042503346E+01  1.124873962E+02 -3.394382704E+02  3.644914287E+02  4.750000000E+00  0.00000E+00  9.000E+00
      -5     1     1     2     0   503 -1.295061948E+01 -6.759189239E+01 -1.201827427E+02  1.385742999E+02  4.750000000E+00  0.00000E+00  9.000E+00
      21     1     1     2   502   511  1.171036967E+01  1.144704272E+01 -2.074917902E+01  2.643285786E+01  4.768371582E-07  0.00000E+00  9.000E+00
#rwgt            1           9  -4.8578455037862511E-002           2     2031222           0
</event>
<event>
      6   9999  3.45752E-01  4.80402E+00 -1.00000E+00  2.32459E-01
      21    -1     0     0   501   502  0.000000000E+00  0.000000000E+00  6.021414279E+01  6.021414279E+01  0.000000000E+00  0.00000E+00  9.000E+00
      21    -1     0     0   502   512  0.000000000E+00  0.000000000E+00 -5.672399689E+02  5.672399689E+02  0.000000000E+00  0.00000E+00  9.000E+00
      25     1     1     2     0     0  5.439217722E-01 -9.531169912E+00 -3.146057107E+02  3.386627796E+02  1.249983441E+02  0.00000E+00  9.000E+00
       5     1     1     2   501     0  1.611294779E+00  3.872806508E+00  4.764687861E+01  4.806643780E+01  4.750000000E+00  0.00000E+00  9.000E+00
      -5     1     1     2     0   503 -2.652163129E+00  8.801129803E-01 -2.482717124E+01  2.543146672E+01  4.750000000E+00  0.00000E+00  9.000E+00
      21     1     1     2   503   512  4.969465778E-01  4.778250424E+00 -2.152398228E+02  2.152934276E+02  2.697398305E-06  0.00000E+00  9.000E+00
#rwgt            1           9   1.6873876141742959E-003           2     2033679           0
</event>
<event>
      6   9999 -3.45752E-01  9.40670E+00 -1.00000E+00  1.90036E-01
      21    -1     0     0   501   502  0.000000000E+00  0.000000000E+00  4.058464556E+02  4.058464556E+02  0.000000000E+00  0.00000E+00  9.000E+00
      21    -1     0     0   511   503  0.000000000E+00  0.000000000E+00 -2.680924707E+02  2.680924707E+02  0.000000000E+00  0.00000E+00  9.000E+00
      25     1     1     2     0     0 -1.582653653E+01 -2.619433582E+01  2.091249605E+02  2.455439952E+02  1.249879273E+02  0.00000E+00  9.000E+00
       5     1     1     2   501     0  4.623236491E-02 -2.863907577E-04  1.401883813E+02  1.402688379E+02  4.750000000E+00  0.00000E+00  9.000E+00
      -5     1     1     2     0   503  1.533807288E+01  1.679832530E+01  3.465891041E+01  4.172820130E+01  4.750000000E+00  0.00000E+00  9.000E+00
      21     1     1     2   511   502  4.422312887E-01  9.396296909E+00 -2.462182674E+02  2.463978919E+02  2.697398305E-06  0.00000E+00  9.000E+00
#rwgt            1           9  -3.0250585681152943E-002           2     2039404           0
</event>
<event>
      6   9999  3.45752E-01  2.85696E+01 -1.00000E+00  1.49224E-01
      21    -1     0     0   501   502  0.000000000E+00  0.000000000E+00  1.438502344E+01  1.438502344E+01  0.000000000E+00  0.00000E+00  9.000E+00
      21    -1     0     0   502   512  0.000000000E+00  0.000000000E+00 -8.776592879E+02  8.776592879E+02  0.000000000E+00  0.00000E+00  9.000E+00
      25     1     1     2     0     0 -1.552474049E+01  4.952559357E-01 -3.002040873E+02  3.255600384E+02  1.250023268E+02  0.00000E+00  9.000E+00
       5     1     1     2   501     0  6.400588167E-01  7.934570062E-01 -5.208335818E+01  5.230944416E+01  4.750000000E+00  0.00000E+00  9.000E+00
      -5     1     1     2     0   503  8.863483497E+00  2.663913400E+01 -2.380847811E+02  2.397814219E+02  4.750000000E+00  0.00000E+00  9.000E+00
      21     1     1     2   503   512  6.021198181E+00 -2.792784695E+01 -2.729020378E+02  2.743934068E+02  3.814697266E-06  0.00000E+00  9.000E+00
#rwgt            1           9   8.4762576018592195E-006           2     2042212           0
</event>
<event>
      6   9999  3.45752E-01  1.13514E+01 -1.00000E+00  1.81576E-01
      21    -1     0     0   502   503  0.000000000E+00  0.000000000E+00  5.487918397E+02  5.487918397E+02  0.000000000E+00  0.00000E+00  9.000E+00
      21    -1     0     0   511   502  0.000000000E+00  0.000000000E+00 -1.081928499E+02  1.081928499E+02  0.000000000E+00  0.00000E+00  9.000E+00
      25     1     1     2     0     0 -5.594796412E+00 -1.627489239E-01  3.265720728E+02  3.497234553E+02  1.250033927E+02  0.00000E+00  9.000E+00
       5     1     1     2   501     0  5.610409548E+00 -2.532401076E-01  9.400861990E+01  9.429593810E+01  4.750000000E+00  0.00000E+00  9.000E+00
      -5     1     1     2     0   503  3.961215826E+00  1.104798077E+01  1.158116536E+02  1.165017199E+02  4.750000000E+00  0.00000E+00  9.000E+00
      21     1     1     2   511   501 -3.976828961E+00 -1.063199174E+01 -9.579335655E+01  9.646357642E+01  3.015782986E-06  0.00000E+00  9.000E+00
#rwgt            1           9   6.8726696990896504E-003           2     2043271           0
</event>
<event>
      6   9999  3.45752E-01  1.48034E+01 -1.00000E+00  1.70869E-01
       3    -1     0     0   501     0  0.000000000E+00  0.000000000E+00  2.225986214E+02  2.225986214E+02  0.000000000E+00  0.00000E+00  9.000E+00
      21    -1     0     0   502   503  0.000000000E+00  0.000000000E+00 -9.472607679E+02  9.472607679E+02  0.000000000E+00  0.00000E+00  9.000E+00
      25     1     1     2     0     0  2.096270597E+01 -2.113591733E+01 -4.464463046E+02  4.645696418E+02  1.249979487E+02  0.00000E+00  9.000E+00
       5     1     1     2   501     0 -5.243531542E+00  3.301745266E+00  5.689078227E+00  9.660448018E+00  4.750000000E+00  0.00000E+00  9.000E+00
      -5     1     1     2     0   503 -2.861430963E+01  2.510441150E+01 -4.887484396E+02  4.902515782E+02  4.750000000E+00  0.00000E+00  9.000E+00
       3     1     1     2   502     0  1.289513520E+01 -7.270239438E+00  2.048435195E+02  2.053777212E+02  5.394796609E-06  0.00000E+00  9.000E+00
#rwgt            1           9   4.5322145958469069E-004           2     2045928           0
</event>
<event>
      6   9999  3.45752E-01  2.39272E+01 -1.00000E+00  1.54486E-01
      21    -1     0     0   511   503  0.000000000E+00  0.000000000E+00  2.147640347E+01  2.147640347E+01  0.000000000E+00  0.00000E+00  9.000E+00
      21    -1     0     0   501   502  0.000000000E+00  0.000000000E+00 -7.487664951E+02  7.487664951E+02  0.000000000E+00  0.00000E+00  9.000E+00
      25     1     1     2     0     0  1.748859315E+01 -6.834666514E+00 -5.882424246E+02  6.016700316E+02  1.250004527E+02  0.00000E+00  9.000E+00
       5     1     1     2   501     0 -1.455465165E+00  6.180840248E+00 -3.021180627E+01  3.123518694E+01  4.750000000E+00  0.00000E+00  9.000E+00
      -5     1     1     2     0   503  5.049018341E-01  1.794556391E+01 -1.117058837E+02  1.132389736E+02  4.750000000E+00  0.00000E+00  9.000E+00
      21     1     1     2   511   502 -1.653802981E+01 -1.729173764E+01  2.870023001E+00  2.409870646E+01  1.221531721E-06  0.00000E+00  9.000E+00
#rwgt            1           9   8.7182695522214110E-004           2     2047801           0
</event>
<event>
      6   9999 -3.45752E-01  2.56848E+01 -1.00000E+00  1.52337E-01
      21    -1     0     0   501   502  0.000000000E+00  0.000000000E+00  2.495960411E+01  2.495960411E+01  0.000000000E+00  0.00000E+00  9.000E+00
      21    -1     0     0   512   503  0.000000000E+00  0.000000000E+00 -1.239571098E+03  1.239571098E+03  0.000000000E+00  0.00000E+00  9.000E+00
      25     1     1     2     0     0 -6.310319488E+01  4.881420696E+01 -9.569744019E+02  9.683955334E+02  1.250002529E+02  0.00000E+00  9.000E+00
       5     1     1     2   501     0  6.107669490E-01  5.900690728E+00  5.902919236E+00  9.622792882E+00  4.750000000E+00  0.00000E+00  9.000E+00
      -5     1     1     2     0   503  6.356078925E+01 -2.905237267E+01 -1.070647400E+02  1.279430941E+02  4.750000000E+00  0.00000E+00  9.000E+00
      21     1     1     2   512   502 -1.068361318E+00 -2.566252502E+01 -1.564752711E+02  1.585692815E+02  3.303624740E-06  0.00000E+00  9.000E+00
#rwgt            1           9  -5.3207327063973186E-004           2     2048995           0
</event>
<event>
      6   9999  3.45752E-01  2.43710E+01 -1.00000E+00  1.53923E-01
      -4    -1     0     0     0   503  0.000000000E+00  0.000000000E+00  2.598804414E+02  2.598804414E+02  0.000000000E+00  0.00000E+00  9.000E+00
      21    -1     0     0   501   502  0.000000000E+00  0.000000000E+00 -8.063667038E+02  8.063667038E+02  0.000000000E+00  0.00000E+00  9.000E+00
      25     1     1     2     0     0 -2.252340245E+01  1.585814938E+01 -4.560853050E+02  4.737062596E+02  1.250001216E+02  0.00000E+00  9.000E+00
       5     1     1     2   501     0  1.057186890E+01 -8.837668427E+00 -1.378470862E+02  1.386154770E+02  4.750000000E+00  0.00000E+00  9.000E+00
      -5     1     1     2     0   503  1.043667821E+01 -3.134437694E+01 -2.012697754E+02  2.040183305E+02  4.750000000E+00  0.00000E+00  9.000E+00
      -4     1     1     2     0   502  1.514855340E+00  2.432389599E+01  2.487159041E+02  2.499070780E+02  2.697398305E-06  0.00000E+00  9.000E+00
#rwgt            1           9   6.6839205638686811E-002           2     2051857           0
</event>
<event>
      6   9999  3.45752E-01  6.47511E+00 -1.00000E+00  2.09549E-01
      21    -1     0     0   501   511  0.000000000E+00  0.000000000E+00  1.247480290E+01  1.247480290E+01  0.000000000E+00  0.00000E+00  9.000E+00
      21    -1     0     0   502   503  0.000000000E+00  0.000000000E+00 -7.949312864E+02  7.949312864E+02  0.000000000E+00  0.00000E+00  9.000E+00
      25     1     1     2     0     0  7.999339674E+00  1.318809279E+01 -7.411946283E+02  7.518183611E+02  1.249938231E+02  0.00000E+00  9.000E+00
       5     1     1     2   501     0  3.136687151E-02  2.884295240E-01  2.610317120E+00  5.427746396E+00  4.750000000E+00  0.00000E+00  9.000E+00
      -5     1     1     2     0   503 -8.312373882E+00 -7.007538976E+00 -4.166142353E+01  4.331787013E+01  4.750000000E+00  0.00000E+00  9.000E+00
      21     1     1     2   502   511  2.816673369E-01 -6.468983335E+00 -2.210748736E+00  6.842111651E+00  1.861154437E-07  0.00000E+00  9.000E+00
#rwgt            1           9   2.9893296409309888E-004           2     2053424           0
</event>
<event>
      6   9999  3.45752E-01  2.62398E+01 -1.00000E+00  1.51701E-01
      21    -1     0     0   501   502  0.000000000E+00  0.000000000E+00  1.136807758E+02  1.136807758E+02  0.000000000E+00  0.00000E+00  9.000E+00
      21    -1     0     0   502   512  0.000000000E+00  0.000000000E+00 -1.424525471E+03  1.424525471E+03  0.000000000E+00  0.00000E+00  9.000E+00
      25     1     1     2     0     0 -1.985032703E+01  2.826750922E+01 -7.801917029E+02  7.908960023E+02  1.249972224E+02  0.00000E+00  9.000E+00
       5     1     1     2   501     0  4.072545309E+00 -4.859557742E+00  1.067488029E+02  1.070423764E+02  4.750000000E+00  0.00000E+00  9.000E+00
      -5     1     1     2     0   503 -6.500886508E+00 -9.544799116E+00 -5.119019590E+02  5.120542382E+02  4.750000000E+00  0.00000E+00  9.000E+00
      21     1     1     2   503   512  2.227866823E+01 -1.386315236E+01 -1.254998360E+02  1.282136299E+02  0.000000000E+00  0.00000E+00  9.000E+00
#rwgt            1           9   1.3812850262758467                2     2057364           0
</event>
<event>
      6   9999  3.45752E-01  3.05849E+01 -1.00000E+00  1.47298E-01
      21    -1     0     0   501   502  0.000000000E+00  0.000000000E+00  3.293809884E+02  3.293809884E+02  0.000000000E+00  0.00000E+00  9.000E+00
      21    -1     0     0   502   511  0.000000000E+00  0.000000000E+00 -2.799992238E+02  2.799992238E+02  0.000000000E+00  0.00000E+00  9.000E+00
      25     1     1     2     0     0 -1.637162327E+01  1.614432398E+02 -5.819404745E+01  2.129384570E+02  1.249971584E+02  0.00000E+00  9.000E+00
       5     1     1     2   501     0 -1.008815970E+01  6.054782650E+00  2.018873175E+02  2.022856466E+02  4.750000000E+00  0.00000E+00  9.000E+00
      -5     1     1     2     0   503  2.243592977E+01 -1.371789614E+02 -7.898899277E+01  1.599476848E+02  4.750000000E+00  0.00000E+00  9.000E+00
      21     1     1     2   503   511  4.023853207E+00 -3.031906109E+01 -1.532251267E+01  3.420842373E+01  6.529361695E-07  0.00000E+00  9.000E+00
#rwgt            1           9   2.2926499575443951E-004           2     2059680           0
</event>
<event>
      6   9999  3.45752E-01  1.50546E+01 -1.00000E+00  1.70235E-01
      21    -1     0     0   501   502  0.000000000E+00  0.000000000E+00  2.234196237E+01  2.234196237E+01  0.000000000E+00  0.00000E+00  9.000E+00
      21    -1     0     0   512   503  0.000000000E+00  0.000000000E+00 -1.094931584E+03  1.094931584E+03  0.000000000E+00  0.00000E+00  9.000E+00
      25     1     1     2     0     0  9.877858989E+01 -4.516275325E+01 -4.283004106E+02  4.591986479E+02  1.250010896E+02  0.00000E+00  9.000E+00
       5     1     1     2   501     0  8.567432003E-01 -6.114111639E-01 -4.985703200E-01  4.890695747E+00  4.750000000E+00  0.00000E+00  9.000E+00
      -5     1     1     2     0   503 -8.482532015E+01  4.307123811E+01 -5.636467345E+02  5.716385836E+02  4.750000000E+00  0.00000E+00  9.000E+00
      21     1     1     2   512   502 -1.481001294E+01  2.702926305E+00 -8.014390612E+01  8.154561903E+01  1.907348633E-06  0.00000E+00  9.000E+00
#rwgt            1           9   1.8263726686914257E-004           2     2061511           0
</event>
<event>
      6   9999  3.45752E-01  3.31962E+00 -1.00000E+00  2.65896E-01
      21    -1     0     0   501   502  0.000000000E+00  0.000000000E+00  4.607931097E+03  4.607931097E+03  0.000000000E+00  0.00000E+00  9.000E+00
      21    -1     0     0   502   511  0.000000000E+00  0.000000000E+00 -4.977885734E+00  4.977885734E+00  0.000000000E+00  0.00000E+00  9.000E+00
      25     1     1     2     0     0  9.984039036E+00  3.477637163E+00  3.675970802E+03  3.678111252E+03  1.250170831E+02  0.00000E+00  9.000E+00
       5     1     1     2   501     0 -4.769442470E-02  2.656911531E-02  4.718388059E+02  4.718627176E+02  4.750000000E+00  0.00000E+00  9.000E+00
      -5     1     1     2     0   503 -1.041828480E+01 -6.788657288E+00  4.582174822E+02  4.584107874E+02  4.750000000E+00  0.00000E+00  9.000E+00
      21     1     1     2   503   511  4.819401889E-01  3.284451009E+00 -3.073878922E+00  4.524225503E+00  9.166333973E-07  0.00000E+00  9.000E+00
#rwgt            1           9   6.8398194184134163E-004           2     2063616           0
</event>
<event>
      6   9999  3.45752E-01  5.40355E+01 -1.00000E+00  1.33008E-01
      21    -1     0     0   502   503  0.000000000E+00  0.000000000E+00  8.439883618E+01  8.439883618E+01  0.000000000E+00  0.00000E+00  9.000E+00
      21    -1     0     0   512   502  0.000000000E+00  0.000000000E+00 -1.006518588E+03  1.006518588E+03  0.000000000E+00  0.00000E+00  9.000E+00
      25     1     1     2     0     0  1.502293160E+02 -1.326750954E+02 -1.446506719E+02  2.769840512E+02  1.249992777E+02  0.00000E+00  9.000E+00
       5     1     1     2   501     0 -1.223058132E+02  1.010287346E+02 -5.517620815E+02  5.741336728E+02  4.750000000E+00  0.00000E+00  9.000E+00
      -5     1     1     2     0   503  8.742697007E+00 -8.045198828E+00 -7.140910590E+00  1.465315936E+01  4.750000000E+00  0.00000E+00  9.000E+00
      21     1     1     2   512   501 -3.666619971E+01  3.969155963E+01 -2.185660874E+02  2.251465404E+02  0.000000000E+00  0.00000E+00  9.000E+00
#rwgt            1           9   4.3225274635048827E-002           2     2067921           0
</event>
<event>
      6   9999  3.45752E-01  5.27917E+01 -1.00000E+00  1.33537E-01
      21    -1     0     0   511   503  0.000000000E+00  0.000000000E+00  6.430099297E+01  6.430099297E+01  0.000000000E+00  0.00000E+00  9.000E+00
      21    -1     0     0   501   502  0.000000000E+00  0.000000000E+00 -2.921755481E+03  2.921755481E+03  0.000000000E+00  0.00000E+00  9.000E+00
      25     1     1     2     0     0 -3.164850753E+02  8.120524517E+01 -8.234144017E+02  8.946471149E+02  1.250003541E+02  0.00000E+00  9.000E+00
       5     1     1     2   501     0  4.587287866E-01  9.152226478E+01 -8.181834255E+02  8.233001977E+02  4.750000000E+00  0.00000E+00  9.000E+00
      -5     1     1     2     0   503  2.704090140E+02 -1.461565130E+02 -1.045686403E+03  1.089938245E+03  4.750000000E+00  0.00000E+00  9.000E+00
      21     1     1     2   511   502  4.561733258E+01 -2.657099692E+01 -1.701702585E+02  1.781709173E+02  1.907348633E-06  0.00000E+00  9.000E+00
#rwgt            1           9  0.79338100194396211                2     2069101           0
</event>
<event>
      6   9999  3.45752E-01  8.74088E+00 -1.00000E+00  1.93568E-01
      21    -1     0     0   501   502  0.000000000E+00  0.000000000E+00  1.878231725E+01  1.878231725E+01  0.000000000E+00  0.00000E+00  9.000E+00
       1    -1     0     0   502     0  0.000000000E+00  0.000000000E+00 -1.920306050E+03  1.920306050E+03  0.000000000E+00  0.00000E+00  9.000E+00
      25     1     1     2     0     0 -6.172178280E+00 -6.458224696E+00 -9.158679170E+02  9.244023786E+02  1.250036472E+02  0.00000E+00  9.000E+00
       5     1     1     2   501     0  2.323692318E+00  2.614982431E-02  1.385103172E+01  1.482611916E+01  4.750000000E+00  0.00000E+00  9.000E+00
      -5     1     1     2     0   503 -2.312582353E+00  2.317311350E-01 -4.451179327E+01  4.482481430E+01  4.750000000E+00  0.00000E+00  9.000E+00
       1     1     1     2   503     0  6.161068316E+00  6.200343737E+00 -9.549950544E+02  9.550350553E+02  1.078959322E-05  0.00000E+00  9.000E+00
#rwgt            1           9   4.7753823501488072E-005           2     2070647           0
</event>
<event>
      6   9999  3.45752E-01  7.47342E+01 -1.00000E+00  1.26067E-01
      21    -1     0     0   501   502  0.000000000E+00  0.000000000E+00  1.659406802E+02  1.659406802E+02  0.000000000E+00  0.00000E+00  9.000E+00
      21    -1     0     0   502   511  0.000000000E+00  0.000000000E+00 -2.608429235E+02  2.608429235E+02  0.000000000E+00  0.00000E+00  9.000E+00
      25     1     1     2     0     0 -1.240786447E+02 -4.471619942E+01 -4.718802649E+01  1.877459427E+02  1.250071222E+02  0.00000E+00  9.000E+00
       5     1     1     2   501     0 -1.261324085E+01 -5.040242057E+00  5.579106517E+01  5.761686678E+01  4.750000000E+00  0.00000E+00  9.000E+00
      -5     1     1     2     0   503  6.298890222E+01  3.738451165E+01 -6.103322255E+01  9.546109296E+01  4.750000000E+00  0.00000E+00  9.000E+00
      21     1     1     2   503   511  7.370298338E+01  1.237192983E+01 -4.247205936E+01  8.595970121E+01  2.185142372E-06  0.00000E+00  9.000E+00
#rwgt            1           9   2.8843958969551131E-004           2     2073765           0
</event>
<event>
      6   9999  3.45752E-01  4.20448E+01 -1.00000E+00  1.38942E-01
      21    -1     0     0   502   512  0.000000000E+00  0.000000000E+00  9.505042040E+01  9.505042040E+01  0.000000000E+00  0.00000E+00  9.000E+00
      21    -1     0     0   501   502  0.000000000E+00  0.000000000E+00 -1.087661017E+03  1.087661017E+03  0.000000000E+00  0.00000E+00  9.000E+00
      25     1     1     2     0     0  2.948379464E+01 -1.288580981E+02 -8.256775172E+02  8.454836260E+02  1.250019832E+02  0.00000E+00  9.000E+00
       5     1     1     2   501     0 -1.519118966E+01  1.406424494E+01 -6.142335950E+01  6.499205199E+01  4.750000000E+00  0.00000E+00  9.000E+00
      -5     1     1     2     0   503 -5.632874256E+01  1.139379812E+02 -1.593735509E+02  2.039050809E+02  4.750000000E+00  0.00000E+00  9.000E+00
      21     1     1     2   503   512  4.203613758E+01  8.558720099E-01  5.386383084E+01  6.833067871E+01  2.132480600E-06  0.00000E+00  9.000E+00
#rwgt            1           9   1.7030933120504572                2     2074466           0
</event>
<event>
      6   9999  3.45752E-01  6.12046E+01 -1.00000E+00  1.30251E-01
      21    -1     0     0   501   511  0.000000000E+00  0.000000000E+00  2.753990259E+02  2.753990259E+02  0.000000000E+00  0.00000E+00  9.000E+00
      21    -1     0     0   502   503  0.000000000E+00  0.000000000E+00 -1.633912965E+03  1.633912965E+03  0.000000000E+00  0.00000E+00  9.000E+00
      25     1     1     2     0     0 -7.547740268E+01  4.650942983E+01 -6.208950414E+02  6.395243782E+02  1.249832492E+02  0.00000E+00  9.000E+00
       5     1     1     2   501     0 -1.058732805E+01 -2.614561093E+01  7.928928934E+01  8.429138977E+01  4.750000000E+00  0.00000E+00  9.000E+00
      -5     1     1     2     0   503  3.349726844E+01 -5.171124670E+01 -9.951356729E+02  9.970525012E+02  4.750000000E+00  0.00000E+00  9.000E+00
      21     1     1     2   502   511  5.256746229E+01  3.134742780E+01  1.782274862E+02  1.884437215E+02  2.697398305E-06  0.00000E+00  9.000E+00
#rwgt            1           9   1.5407608304288323E-004           2     2076663           0
</event>
<event>
      6   9999  3.45752E-01  9.44534E+00 -1.00000E+00  1.89842E-01
      21    -1     0     0   501   502  0.000000000E+00  0.000000000E+00  1.040504375E+01  1.040504375E+01  0.000000000E+00  0.00000E+00  9.000E+00
       2    -1     0     0   502     0  0.000000000E+00  0.000000000E+00 -2.027861620E+03  2.027861620E+03  0.000000000E+00  0.00000E+00  9.000E+00
      25     1     1     2     0     0 -1.921442576E+01  5.304626448E+01 -9.477706920E+02  9.576373685E+02  1.249677742E+02  0.00000E+00  9.000E+00
       5     1     1     2   501     0 -4.890344719E-02  6.221989337E-01 -1.893681491E-01  4.794568109E+00  4.750000000E+00  0.00000E+00  9.000E+00
      -5     1     1     2     0   503  9.907441664E+00 -5.496534755E+01 -2.468512433E+02  2.531352320E+02  4.750000000E+00  0.00000E+00  9.000E+00
       2     1     1     2   503     0  9.355887544E+00  1.296884140E+00 -8.226452731E+02  8.226994955E+02  1.868812365E-05  0.00000E+00  9.000E+00
#rwgt            1           9   3.0898760475088936E-003           2     2078075           0
</event>
<event>
      6   9999  3.45752E-01  2.15883E+01 -1.00000E+00  1.57718E-01
      21    -1     0     0   501   502  0.000000000E+00  0.000000000E+00  6.674689310E+02  6.674689310E+02  0.000000000E+00  0.00000E+00  9.000E+00
      21    -1     0     0   511   503  0.000000000E+00  0.000000000E+00 -3.421008198E+02  3.421008198E+02  0.000000000E+00  0.00000E+00  9.000E+00
      25     1     1     2     0     0  1.670553832E+01 -1.008199982E+01  4.208862054E+01  1.333316944E+02  1.250006681E+02  0.00000E+00  9.000E+00
       5     1     1     2   501     0 -3.263729021E+00 -3.833401626E+00  5.710610960E+02  5.711030422E+02  4.750000000E+00  0.00000E+00  9.000E+00
      -5     1     1     2     0   503 -9.174821201E+00 -7.246971074E+00  3.467053483E+00  1.308735625E+01  4.750000000E+00  0.00000E+00  9.000E+00
      21     1     1     2   511   502 -4.266988095E+00  2.116237252E+01 -2.912486589E+02  2.920476580E+02  5.394796609E-06  0.00000E+00  9.000E+00
#rwgt            1           9   8.9579982738381117E-004           2     2080738           0
</event>
<event>
      6   9999 -3.45752E-01  5.60248E+00 -1.00000E+00  2.18290E-01
      21    -1     0     0   501   502  0.000000000E+00  0.000000000E+00  3.188324302E+03  3.188324302E+03  0.000000000E+00  0.00000E+00  9.000E+00
      21    -1     0     0   512   503  0.000000000E+00  0.000000000E+00 -6.292644240E+00  6.292644240E+00  0.000000000E+00  0.00000E+00  9.000E+00
      25     1     1     2     0     0  2.040738161E+00  5.864291342E+00  9.859310988E+02  9.938429875E+02  1.250007907E+02  0.00000E+00  9.000E+00
       5     1     1     2   501     0  2.702200476E+00 -6.007076430E-01  2.126074941E+03  2.126082049E+03  4.750000000E+00  0.00000E+00  9.000E+00
      -5     1     1     2     0   503 -1.899732928E+00 -4.361620041E-01  6.875591041E+01  6.894734903E+01  4.750000000E+00  0.00000E+00  9.000E+00
      21     1     1     2   512   502 -2.843205709E+00 -4.827421695E+00  1.269707648E+00  5.744560596E+00  1.625524776E-07  0.00000E+00  9.000E+00
#rwgt            1           9  -2.2966116990746320E-003           2     2083266           0
</event>
<event>
      6   9999  3.45752E-01  1.16947E+01 -1.00000E+00  1.80305E-01
      21    -1     0     0   501   502  0.000000000E+00  0.000000000E+00  7.761366103E+00  7.761366103E+00  0.000000000E+00  0.00000E+00  9.000E+00
      21    -1     0     0   511   503  0.000000000E+00  0.000000000E+00 -1.320051569E+03  1.320051569E+03  0.000000000E+00  0.00000E+00  9.000E+00
      25     1     1     2     0     0  1.072822447E+01  1.478934187E+01 -5.671146450E+02  5.810177430E+02  1.250151095E+02  0.00000E+00  9.000E+00
       5     1     1     2   501     0  1.695669025E-02  4.803779271E-01 -9.583797177E+00  1.070713402E+01  4.750000000E+00  0.00000E+00  9.000E+00
      -5     1     1     2     0   503 -7.008512846E+00 -4.188003407E+00 -1.153628524E+02  1.157489043E+02  4.750000000E+00  0.00000E+00  9.000E+00
      21     1     1     2   511   502 -3.736668317E+00 -1.108171639E+01 -6.202289078E+02  6.203391534E+02  0.000000000E+00  0.00000E+00  9.000E+00
#rwgt            1           9   1.2366312146603740E-002           2     2087385           0
</event>
<event>
      6   9999  3.45752E-01  6.97684E+00 -1.00000E+00  2.05322E-01
      21    -1     0     0   502   503  0.000000000E+00  0.000000000E+00  8.959569756E+00  8.959569756E+00  0.000000000E+00  0.00000E+00  9.000E+00
      21    -1     0     0   501   512  0.000000000E+00  0.000000000E+00 -7.822735283E+02  7.822735283E+02  0.000000000E+00  0.00000E+00  9.000E+00
      25     1     1     2     0     0  6.613812554E-01 -1.441398614E+01 -4.747858611E+02  4.911773943E+02  1.250016736E+02  0.00000E+00  9.000E+00
       5     1     1     2   501     0  4.469190732E+00 -1.174005245E+00 -1.575615032E+02  1.577007982E+02  4.750000000E+00  0.00000E+00  9.000E+00
      -5     1     1     2     0   503  6.886031542E-01  1.173916229E+01 -8.158666076E+01  8.256650543E+01  4.750000000E+00  0.00000E+00  9.000E+00
      21     1     1     2   502   512 -5.819175142E+00  3.848829102E+00 -5.937993353E+01  5.978840014E+01  0.000000000E+00  0.00000E+00  9.000E+00
#rwgt            1           9   7.0934049608567095E-004           2     2089645           0
</event>
<event>
      6   9999 -3.45752E-01  2.31601E+01 -1.00000E+00  1.55495E-01
      21    -1     0     0   501   502  0.000000000E+00  0.000000000E+00  3.658932348E+01  3.658932348E+01  0.000000000E+00  0.00000E+00  9.000E+00
      21    -1     0     0   502   511  0.000000000E+00  0.000000000E+00 -9.452846785E+02  9.452846785E+02  0.000000000E+00  0.00000E+00  9.000E+00
      25     1     1     2     0     0 -9.887718674E+01 -7.719098718E+01 -4.784334664E+02  5.101564932E+02  1.250036770E+02  0.00000E+00  9.000E+00
       5     1     1     2   501     0 -3.553030176E+00 -1.285991526E+00  1.018549387E+01  1.185683697E+01  4.750000000E+00  0.00000E+00  9.000E+00
      -5     1     1     2     0   503  9.235813486E+01  5.762166397E+01 -3.569240417E+02  3.731857651E+02  4.750000000E+00  0.00000E+00  9.000E+00
      21     1     1     2   503   511  1.007208206E+01  2.085531474E+01 -8.352334085E+01  8.667490673E+01  1.348699152E-06  0.00000E+00  9.000E+00
#rwgt            1           9  -4.5717238462277633E-002           2     2092734           0
</event>
<event>
      6   9999  3.45752E-01  2.46734E+01 -1.00000E+00  1.53548E-01
      21    -1     0     0   502   512  0.000000000E+00  0.000000000E+00  2.483988793E+02  2.483988793E+02  0.000000000E+00  0.00000E+00  9.000E+00
      21    -1     0     0   501   502  0.000000000E+00  0.000000000E+00 -5.552027523E+02  5.552027523E+02  0.000000000E+00  0.00000E+00  9.000E+00
      25     1     1     2     0     0 -1.203931882E+02  5.695661185E+01 -4.713541560E+02  5.055085542E+02  1.250023306E+02  0.00000E+00  9.000E+00
       5     1     1     2   501     0  2.343944047E+00 -1.495066349E+00  1.403180137E+01  1.507259920E+01  4.750000000E+00  0.00000E+00  9.000E+00
      -5     1     1     2     0   503  1.244390578E+02 -7.929313269E+01  1.858145449E+01  1.487962128E+02  4.750000000E+00  0.00000E+00  9.000E+00
      21     1     1     2   503   512 -6.389813697E+00  2.383158719E+01  1.319370271E+02  1.342242653E+02  0.000000000E+00  0.00000E+00  9.000E+00
#rwgt            1           9   9.1078426352329537E-005           2     2094248           0
</event>
<event>
      6   9999  3.45752E-01  1.24088E+01 -1.00000E+00  1.77833E-01
      21    -1     0     0   511   502  0.000000000E+00  0.000000000E+00  3.962684944E+01  3.962684944E+01  0.000000000E+00  0.00000E+00  9.000E+00
      21    -1     0     0   502   503  0.000000000E+00  0.000000000E+00 -1.669367419E+02  1.669367419E+02  0.000000000E+00  0.00000E+00  9.000E+00
      25     1     1     2     0     0  1.077469956E+01  3.075292601E+00 -1.298591265E+02  1.805936004E+02  1.250004168E+02  0.00000E+00  9.000E+00
       5     1     1     2   501     0  1.330541627E+00 -2.224463744E-01  5.391743569E+00  7.311171050E+00  4.750000000E+00  0.00000E+00  9.000E+00
      -5     1     1     2     0   503 -7.724814845E-02  1.975518029E-01 -3.976435264E+00  6.198349087E+00  4.750000000E+00  0.00000E+00  9.000E+00
      21     1     1     2   511   501 -1.202799304E+01 -3.050398029E+00  1.133925718E+00  1.246047078E+01  2.117852927E-07  0.00000E+00  9.000E+00
#rwgt            1           9   5.9983259401219611E-004           2     2096925           0
</event>
<event>
      6   9999  3.45752E-01  1.69377E+01 -1.00000E+00  1.65922E-01
      21    -1     0     0   501   502  0.000000000E+00  0.000000000E+00  5.689938666E+01  5.689938666E+01  0.000000000E+00  0.00000E+00  9.000E+00
       2    -1     0     0   502     0  0.000000000E+00  0.000000000E+00 -3.278638674E+03  3.278638674E+03  0.000000000E+00  0.00000E+00  9.000E+00
      25     1     1     2     0     0  1.621694363E+02  2.292127966E+01 -9.866841591E+02  1.007965527E+03  1.249982511E+02  0.00000E+00  9.000E+00
       5     1     1     2   501     0  1.645882715E+00 -3.409516714E-01  3.745619949E+01  3.779357827E+01  4.750000000E+00  0.00000E+00  9.000E+00
      -5     1     1     2     0   503 -1.806295714E+02 -2.053932262E+01 -9.551117460E+02  9.722704951E+02  4.750000000E+00  0.00000E+00  9.000E+00
       2     1     1     2   503     0  1.681425232E+01 -2.041005370E+00 -1.317399582E+03  1.317508460E+03  2.157918644E-05  0.00000E+00  9.000E+00
#rwgt            1           9  0.68942132655810440                2     2098904           0
</event>
<event>
      6   9999  3.45752E-01  1.23656E+01 -1.00000E+00  1.77976E-01
      21    -1     0     0   501   502  0.000000000E+00  0.000000000E+00  2.542885602E+03  2.542885602E+03  0.000000000E+00  0.00000E+00  9.000E+00
      21    -1     0     0   511   503  0.000000000E+00  0.000000000E+00 -3.992705423E+00  3.992705423E+00  0.000000000E+00  0.00000E+00  9.000E+00
      25     1     1     2     0     0  2.295896576E+01 -1.101664213E+01  1.610041388E+03  1.615087263E+03  1.250004643E+02  0.00000E+00  9.000E+00
       5     1     1     2   501     0  7.654445243E-01  3.482125787E-01  5.981872790E+02  5.982067289E+02  4.750000000E+00  0.00000E+00  9.000E+00
      -5     1     1     2     0   503 -2.013936686E+01  2.250297651E+01  2.657746655E+02  2.675270330E+02  4.750000000E+00  0.00000E+00  9.000E+00
      21     1     1     2   511   502 -3.585043425E+00 -1.183454696E+01  6.488956372E+01  6.605728210E+01  1.348699152E-06  0.00000E+00  9.000E+00
#rwgt            1           9  0.19583095454133900                2     2102593           0
</event>
<event>
      6   9999  3.45752E-01  7.27576E+00 -1.00000E+00  2.03023E-01
      21    -1     0     0   502   512  0.000000000E+00  0.000000000E+00  9.344259905E+01  9.344259905E+01  0.000000000E+00  0.00000E+00  9.000E+00
      21    -1     0     0   501   502  0.000000000E+00  0.000000000E+00 -7.158321402E+02  7.158321402E+02  0.000000000E+00  0.00000E+00  9.000E+00
      25     1     1     2     0     0 -6.162532012E-01 -9.574179356E+00 -6.501826520E+02  6.621578056E+02  1.249937354E+02  0.00000E+00  9.000E+00
       5     1     1     2   501     0  7.016169358E+00  1.039808081E+01 -4.338080795E+01  4.540708882E+01  4.750000000E+00  0.00000E+00  9.000E+00
      -5     1     1     2     0   503  6.790881958E-01  8.567015029E-01 -1.472119558E+01  1.550713376E+01  4.750000000E+00  0.00000E+00  9.000E+00
      21     1     1     2   503   512 -7.079004353E+00 -1.680602955E+00  8.589511435E+01  8.620271108E+01  3.693564745E-06  0.00000E+00  9.000E+00
#rwgt            1           9   6.8011908399448785E-005           2     2104644           0
</event>
<event>
      6   9999  3.45752E-01  4.45319E+01 -1.00000E+00  1.37535E-01
      21    -1     0     0   501   511  0.000000000E+00  0.000000000E+00  1.380695748E+02  1.380695748E+02  0.000000000E+00  0.00000E+00  9.000E+00
      21    -1     0     0   502   503  0.000000000E+00  0.000000000E+00 -1.706553750E+03  1.706553750E+03  0.000000000E+00  0.00000E+00  9.000E+00
      25     1     1     2     0     0 -2.289731708E+02  1.548604063E+02 -5.327068585E+02  6.130353286E+02  1.250010346E+02  0.00000E+00  9.000E+00
       5     1     1     2   501     0  3.630718075E+01 -4.059264988E+01  3.213223964E+01  6.341149677E+01  4.750000000E+00  0.00000E+00  9.000E+00
      -5     1     1     2     0   503  2.337901394E+02 -1.313527439E+02 -1.087092006E+03  1.119688781E+03  4.750000000E+00  0.00000E+00  9.000E+00
      21     1     1     2   502   511 -4.112414934E+01  1.708498753E+01  1.918245015E+01  4.848771857E+01  1.305872339E-06  0.00000E+00  9.000E+00
#rwgt            1           9   4.5867619169654865E-004           2     2106905           0
</event>
<event>
      6   9999  3.45752E-01  4.39281E+01 -1.00000E+00  1.37867E-01
      21    -1     0     0   502   503  0.000000000E+00  0.000000000E+00  3.102873217E+01  3.102873217E+01  0.000000000E+00  0.00000E+00  9.000E+00
      21    -1     0     0   512   502  0.000000000E+00  0.000000000E+00 -1.236510546E+03  1.236510546E+03  0.000000000E+00  0.00000E+00  9.000E+00
      25     1     1     2     0     0  1.387526958E+02  7.623225185E+01 -6.388154562E+02  6.699060039E+02  1.250008009E+02  0.00000E+00  9.000E+00
       5     1     1     2   501     0 -8.673391171E+01 -6.479642813E+01 -3.588677913E+02  3.748733155E+02  4.750000000E+00  0.00000E+00  9.000E+00
      -5     1     1     2     0   503 -8.210434128E+00 -1.467660741E+01 -9.982791465E+00  2.012542320E+01  4.750000000E+00  0.00000E+00  9.000E+00
      21     1     1     2   512   501 -4.380834999E+01  3.240783687E+00 -1.978157753E+02  2.026345360E+02  2.697398305E-06  0.00000E+00  9.000E+00
#rwgt            1           9   2.9780840845690712E-004           2     2108458           0
</event>
<event>
      6   9999  3.45752E-01  6.89380E+01 -1.00000E+00  1.27725E-01
      21    -1     0     0   511   502  0.000000000E+00  0.000000000E+00  1.935500071E+01  1.935500071E+01  0.000000000E+00  0.00000E+00  9.000E+00
       2    -1     0     0   501     0  0.000000000E+00  0.000000000E+00 -1.460217269E+03  1.460217269E+03  0.000000000E+00  0.00000E+00  9.000E+00
      25     1     1     2     0     0  1.497271093E+01  1.082963398E+02 -6.373106063E+02  6.585898343E+02  1.249939267E+02  0.00000E+00  9.000E+00
       5     1     1     2   501     0 -3.481250392E+01 -4.104480769E+01 -1.730690561E+02  1.813065011E+02  4.750000000E+00  0.00000E+00  9.000E+00
      -5     1     1     2     0   502 -2.622678829E+01 -1.596485438E+01 -9.952667054E+01  1.042633284E+02  4.750000000E+00  0.00000E+00  9.000E+00
       2     1     1     2   511     0  4.606658128E+01 -5.128667775E+01 -5.309559355E+02  5.354126060E+02  7.629394531E-06  0.00000E+00  9.000E+00
#rwgt            1           3   5.8020878840654919E-003           2     2109498           0
</event>
<event>
      6   9999  3.45752E-01  9.51100E+00 -1.00000E+00  1.89517E-01
      21    -1     0     0   502   503  0.000000000E+00  0.000000000E+00  5.596852189E+01  5.596852189E+01  0.000000000E+00  0.00000E+00  9.000E+00
      21    -1     0     0   501   512  0.000000000E+00  0.000000000E+00 -1.425669971E+03  1.425669971E+03  0.000000000E+00  0.00000E+00  9.000E+00
      25     1     1     2     0     0 -1.497869182E+02  1.122813576E+02 -2.475043481E+02  3.345551845E+02  1.250021802E+02  0.00000E+00  9.000E+00
       5     1     1     2   501     0  1.626379726E+02 -1.043704842E+02 -1.039396811E+03  1.057219278E+03  4.750000000E+00  0.00000E+00  9.000E+00
      -5     1     1     2     0   503 -2.065757124E+01 -2.477872518E+00 -3.397896130E+01  4.012489767E+01  4.750000000E+00  0.00000E+00  9.000E+00
      21     1     1     2   502   512  7.806516763E+00 -5.433000894E+00 -4.882132850E+01  4.973913267E+01  0.000000000E+00  0.00000E+00  9.000E+00
#rwgt            1           9   2.2183933626507269E-004           2     2110661           0
</event>
<event>
      6   9999 -3.45752E-01  1.12384E+01 -1.00000E+00  1.82006E-01
      21    -1     0     0   501   502  0.000000000E+00  0.000000000E+00  4.151153289E+01  4.151153289E+01  0.000000000E+00  0.00000E+00  9.000E+00
       2    -1     0     0   502     0  0.000000000E+00  0.000000000E+00 -1.388662734E+03  1.388662734E+03  0.000000000E+00  0.00000E+00  9.000E+00
      25     1     1     2     0     0  1.351181004E+01 -2.615622239E+00 -1.247032436E+03  1.253356990E+03  1.249977500E+02  0.00000E+00  9.000E+00
       5     1     1     2   501     0 -1.129071755E+00 -2.995604626E-02  3.022968889E+01  3.062143515E+01  4.750000000E+00  0.00000E+00  9.000E+00
      -5     1     1     2     0   503 -1.265021022E+00  1.003012561E+00  6.876169395E+00  8.511787000E+00  4.750000000E+00  0.00000E+00  9.000E+00
       2     1     1     2   503     0 -1.111771726E+01  1.642565724E+00 -1.372246238E+02  1.376840551E+02  3.303624740E-06  0.00000E+00  9.000E+00
#rwgt            1           9  -1.0958099807666327E-004           2     2115034           0
</event>
<event>
      6   9999  3.45752E-01  6.72815E+00 -1.00000E+00  2.07356E-01
      21    -1     0     0   501   502  0.000000000E+00  0.000000000E+00  1.461710869E+01  1.461710869E+01  0.000000000E+00  0.00000E+00  9.000E+00
      21    -1     0     0   511   503  0.000000000E+00  0.000000000E+00 -2.856490417E+03  2.856490417E+03  0.000000000E+00  0.00000E+00  9.000E+00
      25     1     1     2     0     0  1.129555594E+01  6.949843254E+01 -5.696004733E+02  5.873901313E+02  1.249993821E+02  0.00000E+00  9.000E+00
       5     1     1     2   501     0 -2.231589566E+00 -8.528975501E-01  3.576785470E+00  6.408066832E+00  4.750000000E+00  0.00000E+00  9.000E+00
      -5     1     1     2     0   503 -3.243563044E+00 -7.202056844E+01 -1.855887269E+03  1.857293084E+03  4.750000000E+00  0.00000E+00  9.000E+00
      21     1     1     2   511   502 -5.820403333E+00  3.375033446E+00 -4.199623512E+02  4.200162430E+02  5.394796609E-06  0.00000E+00  9.000E+00
#rwgt            1           9   1.8448847873635604E-004           2     2118557           0
</event>
<event>
      6   9999  3.45752E-01  2.58446E+00 -1.00000E+00  2.95021E-01
      21    -1     0     0   501   502  0.000000000E+00  0.000000000E+00  1.662026260E+01  1.662026260E+01  0.000000000E+00  0.00000E+00  9.000E+00
      21    -1     0     0   502   512  0.000000000E+00  0.000000000E+00 -1.029496700E+03  1.029496700E+03  0.000000000E+00  0.00000E+00  9.000E+00
      25     1     1     2     0     0  1.277363326E+01 -3.269721813E+01 -6.419211723E+02  6.549200560E+02  1.250008579E+02  0.00000E+00  9.000E+00
       5     1     1     2   501     0  3.329638643E+00  1.817003160E+00  8.259615588E+00  1.025532757E+01  4.750000000E+00  0.00000E+00  9.000E+00
      -5     1     1     2     0   503 -1.435497014E+01  2.897682378E+01 -3.187194140E+02  3.203909313E+02  4.750000000E+00  0.00000E+00  9.000E+00
      21     1     1     2   503   512 -1.748301761E+00  1.903391186E+00 -6.049546695E+01  6.055064805E+01  9.536743164E-07  0.00000E+00  9.000E+00
#rwgt            1           9   1.8298393669413725E-002           2     2122755           0
</event>
<event>
      6   9999  3.45752E-01  6.09097E+00 -1.00000E+00  2.13152E-01
      21    -1     0     0   501   502  0.000000000E+00  0.000000000E+00  1.932258394E+01  1.932258394E+01  0.000000000E+00  0.00000E+00  9.000E+00
      21    -1     0     0   502   511  0.000000000E+00  0.000000000E+00 -2.204517522E+03  2.204517522E+03  0.000000000E+00  0.00000E+00  9.000E+00
      25     1     1     2     0     0 -1.016830440E+01  7.709426920E-02 -2.014481237E+03  2.018381317E+03  1.250003445E+02  0.00000E+00  9.000E+00
       5     1     1     2   501     0  5.121515329E+00  1.389040117E+00  1.644566331E+01  1.792154272E+01  4.750000000E+00  0.00000E+00  9.000E+00
      -5     1     1     2     0   503  5.455086979E-01  2.637323647E+00 -6.628950182E+01  6.651401061E+01  4.750000000E+00  0.00000E+00  9.000E+00
      21     1     1     2   503   511  4.501280373E+00 -4.103458033E+00 -1.208698619E+02  1.210232350E+02  1.348699152E-06  0.00000E+00  9.000E+00
#rwgt            1           9   2.9394275687385786E-005           2     2130000           0
</event>
<event>
      6   9999  3.45752E-01  1.71018E+01 -1.00000E+00  1.65579E-01
       2    -1     0     0   502     0  0.000000000E+00  0.000000000E+00  1.342458549E+03  1.342458549E+03  0.000000000E+00  0.00000E+00  9.000E+00
      21    -1     0     0   501   502  0.000000000E+00  0.000000000E+00 -1.304054304E+02  1.304054304E+02  0.000000000E+00  0.00000E+00  9.000E+00
      25     1     1     2     0     0  1.339731960E+01 -9.489160762E+00 -8.564484334E+01  1.526914660E+02  1.253399866E+02  0.00000E+00  9.000E+00
       5     1     1     2   501     0  3.722127764E-01  1.654882005E-01 -7.482134037E+00  8.871908388E+00  4.750000000E+00  0.00000E+00  9.000E+00
      -5     1     1     2     0   503 -8.044514371E-01 -1.828829171E+00 -7.945598191E-01  5.213979628E+00  4.750000000E+00  0.00000E+00  9.000E+00
       2     1     1     2   503     0 -1.296508094E+01  1.115250173E+01  1.305974656E+03  1.306086625E+03  1.525878906E-05  0.00000E+00  9.000E+00
#rwgt            1           9   1.3875026539829485E-002           2     2135084           0
</event>
<event>
      6   9999  3.45752E-01  1.04743E+01 -1.00000E+00  1.85098E-01
      21    -1     0     0   501   511  0.000000000E+00  0.000000000E+00  1.114613009E+03  1.114613009E+03  0.000000000E+00  0.00000E+00  9.000E+00
      21    -1     0     0   502   503  0.000000000E+00  0.000000000E+00 -3.378915767E+03  3.378915767E+03  0.000000000E+00  0.00000E+00  9.000E+00
      25     1     1     2     0     0  5.363370175E+01  1.483036221E+02  1.589393861E+02  2.564333923E+02  1.250032719E+02  0.00000E+00  9.000E+00
       5     1     1     2   501     0 -2.073400367E+01  2.784484996E+01  5.382838664E+02  5.394231344E+02  4.750000000E+00  0.00000E+00  9.000E+00
      -5     1     1     2     0   503 -3.672945362E+01 -1.858975556E+02 -3.326826266E+03  3.332221859E+03  4.750000000E+00  0.00000E+00  9.000E+00
      21     1     1     2   502   511  3.829755534E+00  9.749083546E+00  3.653002548E+02  3.654503903E+02  0.000000000E+00  0.00000E+00  9.000E+00
#rwgt            1           9   1.8071056122544029E-002           2     2136422           0
</event>
<event>
      6   9999 -3.45752E-01  1.66670E+01 -1.00000E+00  1.66498E-01
      21    -1     0     0   501   502  0.000000000E+00  0.000000000E+00  3.516391902E+01  3.516391902E+01  0.000000000E+00  0.00000E+00  9.000E+00
      21    -1     0     0   502   512  0.000000000E+00  0.000000000E+00 -1.341125039E+03  1.341125039E+03  0.000000000E+00  0.00000E+00  9.000E+00
      25     1     1     2     0     0  4.808615280E+01  3.310503954E+01 -7.924062547E+02  8.043266715E+02  1.250020008E+02  0.00000E+00  9.000E+00
       5     1     1     2   501     0 -2.528879740E-01  6.682191295E+00  2.662283266E+01  2.785773414E+01  4.750000000E+00  0.00000E+00  9.000E+00
      -5     1     1     2     0   503 -3.150837952E+01 -3.642763745E+01 -3.830400098E+02  3.860854340E+02  4.750000000E+00  0.00000E+00  9.000E+00
      21     1     1     2   503   512 -1.632488531E+01 -3.359593392E+00 -1.571376885E+02  1.580191188E+02  1.907348633E-06  0.00000E+00  9.000E+00
#rwgt            1           9  -5.0512803703945475E-003           2     2144315           0
</event>
<event>
      6   9999  3.45752E-01  2.38504E+01 -1.00000E+00  1.54585E-01
      21    -1     0     0   501   502  0.000000000E+00  0.000000000E+00  4.436641292E+01  4.436641292E+01  0.000000000E+00  0.00000E+00  9.000E+00
      21    -1     0     0   502   511  0.000000000E+00  0.000000000E+00 -1.731326435E+03  1.731326435E+03  0.000000000E+00  0.00000E+00  9.000E+00
      25     1     1     2     0     0 -1.660073867E+02  1.267006492E+02 -6.929218405E+02  7.344230689E+02  1.250002405E+02  0.00000E+00  9.000E+00
       5     1     1     2   501     0 -7.191812710E-01 -1.541027505E-01 -2.396271047E-01  4.812576286E+00  4.750000000E+00  0.00000E+00  9.000E+00
      -5     1     1     2     0   503  1.475623450E+02 -1.407442429E+02 -4.729271600E+02  5.150400457E+02  4.750000000E+00  0.00000E+00  9.000E+00
      21     1     1     2   503   511  1.916422299E+01  1.419769643E+01 -5.208713940E+02  5.214171566E+02  0.000000000E+00  0.00000E+00  9.000E+00
#rwgt            1           9   3.8360454824591905E-004           2     2146857           0
</event>
<event>
      6   9999  3.45752E-01  2.36902E+01 -1.00000E+00  1.54793E-01
      21    -1     0     0   501   502  0.000000000E+00  0.000000000E+00  7.493083998E+01  7.493083998E+01  0.000000000E+00  0.00000E+00  9.000E+00
      21    -1     0     0   502   512  0.000000000E+00  0.000000000E+00 -1.594642913E+03  1.594642913E+03  0.000000000E+00  0.00000E+00  9.000E+00
      25     1     1     2     0     0 -2.053209187E+02  1.185302162E+02 -6.926643727E+02  7.427087873E+02  1.250052711E+02  0.00000E+00  9.000E+00
       5     1     1     2   501     0 -1.203410701E-01 -1.095892824E-01  3.368266130E+01  3.401632937E+01  4.750000000E+00  0.00000E+00  9.000E+00
      -5     1     1     2     0   503  1.841240548E+02 -1.080861947E+02 -7.812832238E+02  8.099446471E+02  4.750000000E+00  0.00000E+00  9.000E+00
      21     1     1     2   503   512  2.131720492E+01 -1.033443221E+01 -7.944713804E+01  8.290398940E+01  9.536743164E-07  0.00000E+00  9.000E+00
#rwgt            1           9   6.6256945700524914E-002           2     2148850           0
</event>
<event>
      6   9999  3.45752E-01  1.58186E+02 -1.00000E+00  1.12538E-01
      21    -1     0     0   501   502  0.000000000E+00  0.000000000E+00  4.074492004E+02  4.074492004E+02  0.000000000E+00  0.00000E+00  9.000E+00
      21    -1     0     0   511   503  0.000000000E+00  0.000000000E+00 -3.591635427E+03  3.591635427E+03  0.000000000E+00  0.00000E+00  9.000E+00
      25     1     1     2     0     0  4.422427426E+02 -2.773436038E+02 -1.216932065E+03  1.330055412E+03  1.250025204E+02  0.00000E+00  9.000E+00
       5     1     1     2   501     0  2.752616375E+01 -3.158171236E+01  3.097185842E+02  3.125752040E+02  4.750000000E+00  0.00000E+00  9.000E+00
      -5     1     1     2     0   503 -3.116972729E+02  3.029038863E+02 -1.869242611E+03  1.919113456E+03  4.750000000E+00  0.00000E+00  9.000E+00
      21     1     1     2   511   502 -1.580716335E+02  6.021429870E+00 -4.077301346E+02  4.373405556E+02  5.394796609E-06  0.00000E+00  9.000E+00
#rwgt            1           9   6.8892607494354223E-004           2     2151441           0
</event>
<event>
      6   9999  3.45752E-01  1.33856E+01 -1.00000E+00  1.74772E-01
      21    -1     0     0   512   502  0.000000000E+00  0.000000000E+00  4.068597367E+01  4.068597367E+01  0.000000000E+00  0.00000E+00  9.000E+00
      21    -1     0     0   502   503  0.000000000E+00  0.000000000E+00 -1.212989767E+03  1.212989767E+03  0.000000000E+00  0.00000E+00  9.000E+00
      25     1     1     2     0     0  3.001853680E+01  2.552654220E+01 -5.517177445E+02  5.670715700E+02  1.249999163E+02  0.00000E+00  9.000E+00
       5     1     1     2   501     0  2.894173994E+00 -4.000307924E+00  2.986107658E+01  3.063698910E+01  4.750000000E+00  0.00000E+00  9.000E+00
      -5     1     1     2     0   503 -3.962802915E+01 -3.310549431E+01 -6.255870372E+02  6.277324733E+02  4.750000000E+00  0.00000E+00  9.000E+00
      21     1     1     2   512   501  6.715318358E+00  1.157926004E+01 -2.486008872E+01  2.823470869E+01  6.743495762E-07  0.00000E+00  9.000E+00
#rwgt            1           9  0.37960654264180638                2     2152820           0
</event>
<event>
      6   9999 -3.45752E-01  3.53546E+01 -1.00000E+00  1.43368E-01
      21    -1     0     0   501   511  0.000000000E+00  0.000000000E+00  1.241043111E+02  1.241043111E+02  0.000000000E+00  0.00000E+00  9.000E+00
      21    -1     0     0   502   503  0.000000000E+00  0.000000000E+00 -1.623689179E+03  1.623689179E+03  0.000000000E+00  0.00000E+00  9.000E+00
      25     1     1     2     0     0 -1.369824188E+02 -9.338024900E+01 -5.209821220E+01  2.140593271E+02  1.249924711E+02  0.00000E+00  9.000E+00
       5     1     1     2   501     0 -1.297634970E+00  1.424721160E+00  7.516972459E+00  9.098409852E+00  4.750000000E+00  0.00000E+00  9.000E+00
      -5     1     1     2     0   503  1.492050606E+02  1.255798413E+02 -1.472376508E+03  1.485243276E+03  4.750000000E+00  0.00000E+00  9.000E+00
      21     1     1     2   502   511 -1.092500682E+01 -3.362431344E+01  1.737288017E+01  3.939247636E+01  7.907449699E-07  0.00000E+00  9.000E+00
#rwgt            1           9  -1.8127778973183115E-004           2     2155922           0
</event>
<event>
      6   9999 -3.45752E-01  1.28997E+02 -1.00000E+00  1.15916E-01
      21    -1     0     0   502   512  0.000000000E+00  0.000000000E+00  2.994534573E+02  2.994534573E+02  0.000000000E+00  0.00000E+00  9.000E+00
      21    -1     0     0   501   502  0.000000000E+00  0.000000000E+00 -9.796007422E+02  9.796007422E+02  0.000000000E+00  0.00000E+00  9.000E+00
      25     1     1     2     0     0  1.524572011E+02  1.133186121E+02 -1.206351314E+02  2.574134645E+02  1.249982030E+02  0.00000E+00  9.000E+00
       5     1     1     2   501     0 -6.860695927E-02  5.728642698E+00 -1.487731169E+02  1.489591383E+02  4.750000000E+00  0.00000E+00  9.000E+00
      -5     1     1     2     0   503 -1.300870260E+02  8.007189988E+00 -6.163269700E+02  6.299747978E+02  4.750000000E+00  0.00000E+00  9.000E+00
      21     1     1     2   503   512 -2.230156812E+01 -1.270544448E+02  2.055879333E+02  2.427067989E+02  2.697398305E-06  0.00000E+00  9.000E+00
#rwgt            1           9  -3.1787350244416269E-003           2     2157992           0
</event>
<event>
      6   9999  3.45752E-01  1.13240E+01 -1.00000E+00  1.81680E-01
      21    -1     0     0   501   502  0.000000000E+00  0.000000000E+00  7.532167904E+01  7.532167904E+01  0.000000000E+00  0.00000E+00  9.000E+00
      21    -1     0     0   502   511  0.000000000E+00  0.000000000E+00 -1.140911164E+02  1.140911164E+02  0.000000000E+00  0.00000E+00  9.000E+00
      25     1     1     2     0     0  2.179709041E+01  3.623483238E+01 -2.201468280E+01  1.337826720E+02  1.250003233E+02  0.00000E+00  9.000E+00
       5     1     1     2   501     0 -2.451228830E+01 -2.027956656E+01 -4.652388910E+00  3.250108183E+01  4.750000000E+00  0.00000E+00  9.000E+00
      -5     1     1     2     0   503  4.559968921E+00 -4.782560006E+00 -3.280872414E+00  8.774555292E+00  4.750000000E+00  0.00000E+00  9.000E+00
      21     1     1     2   503   511 -1.844771026E+00 -1.117270581E+01 -8.821493215E+00  1.435448633E+01  2.064765462E-07  0.00000E+00  9.000E+00
#rwgt            1           9   5.3355623955867078E-003           2     2158989           0
</event>
<event>
      6   9999  3.45752E-01  1.18238E+01 -1.00000E+00  1.79842E-01
      21    -1     0     0   512   502  0.000000000E+00  0.000000000E+00  3.573808178E+01  3.573808178E+01  0.000000000E+00  0.00000E+00  9.000E+00
      21    -1     0     0   502   503  0.000000000E+00  0.000000000E+00 -1.118338350E+03  1.118338350E+03  0.000000000E+00  0.00000E+00  9.000E+00
      25     1     1     2     0     0  9.072244899E+01  3.310264985E+01 -4.440010681E+02  4.712620479E+02  1.249984844E+02  0.00000E+00  9.000E+00
       5     1     1     2   501     0  6.304308613E-01 -7.694956602E-01  1.204820350E+01  1.298889041E+01  4.750000000E+00  0.00000E+00  9.000E+00
      -5     1     1     2     0   503 -7.953645677E+01 -3.274983223E+01 -6.522316111E+02  6.578960682E+02  4.750000000E+00  0.00000E+00  9.000E+00
      21     1     1     2   512   501 -1.181642308E+01  4.166780421E-01  1.584207511E+00  1.192942531E+01  4.504983562E-07  0.00000E+00  9.000E+00
#rwgt            1           9   3.7278528767519008E-004           2     2161329           0
</event>
<event>
      6   9999  3.45752E-01  2.18660E+01 -1.00000E+00  1.57309E-01
      21    -1     0     0   501   511  0.000000000E+00  0.000000000E+00  1.429591748E+01  1.429591748E+01  0.000000000E+00  0.00000E+00  9.000E+00
      21    -1     0     0   502   503  0.000000000E+00  0.000000000E+00 -3.771533372E+03  3.771533372E+03  0.000000000E+00  0.00000E+00  9.000E+00
      25     1     1     2     0     0  1.103602282E+00 -1.918893165E+00 -3.497076810E+03  3.499310829E+03  1.250006715E+02  0.00000E+00  9.000E+00
       5     1     1     2   501     0  2.179904907E-01  4.954764535E+00  1.039993638E+01  1.246267982E+01  4.750000000E+00  0.00000E+00  9.000E+00
      -5     1     1     2     0   503  2.053403109E+01 -2.362521622E+00 -1.550580276E+02  1.565017008E+02  4.750000000E+00  0.00000E+00  9.000E+00
      21     1     1     2   502   511 -2.185562387E+01 -6.733497479E-01 -1.155025535E+02  1.175540793E+02  1.907348633E-06  0.00000E+00  9.000E+00
#rwgt            1           9   7.6394557321098980E-005           2     2164246           0
</event>
<event>
      6   9999  3.45752E-01  1.87677E+01 -1.00000E+00  1.62348E-01
      21    -1     0     0   501   502  0.000000000E+00  0.000000000E+00  1.481044902E+01  1.481044902E+01  0.000000000E+00  0.00000E+00  9.000E+00
       2    -1     0     0   502     0  0.000000000E+00  0.000000000E+00 -1.885812846E+03  1.885812846E+03  0.000000000E+00  0.00000E+00  9.000E+00
      25     1     1     2     0     0  1.899671275E+01 -6.170758874E+01 -5.463662266E+02  5.641898256E+02  1.250016165E+02  0.00000E+00  9.000E+00
       5     1     1     2   501     0  1.314969962E+00  8.748568291E-01 -1.315557645E+00  5.175684727E+00  4.750000000E+00  0.00000E+00  9.000E+00
      -5     1     1     2     0   503 -5.208359986E+00  7.197344203E+01 -3.331252723E+02  3.408846036E+02  4.750000000E+00  0.00000E+00  9.000E+00
       2     1     1     2   503     0 -1.510332272E+01 -1.114071012E+01 -9.901953402E+02  9.903731810E+02  1.525878906E-05  0.00000E+00  9.000E+00
#rwgt            1           9   1.6668901061394097E-007           2     2166389           0
</event>
<event>
      6   9999  3.45752E-01  1.14729E+01 -1.00000E+00  1.81120E-01
      21    -1     0     0   501   502  0.000000000E+00  0.000000000E+00  1.841986106E+01  1.841986106E+01  0.000000000E+00  0.00000E+00  9.000E+00
      21    -1     0     0   502   511  0.000000000E+00  0.000000000E+00 -1.297629700E+03  1.297629700E+03  0.000000000E+00  0.00000E+00  9.000E+00
      25     1     1     2     0     0  2.164976834E+01  3.106811757E+00 -9.344485988E+02  9.430259240E+02  1.250013792E+02  0.00000E+00  9.000E+00
       5     1     1     2   501     0  5.182303249E-01 -1.789528575E-01  1.184588349E+01  1.277450753E+01  4.750000000E+00  0.00000E+00  9.000E+00
      -5     1     1     2     0   503 -1.301761290E+01 -9.848707332E+00 -4.036528259E+01  4.379924452E+01  4.750000000E+00  0.00000E+00  9.000E+00
      21     1     1     2   503   511 -9.150385770E+00  6.920848432E+00 -3.162418414E+02  3.164498854E+02  5.394796609E-06  0.00000E+00  9.000E+00
#rwgt            1           9   1.0437983199481596E-004           2     2168140           0
</event>
<event>
      6   9999  3.45752E-01  2.01362E+01 -1.00000E+00  1.59986E-01
      21    -1     0     0   501   502  0.000000000E+00  0.000000000E+00  3.183005268E+02  3.183005268E+02  0.000000000E+00  0.00000E+00  9.000E+00
      21    -1     0     0   502   512  0.000000000E+00  0.000000000E+00 -2.489026608E+03  2.489026608E+03  0.000000000E+00  0.00000E+00  9.000E+00
      25     1     1     2     0     0  1.572231517E+02  7.434311340E+01 -1.754964150E+03  1.767984614E+03  1.249976430E+02  0.00000E+00  9.000E+00
       5     1     1     2   501     0 -1.725145509E+01  5.117059867E+00  2.978959310E+02  2.984767080E+02  4.750000000E+00  0.00000E+00  9.000E+00
      -5     1     1     2     0   503 -1.462979502E+02 -9.857675319E+01 -6.688867559E+02  6.917749064E+02  4.750000000E+00  0.00000E+00  9.000E+00
      21     1     1     2   503   512  6.326253527E+00  1.911657992E+01 -4.477110680E+01  4.909090665E+01  0.000000000E+00  0.00000E+00  9.000E+00
#rwgt            1           9   1.5765062124158919E-004           2     2170979           0
</event>
<event>
      6   9999 -3.45752E-01  1.44221E+01 -1.00000E+00  1.71864E-01
      21    -1     0     0   501   502  0.000000000E+00  0.000000000E+00  1.502062951E+01  1.502062951E+01  0.000000000E+00  0.00000E+00  9.000E+00
      21    -1     0     0   502   511  0.000000000E+00  0.000000000E+00 -9.811958248E+02  9.811958248E+02  0.000000000E+00  0.00000E+00  9.000E+00
      25     1     1     2     0     0  5.919227499E+00 -2.720920773E+01 -8.119500088E+02  8.219893180E+02  1.250129748E+02  0.00000E+00  9.000E+00
       5     1     1     2   501     0 -1.410731616E+00 -1.595891418E+00  5.379811548E+00  7.486114172E+00  4.750000000E+00  0.00000E+00  9.000E+00
      -5     1     1     2     0   503 -1.758890639E+00  1.464756932E+01 -1.551112105E+01  2.192720592E+01  4.750000000E+00  0.00000E+00  9.000E+00
      21     1     1     2   503   511 -2.749605244E+00  1.415752983E+01 -1.440938770E+02  1.448138162E+02  0.000000000E+00  0.00000E+00  9.000E+00
#rwgt            1           9  -4.5960609368664703E-004           2     2175526           0
</event>
<event>
      6   9999  3.45752E-01  3.77444E+00 -1.00000E+00  2.53185E-01
      21    -1     0     0   501   502  0.000000000E+00  0.000000000E+00  8.664124853E+00  8.664124853E+00  0.000000000E+00  0.00000E+00  9.000E+00
       2    -1     0     0   502     0  0.000000000E+00  0.000000000E+00 -1.445864861E+03  1.445864861E+03  0.000000000E+00  0.00000E+00  9.000E+00
      25     1     1     2     0     0  3.083090972E+00  1.672477201E+01 -5.394590454E+02  5.540123835E+02  1.249977439E+02  0.00000E+00  9.000E+00
       5     1     1     2   501     0 -5.277329032E-01  2.370968056E-02 -5.466001236E+00  7.260766742E+00  4.750000000E+00  0.00000E+00  9.000E+00
      -5     1     1     2     0   503 -5.569690926E+00 -1.447687189E+01 -1.350627951E+02  1.360335341E+02  4.750000000E+00  0.00000E+00  9.000E+00
       2     1     1     2   503     0  3.014332858E+00 -2.271609798E+00 -7.572128946E+02  7.572223017E+02  1.525878906E-05  0.00000E+00  9.000E+00
#rwgt            1           9   1.0076196728366490E-003           2     2177260           0
</event>
<event>
      6   9999  3.45752E-01  2.86021E+01 -1.00000E+00  1.49191E-01
      21    -1     0     0   501   511  0.000000000E+00  0.000000000E+00  3.131418994E+01  3.131418994E+01  0.000000000E+00  0.00000E+00  9.000E+00
      21    -1     0     0   502   503  0.000000000E+00  0.000000000E+00 -1.179898020E+03  1.179898020E+03  0.000000000E+00  0.00000E+00  9.000E+00
      25     1     1     2     0     0 -1.171419125E+01 -1.873954183E+01 -7.440177963E+02  7.547697435E+02  1.250059670E+02  0.00000E+00  9.000E+00
       5     1     1     2   501     0 -1.395468670E+00 -4.885032609E+00  2.248295812E+01  2.353416203E+01  4.750000000E+00  0.00000E+00  9.000E+00
      -5     1     1     2     0   503 -6.169600320E+00  2.496652002E+00 -3.589946963E+02  3.590878050E+02  4.750000000E+00  0.00000E+00  9.000E+00
      21     1     1     2   502   511  1.927926024E+01  2.112792244E+01 -6.805429529E+01  7.382049912E+01  9.536743164E-07  0.00000E+00  9.000E+00
#rwgt            1           9   6.1644980134276561E-004           2     2181647           0
</event>
<event>
      6   9999 -3.45752E-01  5.87410E+00 -1.00000E+00  2.15349E-01
      21    -1     0     0   501   512  0.000000000E+00  0.000000000E+00  8.821271593E+02  8.821271593E+02  0.000000000E+00  0.00000E+00  9.000E+00
      21    -1     0     0   502   503  0.000000000E+00  0.000000000E+00 -1.757548969E+01  1.757548969E+01  0.000000000E+00  0.00000E+00  9.000E+00
      25     1     1     2     0     0  9.883479080E+00  4.623818063E-01  2.189098289E+02  2.522803579E+02  1.250038752E+02  0.00000E+00  9.000E+00
       5     1     1     2   501     0 -1.501893165E-01  2.939667543E+00  1.797349850E+02  1.798218328E+02  4.750000000E+00  0.00000E+00  9.000E+00
      -5     1     1     2     0   503 -9.915635957E+00  2.469217451E+00  3.757452145E+01  3.922784768E+01  4.750000000E+00  0.00000E+00  9.000E+00
      21     1     1     2   502   512  1.823461939E-01 -5.871266800E+00  4.283323342E+02  4.283726107E+02  0.000000000E+00  0.00000E+00  9.000E+00
#rwgt            1           9  -9.4887884221892364E-003           2     2183146           0
</event>
<event>
      6   9999 -3.45752E-01  1.11052E+01 -1.00000E+00  1.82523E-01
      21    -1     0     0   511   502  0.000000000E+00  0.000000000E+00  1.156391121E+01  1.156391121E+01  0.000000000E+00  0.00000E+00  9.000E+00
      21    -1     0     0   502   503  0.000000000E+00  0.000000000E+00 -1.784391279E+03  1.784391279E+03  0.000000000E+00  0.00000E+00  9.000E+00
      25     1     1     2     0     0 -1.174291242E+01  2.561876238E+01 -1.686314095E+03  1.691175421E+03  1.249994449E+02  0.00000E+00  9.000E+00
       5     1     1     2   501     0  2.876726753E+00  1.926198792E-01  3.616901220E+00  6.630017622E+00  4.750000000E+00  0.00000E+00  9.000E+00
      -5     1     1     2     0   503  1.826614781E+01 -1.989824325E+01 -5.806596877E+01  6.421690953E+01  4.750000000E+00  0.00000E+00  9.000E+00
      21     1     1     2   511   501 -9.399962140E+00 -5.913139011E+00 -3.206420546E+01  3.393284210E+01  0.000000000E+00  0.00000E+00  9.000E+00
#rwgt            1           9 -0.24758797158445073                2     2186538           0
</event>
<event>
      6   9999  3.45752E-01  2.83993E+01 -1.00000E+00  1.49395E-01
      21    -1     0     0   501   502  0.000000000E+00  0.000000000E+00  3.654300125E+01  3.654300125E+01  0.000000000E+00  0.00000E+00  9.000E+00
      21    -1     0     0   512   503  0.000000000E+00  0.000000000E+00 -1.732542633E+03  1.732542633E+03  0.000000000E+00  0.00000E+00  9.000E+00
      25     1     1     2     0     0 -7.344965376E+01 -1.723195668E+01 -7.720946772E+02  7.857801029E+02  1.250135495E+02  0.00000E+00  9.000E+00
       5     1     1     2   501     0  1.903883654E-01 -2.871974990E+00  2.461701441E+01  2.523577592E+01  4.750000000E+00  0.00000E+00  9.000E+00
      -5     1     1     2     0   503  8.558834689E+01 -5.479491613E+00 -4.151762513E+02  4.239684801E+02  4.750000000E+00  0.00000E+00  9.000E+00
      21     1     1     2   512   502 -1.232908150E+01  2.558342328E+01 -5.333457181E+02  5.341012758E+02  1.078959322E-05  0.00000E+00  9.000E+00
#rwgt            1           9   4.0567624069007774E-005           2     2189168           0
</event>
<event>
      6   9999  3.45752E-01  3.89203E+00 -1.00000E+00  2.50335E-01
      -2    -1     0     0     0   502  0.000000000E+00  0.000000000E+00  4.650515965E+01  4.650515965E+01  0.000000000E+00  0.00000E+00  9.000E+00
       2    -1     0     0   511     0  0.000000000E+00  0.000000000E+00 -1.390428176E+03  1.390428176E+03  0.000000000E+00  0.00000E+00  9.000E+00
      25     1     1     2     0     0 -5.087631510E+01  1.211445658E+02 -1.658701924E+02  2.457679630E+02  1.249982626E+02  0.00000E+00  9.000E+00
       5     1     1     2   501     0  6.059530088E+01 -7.698558318E+01 -4.029495817E+02  4.147161661E+02  4.750000000E+00  0.00000E+00  9.000E+00
      -5     1     1     2     0   502 -9.170824849E+00 -4.030574356E+01 -6.856174569E+02  6.868788225E+02  4.750000000E+00  0.00000E+00  9.000E+00
      21     1     1     2   511   501 -5.481609346E-01 -3.853239073E+00 -8.948578514E+01  8.957038391E+01  9.536743164E-07  0.00000E+00  9.000E+00
#rwgt            1           3   2.2959312419831452E-004           2     2191008           0
</event>
<event>
      6   9999  3.45752E-01  4.14803E+01 -1.00000E+00  1.39277E-01
      21    -1     0     0   502   512  0.000000000E+00  0.000000000E+00  5.867826934E+02  5.867826934E+02  0.000000000E+00  0.00000E+00  9.000E+00
      21    -1     0     0   501   502  0.000000000E+00  0.000000000E+00 -8.125262475E+02  8.125262475E+02  0.000000000E+00  0.00000E+00  9.000E+00
      25     1     1     2     0     0 -2.790064154E+01  1.331273417E+01 -5.012095292E+02  5.174862906E+02  1.250015764E+02  0.00000E+00  9.000E+00
       5     1     1     2   501     0 -3.220674529E+00 -6.270280995E-01 -2.528901069E+01  2.593959271E+01  4.750000000E+00  0.00000E+00  9.000E+00
      -5     1     1     2     0   503  3.540123008E+01 -5.394456951E+01 -2.730350017E+02  2.805956848E+02  4.750000000E+00  0.00000E+00  9.000E+00
      21     1     1     2   503   512 -4.279914011E+00  4.125886344E+01  5.737899875E+02  5.752873727E+02  7.629394531E-06  0.00000E+00  9.000E+00
#rwgt            1           9   1.2188068585003852E-003           2     2204996           0
</event>
<event>
      6   9999  3.45752E-01  3.68137E+01 -1.00000E+00  1.42309E-01
      21    -1     0     0   501   502  0.000000000E+00  0.000000000E+00  5.295235683E+02  5.295235683E+02  0.000000000E+00  0.00000E+00  9.000E+00
      21    -1     0     0   502   511  0.000000000E+00  0.000000000E+00 -2.205374671E+02  2.205374671E+02  0.000000000E+00  0.00000E+00  9.000E+00
      25     1     1     2     0     0  1.999096620E+00 -9.230602668E+01  4.354175253E+02  4.623175477E+02  1.249987785E+02  0.00000E+00  9.000E+00
       5     1     1     2   501     0  7.258610162E-01 -1.724878370E+00  5.312152229E+01  5.336628814E+01  4.750000000E+00  0.00000E+00  9.000E+00
      -5     1     1     2     0   503 -3.554064154E+00  5.722658798E+01 -7.019402582E+00  5.795988489E+01  4.750000000E+00  0.00000E+00  9.000E+00
      21     1     1     2   503   511  8.291065169E-01  3.680431706E+01 -1.725335438E+02  1.764173146E+02  2.697398305E-06  0.00000E+00  9.000E+00
#rwgt            1           9   2.2129111375455463E-003           2     2205676           0
</event>
<event>
      6   9999  3.45752E-01  3.67042E+01 -1.00000E+00  1.42387E-01
      21    -1     0     0   512   503  0.000000000E+00  0.000000000E+00  3.118940638E+02  3.118940638E+02  0.000000000E+00  0.00000E+00  9.000E+00
      21    -1     0     0   501   502  0.000000000E+00  0.000000000E+00 -3.217274821E+02  3.217274821E+02  0.000000000E+00  0.00000E+00  9.000E+00
      25     1     1     2     0     0  1.266649457E+02  1.244929719E+02 -2.173795071E+02  3.072737539E+02  1.249832037E+02  0.00000E+00  9.000E+00
       5     1     1     2   501     0  2.533743955E+01 -2.080785081E+01 -6.782780690E+00  3.381598901E+01  4.750000000E+00  0.00000E+00  9.000E+00
      -5     1     1     2     0   503 -1.157910849E+02 -1.096798595E+02  1.916833232E+02  2.494039010E+02  4.750000000E+00  0.00000E+00  9.000E+00
      21     1     1     2   512   502 -3.621130037E+01  5.994738470E+00  2.264554628E+01  4.312790199E+01  9.536743164E-07  0.00000E+00  9.000E+00
#rwgt            1           9   1141.3083202433450                2     2206767           0
</event>
<event>
      6   9999  3.45752E-01  1.58985E+01 -1.00000E+00  1.68211E-01
      21    -1     0     0   501   502  0.000000000E+00  0.000000000E+00  3.635424281E+01  3.635424281E+01  0.000000000E+00  0.00000E+00  9.000E+00
      21    -1     0     0   502   511  0.000000000E+00  0.000000000E+00 -1.210367235E+03  1.210367235E+03  0.000000000E+00  0.00000E+00  9.000E+00
      25     1     1     2     0     0 -2.691974705E+01  6.463098435E+01 -9.646698304E+02  9.752510118E+02  1.249992701E+02  0.00000E+00  9.000E+00
       5     1     1     2   501     0  1.003360646E+00 -5.104056203E+00  2.211712869E+01  2.321180742E+01  4.750000000E+00  0.00000E+00  9.000E+00
      -5     1     1     2     0   503  1.118621993E+01 -6.550902368E+01 -1.355489094E+02  1.510385151E+02  4.750000000E+00  0.00000E+00  9.000E+00
      21     1     1     2   503   511  1.473016648E+01  5.982095537E+00 -9.591138147E+01  9.722014383E+01  1.348699152E-06  0.00000E+00  9.000E+00
#rwgt            1           9   1.7621532107938494E-004           2     2208728           0
</event>
<event>
      6   9999  3.45752E-01  8.94235E+00 -1.00000E+00  1.92457E-01
      21    -1     0     0   501   502  0.000000000E+00  0.000000000E+00  3.238781062E+02  3.238781062E+02  0.000000000E+00  0.00000E+00  9.000E+00
      21    -1     0     0   512   503  0.000000000E+00  0.000000000E+00 -9.154671861E+01  9.154671861E+01  0.000000000E+00  0.00000E+00  9.000E+00
      25     1     1     2     0     0  1.052686662E+01  9.079877871E+01  1.321470014E+02  2.035763323E+02  1.250010398E+02  0.00000E+00  9.000E+00
       5     1     1     2   501     0 -4.518609114E+00 -4.583329857E-02  1.109956313E+02  1.111890848E+02  4.750000000E+00  0.00000E+00  9.000E+00
      -5     1     1     2     0   503 -1.487079847E+01 -8.956089837E+01 -7.894452832E+00  9.125338377E+01  4.750000000E+00  0.00000E+00  9.000E+00
      21     1     1     2   512   502  8.862540967E+00 -1.192047047E+00 -2.916792272E+00  9.406023905E+00  1.032382731E-07  0.00000E+00  9.000E+00
#rwgt            1           9   8.2893129906747801E-005           2     2211581           0
</event>
<event>
      6   9999 -3.45752E-01  7.59837E+00 -1.00000E+00  2.00701E-01
       3    -1     0     0   501     0  0.000000000E+00  0.000000000E+00  1.363255032E+02  1.363255032E+02  0.000000000E+00  0.00000E+00  9.000E+00
      21    -1     0     0   502   503  0.000000000E+00  0.000000000E+00 -5.899676199E+02  5.899676199E+02  0.000000000E+00  0.00000E+00  9.000E+00
      25     1     1     2     0     0 -6.385309230E+00 -7.457983402E+00 -5.781443396E+02  5.915819247E+02  1.249876097E+02  0.00000E+00  9.000E+00
       5     1     1     2   501     0  3.220418629E+00 -2.065931307E+00  1.930035708E+01  2.024118207E+01  4.750000000E+00  0.00000E+00  9.000E+00
      -5     1     1     2     0   503  5.835769369E-01  2.377441529E+00 -2.914592041E+00  6.086882374E+00  4.750000000E+00  0.00000E+00  9.000E+00
       3     1     1     2   502     0  2.581313664E+00  7.146473179E+00  1.081164579E+02  1.083831340E+02  2.336015456E-06  0.00000E+00  9.000E+00
#rwgt            1           9  -3.3756437645180298E-003           2     2215493           0
</event>
<event>
      6   9999 -3.45752E-01  2.02116E+01 -1.00000E+00  1.59862E-01
      21    -1     0     0   501   502  0.000000000E+00  0.000000000E+00  1.244921785E+02  1.244921785E+02  0.000000000E+00  0.00000E+00  9.000E+00
      21    -1     0     0   502   511  0.000000000E+00  0.000000000E+00 -1.914845577E+02  1.914845577E+02  0.000000000E+00  0.00000E+00  9.000E+00
      25     1     1     2     0     0  2.406616441E+00 -6.746161010E+01 -5.187164466E+01  1.512352061E+02  1.249982376E+02  0.00000E+00  9.000E+00
       5     1     1     2   501     0 -1.519932084E+00  1.225699973E+00  4.934966280E+01  4.961616926E+01  4.750000000E+00  0.00000E+00  9.000E+00
      -5     1     1     2     0   503 -2.108758810E+01  6.557927009E+01 -3.025753635E+01  7.538838135E+01  4.750000000E+00  0.00000E+00  9.000E+00
      21     1     1     2   503   511  2.020090374E+01  6.566400433E-01 -3.421286092E+01  3.973697951E+01  6.743495762E-07  0.00000E+00  9.000E+00
#rwgt            1           9  -5.9295466754098150E-004           2     2218863           0
</event>
<event>
      6   9999  3.45752E-01  1.29096E+01 -1.00000E+00  1.76221E-01
      21    -1     0     0   501   502  0.000000000E+00  0.000000000E+00  3.683451707E+01  3.683451707E+01  0.000000000E+00  0.00000E+00  9.000E+00
      21    -1     0     0   512   503  0.000000000E+00  0.000000000E+00 -1.159514653E+03  1.159514653E+03  0.000000000E+00  0.00000E+00  9.000E+00
      25     1     1     2     0     0  1.347029121E+01  1.321331564E+02 -4.412629443E+02  4.774722497E+02  1.250045738E+02  0.00000E+00  9.000E+00
       5     1     1     2   501     0 -1.574485969E+01 -1.787275823E+02 -5.142992813E+02  5.447180579E+02  4.750000000E+00  0.00000E+00  9.000E+00
      -5     1     1     2     0   503 -1.502397526E+00  3.424974723E+01 -1.002515369E+02  1.060576991E+02  4.750000000E+00  0.00000E+00  9.000E+00
      21     1     1     2   512   502  3.776966012E+00  1.234467869E+01 -6.686637351E+01  6.810116350E+01  9.536743164E-07  0.00000E+00  9.000E+00
#rwgt            1           9   6.4798533411260406E-002           2     2220748           0
</event>
<event>
      6   9999  3.45752E-01  9.35731E+00 -1.00000E+00  1.90285E-01
      21    -1     0     0   511   502  0.000000000E+00  0.000000000E+00  1.056548328E+01  1.056548328E+01  0.000000000E+00  0.00000E+00  9.000E+00
      21    -1     0     0   502   503  0.000000000E+00  0.000000000E+00 -1.158450129E+03  1.158450129E+03  0.000000000E+00  0.00000E+00  9.000E+00
      25     1     1     2     0     0 -2.775939670E+00 -7.225079630E+00 -1.104731418E+03  1.111807428E+03  1.249973745E+02  0.00000E+00  9.000E+00
       5     1     1     2   501     0 -4.171892769E-01 -5.288183170E-02  2.174251609E-01  4.773532977E+00  4.750000000E+00  0.00000E+00  9.000E+00
      -5     1     1     2     0   503  5.828918851E-01 -1.707912913E+00 -4.275631939E+01  4.305719542E+01  4.750000000E+00  0.00000E+00  9.000E+00
      21     1     1     2   511   501  2.610237062E+00  8.985874375E+00 -6.143337523E-01  9.377456039E+00  6.214874015E-07  0.00000E+00  9.000E+00
#rwgt            1           9   3.7085982052989692E-004           2     2223932           0
</event>
<event>
      6   9999  3.45752E-01  4.16894E+00 -1.00000E+00  2.44189E-01
      21    -1     0     0   501   502  0.000000000E+00  0.000000000E+00  1.567487050E+02  1.567487050E+02  0.000000000E+00  0.00000E+00  9.000E+00
      21    -1     0     0   512   503  0.000000000E+00  0.000000000E+00 -7.000416077E+01  7.000416077E+01  0.000000000E+00  0.00000E+00  9.000E+00
      25     1     1     2     0     0 -4.041923056E+00 -1.152426864E+01  4.110930361E+01  1.321482205E+02  1.249961257E+02  0.00000E+00  9.000E+00
       5     1     1     2   501     0  4.170505739E-01 -1.187786582E+00  6.514244800E+01  6.532752712E+01  4.750000000E+00  0.00000E+00  9.000E+00
      -5     1     1     2     0   503  1.558757697E+00  1.633299759E+01 -1.807519087E+01  2.486908846E+01  4.750000000E+00  0.00000E+00  9.000E+00
      21     1     1     2   512   502  2.066114785E+00 -3.620942372E+00 -1.432016533E+00  4.408029641E+00  1.074538015E-07  0.00000E+00  9.000E+00
#rwgt            1           9   416.85702610016813                2     2226566           0
</event>
<event>
      6   9999  3.45752E-01  5.52954E+00 -1.00000E+00  2.19120E-01
      21    -1     0     0   511   502  0.000000000E+00  0.000000000E+00  8.641988115E+01  8.641988115E+01  0.000000000E+00  0.00000E+00  9.000E+00
      21    -1     0     0   502   503  0.000000000E+00  0.000000000E+00 -1.408498066E+03  1.408498066E+03  0.000000000E+00  0.00000E+00  9.000E+00
      25     1     1     2     0     0 -9.082253077E+00 -7.968971972E+00 -1.019586183E+03  1.027290161E+03  1.249923968E+02  0.00000E+00  9.000E+00
       5     1     1     2   501     0  2.496775949E+00  9.887043697E-02 -5.185471767E-01  5.392129141E+00  4.750000000E+00  0.00000E+00  9.000E+00
      -5     1     1     2     0   503  1.062899121E+01  1.164181831E+01 -3.818315539E+02  3.821863491E+02  4.750000000E+00  0.00000E+00  9.000E+00
      21     1     1     2   511   501 -4.043514077E+00 -3.771716772E+00  7.985809851E+01  8.004930825E+01  5.223489356E-06  0.00000E+00  9.000E+00
#rwgt            1           9   1.1799699276777269                2     2231373           0
</event>
<event>
      6   9999  3.45752E-01  4.87965E+00 -1.00000E+00  2.31239E-01
      21    -1     0     0   501   512  0.000000000E+00  0.000000000E+00  1.296755985E+03  1.296755985E+03  0.000000000E+00  0.00000E+00  9.000E+00
      21    -1     0     0   502   503  0.000000000E+00  0.000000000E+00 -6.690537503E+00  6.690537503E+00  0.000000000E+00  0.00000E+00  9.000E+00
      25     1     1     2     0     0  2.409142318E+00 -4.776926847E+00  6.234445796E+02  6.358744690E+02  1.249982943E+02  0.00000E+00  9.000E+00
       5     1     1     2   501     0  1.909020794E+00  2.551172384E+00  5.691440106E+02  5.691727507E+02  4.750000000E+00  0.00000E+00  9.000E+00
      -5     1     1     2     0   503 -2.192238251E+00  6.617953546E+00  5.502345542E+01  5.566638450E+01  4.750000000E+00  0.00000E+00  9.000E+00
      21     1     1     2   502   512 -2.125924860E+00 -4.392199083E+00  4.245340201E+01  4.273291836E+01  6.743495762E-07  0.00000E+00  9.000E+00
#rwgt            1           9  0.99199614060464392                2     2235479           0
</event>
<event>
      6   9999  3.45752E-01  3.91416E+00 -1.00000E+00  2.49816E-01
      21    -1     0     0   501   502  0.000000000E+00  0.000000000E+00  4.955260853E+02  4.955260853E+02  0.000000000E+00  0.00000E+00  9.000E+00
       2    -1     0     0   502     0  0.000000000E+00  0.000000000E+00 -2.225765402E+03  2.225765402E+03  0.000000000E+00  0.00000E+00  9.000E+00
      25     1     1     2     0     0 -6.777587120E+00 -4.664870561E-01  2.692847508E+02  2.969600806E+02  1.249994365E+02  0.00000E+00  9.000E+00
       5     1     1     2   501     0  1.947639935E-01  2.446855679E-01  1.354868672E+02  1.355704669E+02  4.750000000E+00  0.00000E+00  9.000E+00
      -5     1     1     2     0   503  1.046661811E+01  7.083832900E-01  7.644199452E+01  7.730454662E+01  4.750000000E+00  0.00000E+00  9.000E+00
       2     1     1     2   503     0 -3.883794981E+00 -4.865818017E-01 -2.211452930E+03  2.211456394E+03  4.315837288E-05  0.00000E+00  9.000E+00
#rwgt            1           9  0.10522603488271998                2     2239480           0
</event>
<event>
      6   9999  3.45752E-01  2.68615E+01 -1.00000E+00  1.51011E-01
      21    -1     0     0   501   502  0.000000000E+00  0.000000000E+00  5.892359076E+01  5.892359076E+01  0.000000000E+00  0.00000E+00  9.000E+00
      21    -1     0     0   502   511  0.000000000E+00  0.000000000E+00 -2.958470913E+02  2.958470913E+02  0.000000000E+00  0.00000E+00  9.000E+00
      25     1     1     2     0     0  2.142995196E+01  1.940835622E+01 -6.609777237E+01  1.443254672E+02  1.249999914E+02  0.00000E+00  9.000E+00
       5     1     1     2   501     0  1.568480817E+00  2.514372011E+00  1.156559375E+01  1.284942245E+01  4.750000000E+00  0.00000E+00  9.000E+00
      -5     1     1     2     0   503 -4.592211598E+00 -2.358728828E+00  4.791473968E+00  8.495453598E+00  4.750000000E+00  0.00000E+00  9.000E+00
      21     1     1     2   503   511 -1.840622118E+01 -1.956399940E+01 -1.871827959E+02  1.891003387E+02  2.697398305E-06  0.00000E+00  9.000E+00
#rwgt            1           9   3.7647180527011379E-006           2     2244123           0
</event>
<event>
      6   9999  3.45752E-01  2.82755E+00 -1.00000E+00  2.83814E-01
      21    -1     0     0   501   502  0.000000000E+00  0.000000000E+00  1.564529221E+01  1.564529221E+01  0.000000000E+00  0.00000E+00  9.000E+00
      21    -1     0     0   502   512  0.000000000E+00  0.000000000E+00 -2.002922402E+03  2.002922402E+03  0.000000000E+00  0.00000E+00  9.000E+00
      25     1     1     2     0     0 -1.200877943E+01  7.294933557E-01 -1.153922570E+03  1.160735753E+03  1.250017886E+02  0.00000E+00  9.000E+00
       5     1     1     2   501     0  4.015409654E+00 -5.164297369E+00  1.082236561E+01  1.350850027E+01  4.750000000E+00  0.00000E+00  9.000E+00
      -5     1     1     2     0   503  9.746910859E+00  6.652939073E+00 -7.341750377E+02  7.342852391E+02  4.750000000E+00  0.00000E+00  9.000E+00
      21     1     1     2   503   512 -1.753541085E+00 -2.218135060E+00 -1.100018677E+02  1.100382021E+02  1.348699152E-06  0.00000E+00  9.000E+00
#rwgt            1           9   8.6383613910116203E-002           2     2245523           0
</event>
<event>
      6   9999 -3.45752E-01  3.67332E+00 -1.00000E+00  2.55766E-01
      21    -1     0     0   501   511  0.000000000E+00  0.000000000E+00  1.811137307E+01  1.811137307E+01  0.000000000E+00  0.00000E+00  9.000E+00
      21    -1     0     0   502   503  0.000000000E+00  0.000000000E+00 -7.160628508E+02  7.160628508E+02  0.000000000E+00  0.00000E+00  9.000E+00
      25     1     1     2     0     0 -1.696800523E+01  6.172895263E-01 -6.027865360E+02  6.158412568E+02  1.249822039E+02  0.00000E+00  9.000E+00
       5     1     1     2   501     0 -2.339164150E-01 -1.106782609E-01 -5.063818055E+00  6.947785249E+00  4.750000000E+00  0.00000E+00  9.000E+00
      -5     1     1     2     0   503  1.378934511E+01 -1.865869539E+00 -9.987101334E+01  1.009475572E+02  4.750000000E+00  0.00000E+00  9.000E+00
      21     1     1     2   502   511  3.412576533E+00  1.359258274E+00  9.769889714E+00  1.043762457E+01  4.460403188E-07  0.00000E+00  9.000E+00
#rwgt            1           9  -5.5168651980169313E-002           2     2253147           0
</event>
<event>
      6   9999  3.45752E-01  1.65808E+01 -1.00000E+00  1.66685E-01
      21    -1     0     0   501   502  0.000000000E+00  0.000000000E+00  4.378229892E+01  4.378229892E+01  0.000000000E+00  0.00000E+00  9.000E+00
      21    -1     0     0   502   512  0.000000000E+00  0.000000000E+00 -3.394967513E+02  3.394967513E+02  0.000000000E+00  0.00000E+00  9.000E+00
      25     1     1     2     0     0  2.329553158E+01  1.355135282E+01 -1.343374838E+02  1.854667557E+02  1.250001478E+02  0.00000E+00  9.000E+00
       5     1     1     2   501     0  5.341923620E-01 -4.397028674E-01  1.238876020E+00  4.957420083E+00  4.750000000E+00  0.00000E+00  9.000E+00
      -5     1     1     2     0   503 -1.419485473E+01 -2.660583252E+01 -1.159616346E+00  3.054949157E+01  4.750000000E+00  0.00000E+00  9.000E+00
      21     1     1     2   503   512 -9.634869213E+00  1.349418257E+01 -1.614562283E+02  1.623053830E+02  1.907348633E-06  0.00000E+00  9.000E+00
#rwgt            1           9  0.32404743440008571                2     2258046           0
</event>
<event>
      6   9999  3.45752E-01  6.15772E+00 -1.00000E+00  2.12500E-01
      21    -1     0     0   501   502  0.000000000E+00  0.000000000E+00  2.280902477E+01  2.280902477E+01  0.000000000E+00  0.00000E+00  9.000E+00
      21    -1     0     0   502   511  0.000000000E+00  0.000000000E+00 -3.009675898E+02  3.009675898E+02  0.000000000E+00  0.00000E+00  9.000E+00
      25     1     1     2     0     0 -3.776995273E+00 -9.974562149E+00 -2.107994683E+02  2.453043091E+02  1.249961225E+02  0.00000E+00  9.000E+00
       5     1     1     2   501     0 -1.546575059E-01  1.090901591E-01  3.208407095E+00  5.735171811E+00  4.750000000E+00  0.00000E+00  9.000E+00
      -5     1     1     2     0   503 -7.586532741E-01  5.875660412E+00 -1.483505899E+01  1.666554576E+01  4.750000000E+00  0.00000E+00  9.000E+00
      21     1     1     2   503   511  4.690306053E+00  3.989811578E+00 -5.573244483E+01  5.607158793E+01  9.536743164E-07  0.00000E+00  9.000E+00
#rwgt            1           9   1.3213134622284317E-002           2     2259753           0
</event>
<event>
      6   9999  3.45752E-01  1.25139E+01 -1.00000E+00  1.77486E-01
      21    -1     0     0   502   512  0.000000000E+00  0.000000000E+00  1.210394128E+01  1.210394128E+01  0.000000000E+00  0.00000E+00  9.000E+00
      21    -1     0     0   501   502  0.000000000E+00  0.000000000E+00 -8.926956671E+02  8.926956671E+02  0.000000000E+00  0.00000E+00  9.000E+00
      25     1     1     2     0     0 -1.376176210E+01 -2.643277661E+01 -4.335034036E+02  4.521490951E+02  1.250021017E+02  0.00000E+00  9.000E+00
       5     1     1     2   501     0  1.135414322E+01  3.731402519E+01 -3.973447472E+02  3.992826865E+02  4.750000000E+00  0.00000E+00  9.000E+00
      -5     1     1     2     0   503 -1.767456706E+00  9.156237737E-01 -2.623829564E+01  2.673897770E+01  4.750000000E+00  0.00000E+00  9.000E+00
      21     1     1     2   503   512  4.175075585E+00 -1.179687236E+01 -2.350527931E+01  2.662884919E+01  8.259061849E-07  0.00000E+00  9.000E+00
#rwgt            1           9   1.5342741180530944E-003           2     2262726           0
</event>
<event>
      6   9999  3.45752E-01  1.76183E+01 -1.00000E+00  1.64530E-01
      21    -1     0     0   501   502  0.000000000E+00  0.000000000E+00  3.636498774E+02  3.636498774E+02  0.000000000E+00  0.00000E+00  9.000E+00
      21    -1     0     0   502   511  0.000000000E+00  0.000000000E+00 -3.133720364E+02  3.133720364E+02  0.000000000E+00  0.00000E+00  9.000E+00
      25     1     1     2     0     0 -1.687412405E+01  1.363895154E+01  3.803682759E+01  1.324437324E+02  1.249951396E+02  0.00000E+00  9.000E+00
       5     1     1     2   501     0  5.506682022E+00 -6.600960161E+00  2.636422512E+02  2.638251226E+02  4.750000000E+00  0.00000E+00  9.000E+00
      -5     1     1     2     0   503  2.877594843E+01 -9.748642276E+00 -2.092528263E+00  3.082259575E+01  4.750000000E+00  0.00000E+00  9.000E+00
      21     1     1     2   503   511 -1.740850641E+01  2.710650898E+00 -2.493087095E+02  2.499304631E+02  2.697398305E-06  0.00000E+00  9.000E+00
#rwgt            1           9   2.6364588965577024E-004           2     2264897           0
</event>
<event>
      6   9999  3.45752E-01  3.43098E+00 -1.00000E+00  2.62503E-01
      21    -1     0     0   501   502  0.000000000E+00  0.000000000E+00  1.594410144E+01  1.594410144E+01  0.000000000E+00  0.00000E+00  9.000E+00
      21    -1     0     0   502   512  0.000000000E+00  0.000000000E+00 -8.957136158E+02  8.957136158E+02  0.000000000E+00  0.00000E+00  9.000E+00
      25     1     1     2     0     0 -7.220092269E+00 -1.191561313E+01 -2.735040401E+02  3.010376436E+02  1.250003655E+02  0.00000E+00  9.000E+00
       5     1     1     2   501     0 -1.746552112E-01  4.959447861E-01 -7.166544533E-01  4.832448580E+00  4.750000000E+00  0.00000E+00  9.000E+00
      -5     1     1     2     0   503  7.803982035E+00  8.013179005E+00 -5.492117038E+02  5.493461306E+02  4.750000000E+00  0.00000E+00  9.000E+00
      21     1     1     2   503   512 -4.092345546E-01  3.406489338E+00 -5.633711609E+01  5.644149441E+01  9.536743164E-07  0.00000E+00  9.000E+00
#rwgt            1           9   2.0829841809446640E-002           2     2267057           0
</event>
<event>
      6   9999  3.45752E-01  9.38839E+00 -1.00000E+00  1.90128E-01
      21    -1     0     0   511   502  0.000000000E+00  0.000000000E+00  1.162368844E+01  1.162368844E+01  0.000000000E+00  0.00000E+00  9.000E+00
      21    -1     0     0   502   503  0.000000000E+00  0.000000000E+00 -8.084910379E+02  8.084910379E+02  0.000000000E+00  0.00000E+00  9.000E+00
      25     1     1     2     0     0  1.259609059E+01  3.866856649E+00 -6.811722475E+02  6.926717410E+02  1.249995840E+02  0.00000E+00  9.000E+00
       5     1     1     2   501     0 -7.668618613E+00 -5.363604307E+00 -2.353872103E+00  1.075542544E+01  4.750000000E+00  0.00000E+00  9.000E+00
      -5     1     1     2     0   503 -4.233538702E+00 -7.865957780E+00 -9.919374408E+01  9.970836226E+01  4.750000000E+00  0.00000E+00  9.000E+00
      21     1     1     2   511   501 -6.939332722E-01  9.362705438E+00 -1.414748583E+01  1.697919762E+01  3.371747881E-07  0.00000E+00  9.000E+00
#rwgt            1           9   1.2131780790306934                2     2273079           0
</event>
<event>
      6   9999  3.45752E-01  1.13752E+01 -1.00000E+00  1.81486E-01
      21    -1     0     0   501   502  0.000000000E+00  0.000000000E+00  1.475342972E+02  1.475342972E+02  0.000000000E+00  0.00000E+00  9.000E+00
      21    -1     0     0   512   503  0.000000000E+00  0.000000000E+00 -4.133301514E+01  4.133301514E+01  0.000000000E+00  0.00000E+00  9.000E+00
      25     1     1     2     0     0 -6.608280314E+00 -2.668414011E+00  8.975322667E+01  1.540677144E+02  1.250217146E+02  0.00000E+00  9.000E+00
       5     1     1     2   501     0 -4.811032964E-01 -5.039072672E-01  1.491288330E+01  1.566658773E+01  4.750000000E+00  0.00000E+00  9.000E+00
      -5     1     1     2     0   503 -3.764270228E+00 -2.327282011E-01  4.289889767E+00  7.428966750E+00  4.750000000E+00  0.00000E+00  9.000E+00
      21     1     1     2   512   502  1.085365384E+01  3.405049480E+00 -2.754717645E+00  1.170404344E+01  6.664001875E-08  0.00000E+00  9.000E+00
#rwgt            1           9   3.6932902227535596E-003           2     2276106           0
</event>
<event>
      6   9999  3.45752E-01  2.16216E+01 -1.00000E+00  1.57668E-01
      21    -1     0     0   501   502  0.000000000E+00  0.000000000E+00  1.514424521E+02  1.514424521E+02  0.000000000E+00  0.00000E+00  9.000E+00
      21    -1     0     0   502   511  0.000000000E+00  0.000000000E+00 -5.150239319E+02  5.150239319E+02  0.000000000E+00  0.00000E+00  9.000E+00
      25     1     1     2     0     0  3.970884660E+01 -2.831628785E+01 -2.372615708E+02  2.725733477E+02  1.249982890E+02  0.00000E+00  9.000E+00
       5     1     1     2   501     0 -6.021722963E+00  6.641510239E+00  1.013132234E+02  1.018199516E+02  4.750000000E+00  0.00000E+00  9.000E+00
      -5     1     1     2     0   503 -5.476939630E+01  2.647404722E+01  2.362736536E+00  6.106313922E+01  4.750000000E+00  0.00000E+00  9.000E+00
      21     1     1     2   503   511  2.108227266E+01 -4.799269606E+00 -2.299958689E+02  2.310099455E+02  3.814697266E-06  0.00000E+00  9.000E+00
#rwgt            1           9   6.0525742119304539E-004           2     2278282           0
</event>
<event>
      6   9999  3.45752E-01  2.17236E+01 -1.00000E+00  1.57518E-01
      21    -1     0     0   501   502  0.000000000E+00  0.000000000E+00  2.447556848E+03  2.447556848E+03  0.000000000E+00  0.00000E+00  9.000E+00
      21    -1     0     0   512   503  0.000000000E+00  0.000000000E+00 -5.309064793E+01  5.309064793E+01  0.000000000E+00  0.00000E+00  9.000E+00
      25     1     1     2     0     0 -1.107504590E+01  1.547418823E+01  9.448274355E+01  1.578421767E+02  1.250002271E+02  0.00000E+00  9.000E+00
       5     1     1     2   501     0  3.659961228E+00  3.144982683E+00  2.304153976E+03  2.304163925E+03  4.750000000E+00  0.00000E+00  9.000E+00
      -5     1     1     2     0   503 -3.202568558E+00  3.329045530E-01  1.082005619E+01  1.224758698E+01  4.750000000E+00  0.00000E+00  9.000E+00
      21     1     1     2   512   502  1.061765323E+01 -1.895207547E+01 -1.499057532E+01  2.639380748E+01  1.079486029E-06  0.00000E+00  9.000E+00
#rwgt            1           9   2.8934538102458427E-004           2     2280511           0
</event>
<event>
      6   9999  3.45752E-01  2.38815E+01 -1.00000E+00  1.54545E-01
      21    -1     0     0   501   502  0.000000000E+00  0.000000000E+00  8.160740360E+01  8.160740360E+01  0.000000000E+00  0.00000E+00  9.000E+00
      21    -1     0     0   502   511  0.000000000E+00  0.000000000E+00 -1.212918488E+03  1.212918488E+03  0.000000000E+00  0.00000E+00  9.000E+00
      25     1     1     2     0     0 -1.900004903E+02 -1.656841513E+02 -3.180827728E+02  4.246804376E+02  1.250015976E+02  0.00000E+00  9.000E+00
       5     1     1     2   501     0 -2.239079988E-01 -4.311801782E-01  8.711247266E+00  9.934001211E+00  4.750000000E+00  0.00000E+00  9.000E+00
      -5     1     1     2     0   503  1.715435701E+02  1.512373898E+02 -7.506768878E+02  7.847536536E+02  4.750000000E+00  0.00000E+00  9.000E+00
      21     1     1     2   503   511  1.868082825E+01  1.487794168E+01 -7.126267085E+01  7.515779899E+01  1.348699152E-06  0.00000E+00  9.000E+00
#rwgt            1           9   6.0186924456182192E-002           2     2283132           0
</event>
<event>
      6   9999 -3.45752E-01  1.67007E+01 -1.00000E+00  1.66426E-01
      21    -1     0     0   501   512  0.000000000E+00  0.000000000E+00  3.235734017E+01  3.235734017E+01  0.000000000E+00  0.00000E+00  9.000E+00
      21    -1     0     0   502   503  0.000000000E+00  0.000000000E+00 -1.095746794E+03  1.095746794E+03  0.000000000E+00  0.00000E+00  9.000E+00
      25     1     1     2     0     0 -2.070584823E+00  9.019075833E+00 -1.042878533E+03  1.050382067E+03  1.249848845E+02  0.00000E+00  9.000E+00
       5     1     1     2   501     0 -2.039545023E-01 -1.039472567E+00  2.292989257E+01  2.344066070E+01  4.750000000E+00  0.00000E+00  9.000E+00
      -5     1     1     2     0   503 -1.037664655E+01  2.922700423E+00 -3.183309718E+01  3.394297494E+01  4.750000000E+00  0.00000E+00  9.000E+00
      21     1     1     2   502   512  1.265118588E+01 -1.090230369E+01 -1.160771705E+01  2.033843221E+01  4.129530925E-07  0.00000E+00  9.000E+00
#rwgt            1           9  -9.3907496598336665E-005           2     2285457           0
</event>
<event>
      6   9999  3.45752E-01  6.07969E+01 -1.00000E+00  1.30396E-01
      21    -1     0     0   511   502  0.000000000E+00  0.000000000E+00  2.286050217E+02  2.286050217E+02  0.000000000E+00  0.00000E+00  9.000E+00
      21    -1     0     0   502   503  0.000000000E+00  0.000000000E+00 -1.807157449E+02  1.807157449E+02  0.000000000E+00  0.00000E+00  9.000E+00
      25     1     1     2     0     0  4.943618647E+01  7.201876388E+01 -1.242864292E+01  1.530023323E+02  1.249984146E+02  0.00000E+00  9.000E+00
       5     1     1     2   501     0 -3.469128473E+01 -2.121263736E+01 -3.647944771E+01  5.483405717E+01  4.750000000E+00  0.00000E+00  9.000E+00
      -5     1     1     2     0   503 -2.122377571E+01  9.644533938E+00 -4.294205195E+01  4.909223987E+01  4.750000000E+00  0.00000E+00  9.000E+00
      21     1     1     2   511   501  6.478873972E+00 -6.045066045E+01  1.397394194E+02  1.523921372E+02  1.907348633E-06  0.00000E+00  9.000E+00
#rwgt            1           9  0.11302696393400638                2     2287836           0
</event>
<event>
      6   9999  3.45752E-01  1.51373E+01 -1.00000E+00  1.70029E-01
      21    -1     0     0   501   502  0.000000000E+00  0.000000000E+00  9.024180005E+01  9.024180005E+01  0.000000000E+00  0.00000E+00  9.000E+00
      21    -1     0     0   512   503  0.000000000E+00  0.000000000E+00 -1.641103050E+02  1.641103050E+02  0.000000000E+00  0.00000E+00  9.000E+00
      25     1     1     2     0     0 -1.737444930E+01  4.527098513E+00 -4.058466905E+01  1.326409476E+02  1.249965580E+02  0.00000E+00  9.000E+00
       5     1     1     2   501     0 -4.280688780E+00 -3.080534187E+00  4.191322856E+01  4.250994255E+01  4.750000000E+00  0.00000E+00  9.000E+00
      -5     1     1     2     0   503  6.866010374E+00 -4.674605674E+00 -2.488089854E+01  2.665737513E+01  4.750000000E+00  0.00000E+00  9.000E+00
      21     1     1     2   512   502  1.478912770E+01  3.228041348E+00 -5.031616587E+01  5.254383977E+01  0.000000000E+00  0.00000E+00  9.000E+00
#rwgt            1           9   3.5404195355848373E-003           2     2288477           0
</event>
<event>
      6   9999 -3.45752E-01  5.02611E+01 -1.00000E+00  1.34667E-01
      21    -1     0     0   501   502  0.000000000E+00  0.000000000E+00  1.081806905E+02  1.081806905E+02  0.000000000E+00  0.00000E+00  9.000E+00
      21    -1     0     0   511   503  0.000000000E+00  0.000000000E+00 -1.728916048E+03  1.728916048E+03  0.000000000E+00  0.00000E+00  9.000E+00
      25     1     1     2     0     0  8.471651715E+01  2.215962972E+02 -1.293817917E+03  1.321314312E+03  1.249996072E+02  0.00000E+00  9.000E+00
       5     1     1     2   501     0  2.335249365E+01 -4.145463822E+01 -1.071780158E+01  4.900265055E+01  4.750000000E+00  0.00000E+00  9.000E+00
      -5     1     1     2     0   503 -1.280368752E+02 -1.340172197E+02 -4.477277807E+01  1.907386190E+02  4.750000000E+00  0.00000E+00  9.000E+00
      21     1     1     2   511   502  1.996786444E+01 -4.612443925E+01 -2.714268604E+02  2.760411564E+02  0.000000000E+00  0.00000E+00  9.000E+00
#rwgt            1           9  -6.0512103388672819E-004           2     2290513           0
</event>
<event>
      6   9999  3.45752E-01  2.64470E+01 -1.00000E+00  1.51469E-01
      21    -1     0     0   501   512  0.000000000E+00  0.000000000E+00  2.785217342E+02  2.785217342E+02  0.000000000E+00  0.00000E+00  9.000E+00
      21    -1     0     0   502   503  0.000000000E+00  0.000000000E+00 -4.249736863E+02  4.249736863E+02  0.000000000E+00  0.00000E+00  9.000E+00
      25     1     1     2     0     0  5.986430708E+01 -2.808858865E+01  1.173926998E+02  1.837884704E+02  1.249978072E+02  0.00000E+00  9.000E+00
       5     1     1     2   501     0 -2.761330645E+00  8.589022076E+00  9.805088660E+01  9.857958770E+01  4.750000000E+00  0.00000E+00  9.000E+00
      -5     1     1     2     0   503 -8.270470119E+01  2.613266850E+01 -3.795277013E+02  3.893415242E+02  4.750000000E+00  0.00000E+00  9.000E+00
      21     1     1     2   502   512  2.560172476E+01 -6.633101926E+00  1.763216280E+01  3.178583830E+01  0.000000000E+00  0.00000E+00  9.000E+00
#rwgt            1           9   2.0477482198935887E-002           2     2292024           0
</event>
<event>
      6   9999  3.45752E-01  2.49476E+01 -1.00000E+00  1.53213E-01
      21    -1     0     0   501   511  0.000000000E+00  0.000000000E+00  4.562299810E+01  4.562299810E+01  0.000000000E+00  0.00000E+00  9.000E+00
      21    -1     0     0   502   503  0.000000000E+00  0.000000000E+00 -1.873898621E+03  1.873898621E+03  0.000000000E+00  0.00000E+00  9.000E+00
      25     1     1     2     0     0 -3.417418014E+01 -2.183696980E+02 -1.035800515E+03  1.066470769E+03  1.249959725E+02  0.00000E+00  9.000E+00
       5     1     1     2   501     0  5.820721138E+01  2.266339572E+02 -5.280601354E+02  5.775994279E+02  4.750000000E+00  0.00000E+00  9.000E+00
      -5     1     1     2     0   503 -3.265438433E+01 -3.167479591E+01 -2.181006217E+02  2.228453392E+02  4.750000000E+00  0.00000E+00  9.000E+00
      21     1     1     2   502   511  8.621353090E+00  2.341053675E+01 -4.631435099E+01  5.260608394E+01  6.743495762E-07  0.00000E+00  9.000E+00
#rwgt            1           9   1.3272761699405070E-003           2     2294079           0
</event>
<event>
      6   9999  3.45752E-01  9.45738E+00 -1.00000E+00  1.89782E-01
      21    -1     0     0   501   502  0.000000000E+00  0.000000000E+00  1.964814422E+01  1.964814422E+01  0.000000000E+00  0.00000E+00  9.000E+00
      21    -1     0     0   512   503  0.000000000E+00  0.000000000E+00 -9.802278359E+02  9.802278359E+02  0.000000000E+00  0.00000E+00  9.000E+00
      25     1     1     2     0     0  1.561705042E+01 -6.969711601E+00 -5.353559523E+02  5.500215469E+02  1.250009491E+02  0.00000E+00  9.000E+00
       5     1     1     2   501     0  3.284734650E+00 -4.505906362E+00  1.052999753E+01  1.282715954E+01  4.750000000E+00  0.00000E+00  9.000E+00
      -5     1     1     2     0   503 -9.492094226E+00  1.052705102E+01 -3.909762274E+02  3.912619220E+02  4.750000000E+00  0.00000E+00  9.000E+00
      21     1     1     2   512   502 -9.409690843E+00  9.485669433E-01 -4.477750942E+01  4.576535164E+01  8.259061849E-07  0.00000E+00  9.000E+00
#rwgt            1           9   3.5966126049743296E-003           2     2296126           0
</event>
<event>
      6   9999  3.45752E-01  1.21056E+01 -1.00000E+00  1.78856E-01
      21    -1     0     0   501   502  0.000000000E+00  0.000000000E+00  1.071203728E+01  1.071203728E+01  0.000000000E+00  0.00000E+00  9.000E+00
      21    -1     0     0   511   503  0.000000000E+00  0.000000000E+00 -1.073274851E+03  1.073274851E+03  0.000000000E+00  0.00000E+00  9.000E+00
      25     1     1     2     0     0  1.952687796E+00 -2.043455880E+01 -6.422255060E+02  6.546001181E+02  1.250053194E+02  0.00000E+00  9.000E+00
       5     1     1     2   501     0 -1.830515050E+00 -1.789558723E+00  2.294332764E+00  5.863426354E+00  4.750000000E+00  0.00000E+00  9.000E+00
      -5     1     1     2     0   503 -3.439143996E+00  1.058177337E+01 -1.111340579E+02  1.117906211E+02  4.750000000E+00  0.00000E+00  9.000E+00
      21     1     1     2   511   502  3.316971250E+00  1.164234415E+01 -3.114975826E+02  3.117327228E+02  3.814697266E-06  0.00000E+00  9.000E+00
#rwgt            1           9  0.24098670868879724                2     2298789           0
</event>
<event>
      6   9999  3.45752E-01  1.32128E+02 -1.00000E+00  1.15508E-01
       1    -1     0     0   501     0  0.000000000E+00  0.000000000E+00  5.858163021E+01  5.858163021E+01  0.000000000E+00  0.00000E+00  9.000E+00
      21    -1     0     0   512   502  0.000000000E+00  0.000000000E+00 -1.113849404E+03  1.113849404E+03  0.000000000E+00  0.00000E+00  9.000E+00
      25     1     1     2     0     0 -3.019648166E+01 -6.246351667E+01 -5.369863979E+02  5.556944990E+02  1.250138641E+02  0.00000E+00  9.000E+00
       5     1     1     2   501     0 -8.544975768E+01 -5.373445207E+00 -4.376724562E+02  4.459935834E+02  4.750000000E+00  0.00000E+00  9.000E+00
      -5     1     1     2     0   502  1.053268266E+00  2.063314950E+00 -2.805298890E+01  2.854644161E+01  4.750000000E+00  0.00000E+00  9.000E+00
       1     1     1     2   512     0  1.145929711E+02  6.577364692E+01 -5.255593069E+01  1.421965101E+02  2.939421655E-06  0.00000E+00  9.000E+00
#rwgt            1           2   4.5845872588490384E-002           2     2301116           0
</event>
<event>
      6   9999  3.45752E-01  2.17754E+01 -1.00000E+00  1.57441E-01
      21    -1     0     0   501   511  0.000000000E+00  0.000000000E+00  4.882991679E+01  4.882991679E+01  0.000000000E+00  0.00000E+00  9.000E+00
      21    -1     0     0   502   503  0.000000000E+00  0.000000000E+00 -1.200085127E+03  1.200085127E+03  0.000000000E+00  0.00000E+00  9.000E+00
      25     1     1     2     0     0  3.897352127E+01  1.440142822E+02 -8.809915005E+02  9.022359154E+02  1.249982968E+02  0.00000E+00  9.000E+00
       5     1     1     2   501     0 -4.826540285E+01 -1.650427565E+02 -2.014753248E+02  2.649217424E+02  4.750000000E+00  0.00000E+00  9.000E+00
      -5     1     1     2     0   503 -4.774289408E+00  4.405929100E+00 -5.585277502E+01  5.642961127E+01  4.750000000E+00  0.00000E+00  9.000E+00
      21     1     1     2   502   511  1.406617100E+01  1.662254522E+01 -1.293561017E+01  2.532777500E+01  5.331201500E-07  0.00000E+00  9.000E+00
#rwgt            1           9   1.9076764917959062E-003           2     2302059           0
</event>
<event>
      6   9999  3.45752E-01  8.14297E+00 -1.00000E+00  1.97109E-01
      -4    -1     0     0     0   503  0.000000000E+00  0.000000000E+00  1.156443032E+02  1.156443032E+02  0.000000000E+00  0.00000E+00  9.000E+00
      21    -1     0     0   501   502  0.000000000E+00  0.000000000E+00 -7.032577191E+02  7.032577191E+02  0.000000000E+00  0.00000E+00  9.000E+00
      25     1     1     2     0     0 -1.286374866E+01 -1.012390415E+01 -6.006293552E+02  6.137170692E+02  1.250001970E+02  0.00000E+00  9.000E+00
       5     1     1     2   501     0  4.484806927E+00  1.114353438E+00 -3.350922367E+01  3.415824714E+01  4.750000000E+00  0.00000E+00  9.000E+00
      -5     1     1     2     0   503  2.207921128E+00  1.432240904E+01 -6.116074072E+01  6.303336436E+01  4.750000000E+00  0.00000E+00  9.000E+00
      -4     1     1     2     0   502  6.171020607E+00 -5.312858335E+00  1.076859037E+02  1.079933415E+02  3.814697266E-06  0.00000E+00  9.000E+00
#rwgt            1           9  0.89376407209205833                2     2304269           0
</event>
<event>
      6   9999 -3.45752E-01  3.12414E+01 -1.00000E+00  1.46708E-01
      21    -1     0     0   502   503  0.000000000E+00  0.000000000E+00  1.893659751E+01  1.893659751E+01  0.000000000E+00  0.00000E+00  9.000E+00
      21    -1     0     0   511   502  0.000000000E+00  0.000000000E+00 -1.168518284E+03  1.168518284E+03  0.000000000E+00  0.00000E+00  9.000E+00
      25     1     1     2     0     0 -3.361864743E+01  7.556671807E+01 -4.595634146E+02  4.833816844E+02  1.249751112E+02  0.00000E+00  9.000E+00
       5     1     1     2   501     0 -1.262926191E+01 -9.570164320E+00 -2.858921651E+01  3.303016957E+01  4.750000000E+00  0.00000E+00  9.000E+00
      -5     1     1     2     0   503  6.843410286E+01 -4.400111273E+01 -4.503942958E+02  4.577083226E+02  4.750000000E+00  0.00000E+00  9.000E+00
      21     1     1     2   511   501 -2.218619352E+01 -2.199544102E+01 -2.110347599E+02  2.133347053E+02  2.697398305E-06  0.00000E+00  9.000E+00
#rwgt            1           9  -1.7447702347348111E-005           2     2306822           0
</event>
<event>
      6   9999  3.45752E-01  1.14804E+01 -1.00000E+00  1.81092E-01
       2    -1     0     0   501     0  0.000000000E+00  0.000000000E+00  4.952657544E+02  4.952657544E+02  0.000000000E+00  0.00000E+00  9.000E+00
      21    -1     0     0   502   503  0.000000000E+00  0.000000000E+00 -1.173539825E+03  1.173539825E+03  0.000000000E+00  0.00000E+00  9.000E+00
      25     1     1     2     0     0  6.532897834E+01 -2.083859032E+01 -4.210458253E+02  4.445291276E+02  1.249977440E+02  0.00000E+00  9.000E+00
       5     1     1     2   501     0 -4.675725035E+00 -6.880174855E+00  1.911175607E+01  2.137804787E+01  4.750000000E+00  0.00000E+00  9.000E+00
      -5     1     1     2     0   503 -7.172301898E+01  2.467561562E+01 -7.375953550E+02  7.415002007E+02  4.750000000E+00  0.00000E+00  9.000E+00
       2     1     1     2   502     0  1.106976568E+01  3.043149559E+00  4.612553537E+02  4.613982031E+02  7.629394531E-06  0.00000E+00  9.000E+00
#rwgt            1           9   2.4343116273355228E-004           2     2308251           0
</event>
<event>
      6   9999  3.45752E-01  1.26903E+01 -1.00000E+00  1.76915E-01
      21    -1     0     0   502   511  0.000000000E+00  0.000000000E+00  2.792904591E+01  2.792904591E+01  0.000000000E+00  0.00000E+00  9.000E+00
      21    -1     0     0   501   502  0.000000000E+00  0.000000000E+00 -2.457760814E+02  2.457760814E+02  0.000000000E+00  0.00000E+00  9.000E+00
      25     1     1     2     0     0  1.410570182E+01  2.032049920E+01 -2.003871577E+02  2.374696188E+02  1.249996535E+02  0.00000E+00  9.000E+00
       5     1     1     2   501     0 -2.558671391E+00 -1.990966639E+00 -5.419998084E+00  7.902507620E+00  4.750000000E+00  0.00000E+00  9.000E+00
      -5     1     1     2     0   503 -1.059154125E+00 -1.118466508E+01 -9.329498829E+00  1.535645105E+01  4.750000000E+00  0.00000E+00  9.000E+00
      21     1     1     2   503   511 -1.048787630E+01 -7.144867487E+00 -2.710380892E+00  1.297654982E+01  5.960464478E-08  0.00000E+00  9.000E+00
#rwgt            1           9   5.6646986309533522                2     2311416           0
</event>
<event>
      6   9999  3.45752E-01  1.00726E+01 -1.00000E+00  1.86863E-01
      21    -1     0     0   501   502  0.000000000E+00  0.000000000E+00  1.469730282E+02  1.469730282E+02  0.000000000E+00  0.00000E+00  9.000E+00
      21    -1     0     0   512   503  0.000000000E+00  0.000000000E+00 -6.439690701E+02  6.439690701E+02  0.000000000E+00  0.00000E+00  9.000E+00
      25     1     1     2     0     0  6.377543097E+01 -5.339562410E+00 -7.470912284E+01  1.590677657E+02  1.250011381E+02  0.00000E+00  9.000E+00
       5     1     1     2   501     0  2.278575227E+00  1.802056332E+00  9.148073487E+01  9.165002272E+01  4.750000000E+00  0.00000E+00  9.000E+00
      -5     1     1     2     0   503 -5.741056478E+01  8.709319211E+00 -5.124349200E+01  7.759048371E+01  4.750000000E+00  0.00000E+00  9.000E+00
      21     1     1     2   512   502 -8.643441412E+00 -5.171813132E+00 -4.625241620E+02  4.626338262E+02  5.394796609E-06  0.00000E+00  9.000E+00
#rwgt            1           9   67.976895240724929                2     2313479           0
</event>
<event>
      6   9999  3.45752E-01  3.74099E+00 -1.00000E+00  2.54025E-01
      21    -1     0     0   511   502  0.000000000E+00  0.000000000E+00  8.174901264E+01  8.174901264E+01  0.000000000E+00  0.00000E+00  9.000E+00
      21    -1     0     0   502   503  0.000000000E+00  0.000000000E+00 -8.447448549E+02  8.447448549E+02  0.000000000E+00  0.00000E+00  9.000E+00
      25     1     1     2     0     0  1.702512672E+00  8.385395759E-03 -7.977967945E+02  8.075329864E+02  1.250076007E+02  0.00000E+00  9.000E+00
       5     1     1     2   501     0  4.163704799E-01  4.007354894E+00  5.978815963E+00  8.633712871E+00  4.750000000E+00  0.00000E+00  9.000E+00
      -5     1     1     2     0   503 -2.462445167E+00 -2.905621326E-01 -4.052575481E+01  4.087844622E+01  4.750000000E+00  0.00000E+00  9.000E+00
      21     1     1     2   511   501  3.435620159E-01 -3.725178157E+00  6.934789110E+01  6.944872200E+01  3.303624740E-06  0.00000E+00  9.000E+00
#rwgt            1           9   1.5100477358328068E-003           2     2316727           0
</event>
<event>
      6   9999 -3.45752E-01  4.12279E+01 -1.00000E+00  1.39429E-01
      21    -1     0     0   501   502  0.000000000E+00  0.000000000E+00  7.719046464E+01  7.719046464E+01  0.000000000E+00  0.00000E+00  9.000E+00
      21    -1     0     0   512   503  0.000000000E+00  0.000000000E+00 -1.556167292E+03  1.556167292E+03  0.000000000E+00  0.00000E+00  9.000E+00
      25     1     1     2     0     0  3.944530425E+01  2.264452930E+02 -3.502088309E+02  4.371556748E+02  1.250018241E+02  0.00000E+00  9.000E+00
       5     1     1     2   501     0  1.024291388E+00 -4.111125585E+00  1.137648033E+01  1.303600135E+01  4.750000000E+00  0.00000E+00  9.000E+00
      -5     1     1     2     0   503 -5.674211014E+01 -2.602148726E+02 -8.691095143E+02  9.090133978E+02  4.750000000E+00  0.00000E+00  9.000E+00
      21     1     1     2   512   502  1.627251450E+01  3.788070516E+01 -2.710349630E+02  2.741526832E+02  3.814697266E-06  0.00000E+00  9.000E+00
#rwgt            1           9  -8.4339906802722978E-002           2     2322032           0
</event>
<event>
      6   9999  3.45752E-01  2.24837E+02 -1.00000E+00  1.07164E-01
      21    -1     0     0   511   502  0.000000000E+00  0.000000000E+00  6.866036243E+01  6.866036243E+01  0.000000000E+00  0.00000E+00  9.000E+00
      21    -1     0     0   502   503  0.000000000E+00  0.000000000E+00 -1.536479275E+03  1.536479275E+03  0.000000000E+00  0.00000E+00  9.000E+00
      25     1     1     2     0     0  8.195659677E+01  8.747387212E+01 -9.045228361E+02  9.209533043E+02  1.249994623E+02  0.00000E+00  9.000E+00
       5     1     1     2   501     0  6.739526089E+01  8.708358016E+01 -2.508259705E+02  2.739742709E+02  4.750000000E+00  0.00000E+00  9.000E+00
      -5     1     1     2     0   503  2.062139276E+01 -2.738183517E+01 -7.815333445E+01  8.547229331E+01  4.750000000E+00  0.00000E+00  9.000E+00
      21     1     1     2   511   501 -1.699732504E+02 -1.471756171E+02 -2.343167715E+02  3.247397690E+02  1.009274029E-05  0.00000E+00  9.000E+00
#rwgt            1           9  0.27175684286058310                2     2323599           0
</event>
<event>
      6   9999  3.45752E-01  8.33450E+00 -1.00000E+00  1.95932E-01
      21    -1     0     0   501   502  0.000000000E+00  0.000000000E+00  1.336077687E+01  1.336077687E+01  0.000000000E+00  0.00000E+00  9.000E+00
      21    -1     0     0   502   512  0.000000000E+00  0.000000000E+00 -1.348721620E+03  1.348721620E+03  0.000000000E+00  0.00000E+00  9.000E+00
      25     1     1     2     0     0  1.584460181E+00 -1.365715796E+01 -4.123170097E+02  4.310603235E+02  1.249746278E+02  0.00000E+00  9.000E+00
       5     1     1     2   501     0  1.707085029E+00  2.054725176E-01  2.287204829E+00  5.545283057E+00  4.750000000E+00  0.00000E+00  9.000E+00
      -5     1     1     2     0   503  1.199227419E+00  6.430510517E+00 -4.433506858E+02  4.434243822E+02  4.750000000E+00  0.00000E+00  9.000E+00
      21     1     1     2   503   512 -4.490772630E+00  7.021174926E+00 -4.819803523E+02  4.820524079E+02  5.394796609E-06  0.00000E+00  9.000E+00
#rwgt            1           9   1.9997119851031140E-003           2     2324174           0
</event>
<event>
      6   9999  3.45752E-01  8.26749E+00 -1.00000E+00  1.96339E-01
      21    -1     0     0   511   502  0.000000000E+00  0.000000000E+00  3.176207996E+02  3.176207996E+02  0.000000000E+00  0.00000E+00  9.000E+00
      21    -1     0     0   502   503  0.000000000E+00  0.000000000E+00 -6.729798388E+02  6.729798388E+02  0.000000000E+00  0.00000E+00  9.000E+00
      25     1     1     2     0     0  1.848094743E+01  2.754649798E+00 -5.943386584E+02  6.076292144E+02  1.250027510E+02  0.00000E+00  9.000E+00
       5     1     1     2   501     0  1.000291647E+00 -5.209452623E-01 -3.694101877E+00  6.122161059E+00  4.750000000E+00  0.00000E+00  9.000E+00
      -5     1     1     2     0   503 -1.260136327E+01 -6.818314410E+00 -6.618269368E+01  6.788221571E+01  4.750000000E+00  0.00000E+00  9.000E+00
      21     1     1     2   511   501 -6.879875799E+00  4.584609874E+00  3.088564147E+02  3.089670472E+02  5.394796609E-06  0.00000E+00  9.000E+00
#rwgt            1           9   1.1834701106879040E-004           2     2328282           0
</event>
<event>
      6   9999  3.45752E-01  2.92563E+01 -1.00000E+00  1.48547E-01
      21    -1     0     0   501   512  0.000000000E+00  0.000000000E+00  1.395603829E+02  1.395603829E+02  0.000000000E+00  0.00000E+00  9.000E+00
      21    -1     0     0   502   503  0.000000000E+00  0.000000000E+00 -1.573677022E+03  1.573677022E+03  0.000000000E+00  0.00000E+00  9.000E+00
      25     1     1     2     0     0 -4.806086677E+01  2.774347004E+01 -6.184555275E+02  6.333976046E+02  1.250029558E+02  0.00000E+00  9.000E+00
       5     1     1     2   501     0  4.055836704E+00  4.056219666E-01  7.549087277E+01  7.574990899E+01  4.750000000E+00  0.00000E+00  9.000E+00
      -5     1     1     2     0   503  1.780069295E+01 -1.513890768E+01 -9.436707963E+02  9.439720258E+02  4.750000000E+00  0.00000E+00  9.000E+00
      21     1     1     2   502   512  2.620433712E+01 -1.301018433E+01  5.251881181E+01  6.011786568E+01  1.651812370E-06  0.00000E+00  9.000E+00
#rwgt            1           9   4.5923503478419094E-004           2     2331571           0
</event>
<event>
      6   9999 -3.45752E-01  4.49738E+00 -1.00000E+00  2.37765E-01
      21    -1     0     0   501   511  0.000000000E+00  0.000000000E+00  3.691840805E+01  3.691840805E+01  0.000000000E+00  0.00000E+00  9.000E+00
      21    -1     0     0   502   503  0.000000000E+00  0.000000000E+00 -2.492075227E+02  2.492075227E+02  0.000000000E+00  0.00000E+00  9.000E+00
      25     1     1     2     0     0 -5.763411846E+00  1.500153652E+00 -2.201461277E+02  2.532245501E+02  1.249915511E+02  0.00000E+00  9.000E+00
       5     1     1     2   501     0  4.839633368E-01 -1.081137995E-01  4.784041706E+00  6.759842021E+00  4.750000000E+00  0.00000E+00  9.000E+00
      -5     1     1     2     0   503  3.171750597E+00  2.580870552E+00 -1.028639722E+01  1.204547062E+01  4.750000000E+00  0.00000E+00  9.000E+00
      21     1     1     2   502   511  2.107697912E+00 -3.972910405E+00  1.335936852E+01  1.409606806E+01  2.384185791E-07  0.00000E+00  9.000E+00
#rwgt            1           9  -2.0302310991396250E-005           2     2334240           0
</event>
<event>
      6   9999  3.45752E-01  8.14099E+00 -1.00000E+00  1.97121E-01
      21    -1     0     0   502   503  0.000000000E+00  0.000000000E+00  4.712151761E+03  4.712151761E+03  0.000000000E+00  0.00000E+00  9.000E+00
      21    -1     0     0   512   502  0.000000000E+00  0.000000000E+00 -2.540391144E+00  2.540391144E+00  0.000000000E+00  0.00000E+00  9.000E+00
      25     1     1     2     0     0  1.343914902E+00  2.339896063E+00  4.494107390E+03  4.495846257E+03  1.250002089E+02  0.00000E+00  9.000E+00
       5     1     1     2   501     0 -1.393514692E+00 -8.398018742E+00  6.718003913E+01  6.788364133E+01  4.750000000E+00  0.00000E+00  9.000E+00
      -5     1     1     2     0   503  4.041661266E+00 -1.036887482E+00  1.362706413E+02  1.364172289E+02  4.750000000E+00  0.00000E+00  9.000E+00
      21     1     1     2   512   501 -3.992061477E+00  7.095010161E+00  1.205329949E+01  1.454502502E+01  9.830249847E-07  0.00000E+00  9.000E+00
#rwgt            1           9   1.1516317757971880E-003           2     2339346           0
</event>
<event>
      6   9999  3.45752E-01  2.06045E+01 -1.00000E+00  1.59230E-01
      21    -1     0     0   501   511  0.000000000E+00  0.000000000E+00  3.311168910E+02  3.311168910E+02  0.000000000E+00  0.00000E+00  9.000E+00
      21    -1     0     0   502   503  0.000000000E+00  0.000000000E+00 -3.282760685E+02  3.282760685E+02  0.000000000E+00  0.00000E+00  9.000E+00
      25     1     1     2     0     0 -6.454474847E+00 -5.779375462E+00 -3.044385274E+02  3.292152385E+02  1.249991795E+02  0.00000E+00  9.000E+00
       5     1     1     2   501     0 -1.106809994E+01  3.052039047E+00  9.990190945E+00  1.594315508E+01  4.750000000E+00  0.00000E+00  9.000E+00
      -5     1     1     2     0   503 -2.617952617E+00 -1.620553892E+00 -7.138475176E+00  9.110444482E+00  4.750000000E+00  0.00000E+00  9.000E+00
      21     1     1     2   502   511  2.014052741E+01  4.347890306E+00  3.044276341E+02  3.051241213E+02  0.000000000E+00  0.00000E+00  9.000E+00
#rwgt            1           9   8.8444691256436003E-003           2     2341636           0
</event>
<event>
      6   9999  3.45752E-01  1.14864E+01 -1.00000E+00  1.81069E-01
       2    -1     0     0   501     0  0.000000000E+00  0.000000000E+00  2.006167646E+02  2.006167646E+02  0.000000000E+00  0.00000E+00  9.000E+00
      21    -1     0     0   502   503  0.000000000E+00  0.000000000E+00 -1.199758324E+03  1.199758324E+03  0.000000000E+00  0.00000E+00  9.000E+00
      25     1     1     2     0     0  1.706876096E+02  3.067422102E+00 -8.630941412E+02  8.886507096E+02  1.249996719E+02  0.00000E+00  9.000E+00
       5     1     1     2   501     0 -1.876884869E+00 -1.138714822E+00  4.093878623E+00  6.643922820E+00  4.750000000E+00  0.00000E+00  9.000E+00
      -5     1     1     2     0   503 -1.770746492E+02 -9.906541800E+00 -2.979946902E+02  3.468097012E+02  4.750000000E+00  0.00000E+00  9.000E+00
       2     1     1     2   502     0  8.263924455E+00  7.977834521E+00  1.578533930E+02  1.582707553E+02  5.722045898E-06  0.00000E+00  9.000E+00
#rwgt            1           9   9.7299077064873571E-005           2     2343566           0
</event>
<event>
      6   9999 -3.45752E-01  1.12400E+01 -1.00000E+00  1.82000E-01
      21    -1     0     0   511   502  0.000000000E+00  0.000000000E+00  7.284827772E+01  7.284827772E+01  0.000000000E+00  0.00000E+00  9.000E+00
      21    -1     0     0   502   503  0.000000000E+00  0.000000000E+00 -2.070786262E+02  2.070786262E+02  0.000000000E+00  0.00000E+00  9.000E+00
      25     1     1     2     0     0  1.666424552E+01  3.456102018E+00 -1.722078775E+02  2.134711828E+02  1.249990043E+02  0.00000E+00  9.000E+00
       5     1     1     2   501     0  1.557790290E+00  4.940131236E-01  3.449631006E+01  3.486013005E+01  4.750000000E+00  0.00000E+00  9.000E+00
      -5     1     1     2     0   503 -1.325790870E+01 -1.403450056E+01  4.242688778E+00  2.032983662E+01  4.750000000E+00  0.00000E+00  9.000E+00
      21     1     1     2   511   501 -4.964127106E+00  1.008438542E+01 -7.614698139E-01  1.126575445E+01  2.177303910E-07  0.00000E+00  9.000E+00
#rwgt            1           9  -7.9928968022949503E-003           2     2346958           0
</event>
<event>
      6   9999  3.45752E-01  2.36563E+01 -1.00000E+00  1.54837E-01
      21    -1     0     0   501   502  0.000000000E+00  0.000000000E+00  9.946752181E+01  9.946752181E+01  0.000000000E+00  0.00000E+00  9.000E+00
      21    -1     0     0   502   512  0.000000000E+00  0.000000000E+00 -4.666396575E+02  4.666396575E+02  0.000000000E+00  0.00000E+00  9.000E+00
      25     1     1     2     0     0 -7.522544443E+01 -3.532028521E+01 -9.415942958E+01  1.771934178E+02  1.250004763E+02  0.00000E+00  9.000E+00
       5     1     1     2   501     0 -2.302246449E+00 -1.646824207E+00  3.274490371E+01  3.320848668E+01  4.750000000E+00  0.00000E+00  9.000E+00
      -5     1     1     2     0   503  5.387368733E+01  3.663529081E+01 -1.907876496E+01  6.805204252E+01  4.750000000E+00  0.00000E+00  9.000E+00
      21     1     1     2   503   512  2.365400355E+01  3.318186076E-01 -2.866788448E+02  2.876532323E+02  3.814697266E-06  0.00000E+00  9.000E+00
#rwgt            1           9   7.8057741282563884E-005           2     2349770           0
</event>
<event>
      6   9999  3.45752E-01  5.26096E+00 -1.00000E+00  2.22331E-01
      21    -1     0     0   501   502  0.000000000E+00  0.000000000E+00  3.633071050E+01  3.633071050E+01  0.000000000E+00  0.00000E+00  9.000E+00
      -2    -1     0     0     0   503  0.000000000E+00  0.000000000E+00 -3.231947623E+02  3.231947623E+02  0.000000000E+00  0.00000E+00  9.000E+00
      25     1     1     2     0     0  2.274165438E+00  3.057376167E-01 -1.749099033E+02  2.149962762E+02  1.249986367E+02  0.00000E+00  9.000E+00
       5     1     1     2   501     0 -8.388258092E-01  2.773268964E+00  1.514701492E+01  1.613657989E+01  4.750000000E+00  0.00000E+00  9.000E+00
      -5     1     1     2     0   503 -7.774162389E-01  2.140652567E+00 -1.125179695E+01  1.242385625E+01  4.750000000E+00  0.00000E+00  9.000E+00
      -2     1     1     2     0   502 -6.579233897E-01 -5.219659148E+00 -1.158493664E+02  1.159687605E+02  1.907348633E-06  0.00000E+00  9.000E+00
#rwgt            1           9   2.2104907860130206E-003           2     2351341           0
</event>
<event>
      6   9999  3.45752E-01  4.28587E+00 -1.00000E+00  2.41804E-01
      21    -1     0     0   501   502  0.000000000E+00  0.000000000E+00  2.254508052E+01  2.254508052E+01  0.000000000E+00  0.00000E+00  9.000E+00
      21    -1     0     0   511   503  0.000000000E+00  0.000000000E+00 -4.174594846E+03  4.174594846E+03  0.000000000E+00  0.00000E+00  9.000E+00
      25     1     1     2     0     0  8.028455239E+01  7.191301882E+01 -5.657737855E+02  5.893575030E+02  1.250007937E+02  0.00000E+00  9.000E+00
       5     1     1     2   501     0 -5.757383223E-01 -1.247478488E+00  3.264721701E+00  5.925249782E+00  4.750000000E+00  0.00000E+00  9.000E+00
      -5     1     1     2     0   503 -7.575014449E+01 -7.230797150E+01 -4.400624040E+02  4.523759599E+02  4.750000000E+00  0.00000E+00  9.000E+00
      21     1     1     2   511   502 -3.958669578E+00  1.642431168E+00 -3.149478298E+03  3.149481214E+03  4.315837288E-05  0.00000E+00  9.000E+00
#rwgt            1           9   1.3654562315336939E-004           2     2355275           0
</event>
<event>
      6   9999  3.45752E-01  1.27360E+01 -1.00000E+00  1.76769E-01
      21    -1     0     0   512   502  0.000000000E+00  0.000000000E+00  4.736699364E+02  4.736699364E+02  0.000000000E+00  0.00000E+00  9.000E+00
      21    -1     0     0   502   503  0.000000000E+00  0.000000000E+00 -2.909131649E+02  2.909131649E+02  0.000000000E+00  0.00000E+00  9.000E+00
      25     1     1     2     0     0 -1.017980037E+01 -1.041609874E+01 -2.575744845E+02  2.866804694E+02  1.250158112E+02  0.00000E+00  9.000E+00
       5     1     1     2   501     0  7.303873738E-01  3.527391584E+00  1.025864225E+02  1.027594888E+02  4.750000000E+00  0.00000E+00  9.000E+00
      -5     1     1     2     0   503 -1.615223924E+00  5.816023271E-01 -1.824213453E+01  1.892842259E+01  4.750000000E+00  0.00000E+00  9.000E+00
      21     1     1     2   512   501  1.106463692E+01  6.307104830E+00  3.559869680E+02  3.562147206E+02  5.394796609E-06  0.00000E+00  9.000E+00
#rwgt            1           9   8.6369924728005060E-004           2     2361203           0
</event>
<event>
      6   9999  3.45752E-01  7.51761E+00 -1.00000E+00  2.01268E-01
      21    -1     0     0   501   511  0.000000000E+00  0.000000000E+00  1.022164411E+01  1.022164411E+01  0.000000000E+00  0.00000E+00  9.000E+00
      21    -1     0     0   502   503  0.000000000E+00  0.000000000E+00 -8.107082420E+02  8.107082420E+02  0.000000000E+00  0.00000E+00  9.000E+00
      25     1     1     2     0     0  4.554109516E+00  7.263266837E+00 -7.436246958E+02  7.541060199E+02  1.249988248E+02  0.00000E+00  9.000E+00
       5     1     1     2   501     0 -9.166117565E-01  4.955776249E-01  2.926771462E+00  5.675761225E+00  4.750000000E+00  0.00000E+00  9.000E+00
      -5     1     1     2     0   503 -8.694899376E-01 -7.693769484E-01 -3.151422804E+01  3.189133147E+01  4.750000000E+00  0.00000E+00  9.000E+00
      21     1     1     2   502   511 -2.768007822E+00 -6.989467513E+00 -2.827444560E+01  2.925677353E+01  3.371747881E-07  0.00000E+00  9.000E+00
#rwgt            1           9   8.5211605961219396E-004           2     2364218           0
</event>
<event>
      6   9999  3.45752E-01  7.25732E+00 -1.00000E+00  2.03161E-01
      21    -1     0     0   501   512  0.000000000E+00  0.000000000E+00  9.752488297E+01  9.752488297E+01  0.000000000E+00  0.00000E+00  9.000E+00
      21    -1     0     0   502   503  0.000000000E+00  0.000000000E+00 -7.970829635E+02  7.970829635E+02  0.000000000E+00  0.00000E+00  9.000E+00
      25     1     1     2     0     0 -2.605220161E+01  5.291421970E+00 -4.684789432E+02  4.855974522E+02  1.250025959E+02  0.00000E+00  9.000E+00
       5     1     1     2   501     0 -7.481499844E-01  6.835635951E-01 -2.396455472E+00  5.415947416E+00  4.750000000E+00  0.00000E+00  9.000E+00
      -5     1     1     2     0   503  1.960659692E+01 -5.016568840E+00 -3.156455135E+02  3.163293178E+02  4.750000000E+00  0.00000E+00  9.000E+00
      21     1     1     2   502   512  7.193754673E+00 -9.584167246E-01  8.696283163E+01  8.726512908E+01  3.814697266E-06  0.00000E+00  9.000E+00
#rwgt            1           9   3.7012519048550211E-004           2     2367173           0
</event>
<event>
      6   9999  3.45752E-01  2.08025E+01 -1.00000E+00  1.58917E-01
      21    -1     0     0   501   502  0.000000000E+00  0.000000000E+00  6.168064147E+01  6.168064147E+01  0.000000000E+00  0.00000E+00  9.000E+00
      21    -1     0     0   502   511  0.000000000E+00  0.000000000E+00 -9.650246000E+02  9.650246000E+02  0.000000000E+00  0.00000E+00  9.000E+00
      25     1     1     2     0     0 -1.852110346E+01  7.658766953E-01 -5.796211810E+02  5.932363759E+02  1.250002657E+02  0.00000E+00  9.000E+00
       5     1     1     2   501     0 -1.812043423E+00  2.827071634E+00  5.346004533E+01  5.377559653E+01  4.750000000E+00  0.00000E+00  9.000E+00
      -5     1     1     2     0   503  9.038826494E-01  3.839926033E+00 -8.949469301E+00  1.087278881E+01  4.750000000E+00  0.00000E+00  9.000E+00
      21     1     1     2   503   511  1.942926423E+01 -7.432874362E+00 -3.682333536E+02  3.688204802E+02  5.394796609E-06  0.00000E+00  9.000E+00
#rwgt            1           9   7.2735478632282458E-003           2     2370288           0
</event>
<event>
      6   9999  3.45752E-01  1.89214E+01 -1.00000E+00  1.62070E-01
       2    -1     0     0   501     0  0.000000000E+00  0.000000000E+00  1.077719022E+03  1.077719022E+03  0.000000000E+00  0.00000E+00  9.000E+00
      21    -1     0     0   502   503  0.000000000E+00  0.000000000E+00 -1.260052126E+03  1.260052126E+03  0.000000000E+00  0.00000E+00  9.000E+00
      25     1     1     2     0     0 -3.550853130E+00 -1.298258026E+01 -6.350259445E+02  6.473511652E+02  1.249977001E+02  0.00000E+00  9.000E+00
       5     1     1     2   501     0  1.162040779E+01  4.510723557E+01 -3.034936447E+01  5.579733866E+01  4.750000000E+00  0.00000E+00  9.000E+00
      -5     1     1     2     0   503 -2.236926163E+01 -1.973363868E+01 -5.753094634E+02  5.761018500E+02  4.750000000E+00  0.00000E+00  9.000E+00
       2     1     1     2   502     0  1.429970697E+01 -1.239101663E+01  1.058351668E+03  1.058520794E+03  2.157918644E-05  0.00000E+00  9.000E+00
#rwgt            1           9   4.9519433406467774                2     2372479           0
</event>
<event>
      6   9999  3.45752E-01  3.76382E+00 -1.00000E+00  2.53451E-01
      21    -1     0     0   501   511  0.000000000E+00  0.000000000E+00  2.495615281E+01  2.495615281E+01  0.000000000E+00  0.00000E+00  9.000E+00
      21    -1     0     0   502   503  0.000000000E+00  0.000000000E+00 -7.798529466E+02  7.798529466E+02  0.000000000E+00  0.00000E+00  9.000E+00
      25     1     1     2     0     0 -8.144169721E-01  2.357761576E+00 -7.233275970E+02  7.340557767E+02  1.250153926E+02  0.00000E+00  9.000E+00
       5     1     1     2   501     0  2.082033304E+00 -5.905025484E-01  2.495161602E+00  5.785489379E+00  4.750000000E+00  0.00000E+00  9.000E+00
      -5     1     1     2     0   503  2.448589703E+00 -2.364053705E+00 -4.911108059E+01  4.945750780E+01  4.750000000E+00  0.00000E+00  9.000E+00
      21     1     1     2   502   511 -3.716206035E+00  5.967946775E-01  1.504672217E+01  1.551032557E+01  7.539457465E-07  0.00000E+00  9.000E+00
#rwgt            1           9   3.4501699619870872E-004           2     2374883           0
</event>
<event>
      6   9999  3.45752E-01  9.15291E+00 -1.00000E+00  1.91336E-01
      21    -1     0     0   501   502  0.000000000E+00  0.000000000E+00  1.094236400E+02  1.094236400E+02  0.000000000E+00  0.00000E+00  9.000E+00
      21    -1     0     0   502   512  0.000000000E+00  0.000000000E+00 -1.647871057E+03  1.647871057E+03  0.000000000E+00  0.00000E+00  9.000E+00
      25     1     1     2     0     0  8.561210854E+01  4.745326318E+01 -8.338380208E+02  8.488180449E+02  1.249999321E+02  0.00000E+00  9.000E+00
       5     1     1     2   501     0 -3.015395904E+00  1.463989158E+01  9.682468454E+01  9.808670182E+01  4.750000000E+00  0.00000E+00  9.000E+00
      -5     1     1     2     0   503 -9.153799866E+01 -6.013632300E+01 -7.654266197E+02  7.732373861E+02  4.750000000E+00  0.00000E+00  9.000E+00
      21     1     1     2   503   512  8.941286020E+00 -1.956831757E+00 -3.600746111E+01  3.715256440E+01  0.000000000E+00  0.00000E+00  9.000E+00
#rwgt            1           9   1.5592448817699778E-003           2     2379509           0
</event>
<event>
      6   9999  3.45752E-01  1.07305E+01 -1.00000E+00  1.84025E-01
      21    -1     0     0   501   502  0.000000000E+00  0.000000000E+00  3.676862308E+01  3.676862308E+01  0.000000000E+00  0.00000E+00  9.000E+00
       1    -1     0     0   502     0  0.000000000E+00  0.000000000E+00 -2.244730003E+03  2.244730003E+03  0.000000000E+00  0.00000E+00  9.000E+00
      25     1     1     2     0     0 -2.265658320E+01 -6.133435334E+01 -8.284983512E+02  8.404221728E+02  1.249987475E+02  0.00000E+00  9.000E+00
       5     1     1     2   501     0 -1.195602629E+00  6.689159110E+00  2.762563802E+01  2.884289672E+01  4.750000000E+00  0.00000E+00  9.000E+00
      -5     1     1     2     0   503  1.342902906E+01  5.209528504E+01 -2.837730395E+02  2.888666786E+02  4.750000000E+00  0.00000E+00  9.000E+00
       1     1     1     2   503     0  1.042315676E+01  2.549909194E+00 -1.123315627E+03  1.123366878E+03  2.642899792E-05  0.00000E+00  9.000E+00
#rwgt            1           9   7.7048442281251023E-005           2     2385612           0
</event>
<event>
      6   9999  3.45752E-01  2.47139E+00 -1.00000E+00  3.00957E-01
      21    -1     0     0   511   502  0.000000000E+00  0.000000000E+00  1.583057027E+03  1.583057027E+03  0.000000000E+00  0.00000E+00  9.000E+00
      21    -1     0     0   502   503  0.000000000E+00  0.000000000E+00 -6.091563588E+01  6.091563588E+01  0.000000000E+00  0.00000E+00  9.000E+00
      25     1     1     2     0     0 -3.053815362E-01 -5.720595100E+00  7.523920759E+00  1.253550565E+02  1.249978493E+02  0.00000E+00  9.000E+00
       5     1     1     2   501     0 -1.218957458E+00  3.414041552E+00  3.053591629E+02  3.054176197E+02  4.750000000E+00  0.00000E+00  9.000E+00
      -5     1     1     2     0   503  3.440795125E-01  1.352012252E-01  9.116495074E-01  4.850801471E+00  4.750000000E+00  0.00000E+00  9.000E+00
      21     1     1     2   511   501  1.180259481E+00  2.171352323E+00  1.208346658E+03  1.208349185E+03  1.525878906E-05  0.00000E+00  9.000E+00
#rwgt            1           9   8.0328264824766995E-004           2     2388909           0
</event>
<event>
      6   9999 -3.45752E-01  6.38700E+00 -1.00000E+00  2.10345E-01
      21    -1     0     0   501   502  0.000000000E+00  0.000000000E+00  9.361215423E+00  9.361215423E+00  0.000000000E+00  0.00000E+00  9.000E+00
      21    -1     0     0   502   512  0.000000000E+00  0.000000000E+00 -1.148051870E+03  1.148051870E+03  0.000000000E+00  0.00000E+00  9.000E+00
      25     1     1     2     0     0 -8.036670608E+00 -1.768701875E+01 -6.492631791E+02  6.614718136E+02  1.249994632E+02  0.00000E+00  9.000E+00
       5     1     1     2   501     0  1.130107235E+00 -1.017445189E+00  5.081345681E-01  5.013286129E+00  4.750000000E+00  0.00000E+00  9.000E+00
      -5     1     1     2     0   503  6.095723706E+00  1.236914432E+01 -1.128846763E+02  1.138229600E+02  4.750000000E+00  0.00000E+00  9.000E+00
      21     1     1     2   503   512  8.108396671E-01  6.335319616E+00 -3.770509334E+02  3.771050253E+02  0.000000000E+00  0.00000E+00  9.000E+00
#rwgt            1           9  -4.1756011917845636E-004           2     2396944           0
</event>
<event>
      6   9999 -3.45752E-01  1.16727E+01 -1.00000E+00  1.80385E-01
      21    -1     0     0   501   511  0.000000000E+00  0.000000000E+00  1.027782899E+01  1.027782899E+01  0.000000000E+00  0.00000E+00  9.000E+00
      21    -1     0     0   502   503  0.000000000E+00  0.000000000E+00 -7.990639718E+02  7.990639718E+02  0.000000000E+00  0.00000E+00  9.000E+00
      25     1     1     2     0     0  1.974876714E+01 -1.038460649E+01 -4.998605092E+02  5.157358739E+02  1.250004363E+02  0.00000E+00  9.000E+00
       5     1     1     2   501     0 -3.177895847E-01 -9.471752585E-01 -5.356907103E+00  7.228906204E+00  4.750000000E+00  0.00000E+00  9.000E+00
      -5     1     1     2     0   503 -2.070811260E+01 -2.708646142E-01 -2.487078884E+02  2.496138529E+02  4.750000000E+00  0.00000E+00  9.000E+00
      21     1     1     2   502   511  1.277135041E+00  1.160264637E+01 -3.486083808E+01  3.676316782E+01  4.768371582E-07  0.00000E+00  9.000E+00
#rwgt            1           9  -2.2471441675110299E-004           2     2400230           0
</event>
<event>
      6   9999  3.45752E-01  5.91102E+00 -1.00000E+00  2.14966E-01
      21    -1     0     0   512   502  0.000000000E+00  0.000000000E+00  5.722045415E+02  5.722045415E+02  0.000000000E+00  0.00000E+00  9.000E+00
      21    -1     0     0   502   503  0.000000000E+00  0.000000000E+00 -4.099293434E+02  4.099293434E+02  0.000000000E+00  0.00000E+00  9.000E+00
      25     1     1     2     0     0 -1.140255328E+01 -9.341131485E+00 -3.890220760E+02  4.088745550E+02  1.249918046E+02  0.00000E+00  9.000E+00
       5     1     1     2   501     0  6.205255279E+00  2.238479307E+00  5.561075640E+02  5.561669724E+02  4.750000000E+00  0.00000E+00  9.000E+00
      -5     1     1     2     0   503 -5.505118529E-01  5.723232598E+00 -7.518889480E+00  1.059030942E+01  4.750000000E+00  0.00000E+00  9.000E+00
      21     1     1     2   512   501  5.747809853E+00  1.379419579E+00  2.708599481E+00  6.502047956E+00  4.214684851E-08  0.00000E+00  9.000E+00
#rwgt            1           9   4.0950751936797260E-004           2     2403911           0
</event>
<event>
      6   9999 -3.45752E-01  6.11519E+00 -1.00000E+00  2.12914E-01
      21    -1     0     0   501   502  0.000000000E+00  0.000000000E+00  7.569967378E+00  7.569967378E+00  0.000000000E+00  0.00000E+00  9.000E+00
      21    -1     0     0   511   503  0.000000000E+00  0.000000000E+00 -1.809293546E+03  1.809293546E+03  0.000000000E+00  0.00000E+00  9.000E+00
      25     1     1     2     0     0  1.167008003E+00 -1.644999320E+01 -1.536094482E+03  1.541260299E+03  1.250003443E+02  0.00000E+00  9.000E+00
       5     1     1     2   501     0  3.970414814E-01  1.825786698E-01  1.932935761E+00  5.146816255E+00  4.750000000E+00  0.00000E+00  9.000E+00
      -5     1     1     2     0   503 -5.835005127E+00  1.189082939E+01 -3.376927033E+01  3.658367432E+01  4.750000000E+00  0.00000E+00  9.000E+00
      21     1     1     2   511   502  4.270955642E+00  4.376585139E+00 -2.337927619E+02  2.338727240E+02  3.814697266E-06  0.00000E+00  9.000E+00
#rwgt            1           9  -2.2407411103330524E-004           2     2411937           0
</event>
<event>
      6   9999  3.45752E-01  7.97104E+00 -1.00000E+00  1.98202E-01
      21    -1     0     0   512   502  0.000000000E+00  0.000000000E+00  3.109640403E+02  3.109640403E+02  0.000000000E+00  0.00000E+00  9.000E+00
      21    -1     0     0   502   503  0.000000000E+00  0.000000000E+00 -1.098269841E+03  1.098269841E+03  0.000000000E+00  0.00000E+00  9.000E+00
      25     1     1     2     0     0 -1.052189895E+01  6.799013898E+00 -1.028096596E+03  1.035743263E+03  1.249982369E+02  0.00000E+00  9.000E+00
       5     1     1     2   501     0  3.235173064E+00 -2.579528859E+00  2.068844108E+01  2.162624351E+01  4.750000000E+00  0.00000E+00  9.000E+00
      -5     1     1     2     0   503  2.930895256E+00  2.456152933E+00 -6.568421229E+01  6.596666641E+01  4.750000000E+00  0.00000E+00  9.000E+00
      21     1     1     2   512   501  4.355830635E+00 -6.675637972E+00  2.857865671E+02  2.858977078E+02  0.000000000E+00  0.00000E+00  9.000E+00
#rwgt            1           9   1.9893830063065715E-003           2     2415612           0
</event>
<event>
      6   9999  3.45752E-01  9.20158E+00 -1.00000E+00  1.91082E-01
      21    -1     0     0   501   502  0.000000000E+00  0.000000000E+00  8.196271334E+01  8.196271334E+01  0.000000000E+00  0.00000E+00  9.000E+00
      21    -1     0     0   502   511  0.000000000E+00  0.000000000E+00 -1.294177772E+02  1.294177772E+02  0.000000000E+00  0.00000E+00  9.000E+00
      25     1     1     2     0     0 -5.936147227E+00 -5.259286398E+00 -8.645174395E+01  1.521895668E+02  1.249994491E+02  0.00000E+00  9.000E+00
       5     1     1     2   501     0 -5.393304084E-01  2.245846745E+00  4.247677184E+01  4.280389411E+01  4.750000000E+00  0.00000E+00  9.000E+00
      -5     1     1     2     0   503 -2.663475418E+00  4.085213244E+00 -1.301369909E+00  6.931026777E+00  4.750000000E+00  0.00000E+00  9.000E+00
      21     1     1     2   503   511  9.138953053E+00 -1.071773591E+00 -2.178721883E+00  9.456002886E+00  1.685873940E-07  0.00000E+00  9.000E+00
#rwgt            1           9   1.7195805223966380E-005           2     2418963           0
</event>
<event>
      6   9999  3.45752E-01  1.75123E+01 -1.00000E+00  1.64742E-01
      21    -1     0     0   501   502  0.000000000E+00  0.000000000E+00  2.528742173E+02  2.528742173E+02  0.000000000E+00  0.00000E+00  9.000E+00
      21    -1     0     0   512   503  0.000000000E+00  0.000000000E+00 -1.065893001E+02  1.065893001E+02  0.000000000E+00  0.00000E+00  9.000E+00
      25     1     1     2     0     0  1.891131587E+01  4.521292374E+01  9.190469776E+01  1.627070825E+02  1.250010996E+02  0.00000E+00  9.000E+00
       5     1     1     2   501     0  1.945964117E-01 -1.018896595E+00  1.097953561E+02  1.099029515E+02  4.750000000E+00  0.00000E+00  9.000E+00
      -5     1     1     2     0   503 -2.157920334E+00 -4.860382111E+01 -3.601028909E+01  6.071483729E+01  4.750000000E+00  0.00000E+00  9.000E+00
      21     1     1     2   512   502 -1.694799194E+01  4.409793970E+00 -1.940484760E+01  2.613864618E+01  4.129530925E-07  0.00000E+00  9.000E+00
#rwgt            1           9   3.4969964509228312E-002           2     2421805           0
</event>
<event>
      6   9999  3.45752E-01  1.03620E+01 -1.00000E+00  1.85582E-01
      21    -1     0     0   502   503  0.000000000E+00  0.000000000E+00  7.332071303E+00  7.332071303E+00  0.000000000E+00  0.00000E+00  9.000E+00
      21    -1     0     0   501   511  0.000000000E+00  0.000000000E+00 -1.028085214E+03  1.028085214E+03  0.000000000E+00  0.00000E+00  9.000E+00
      25     1     1     2     0     0  1.134065730E+00 -5.141505753E+00 -6.757198776E+02  6.872047178E+02  1.250009998E+02  0.00000E+00  9.000E+00
       5     1     1     2   501     0 -2.607799678E-01 -1.047243266E+00 -4.573118658E+00  6.681365048E+00  4.750000000E+00  0.00000E+00  9.000E+00
      -5     1     1     2     0   503  6.377510491E-01 -4.062461933E+00 -2.140907025E+01  2.231190517E+01  4.750000000E+00  0.00000E+00  9.000E+00
      21     1     1     2   502   511 -1.511036811E+00  1.025121095E+01 -3.190510763E+02  3.192192974E+02  0.000000000E+00  0.00000E+00  9.000E+00
#rwgt            1           9   2.3457329455636941E-005           2     2423865           0
</event>
<event>
      6   9999  3.45752E-01  1.39652E+01 -1.00000E+00  1.73107E-01
      21    -1     0     0   501   502  0.000000000E+00  0.000000000E+00  1.517053795E+02  1.517053795E+02  0.000000000E+00  0.00000E+00  9.000E+00
      21    -1     0     0   502   512  0.000000000E+00  0.000000000E+00 -7.906088037E+01  7.906088037E+01  0.000000000E+00  0.00000E+00  9.000E+00
      25     1     1     2     0     0 -9.221075389E+00 -2.607989328E+01  2.412418029E+01  1.302775102E+02  1.250002581E+02  0.00000E+00  9.000E+00
       5     1     1     2   501     0  5.805231967E-01 -1.869719551E-01  2.511633404E+01  2.556882284E+01  4.750000000E+00  0.00000E+00  9.000E+00
      -5     1     1     2     0   503  1.620003957E+01  1.452461420E+01  4.441822914E+01  4.968850249E+01  4.750000000E+00  0.00000E+00  9.000E+00
      21     1     1     2   503   512 -7.559487375E+00  1.174225104E+01 -2.101424433E+01  2.523142432E+01  2.384185791E-07  0.00000E+00  9.000E+00
#rwgt            1           9   9.1409125847257658E-004           2     2425717           0
</event>
<event>
      6   9999  3.45752E-01  1.62808E+01 -1.00000E+00  1.67344E-01
      21    -1     0     0   501   511  0.000000000E+00  0.000000000E+00  1.110985288E+02  1.110985288E+02  0.000000000E+00  0.00000E+00  9.000E+00
      21    -1     0     0   502   503  0.000000000E+00  0.000000000E+00 -1.418734219E+03  1.418734219E+03  0.000000000E+00  0.00000E+00  9.000E+00
      25     1     1     2     0     0 -3.049693505E+01  1.580596839E+02 -9.975921081E+02  1.018198579E+03  1.250016200E+02  0.00000E+00  9.000E+00
       5     1     1     2   501     0  2.115069496E+00  5.127317179E+00  3.521973767E+01  3.596881041E+01  4.750000000E+00  0.00000E+00  9.000E+00
      -5     1     1     2     0   503  3.715587525E+01 -1.494727672E+02 -3.946484988E+02  4.236657495E+02  4.750000000E+00  0.00000E+00  9.000E+00
      21     1     1     2   502   511 -8.774009699E+00 -1.371423387E+01  4.938517894E+01  5.199960919E+01  1.784161275E-06  0.00000E+00  9.000E+00
#rwgt            1           9   2.9944540916851175E-004           2     2427818           0
</event>
<event>
      6   9999  3.45752E-01  9.56165E+00 -1.00000E+00  1.89268E-01
      21    -1     0     0   501   502  0.000000000E+00  0.000000000E+00  6.769771361E+01  6.769771361E+01  0.000000000E+00  0.00000E+00  9.000E+00
      21    -1     0     0   512   503  0.000000000E+00  0.000000000E+00 -2.282760813E+03  2.282760813E+03  0.000000000E+00  0.00000E+00  9.000E+00
      25     1     1     2     0     0  3.338863008E+01 -7.254026022E+00 -9.220846062E+02  9.311452144E+02  1.249958710E+02  0.00000E+00  9.000E+00
       5     1     1     2   501     0  2.625632652E+00  6.924635905E+00  6.220675254E+01  6.282584732E+01  4.750000000E+00  0.00000E+00  9.000E+00
      -5     1     1     2     0   503 -3.969269979E+01 -8.496385166E+00 -6.756267045E+02  6.768616590E+02  4.750000000E+00  0.00000E+00  9.000E+00
      21     1     1     2   512   502  3.678437062E+00  8.825775284E+00 -6.795585412E+02  6.796258060E+02  1.078959322E-05  0.00000E+00  9.000E+00
#rwgt            1           9   2.9400279428036922                2     2430707           0
</event>
<event>
      6   9999  3.45752E-01  3.58980E+00 -1.00000E+00  2.57995E-01
      21    -1     0     0   501   502  0.000000000E+00  0.000000000E+00  7.328444801E+02  7.328444801E+02  0.000000000E+00  0.00000E+00  9.000E+00
      21    -1     0     0   511   503  0.000000000E+00  0.000000000E+00 -4.530689092E+02  4.530689092E+02  0.000000000E+00  0.00000E+00  9.000E+00
      25     1     1     2     0     0 -7.966935243E+00  5.166223275E+00  1.485980684E+02  1.944117623E+02  1.249975419E+02  0.00000E+00  9.000E+00
       5     1     1     2   501     0 -2.824905046E-01  1.168032684E-01  5.460731810E+02  5.460939250E+02  4.750000000E+00  0.00000E+00  9.000E+00
      -5     1     1     2     0   503  7.492292059E+00 -1.773982364E+00  1.390666248E+01  1.659033499E+01  4.750000000E+00  0.00000E+00  9.000E+00
      21     1     1     2   511   502  7.571336888E-01 -3.509044180E+00 -4.288023409E+02  4.288173670E+02  1.078959322E-05  0.00000E+00  9.000E+00
#rwgt            1           9   2.6306405576914434E-002           2     2435102           0
</event>
<event>
      6   9999  3.45752E-01  9.31038E+01 -1.00000E+00  1.21769E-01
      21    -1     0     0   502   512  0.000000000E+00  0.000000000E+00  6.894046740E+01  6.894046740E+01  0.000000000E+00  0.00000E+00  9.000E+00
      21    -1     0     0   501   502  0.000000000E+00  0.000000000E+00 -1.535912382E+03  1.535912382E+03  0.000000000E+00  0.00000E+00  9.000E+00
      25     1     1     2     0     0 -6.571745263E+01  3.046601367E+01 -4.890822064E+02  5.099725921E+02  1.249947141E+02  0.00000E+00  9.000E+00
       5     1     1     2   501     0  2.537286252E+02 -1.230145298E+02 -5.324456297E+02  6.025211207E+02  4.750000000E+00  0.00000E+00  9.000E+00
      -5     1     1     2     0   503 -1.059617429E+02  4.854616859E+01 -2.468909706E+02  2.730610468E+02  4.750000000E+00  0.00000E+00  9.000E+00
      21     1     1     2   503   512 -8.204942964E+01  4.400234756E+01 -1.985531080E+02  2.192980898E+02  2.697398305E-06  0.00000E+00  9.000E+00
#rwgt            1           9   1.4175617069458928                2     2441606           0
</event>
<event>
      6   9999  3.45752E-01  1.12356E+01 -1.00000E+00  1.82017E-01
      21    -1     0     0   501   502  0.000000000E+00  0.000000000E+00  1.631778032E+01  1.631778032E+01  0.000000000E+00  0.00000E+00  9.000E+00
      21    -1     0     0   511   503  0.000000000E+00  0.000000000E+00 -1.052297286E+03  1.052297286E+03  0.000000000E+00  0.00000E+00  9.000E+00
      25     1     1     2     0     0  2.885871196E+01 -5.418015173E+01 -6.693725102E+02  6.837050142E+02  1.249987002E+02  0.00000E+00  9.000E+00
       5     1     1     2   501     0  6.626866394E-01  2.209735702E-01  2.913404491E+00  5.615906750E+00  4.750000000E+00  0.00000E+00  9.000E+00
      -5     1     1     2     0   503 -2.268843184E+01  6.287825032E+01 -2.368307953E+02  2.461296964E+02  4.750000000E+00  0.00000E+00  9.000E+00
      21     1     1     2   511   502 -6.832966765E+00 -8.919072156E+00 -1.326896051E+02  1.331644494E+02  0.000000000E+00  0.00000E+00  9.000E+00
#rwgt            1           9   9.0022643389698783E-006           2     2442363           0
</event>
<event>
      6   9999  3.45752E-01  1.08229E+01 -1.00000E+00  1.83647E-01
      21    -1     0     0   512   502  0.000000000E+00  0.000000000E+00  2.320556124E+00  2.320556124E+00  0.000000000E+00  0.00000E+00  9.000E+00
      21    -1     0     0   502   503  0.000000000E+00  0.000000000E+00 -4.270724928E+03  4.270724928E+03  0.000000000E+00  0.00000E+00  9.000E+00
      25     1     1     2     0     0  3.365627679E-01 -2.555820445E+01 -3.243449893E+03  3.245958384E+03  1.250011507E+02  0.00000E+00  9.000E+00
       5     1     1     2   501     0  7.069015842E-01 -7.395838760E-01 -6.971055043E+00  8.497340912E+00  4.750000000E+00  0.00000E+00  9.000E+00
      -5     1     1     2     0   503 -4.598279957E+00  1.607530550E+01 -8.836883655E+02  8.838592928E+02  4.750000000E+00  0.00000E+00  9.000E+00
      21     1     1     2   512   501  3.554815605E+00  1.022248283E+01 -1.342950575E+02  1.347304655E+02  3.814697266E-06  0.00000E+00  9.000E+00
#rwgt            1           9   1.1111922496579115E-003           2     2444963           0
</event>
<event>
      6   9999 -3.45752E-01  1.02756E+01 -1.00000E+00  1.85959E-01
      21    -1     0     0   501   511  0.000000000E+00  0.000000000E+00  2.833345020E+01  2.833345020E+01  0.000000000E+00  0.00000E+00  9.000E+00
      21    -1     0     0   502   503  0.000000000E+00  0.000000000E+00 -8.621304048E+02  8.621304048E+02  0.000000000E+00  0.00000E+00  9.000E+00
      25     1     1     2     0     0  1.350596166E+01 -9.960635125E+00 -7.439896739E+02  7.546088484E+02  1.250290121E+02  0.00000E+00  9.000E+00
       5     1     1     2   501     0  1.079098178E+00 -3.062431922E+00  6.257896541E+00  8.500982960E+00  4.750000000E+00  0.00000E+00  9.000E+00
      -5     1     1     2     0   503 -4.517703104E+00  1.096505165E+01 -1.096103387E+02  1.103523033E+02  4.750000000E+00  0.00000E+00  9.000E+00
      21     1     1     2   502   511 -1.006735674E+01  2.058015394E+00  1.354516142E+01  1.700172041E+01  1.039242493E-06  0.00000E+00  9.000E+00
#rwgt            1           9  -7.5632652183012271E-004           2     2447102           0
</event>
<event>
      6   9999 -3.45752E-01  4.07659E+00 -1.00000E+00  2.46157E-01
      21    -1     0     0   501   502  0.000000000E+00  0.000000000E+00  1.053989544E+01  1.053989544E+01  0.000000000E+00  0.00000E+00  9.000E+00
      21    -1     0     0   512   503  0.000000000E+00  0.000000000E+00 -1.057942730E+03  1.057942730E+03  0.000000000E+00  0.00000E+00  9.000E+00
      25     1     1     2     0     0 -1.178871677E+01  2.134355020E+00 -7.888528122E+02  7.987851439E+02  1.250016704E+02  0.00000E+00  9.000E+00
       5     1     1     2   501     0  1.848867047E+00 -1.364186630E+00  3.029602008E+00  6.084431185E+00  4.750000000E+00  0.00000E+00  9.000E+00
      -5     1     1     2     0   503  1.355179358E+01  1.119918953E+00 -5.102694441E+01  5.302090987E+01  4.750000000E+00  0.00000E+00  9.000E+00
      21     1     1     2   512   502 -3.611943860E+00 -1.890087343E+00 -2.105526801E+02  2.105921405E+02  3.814697266E-06  0.00000E+00  9.000E+00
#rwgt            1           9  -8.6381783402544904E-002           2     2449778           0
</event>
<event>
      6   9999 -3.45752E-01  8.84786E+01 -1.00000E+00  1.22738E-01
      21    -1     0     0   502   503  0.000000000E+00  0.000000000E+00  2.629652670E+02  2.629652670E+02  0.000000000E+00  0.00000E+00  9.000E+00
      21    -1     0     0   511   502  0.000000000E+00  0.000000000E+00 -5.078094463E+02  5.078094463E+02  0.000000000E+00  0.00000E+00  9.000E+00
      25     1     1     2     0     0 -2.521925260E+02  2.200939599E+02 -1.627867414E+02  3.926402369E+02  1.249976444E+02  0.00000E+00  9.000E+00
       5     1     1     2   501     0  2.985419954E+01 -8.326003423E+01  9.013092604E+00  8.903541356E+01  4.750000000E+00  0.00000E+00  9.000E+00
      -5     1     1     2     0   503  1.707277373E+02 -6.496728281E+01 -4.042508233E+01  1.871508961E+02  4.750000000E+00  0.00000E+00  9.000E+00
      21     1     1     2   511   501  5.161058914E+01 -7.186664291E+01 -5.064544813E+01  1.019481667E+02  6.743495762E-07  0.00000E+00  9.000E+00
#rwgt            1           9  -1.1237433769023817E-005           2     2455151           0
</event>
<event>
      6   9999  3.45752E-01  1.81998E+01 -1.00000E+00  1.63401E-01
      21    -1     0     0   512   502  0.000000000E+00  0.000000000E+00  4.156212039E+00  4.156212039E+00  0.000000000E+00  0.00000E+00  9.000E+00
      21    -1     0     0   502   503  0.000000000E+00  0.000000000E+00 -1.553561221E+03  1.553561221E+03  0.000000000E+00  0.00000E+00  9.000E+00
      25     1     1     2     0     0 -6.747692478E+00  1.224015917E+01 -1.326681005E+03  1.332630910E+03  1.250092093E+02  0.00000E+00  9.000E+00
       5     1     1     2   501     0 -4.997599894E-01  6.365095926E-01 -1.202720930E+01  1.295651064E+01  4.750000000E+00  0.00000E+00  9.000E+00
      -5     1     1     2     0   503 -3.479861093E+00  1.825678462E+00 -4.115599733E+01  4.161515531E+01  4.750000000E+00  0.00000E+00  9.000E+00
      21     1     1     2   512   501  1.072731356E+01 -1.470234722E+01 -1.695407971E+02  1.705148561E+02  0.000000000E+00  0.00000E+00  9.000E+00
#rwgt            1           9   1.4426590485857799E-003           2     2456118           0
</event>
<event>
      6   9999 -3.45752E-01  3.84897E+01 -1.00000E+00  1.41162E-01
      21    -1     0     0   502   511  0.000000000E+00  0.000000000E+00  7.497596327E+01  7.497596327E+01  0.000000000E+00  0.00000E+00  9.000E+00
      21    -1     0     0   501   502  0.000000000E+00  0.000000000E+00 -9.287040369E+02  9.287040369E+02  0.000000000E+00  0.00000E+00  9.000E+00
      25     1     1     2     0     0 -1.577844373E+01 -9.670712089E+00 -4.732461664E+02  4.898267141E+02  1.250031754E+02  0.00000E+00  9.000E+00
       5     1     1     2   501     0  3.419893533E+01  1.094404479E+01 -3.104415694E+02  3.125473881E+02  4.750000000E+00  0.00000E+00  9.000E+00
      -5     1     1     2     0   503 -5.668493684E+01 -5.431465893E+00 -1.231232692E+02  1.357371902E+02  4.750000000E+00  0.00000E+00  9.000E+00
      21     1     1     2   503   511  3.826444524E+01  4.158133196E+00  5.308293135E+01  6.556870779E+01  6.743495762E-07  0.00000E+00  9.000E+00
#rwgt            1           9 -0.26110553549168786                2     2457121           0
</event>
<event>
      6   9999  3.45752E-01  8.41047E+00 -1.00000E+00  1.95477E-01
      21    -1     0     0   512   502  0.000000000E+00  0.000000000E+00  1.075112223E+02  1.075112223E+02  0.000000000E+00  0.00000E+00  9.000E+00
      21    -1     0     0   502   503  0.000000000E+00  0.000000000E+00 -1.514564619E+03  1.514564619E+03  0.000000000E+00  0.00000E+00  9.000E+00
      25     1     1     2     0     0 -1.073426230E+02 -3.456259493E+01 -4.089291084E+02  4.422266314E+02  1.249974644E+02  0.00000E+00  9.000E+00
       5     1     1     2   501     0  7.392128327E-01 -6.222244023E+00  3.279387954E+01  3.372334194E+01  4.750000000E+00  0.00000E+00  9.000E+00
      -5     1     1     2     0   503  9.946875621E+01  3.633143796E+01 -1.085619165E+03  1.090782078E+03  4.750000000E+00  0.00000E+00  9.000E+00
      21     1     1     2   512   501  7.134653970E+00  4.453400998E+00  5.470099703E+01  5.534379047E+01  1.348699152E-06  0.00000E+00  9.000E+00
#rwgt            1           9   8.9557565826783739E-004           2     2458104           0
</event>
<event>
      6   9999  3.45752E-01  1.93114E+01 -1.00000E+00  1.61380E-01
      21    -1     0     0   502   511  0.000000000E+00  0.000000000E+00  6.430548394E+02  6.430548394E+02  0.000000000E+00  0.00000E+00  9.000E+00
      21    -1     0     0   501   502  0.000000000E+00  0.000000000E+00 -8.377423145E+02  8.377423145E+02  0.000000000E+00  0.00000E+00  9.000E+00
      25     1     1     2     0     0 -1.347853907E+01 -1.506811331E+01 -5.387965860E+02  5.535144205E+02  1.251708176E+02  0.00000E+00  9.000E+00
       5     1     1     2   501     0  3.479562842E+00  1.082195229E+00 -2.246432404E+02  2.247229994E+02  4.750000000E+00  0.00000E+00  9.000E+00
      -5     1     1     2     0   503  2.810018176E+01  2.071482964E+01 -6.210733780E+01  7.140453971E+01  4.750000000E+00  0.00000E+00  9.000E+00
      21     1     1     2   503   511 -1.810120552E+01 -6.728911563E+00  6.308596891E+02  6.311551942E+02  1.078959322E-05  0.00000E+00  9.000E+00
#rwgt            1           9   4.2134050212937764                2     2462948           0
</event>
<event>
      6   9999  3.45752E-01  1.05537E+01 -1.00000E+00  1.84762E-01
      21    -1     0     0   501   512  0.000000000E+00  0.000000000E+00  8.102935395E+01  8.102935395E+01  0.000000000E+00  0.00000E+00  9.000E+00
      21    -1     0     0   502   503  0.000000000E+00  0.000000000E+00 -8.784507095E+02  8.784507095E+02  0.000000000E+00  0.00000E+00  9.000E+00
      25     1     1     2     0     0 -1.252083542E+00 -6.895524049E+00 -7.677114328E+02  7.778550585E+02  1.250141268E+02  0.00000E+00  9.000E+00
       5     1     1     2   501     0  5.842854128E+00 -3.694223585E+00  6.850577681E+00  1.082954971E+01  4.750000000E+00  0.00000E+00  9.000E+00
      -5     1     1     2     0   503  3.436914580E+00  3.738702833E+00 -1.031453184E+02  1.033794443E+02  4.750000000E+00  0.00000E+00  9.000E+00
      21     1     1     2   502   512 -8.027685166E+00  6.851044801E+00  6.658481807E+01  6.741601101E+01  1.348699152E-06  0.00000E+00  9.000E+00
#rwgt            1           9   1.3342380185282231E-004           2     2464485           0
</event>
<event>
      6   9999  3.45752E-01  2.09965E+01 -1.00000E+00  1.58615E-01
      21    -1     0     0   501   511  0.000000000E+00  0.000000000E+00  5.611044392E+01  5.611044392E+01  0.000000000E+00  0.00000E+00  9.000E+00
      21    -1     0     0   502   503  0.000000000E+00  0.000000000E+00 -1.016709318E+03  1.016709318E+03  0.000000000E+00  0.00000E+00  9.000E+00
      25     1     1     2     0     0 -6.118525794E-02  1.403336770E+01 -9.092473854E+02  9.179077091E+02  1.250072618E+02  0.00000E+00  9.000E+00
       5     1     1     2   501     0 -3.850954739E+00  2.614791685E+00  1.652605785E+01  1.781404154E+01  4.750000000E+00  0.00000E+00  9.000E+00
      -5     1     1     2     0   503 -2.217657935E-01  3.937411993E+00 -9.919853416E+01  9.939046268E+01  4.750000000E+00  0.00000E+00  9.000E+00
      21     1     1     2   502   511  4.133905790E+00 -2.058557138E+01  3.132098781E+01  3.770754836E+01  2.158972058E-06  0.00000E+00  9.000E+00
#rwgt            1           9   3.3337732291092690E-005           2     2466944           0
</event>
<event>
      6   9999  3.45752E-01  1.57887E+01 -1.00000E+00  1.68465E-01
      21    -1     0     0   501   512  0.000000000E+00  0.000000000E+00  1.874216228E+01  1.874216228E+01  0.000000000E+00  0.00000E+00  9.000E+00
      21    -1     0     0   502   503  0.000000000E+00  0.000000000E+00 -6.755507788E+02  6.755507788E+02  0.000000000E+00  0.00000E+00  9.000E+00
      25     1     1     2     0     0  8.187201226E+00  1.271444250E+01 -5.353687505E+02  5.499755640E+02  1.249989388E+02  0.00000E+00  9.000E+00
       5     1     1     2   501     0  2.320555131E-01  6.325108232E+00 -3.803168404E+01  3.884626539E+01  4.750000000E+00  0.00000E+00  9.000E+00
      -5     1     1     2     0   503  5.548410263E-02 -5.718069098E+00 -8.855364491E+01  8.886512206E+01  4.750000000E+00  0.00000E+00  9.000E+00
      21     1     1     2   502   512 -8.474740842E+00 -1.332148163E+01  5.145462838E+00  1.660598967E+01  3.576278687E-07  0.00000E+00  9.000E+00
#rwgt            1           9   475.17301641666882                2     2468642           0
</event>
<event>
      6   9999  3.45752E-01  1.16132E+01 -1.00000E+00  1.80602E-01
      21    -1     0     0   501   502  0.000000000E+00  0.000000000E+00  4.330479019E+02  4.330479019E+02  0.000000000E+00  0.00000E+00  9.000E+00
      21    -1     0     0   511   503  0.000000000E+00  0.000000000E+00 -1.109593466E+02  1.109593466E+02  0.000000000E+00  0.00000E+00  9.000E+00
      25     1     1     2     0     0  6.863699734E+01  1.366171157E+02  2.812933993E+02  3.436976000E+02  1.250071600E+02  0.00000E+00  9.000E+00
       5     1     1     2   501     0 -2.632477008E+01 -9.666851184E+01  6.103363523E+01  1.174115064E+02  4.750000000E+00  0.00000E+00  9.000E+00
      -5     1     1     2     0   503 -4.497963383E+01 -5.125131364E+01 -2.022660793E+01  7.128494075E+01  4.750000000E+00  0.00000E+00  9.000E+00
      21     1     1     2   511   502  2.667406571E+00  1.130270972E+01 -1.187137998E-02  1.161320136E+01  1.138135869E-07  0.00000E+00  9.000E+00
#rwgt            1           9  0.88689110682395500                2     2470236           0
</event>
<event>
      6   9999  3.45752E-01  2.44980E+00 -1.00000E+00  3.02151E-01
      21    -1     0     0   501   502  0.000000000E+00  0.000000000E+00  2.999395367E+01  2.999395367E+01  0.000000000E+00  0.00000E+00  9.000E+00
      21    -1     0     0   512   503  0.000000000E+00  0.000000000E+00 -3.342589753E+03  3.342589753E+03  0.000000000E+00  0.00000E+00  9.000E+00
      25     1     1     2     0     0 -6.012883730E+00 -3.630228726E+00 -9.704857219E+02  9.785270076E+02  1.249929392E+02  0.00000E+00  9.000E+00
       5     1     1     2   501     0  4.993017088E+00  5.243626993E+00  2.514164760E+01  2.659117876E+01  4.750000000E+00  0.00000E+00  9.000E+00
      -5     1     1     2     0   503  1.019000856E+00 -4.063201169E+00 -9.428239317E+01  9.449486826E+01  4.750000000E+00  0.00000E+00  9.000E+00
      21     1     1     2   512   502  8.657862826E-04  2.449802902E+00 -2.272969331E+03  2.272970652E+03  4.315837288E-05  0.00000E+00  9.000E+00
#rwgt            1           9   2.7321185670375723E-004           2     2473526           0
</event>
<event>
      6   9999  3.45752E-01  8.65656E+01 -1.00000E+00  1.23159E-01
      21    -1     0     0   501   502  0.000000000E+00  0.000000000E+00  1.349248762E+02  1.349248762E+02  0.000000000E+00  0.00000E+00  9.000E+00
       2    -1     0     0   502     0  0.000000000E+00  0.000000000E+00 -2.443346578E+03  2.443346578E+03  0.000000000E+00  0.00000E+00  9.000E+00
      25     1     1     2     0     0 -6.741600041E+01  1.355252050E+02 -5.589018600E-02  1.963013187E+02  1.249888247E+02  0.00000E+00  9.000E+00
       5     1     1     2   501     0 -1.761933781E+01 -2.407764477E+00  1.647157623E+01  2.470048012E+01  4.750000000E+00  0.00000E+00  9.000E+00
      -5     1     1     2     0   503  1.087004229E+02 -4.984936565E+01 -2.182986721E+02  2.489530356E+02  4.750000000E+00  0.00000E+00  9.000E+00
       2     1     1     2   503     0 -2.366508466E+01 -8.326807486E+01 -2.106538716E+03  2.108316620E+03  3.051757812E-05  0.00000E+00  9.000E+00
#rwgt            1           9  0.31747292353403272                2     2482524           0
</event>
<event>
      6   9999  3.45752E-01  9.79772E+00 -1.00000E+00  1.88133E-01
      21    -1     0     0   501   502  0.000000000E+00  0.000000000E+00  6.469521638E+00  6.469521638E+00  0.000000000E+00  0.00000E+00  9.000E+00
      21    -1     0     0   511   503  0.000000000E+00  0.000000000E+00 -9.342522095E+02  9.342522095E+02  0.000000000E+00  0.00000E+00  9.000E+00
      25     1     1     2     0     0 -5.871984139E+00  1.497877588E+00 -7.139096813E+02  7.247947304E+02  1.249945774E+02  0.00000E+00  9.000E+00
       5     1     1     2   501     0 -8.575125249E-01  2.794957073E-01 -7.959479462E+00  9.312854497E+00  4.750000000E+00  0.00000E+00  9.000E+00
      -5     1     1     2     0   503 -2.957923920E+00 -3.113508845E-01 -3.756573640E+01  3.798148634E+01  4.750000000E+00  0.00000E+00  9.000E+00
      21     1     1     2   511   502  9.687420584E+00 -1.466022411E+00 -1.683477907E+02  1.686326599E+02  3.303624740E-06  0.00000E+00  9.000E+00
#rwgt            1           9   3.8946117833754353E-004           2     2484059           0
</event>
<event>
      6   9999  3.45752E-01  1.15803E+01 -1.00000E+00  1.80723E-01
      21    -1     0     0   501   502  0.000000000E+00  0.000000000E+00  6.539659103E+01  6.539659103E+01  0.000000000E+00  0.00000E+00  9.000E+00
      21    -1     0     0   512   503  0.000000000E+00  0.000000000E+00 -1.608877829E+03  1.608877829E+03  0.000000000E+00  0.00000E+00  9.000E+00
      25     1     1     2     0     0 -5.674830406E+01 -3.643699206E+01 -8.885257071E+02  8.998071009E+02  1.250074490E+02  0.00000E+00  9.000E+00
       5     1     1     2   501     0  9.605517550E+00 -7.508971634E+00  5.696062246E+01  5.844420958E+01  4.750000000E+00  0.00000E+00  9.000E+00
      -5     1     1     2     0   503  3.649483431E+01  4.849831731E+01 -6.614240517E+02  6.642200678E+02  4.750000000E+00  0.00000E+00  9.000E+00
      21     1     1     2   512   502  1.064795220E+01 -4.552353621E+00 -5.049210157E+01  5.180304171E+01  6.743495762E-07  0.00000E+00  9.000E+00
#rwgt            1           9   6.6182968720808089E-002           2     2486081           0
</event>
<event>
      6   9999  3.45752E-01  1.54335E+01 -1.00000E+00  1.69306E-01
      21    -1     0     0   501   502  0.000000000E+00  0.000000000E+00  1.215138779E+01  1.215138779E+01  0.000000000E+00  0.00000E+00  9.000E+00
       1    -1     0     0   502     0  0.000000000E+00  0.000000000E+00 -1.144335053E+03  1.144335053E+03  0.000000000E+00  0.00000E+00  9.000E+00
      25     1     1     2     0     0 -1.537037115E+00  7.967018369E+00 -8.232631145E+02  8.327380985E+02  1.249989964E+02  0.00000E+00  9.000E+00
       5     1     1     2   501     0 -2.875362820E+00  3.078343543E+00  3.943053014E+00  7.473558549E+00  4.750000000E+00  0.00000E+00  9.000E+00
      -5     1     1     2     0   503  2.023630598E+00  4.202158701E+00 -5.816657635E+00  8.840205008E+00  4.750000000E+00  0.00000E+00  9.000E+00
       1     1     1     2   503     0  2.388769336E+00 -1.524752061E+01 -3.070469464E+02  3.074345791E+02  0.000000000E+00  0.00000E+00  9.000E+00
#rwgt            1           9   4.0970089953550705E-004           2     2490039           0
</event>
<event>
      6   9999  3.45752E-01  9.98817E+00 -1.00000E+00  1.87248E-01
      21    -1     0     0   501   502  0.000000000E+00  0.000000000E+00  3.950694932E+01  3.950694932E+01  0.000000000E+00  0.00000E+00  9.000E+00
      21    -1     0     0   511   503  0.000000000E+00  0.000000000E+00 -1.296575681E+03  1.296575681E+03  0.000000000E+00  0.00000E+00  9.000E+00
      25     1     1     2     0     0  2.058777107E+01  1.124237822E+02 -1.056872960E+03  1.070359276E+03  1.250022564E+02  0.00000E+00  9.000E+00
       5     1     1     2   501     0  1.117734605E+01 -6.509309732E+00 -9.322969021E-01  1.381071524E+01  4.750000000E+00  0.00000E+00  9.000E+00
      -5     1     1     2     0   503 -2.242525178E+01 -1.094543067E+02 -9.374938799E+01  1.459268564E+02  4.750000000E+00  0.00000E+00  9.000E+00
      21     1     1     2   511   502 -9.339865342E+00  3.539834215E+00 -1.055140873E+02  1.059857826E+02  0.000000000E+00  0.00000E+00  9.000E+00
#rwgt            1           9   4.3956912493273063E-006           2     2492021           0
</event>
<event>
      6   9999  3.45752E-01  4.26436E+00 -1.00000E+00  2.42234E-01
      21    -1     0     0   512   502  0.000000000E+00  0.000000000E+00  3.780720481E+01  3.780720481E+01  0.000000000E+00  0.00000E+00  9.000E+00
      21    -1     0     0   502   503  0.000000000E+00  0.000000000E+00 -1.200344055E+03  1.200344055E+03  0.000000000E+00  0.00000E+00  9.000E+00
      25     1     1     2     0     0  6.398884429E+01  7.479208713E+01 -1.050236413E+03  1.062217172E+03  1.249814731E+02  0.00000E+00  9.000E+00
       5     1     1     2   501     0 -7.341741866E-01  2.791485988E+00  1.120016169E+01  1.250350062E+01  4.750000000E+00  0.00000E+00  9.000E+00
      -5     1     1     2     0   503 -6.751224943E+01 -7.734310851E+01 -1.186252809E+02  1.569534326E+02  4.750000000E+00  0.00000E+00  9.000E+00
      21     1     1     2   512   501  4.257579334E+00 -2.404646037E-01 -4.875317538E+00  6.477154167E+00  8.429369702E-08  0.00000E+00  9.000E+00
#rwgt            1           9   1.1025508978849802E-003           2     2496395           0
</event>
<event>
      6   9999  3.45752E-01  4.81003E+00 -1.00000E+00  2.32361E-01
      21    -1     0     0   501   511  0.000000000E+00  0.000000000E+00  5.495570940E+00  5.495570940E+00  0.000000000E+00  0.00000E+00  9.000E+00
      21    -1     0     0   502   503  0.000000000E+00  0.000000000E+00 -1.940074396E+03  1.940074396E+03  0.000000000E+00  0.00000E+00  9.000E+00
      25     1     1     2     0     0 -8.483268216E+00  6.120172607E+00 -1.724263348E+03  1.728819699E+03  1.249961510E+02  0.00000E+00  9.000E+00
       5     1     1     2   501     0 -6.556396019E-01  3.806962351E+00 -5.806939849E-01  6.150002531E+00  4.750000000E+00  0.00000E+00  9.000E+00
      -5     1     1     2     0   503  6.253475742E+00 -6.078673476E+00 -1.909958109E+02  1.912538065E+02  4.750000000E+00  0.00000E+00  9.000E+00
      21     1     1     2   502   511  2.885432076E+00 -3.848461482E+00 -1.873897246E+01  1.934645866E+01  0.000000000E+00  0.00000E+00  9.000E+00
#rwgt            1           9   2.7027217850368579E-003           2     2502826           0
</event>
<event>
      6   9999  3.45752E-01  2.60227E+00 -1.00000E+00  2.94132E-01
      21    -1     0     0   501   512  0.000000000E+00  0.000000000E+00  1.407699425E+03  1.407699425E+03  0.000000000E+00  0.00000E+00  9.000E+00
      21    -1     0     0   502   503  0.000000000E+00  0.000000000E+00 -9.895739227E+02  9.895739227E+02  0.000000000E+00  0.00000E+00  9.000E+00
      25     1     1     2     0     0 -1.700945288E+01  1.265782022E+01 -7.452828680E+02  7.559791263E+02  1.249333589E+02  0.00000E+00  9.000E+00
       5     1     1     2   501     0  4.071234315E-02  2.539179052E+00  1.369388249E+01  1.471509447E+01  4.750000000E+00  0.00000E+00  9.000E+00
      -5     1     1     2     0   503  1.829279273E+01 -1.743723915E+01 -2.377377690E+02  2.391244297E+02  4.750000000E+00  0.00000E+00  9.000E+00
      21     1     1     2   502   512 -1.324052192E+00  2.240239879E+00  1.387452257E+03  1.387454697E+03  1.525878906E-05  0.00000E+00  9.000E+00
#rwgt            1           9   5.5556413891963783E-003           2     2507143           0
</event>
<event>
      6   9999  3.45752E-01  1.03380E+02 -1.00000E+00  1.19825E-01
      21    -1     0     0   501   511  0.000000000E+00  0.000000000E+00  1.110580046E+03  1.110580046E+03  0.000000000E+00  0.00000E+00  9.000E+00
      21    -1     0     0   502   503  0.000000000E+00  0.000000000E+00 -1.287795000E+03  1.287795000E+03  0.000000000E+00  0.00000E+00  9.000E+00
      25     1     1     2     0     0 -4.693243404E+01  2.720243901E+02 -1.086910143E+03  1.128360382E+03  1.249942755E+02  0.00000E+00  9.000E+00
       5     1     1     2   501     0 -2.154159377E+00  1.446768458E+01  2.133291692E+01  2.629848178E+01  4.750000000E+00  0.00000E+00  9.000E+00
      -5     1     1     2     0   503  6.356053659E+01 -1.841305585E+02 -1.208096004E+02  2.292630071E+02  4.750000000E+00  0.00000E+00  9.000E+00
      21     1     1     2   502   511 -1.447394317E+01 -1.023615162E+02  1.009171874E+03  1.014453176E+03  1.525878906E-05  0.00000E+00  9.000E+00
#rwgt            1           9   4.2563885457346795E-003           2     2514890           0
</event>
<event>
      6   9999  3.45752E-01  8.29191E+00 -1.00000E+00  1.96190E-01
      21    -1     0     0   501   502  0.000000000E+00  0.000000000E+00  1.334272532E+01  1.334272532E+01  0.000000000E+00  0.00000E+00  9.000E+00
      21    -1     0     0   502   512  0.000000000E+00  0.000000000E+00 -8.888032021E+02  8.888032021E+02  0.000000000E+00  0.00000E+00  9.000E+00
      25     1     1     2     0     0  1.980537516E+00  1.169376630E-01 -6.513877041E+02  6.632755530E+02  1.249983274E+02  0.00000E+00  9.000E+00
       5     1     1     2   501     0  7.119390693E-01  3.487486281E+00  5.568166474E+00  8.138574548E+00  4.750000000E+00  0.00000E+00  9.000E+00
      -5     1     1     2     0   503 -1.440948538E+00  4.592495590E+00 -1.948150276E+02  1.949323596E+02  4.750000000E+00  0.00000E+00  9.000E+00
      21     1     1     2   503   512 -1.251528047E+00 -8.196919534E+00 -3.482591158E+01  3.579944036E+01  0.000000000E+00  0.00000E+00  9.000E+00
#rwgt            1           9  0.23544691133353041                2     2516032           0
</event>
<event>
      6   9999  3.45752E-01  7.69560E+01 -1.00000E+00  1.25476E-01
      21    -1     0     0   511   502  0.000000000E+00  0.000000000E+00  2.128284962E+01  2.128284962E+01  0.000000000E+00  0.00000E+00  9.000E+00
      21    -1     0     0   502   503  0.000000000E+00  0.000000000E+00 -1.017425148E+03  1.017425148E+03  0.000000000E+00  0.00000E+00  9.000E+00
      25     1     1     2     0     0 -2.867745573E+01 -7.114285351E+01 -7.916868128E+02  8.051567508E+02  1.250027264E+02  0.00000E+00  9.000E+00
       5     1     1     2   501     0  2.931250103E+01 -5.443809233E+00 -4.971428165E+01  5.816296137E+01  4.750000000E+00  0.00000E+00  9.000E+00
      -5     1     1     2     0   503  2.256453522E+00 -3.149536548E-01 -1.438454853E+01  1.531889405E+01  4.750000000E+00  0.00000E+00  9.000E+00
      21     1     1     2   511   501 -2.891498818E+00  7.690161640E+01 -1.403566554E+02  1.600693914E+02  2.697398305E-06  0.00000E+00  9.000E+00
#rwgt            1           9   4.7587913651473939E-005           2     2519033           0
</event>
<event>
      6   9999  3.45752E-01  7.26413E+00 -1.00000E+00  2.03110E-01
      21    -1     0     0   501   502  0.000000000E+00  0.000000000E+00  7.914480355E+00  7.914480355E+00  0.000000000E+00  0.00000E+00  9.000E+00
      21    -1     0     0   502   512  0.000000000E+00  0.000000000E+00 -8.624345107E+02  8.624345107E+02  0.000000000E+00  0.00000E+00  9.000E+00
      25     1     1     2     0     0  3.589285561E+00 -1.228645305E+00 -6.466690458E+02  6.586509438E+02  1.250032738E+02  0.00000E+00  9.000E+00
       5     1     1     2   501     0  1.562097448E-01 -7.172410576E-01 -1.818373400E+00  5.138853767E+00  4.750000000E+00  0.00000E+00  9.000E+00
      -5     1     1     2     0   503 -1.809216791E-01 -4.383522320E+00 -6.030994931E+01  6.065558908E+01  4.750000000E+00  0.00000E+00  9.000E+00
      21     1     1     2   503   512 -3.564573627E+00  6.329408683E+00 -1.457226618E+02  1.459036044E+02  0.000000000E+00  0.00000E+00  9.000E+00
#rwgt            1           9   2.4858250113681983E-004           2     2519616           0
</event>
<event>
      6   9999  3.45752E-01  5.53180E+00 -1.00000E+00  2.19094E-01
      21    -1     0     0   511   502  0.000000000E+00  0.000000000E+00  2.676499660E+01  2.676499660E+01  0.000000000E+00  0.00000E+00  9.000E+00
      21    -1     0     0   502   503  0.000000000E+00  0.000000000E+00 -1.040767957E+03  1.040767957E+03  0.000000000E+00  0.00000E+00  9.000E+00
      25     1     1     2     0     0  1.614318787E+01 -1.924581457E+00 -8.404306290E+02  8.498316663E+02  1.250036496E+02  0.00000E+00  9.000E+00
       5     1     1     2   501     0  7.207757767E+00  7.567307304E-01  1.688972641E+01  1.898288102E+01  4.750000000E+00  0.00000E+00  9.000E+00
      -5     1     1     2     0   503 -2.044903712E+01  5.877384533E+00 -1.917935783E+02  1.930286143E+02  4.750000000E+00  0.00000E+00  9.000E+00
      21     1     1     2   511   501 -2.901908524E+00 -4.709533807E+00  1.331520747E+00  5.689791671E+00  3.465921685E-07  0.00000E+00  9.000E+00
#rwgt            1           9   1.1191215282519493E-004           2     2523173           0
</event>
<event>
      6   9999  3.45752E-01  3.98709E+01 -1.00000E+00  1.40267E-01
      21    -1     0     0   501   502  0.000000000E+00  0.000000000E+00  1.928120104E+02  1.928120104E+02  0.000000000E+00  0.00000E+00  9.000E+00
      21    -1     0     0   502   512  0.000000000E+00  0.000000000E+00 -3.438597858E+02  3.438597858E+02  0.000000000E+00  0.00000E+00  9.000E+00
      25     1     1     2     0     0 -9.530057539E+01  7.384615175E+01  5.878117037E+01  1.833145278E+02  1.249541369E+02  0.00000E+00  9.000E+00
       5     1     1     2   501     0 -5.751533219E+00  3.164891963E+00  5.691592144E+01  5.748983640E+01  4.750000000E+00  0.00000E+00  9.000E+00
      -5     1     1     2     0   503  7.385019757E+01 -4.786067110E+01 -1.841920066E+02  2.041904829E+02  4.750000000E+00  0.00000E+00  9.000E+00
      21     1     1     2   503   512  2.720191104E+01 -2.915037261E+01 -8.255286071E+01  9.167694912E+01  9.536743164E-07  0.00000E+00  9.000E+00
#rwgt            1           9   13.073774401465316                2     2528523           0
</event>
<event>
      6   9999  3.45752E-01  1.37225E+01 -1.00000E+00  1.73791E-01
      21    -1     0     0   511   502  0.000000000E+00  0.000000000E+00  1.212648573E+02  1.212648573E+02  0.000000000E+00  0.00000E+00  9.000E+00
      21    -1     0     0   502   503  0.000000000E+00  0.000000000E+00 -1.612697025E+03  1.612697025E+03  0.000000000E+00  0.00000E+00  9.000E+00
      25     1     1     2     0     0  1.815605825E+00  1.389376067E+01 -9.941821285E+02  1.002107539E+03  1.250003253E+02  0.00000E+00  9.000E+00
       5     1     1     2   501     0 -1.096269201E+01 -3.740314233E+00  7.244217029E+01  7.351599216E+01  4.750000000E+00  0.00000E+00  9.000E+00
      -5     1     1     2     0   503  1.793072978E+01  3.895467677E-01 -6.128093801E+02  6.130901742E+02  4.750000000E+00  0.00000E+00  9.000E+00
      21     1     1     2   511   501 -8.783643597E+00 -1.054299321E+01  4.311717091E+01  4.524817706E+01  1.907348633E-06  0.00000E+00  9.000E+00
#rwgt            1           9   3.5824715711188673E-003           2     2529922           0
</event>
<event>
      6   9999 -3.45752E-01  2.54994E+01 -1.00000E+00  1.52554E-01
      21    -1     0     0   502   503  0.000000000E+00  0.000000000E+00  7.944152036E+01  7.944152036E+01  0.000000000E+00  0.00000E+00  9.000E+00
      21    -1     0     0   512   502  0.000000000E+00  0.000000000E+00 -2.266243719E+03  2.266243719E+03  0.000000000E+00  0.00000E+00  9.000E+00
      25     1     1     2     0     0  8.104601692E+01  1.225874488E+01 -1.333956827E+03  1.342305860E+03  1.250018776E+02  0.00000E+00  9.000E+00
       5     1     1     2   501     0 -1.648764868E+00 -3.314306488E+00  2.431097599E+00  6.494288924E+00  4.750000000E+00  0.00000E+00  9.000E+00
      -5     1     1     2     0   503 -5.793289078E+01 -2.271034759E+01  5.684035899E+01  8.441189864E+01  4.750000000E+00  0.00000E+00  9.000E+00
      21     1     1     2   512   501 -2.146436128E+01  1.376590920E+01 -9.121168276E+02  9.124731921E+02  1.078959322E-05  0.00000E+00  9.000E+00
#rwgt            1           9  -138.03406914273961                2     2534084           0
</event>
<event>
      6   9999  3.45752E-01  4.89950E+00 -1.00000E+00  2.30924E-01
      21    -1     0     0   511   502  0.000000000E+00  0.000000000E+00  1.397848775E+02  1.397848775E+02  0.000000000E+00  0.00000E+00  9.000E+00
      21    -1     0     0   502   503  0.000000000E+00  0.000000000E+00 -1.594291543E+03  1.594291543E+03  0.000000000E+00  0.00000E+00  9.000E+00
      25     1     1     2     0     0  2.081564369E+01  1.467609467E-01 -1.457739912E+03  1.463237384E+03  1.249987140E+02  0.00000E+00  9.000E+00
       5     1     1     2   501     0 -7.182052699E+00  4.592368304E+00  1.011038717E+02  1.015737521E+02  4.750000000E+00  0.00000E+00  9.000E+00
      -5     1     1     2     0   503 -1.254733543E+01 -9.516696319E+00 -1.328903494E+02  1.339044831E+02  4.750000000E+00  0.00000E+00  9.000E+00
      21     1     1     2   511   501 -1.086255559E+00  4.777567068E+00  3.501972478E+01  3.536080064E+01  9.536743164E-07  0.00000E+00  9.000E+00
#rwgt            1           9   3.6608786303979250E-005           2     2536407           0
</event>
<event>
      6   9999  3.45752E-01  2.16489E+01 -1.00000E+00  1.57628E-01
      21    -1     0     0   501   502  0.000000000E+00  0.000000000E+00  1.085522344E+02  1.085522344E+02  0.000000000E+00  0.00000E+00  9.000E+00
      21    -1     0     0   502   512  0.000000000E+00  0.000000000E+00 -1.533520790E+02  1.533520790E+02  0.000000000E+00  0.00000E+00  9.000E+00
      25     1     1     2     0     0 -1.834128673E+01  5.774249344E-01 -9.656756441E+01  1.590066791E+02  1.249843721E+02  0.00000E+00  9.000E+00
       5     1     1     2   501     0 -3.939790121E+00 -3.495432777E+00  6.956940586E+01  6.992999877E+01  4.750000000E+00  0.00000E+00  9.000E+00
      -5     1     1     2     0   503  8.973993010E-01 -4.604513971E-01 -7.639687939E+00  9.052329689E+00  4.750000000E+00  0.00000E+00  9.000E+00
      21     1     1     2   503   512  2.138367755E+01  3.378459240E+00 -1.016199808E+01  2.391530592E+01  4.298152060E-07  0.00000E+00  9.000E+00
#rwgt            1           9   8.8781671581459706E-002           2     2543925           0
</event>
<event>
      6   9999  3.45752E-01  5.38796E+01 -1.00000E+00  1.33074E-01
      21    -1     0     0   501   502  0.000000000E+00  0.000000000E+00  3.034315562E+02  3.034315562E+02  0.000000000E+00  0.00000E+00  9.000E+00
      21    -1     0     0   502   511  0.000000000E+00  0.000000000E+00 -4.220523151E+02  4.220523151E+02  0.000000000E+00  0.00000E+00  9.000E+00
      25     1     1     2     0     0  3.986759460E+01 -5.510444068E+01 -3.330137784E+02  3.621469092E+02  1.250051308E+02  0.00000E+00  9.000E+00
       5     1     1     2   501     0  4.827727325E+00 -2.432135966E+01  2.477721446E+02  2.490550815E+02  4.750000000E+00  0.00000E+00  9.000E+00
      -5     1     1     2     0   503 -6.098661414E+00  4.183173721E+01  1.160246840E+01  4.409385085E+01  4.750000000E+00  0.00000E+00  9.000E+00
      21     1     1     2   503   511 -3.859666051E+01  3.759406312E+01 -4.498159343E+01  7.018802984E+01  1.066240300E-06  0.00000E+00  9.000E+00
#rwgt            1           9   1.5751782341736119E-003           2     2546139           0
</event>
<event>
      6   9999 -3.45752E-01  7.72413E+00 -1.00000E+00  1.99837E-01
      21    -1     0     0   501   512  0.000000000E+00  0.000000000E+00  4.893928518E+01  4.893928518E+01  0.000000000E+00  0.00000E+00  9.000E+00
      21    -1     0     0   502   503  0.000000000E+00  0.000000000E+00 -1.405252012E+03  1.405252012E+03  0.000000000E+00  0.00000E+00  9.000E+00
      25     1     1     2     0     0 -1.920070155E+02  1.035390694E+02 -5.670787493E+02  6.203145624E+02  1.249992625E+02  0.00000E+00  9.000E+00
       5     1     1     2   501     0 -9.132636844E-01 -1.690343632E+00  5.108229387E+00  7.235179308E+00  4.750000000E+00  0.00000E+00  9.000E+00
      -5     1     1     2     0   503  1.868275415E+02 -9.710101800E+01 -7.903836961E+02  8.179621553E+02  4.750000000E+00  0.00000E+00  9.000E+00
      21     1     1     2   502   512  6.092737719E+00 -4.747707736E+00 -3.958511213E+00  8.679400480E+00  1.032382731E-07  0.00000E+00  9.000E+00
#rwgt            1           9  -2.4784095885651723E-004           2     2547688           0
</event>
<event>
      6   9999  3.45752E-01  2.17979E+01 -1.00000E+00  1.57408E-01
      21    -1     0     0   501   502  0.000000000E+00  0.000000000E+00  3.923985763E+03  3.923985763E+03  0.000000000E+00  0.00000E+00  9.000E+00
      21    -1     0     0   502   511  0.000000000E+00  0.000000000E+00 -1.500944617E+01  1.500944617E+01  0.000000000E+00  0.00000E+00  9.000E+00
      25     1     1     2     0     0 -7.225461687E+01 -1.119370207E+00  8.851424757E+02  8.968414281E+02  1.250014485E+02  0.00000E+00  9.000E+00
       5     1     1     2   501     0  6.234516435E+00 -1.510633898E-01  2.752676723E+03  2.752687886E+03  4.750000000E+00  0.00000E+00  9.000E+00
      -5     1     1     2     0   503  7.507758284E+01  2.109740261E+01  2.297562687E+02  2.426772535E+02  4.750000000E+00  0.00000E+00  9.000E+00
      21     1     1     2   503   511 -9.057482412E+00 -1.982696901E+01  4.140084956E+01  4.678864212E+01  2.336015456E-06  0.00000E+00  9.000E+00
#rwgt            1           9   1.2220820105034432E-004           2     2552232           0
</event>
<event>
      6   9999  3.45752E-01  3.13871E+01 -1.00000E+00  1.46579E-01
      21    -1     0     0   501   502  0.000000000E+00  0.000000000E+00  2.693189554E+01  2.693189554E+01  0.000000000E+00  0.00000E+00  9.000E+00
       2    -1     0     0   502     0  0.000000000E+00  0.000000000E+00 -1.998894745E+03  1.998894745E+03  0.000000000E+00  0.00000E+00  9.000E+00
      25     1     1     2     0     0  4.777036447E+01  3.501944240E+01 -3.468501663E+02  3.734159986E+02  1.250044043E+02  0.00000E+00  9.000E+00
       5     1     1     2   501     0 -7.198575292E+00  7.630377579E+00  9.554317175E+00  1.496294172E+01  4.750000000E+00  0.00000E+00  9.000E+00
      -5     1     1     2     0   503 -5.481786819E+01 -1.468196027E+01 -7.225184100E+02  7.247592523E+02  4.750000000E+00  0.00000E+00  9.000E+00
       2     1     1     2   503     0  1.424607902E+01 -2.796785971E+01 -9.121485908E+02  9.126884483E+02  1.078959322E-05  0.00000E+00  9.000E+00
#rwgt            1           9   7.1232361777646925E-004           2     2554219           0
</event>
<event>
      6   9999  3.45752E-01  7.12102E+00 -1.00000E+00  2.04194E-01
      21    -1     0     0   501   502  0.000000000E+00  0.000000000E+00  2.604073618E+01  2.604073618E+01  0.000000000E+00  0.00000E+00  9.000E+00
      21    -1     0     0   502   511  0.000000000E+00  0.000000000E+00 -3.793109588E+02  3.793109588E+02  0.000000000E+00  0.00000E+00  9.000E+00
      25     1     1     2     0     0  1.051625900E+01  5.684978501E+00 -2.480447722E+02  2.780167504E+02  1.249967752E+02  0.00000E+00  9.000E+00
       5     1     1     2   501     0  4.343922017E-01  1.527650955E+00  9.301796191E+00  1.056448420E+01  4.750000000E+00  0.00000E+00  9.000E+00
      -5     1     1     2     0   503 -3.860133216E+00 -6.554280972E+00 -1.934870543E+01  2.132590278E+01  4.750000000E+00  0.00000E+00  9.000E+00
      21     1     1     2   503   511 -7.090517990E+00 -6.583484848E-01 -9.517854122E+01  9.544455761E+01  1.348699152E-06  0.00000E+00  9.000E+00
#rwgt            1           9   2.0508321531596579E-002           2     2555469           0
</event>
<event>
      6   9999  3.45752E-01  1.00969E+01 -1.00000E+00  1.86753E-01
      21    -1     0     0   501   502  0.000000000E+00  0.000000000E+00  3.728386387E+02  3.728386387E+02  0.000000000E+00  0.00000E+00  9.000E+00
      21    -1     0     0   502   512  0.000000000E+00  0.000000000E+00 -4.614033412E+01  4.614033412E+01  0.000000000E+00  0.00000E+00  9.000E+00
      25     1     1     2     0     0  5.516670735E+00  5.579532967E+00  6.371819001E+01  1.405217851E+02  1.249991981E+02  0.00000E+00  9.000E+00
       5     1     1     2   501     0 -3.712317670E+00  2.049850668E-01  2.606907402E+02  2.607605181E+02  4.750000000E+00  0.00000E+00  9.000E+00
      -5     1     1     2     0   503 -3.821372008E+00  4.108908196E+00  1.894797975E+00  7.592020150E+00  4.750000000E+00  0.00000E+00  9.000E+00
      21     1     1     2   503   512  2.017018942E+00 -9.893426229E+00  3.945764050E-01  1.010464935E+01  2.016480059E-07  0.00000E+00  9.000E+00
#rwgt            1           9   2.1385581340362552                2     2558680           0
</event>
<event>
      6   9999  3.45752E-01  1.22204E+01 -1.00000E+00  1.78464E-01
      21    -1     0     0   502   503  0.000000000E+00  0.000000000E+00  1.249152594E+01  1.249152594E+01  0.000000000E+00  0.00000E+00  9.000E+00
      21    -1     0     0   511   502  0.000000000E+00  0.000000000E+00 -1.312553267E+03  1.312553267E+03  0.000000000E+00  0.00000E+00  9.000E+00
      25     1     1     2     0     0 -3.078451080E+00  3.385464392E+01 -3.708800326E+02  3.928514041E+02  1.249984534E+02  0.00000E+00  9.000E+00
       5     1     1     2   501     0 -5.158627807E+00 -2.403323912E+01 -2.202901267E+02  2.217081650E+02  4.750000000E+00  0.00000E+00  9.000E+00
      -5     1     1     2     0   503  1.772449022E+01 -1.752384716E+01 -2.228157537E+02  2.242558034E+02  4.750000000E+00  0.00000E+00  9.000E+00
      21     1     1     2   511   501 -9.487411333E+00  7.702442367E+00 -4.860758285E+02  4.862294208E+02  5.394796609E-06  0.00000E+00  9.000E+00
#rwgt            1           9   5.6294306292609044E-004           2     2561387           0
</event>
<event>
      6   9999  3.45752E-01  4.74001E+00 -1.00000E+00  2.33518E-01
      21    -1     0     0   502   503  0.000000000E+00  0.000000000E+00  9.986115545E+00  9.986115545E+00  0.000000000E+00  0.00000E+00  9.000E+00
      21    -1     0     0   512   502  0.000000000E+00  0.000000000E+00 -8.791993702E+02  8.791993702E+02  0.000000000E+00  0.00000E+00  9.000E+00
      25     1     1     2     0     0  3.123393327E+01 -2.601979351E+01 -5.650027317E+02  5.800922070E+02  1.250051739E+02  0.00000E+00  9.000E+00
       5     1     1     2   501     0 -3.091747244E+01  1.110959158E+01 -1.603998376E+02  1.637986066E+02  4.750000000E+00  0.00000E+00  9.000E+00
      -5     1     1     2     0   503  1.423518347E+00  1.050110005E+01 -4.868197714E+01  5.004794606E+01  4.750000000E+00  0.00000E+00  9.000E+00
      21     1     1     2   512   501 -1.739979169E+00  4.409101875E+00 -9.512870821E+01  9.524672610E+01  1.907348633E-06  0.00000E+00  9.000E+00
#rwgt            1           9   5.0421710589054038E-003           2     2563312           0
</event>
<event>
      6   9999 -3.45752E-01  9.39528E+00 -1.00000E+00  1.90093E-01
      21    -1     0     0   501   511  0.000000000E+00  0.000000000E+00  2.111523065E+01  2.111523065E+01  0.000000000E+00  0.00000E+00  9.000E+00
      21    -1     0     0   502   503  0.000000000E+00  0.000000000E+00 -9.990469591E+02  9.990469591E+02  0.000000000E+00  0.00000E+00  9.000E+00
      25     1     1     2     0     0  1.947610690E+01 -2.195152267E+01 -5.866380976E+02  6.005240118E+02  1.249945721E+02  0.00000E+00  9.000E+00
       5     1     1     2   501     0  4.026760548E+00  2.534327691E+00  1.133436738E+01  1.317831557E+01  4.750000000E+00  0.00000E+00  9.000E+00
      -5     1     1     2     0   503 -1.524115920E+01  2.389106625E+01 -3.880768007E+02  3.891391033E+02  4.750000000E+00  0.00000E+00  9.000E+00
      21     1     1     2   502   511 -8.261708249E+00 -4.473871263E+00 -1.455119757E+01  1.732075916E+01  3.371747881E-07  0.00000E+00  9.000E+00
#rwgt            1           9  -1.2115130304359641E-003           2     2567286           0
</event>
<event>
      6   9999  3.45752E-01  6.29365E+00 -1.00000E+00  2.11208E-01
      21    -1     0     0   501   512  0.000000000E+00  0.000000000E+00  1.125994804E+01  1.125994804E+01  0.000000000E+00  0.00000E+00  9.000E+00
      21    -1     0     0   502   503  0.000000000E+00  0.000000000E+00 -8.900320953E+02  8.900320953E+02  0.000000000E+00  0.00000E+00  9.000E+00
      25     1     1     2     0     0  2.460862334E+00  3.231049710E+00 -8.570362236E+02  8.661126906E+02  1.249944348E+02  0.00000E+00  9.000E+00
       5     1     1     2   501     0  3.647395557E+00 -4.834043476E-01  2.498721653E+00  6.507171737E+00  4.750000000E+00  0.00000E+00  9.000E+00
      -5     1     1     2     0   503  1.429068979E-01 -2.017587066E+00 -2.094253964E+01  2.156950501E+01  4.750000000E+00  0.00000E+00  9.000E+00
      21     1     1     2   502   512 -6.251164789E+00 -7.300582964E-01 -3.292105637E+00  7.102675965E+00  3.475518164E-07  0.00000E+00  9.000E+00
#rwgt            1           9   2.4249924557864714E-003           2     2570488           0
</event>
<event>
      6   9999  3.45752E-01  1.09826E+01 -1.00000E+00  1.83005E-01
      21    -1     0     0   501   502  0.000000000E+00  0.000000000E+00  3.268596155E+03  3.268596155E+03  0.000000000E+00  0.00000E+00  9.000E+00
      21    -1     0     0   502   511  0.000000000E+00  0.000000000E+00 -2.402799626E+00  2.402799626E+00  0.000000000E+00  0.00000E+00  9.000E+00
      25     1     1     2     0     0 -8.554228741E+00 -4.247366398E+00  1.987541804E+03  1.991491613E+03  1.250008277E+02  0.00000E+00  9.000E+00
       5     1     1     2   501     0 -1.931386359E+00  2.758481653E-01  1.127658147E+03  1.127669839E+03  4.750000000E+00  0.00000E+00  9.000E+00
      -5     1     1     2     0   503  3.821005124E-01 -3.339568655E-01  5.839723817E+01  5.859229859E+01  4.750000000E+00  0.00000E+00  9.000E+00
      21     1     1     2   503   511  1.010351459E+01  4.305475098E+00  9.259616614E+01  9.324520420E+01  2.336015456E-06  0.00000E+00  9.000E+00
#rwgt            1           9   6.6789295063513134E-003           2     2573966           0
</event>
<event>
      6   9999  3.45752E-01  6.13448E+00 -1.00000E+00  2.12726E-01
      21    -1     0     0   501   512  0.000000000E+00  0.000000000E+00  2.848925523E+02  2.848925523E+02  0.000000000E+00  0.00000E+00  9.000E+00
      21    -1     0     0   502   503  0.000000000E+00  0.000000000E+00 -1.348939373E+03  1.348939373E+03  0.000000000E+00  0.00000E+00  9.000E+00
      25     1     1     2     0     0  6.762238519E+00  4.146232761E+01 -5.927764522E+02  6.072676168E+02  1.250007345E+02  0.00000E+00  9.000E+00
       5     1     1     2   501     0 -2.789347765E+00 -1.899945498E+00  8.869203695E+00  1.061204636E+01  4.750000000E+00  0.00000E+00  9.000E+00
      -5     1     1     2     0   503 -4.598921503E+00 -4.566483237E+01 -7.472991564E+02  7.487222573E+02  4.750000000E+00  0.00000E+00  9.000E+00
      21     1     1     2   502   512  6.260307494E-01  6.102450252E+00  2.671595844E+02  2.672300046E+02  3.814697266E-06  0.00000E+00  9.000E+00
#rwgt            1           9   8.4919111770044818E-003           2     2575946           0
</event>
<event>
      6   9999  3.45752E-01  7.06027E+00 -1.00000E+00  2.04665E-01
      21    -1     0     0   501   502  0.000000000E+00  0.000000000E+00  2.555524189E+02  2.555524189E+02  0.000000000E+00  0.00000E+00  9.000E+00
      21    -1     0     0   502   511  0.000000000E+00  0.000000000E+00 -1.377994154E+02  1.377994154E+02  0.000000000E+00  0.00000E+00  9.000E+00
      25     1     1     2     0     0 -4.852824746E+01 -4.733642288E+00  3.614752038E+01  1.389593334E+02  1.250026197E+02  0.00000E+00  9.000E+00
       5     1     1     2   501     0  3.009955182E+00  1.658450920E+00  1.346459282E+02  1.347735091E+02  4.750000000E+00  0.00000E+00  9.000E+00
      -5     1     1     2     0   503  4.985870504E+01 -2.493315949E+00  1.411365608E+01  5.209476827E+01  4.750000000E+00  0.00000E+00  9.000E+00
      21     1     1     2   503   511 -4.340412760E+00  5.568507316E+00 -6.715410110E+01  6.752422344E+01  1.348699152E-06  0.00000E+00  9.000E+00
#rwgt            1           9  0.11650993026635521                2     2580409           0
</event>
<event>
      6   9999  3.45752E-01  6.01960E+00 -1.00000E+00  2.13861E-01
      21    -1     0     0   501   502  0.000000000E+00  0.000000000E+00  7.582438885E+01  7.582438885E+01  0.000000000E+00  0.00000E+00  9.000E+00
      21    -1     0     0   512   503  0.000000000E+00  0.000000000E+00 -1.584891414E+03  1.584891414E+03  0.000000000E+00  0.00000E+00  9.000E+00
      25     1     1     2     0     0 -2.280558745E+01 -5.346580543E+00 -1.379653564E+03  1.385502782E+03  1.250012904E+02  0.00000E+00  9.000E+00
       5     1     1     2   501     0  9.802111259E+00  8.902205823E+00  7.135062154E+01  7.272416619E+01  4.750000000E+00  0.00000E+00  9.000E+00
      -5     1     1     2     0   503  1.855970257E+01 -5.871632574E+00 -1.663273172E+02  1.675299304E+02  4.750000000E+00  0.00000E+00  9.000E+00
      21     1     1     2   512   502 -5.556226378E+00  2.316007293E+00 -3.443676546E+01  3.495892385E+01  0.000000000E+00  0.00000E+00  9.000E+00
#rwgt            1           9   2.4989774369822380E-002           2     2584199           0
</event>
<event>
      6   9999  3.45752E-01  6.54581E+00 -1.00000E+00  2.08923E-01
      21    -1     0     0   501   502  0.000000000E+00  0.000000000E+00  5.040179611E+03  5.040179611E+03  0.000000000E+00  0.00000E+00  9.000E+00
      21    -1     0     0   511   503  0.000000000E+00  0.000000000E+00 -4.598772235E+00  4.598772235E+00  0.000000000E+00  0.00000E+00  9.000E+00
      25     1     1     2     0     0  1.799965922E+01 -4.369297365E+00  9.681591966E+02  9.763723608E+02  1.250107135E+02  0.00000E+00  9.000E+00
       5     1     1     2   501     0 -3.518723383E+00 -5.589178316E+00  3.728879752E+03  3.728888627E+03  4.750000000E+00  0.00000E+00  9.000E+00
      -5     1     1     2     0   503 -1.175574976E+01  4.006917685E+00  3.077640377E+02  3.080511620E+02  4.750000000E+00  0.00000E+00  9.000E+00
      21     1     1     2   511   502 -2.725186077E+00  5.951557996E+00  3.077785272E+01  3.146623428E+01  7.539457465E-07  0.00000E+00  9.000E+00
#rwgt            1           9   1.9147882574636053E-004           2     2590285           0
</event>
<event>
      6   9999  3.45752E-01  1.26108E+01 -1.00000E+00  1.77171E-01
      21    -1     0     0   501   502  0.000000000E+00  0.000000000E+00  8.044803726E+02  8.044803726E+02  0.000000000E+00  0.00000E+00  9.000E+00
       2    -1     0     0   502     0  0.000000000E+00  0.000000000E+00 -3.752452164E+02  3.752452164E+02  0.000000000E+00  0.00000E+00  9.000E+00
      25     1     1     2     0     0 -1.110407242E+00  3.427740766E+01  3.564401267E+02  3.792762635E+02  1.249989858E+02  0.00000E+00  9.000E+00
       5     1     1     2   501     0 -7.731046637E-01  1.852683530E+00  1.494606754E+02  1.495496109E+02  4.750000000E+00  0.00000E+00  9.000E+00
      -5     1     1     2     0   503  4.934235634E-01 -2.359609555E+01  2.865027422E+02  2.875124397E+02  4.750000000E+00  0.00000E+00  9.000E+00
       2     1     1     2   503     0  1.390088342E+00 -1.253399564E+01 -3.631683881E+02  3.633872749E+02  5.394796609E-06  0.00000E+00  9.000E+00
#rwgt            1           9   4.3001604337689356E-003           2     2594765           0
</event>
<event>
      6   9999  3.45752E-01  7.69770E+00 -1.00000E+00  2.00017E-01
      21    -1     0     0   511   502  0.000000000E+00  0.000000000E+00  1.630423618E+01  1.630423618E+01  0.000000000E+00  0.00000E+00  9.000E+00
      21    -1     0     0   502   503  0.000000000E+00  0.000000000E+00 -8.166726767E+02  8.166726767E+02  0.000000000E+00  0.00000E+00  9.000E+00
      25     1     1     2     0     0 -9.728232150E+00  1.039676840E+01 -7.489486224E+02  7.594419804E+02  1.250014055E+02  0.00000E+00  9.000E+00
       5     1     1     2   501     0  1.684197861E+00 -7.982129062E-01  2.546521896E+00  5.702713394E+00  4.750000000E+00  0.00000E+00  9.000E+00
      -5     1     1     2     0   503  1.376370078E+01 -4.446862923E+00 -5.741366000E+01  5.939785268E+01  4.750000000E+00  0.00000E+00  9.000E+00
      21     1     1     2   511   501 -5.719666490E+00 -5.151692571E+00  3.447319958E+00  8.434366366E+00  4.986882368E-07  0.00000E+00  9.000E+00
#rwgt            1           9   2.1640422363208695E-004           2     2596908           0
</event>
<event>
      6   9999  3.45752E-01  1.11098E+01 -1.00000E+00  1.82504E-01
       1    -1     0     0   501     0  0.000000000E+00  0.000000000E+00  1.128604433E+03  1.128604433E+03  0.000000000E+00  0.00000E+00  9.000E+00
      21    -1     0     0   502   503  0.000000000E+00  0.000000000E+00 -9.283231122E+02  9.283231122E+02  0.000000000E+00  0.00000E+00  9.000E+00
      25     1     1     2     0     0 -7.125686857E+00 -1.714247966E+01 -7.420918051E+02  7.527747965E+02  1.250000282E+02  0.00000E+00  9.000E+00
       5     1     1     2   501     0 -1.046793274E+00  8.833225036E-01  1.026422396E+01  1.139266555E+01  4.750000000E+00  0.00000E+00  9.000E+00
      -5     1     1     2     0   503 -2.936815911E+00  1.636334014E+01 -1.798833249E+02  1.807123594E+02  4.750000000E+00  0.00000E+00  9.000E+00
       1     1     1     2   502     0  1.110929604E+01 -1.041829747E-01  1.111992226E+03  1.112047723E+03  0.000000000E+00  0.00000E+00  9.000E+00
#rwgt            1           9   1.2161107677601091E-005           2     2600704           0
</event>
<event>
      6   9999  3.45752E-01  8.90105E+00 -1.00000E+00  1.92681E-01
      21    -1     0     0   511   502  0.000000000E+00  0.000000000E+00  2.266128370E+01  2.266128370E+01  0.000000000E+00  0.00000E+00  9.000E+00
      21    -1     0     0   502   503  0.000000000E+00  0.000000000E+00 -4.456359829E+02  4.456359829E+02  0.000000000E+00  0.00000E+00  9.000E+00
      25     1     1     2     0     0  4.758121031E+00  1.686850872E+00 -3.826470090E+02  4.025761577E+02  1.249933761E+02  0.00000E+00  9.000E+00
       5     1     1     2   501     0 -1.015599312E+00 -9.185075553E+00 -3.629011955E+01  3.774827588E+01  4.750000000E+00  0.00000E+00  9.000E+00
      -5     1     1     2     0   503 -5.325103379E-01 -8.038491478E-01 -1.388033402E+01  1.470224178E+01  4.750000000E+00  0.00000E+00  9.000E+00
      21     1     1     2   511   501 -3.210011381E+00  8.302073829E+00  9.842763339E+00  1.327059129E+01  9.536743164E-07  0.00000E+00  9.000E+00
#rwgt            1           9   14.647159751696060                2     2603335           0
</event>
<event>
      6   9999  3.45752E-01  1.22153E+01 -1.00000E+00  1.78481E-01
      21    -1     0     0   502   503  0.000000000E+00  0.000000000E+00  4.162170666E+01  4.162170666E+01  0.000000000E+00  0.00000E+00  9.000E+00
      21    -1     0     0   512   502  0.000000000E+00  0.000000000E+00 -1.735118496E+03  1.735118496E+03  0.000000000E+00  0.00000E+00  9.000E+00
      25     1     1     2     0     0 -2.110518238E+01  4.710436054E+01 -1.205475760E+03  1.213037904E+03  1.249995949E+02  0.00000E+00  9.000E+00
       5     1     1     2   501     0 -1.475088647E-01  2.820663366E-01 -3.060153382E+01  3.096962532E+01  4.750000000E+00  0.00000E+00  9.000E+00
      -5     1     1     2     0   503  9.120858001E+00 -4.596059903E+01  2.282245419E+01  5.233539557E+01  4.750000000E+00  0.00000E+00  9.000E+00
      21     1     1     2   512   501  1.213183325E+01 -1.425827841E+00 -4.802419493E+02  4.803972775E+02  7.629394531E-06  0.00000E+00  9.000E+00
#rwgt            1           9   7.2680491901266506E-002           2     2605337           0
</event>
<event>
      6   9999  3.45752E-01  8.41733E+00 -1.00000E+00  1.95436E-01
      21    -1     0     0   511   502  0.000000000E+00  0.000000000E+00  5.401469638E+01  5.401469638E+01  0.000000000E+00  0.00000E+00  9.000E+00
      21    -1     0     0   502   503  0.000000000E+00  0.000000000E+00 -9.544128054E+02  9.544128054E+02  0.000000000E+00  0.00000E+00  9.000E+00
      25     1     1     2     0     0 -1.486269451E+01 -5.021164853E+01 -2.826205034E+02  3.134348519E+02  1.249997925E+02  0.00000E+00  9.000E+00
       5     1     1     2   501     0 -1.249074767E-01  9.306375488E-01 -2.015036933E+00  5.244479189E+00  4.750000000E+00  0.00000E+00  9.000E+00
      -5     1     1     2     0   503  1.196017871E+01  5.713506057E+01 -6.509442364E+02  6.535735784E+02  4.750000000E+00  0.00000E+00  9.000E+00
      21     1     1     2   511   501  3.027423279E+00 -7.854049592E+00  3.518166767E+01  3.617459229E+01  1.348699152E-06  0.00000E+00  9.000E+00
#rwgt            1           9   1.1494795569491972E-004           2     2608776           0
</event>
<event>
      6   9999  3.45752E-01  1.41559E+01 -1.00000E+00  1.72580E-01
      21    -1     0     0   501   512  0.000000000E+00  0.000000000E+00  2.159289360E+01  2.159289360E+01  0.000000000E+00  0.00000E+00  9.000E+00
      21    -1     0     0   502   503  0.000000000E+00  0.000000000E+00 -8.788183432E+02  8.788183432E+02  0.000000000E+00  0.00000E+00  9.000E+00
      25     1     1     2     0     0 -2.119794957E+01 -2.062025870E+01 -3.080141742E+02  3.337266430E+02  1.250047704E+02  0.00000E+00  9.000E+00
       5     1     1     2   501     0  2.099136397E+00 -6.747926976E-01 -8.707892904E+00  1.016128031E+01  4.750000000E+00  0.00000E+00  9.000E+00
      -5     1     1     2     0   503  7.796331535E+00  1.277188554E+01 -5.420552722E+02  5.422825688E+02  4.750000000E+00  0.00000E+00  9.000E+00
      21     1     1     2   502   512  1.130248164E+01  8.523165852E+00  1.551889654E+00  1.424074467E+01  3.908537939E-07  0.00000E+00  9.000E+00
#rwgt            1           9  0.77652001697691364                2     2611545           0
</event>
<event>
      6   9999  3.45752E-01  1.04422E+01 -1.00000E+00  1.85236E-01
      21    -1     0     0   501   511  0.000000000E+00  0.000000000E+00  4.599518846E+01  4.599518846E+01  0.000000000E+00  0.00000E+00  9.000E+00
      21    -1     0     0   502   503  0.000000000E+00  0.000000000E+00 -2.959746375E+03  2.959746375E+03  0.000000000E+00  0.00000E+00  9.000E+00
      25     1     1     2     0     0  4.437614227E+01  5.163336000E+01 -4.044215078E+02  4.287375097E+02  1.249954012E+02  0.00000E+00  9.000E+00
       5     1     1     2   501     0 -2.373462576E+00 -4.209147707E+00  1.125276895E+01  1.313535527E+01  4.750000000E+00  0.00000E+00  9.000E+00
      -5     1     1     2     0   503 -4.533760102E+01 -3.752888764E+01 -2.540602747E+03  2.541288806E+03  4.750000000E+00  0.00000E+00  9.000E+00
      21     1     1     2   502   511  3.334921324E+00 -9.895324657E+00  2.002029942E+01  2.257989236E+01  2.008950656E-06  0.00000E+00  9.000E+00
#rwgt            1           9  0.36941779473618447                2     2613707           0
</event>
<event>
      6   9999  3.45752E-01  4.62961E+00 -1.00000E+00  2.35403E-01
      21    -1     0     0   501   502  0.000000000E+00  0.000000000E+00  1.471687727E+02  1.471687727E+02  0.000000000E+00  0.00000E+00  9.000E+00
      21    -1     0     0   512   503  0.000000000E+00  0.000000000E+00 -6.201981019E+02  6.201981019E+02  0.000000000E+00  0.00000E+00  9.000E+00
      25     1     1     2     0     0 -5.609221427E+01 -3.938190463E+01 -1.432191793E+02  2.020876193E+02  1.250216046E+02  0.00000E+00  9.000E+00
       5     1     1     2   501     0 -4.410500805E-01 -1.440772669E+00  2.998802546E+01  3.039925199E+01  4.750000000E+00  0.00000E+00  9.000E+00
      -5     1     1     2     0   503  6.113619260E+01  4.131900489E+01  7.191228455E+01  1.031447206E+02  4.750000000E+00  0.00000E+00  9.000E+00
      21     1     1     2   512   502 -4.602928245E+00 -4.963275857E-01 -4.317104598E+02  4.317352828E+02  7.629394531E-06  0.00000E+00  9.000E+00
#rwgt            1           9   4.8866003645540925E-004           2     2617401           0
</event>
<event>
      6   9999 -3.45752E-01  1.64221E+01 -1.00000E+00  1.67031E-01
      21    -1     0     0   501   502  0.000000000E+00  0.000000000E+00  1.130382171E+01  1.130382171E+01  0.000000000E+00  0.00000E+00  9.000E+00
      21    -1     0     0   502   511  0.000000000E+00  0.000000000E+00 -8.695892691E+02  8.695892691E+02  0.000000000E+00  0.00000E+00  9.000E+00
      25     1     1     2     0     0  1.930157748E+00 -1.605904884E+01 -7.402744981E+02  7.509279733E+02  1.249994798E+02  0.00000E+00  9.000E+00
       5     1     1     2   501     0 -1.335883696E+00 -3.524252350E+00  2.491411359E-01  6.068732255E+00  4.750000000E+00  0.00000E+00  9.000E+00
      -5     1     1     2     0   503 -4.662088074E+00  3.672948268E+00 -4.249182173E+00  8.708826748E+00  4.750000000E+00  0.00000E+00  9.000E+00
      21     1     1     2   503   511  4.067814022E+00  1.591035292E+01 -1.140109082E+02  1.151875585E+02  1.348699152E-06  0.00000E+00  9.000E+00
#rwgt            1           9  -2.0900333941215529E-003           2     2623109           0
</event>
<event>
      6   9999  3.45752E-01  3.73771E+00 -1.00000E+00  2.54108E-01
      21    -1     0     0   512   502  0.000000000E+00  0.000000000E+00  2.217627880E+01  2.217627880E+01  0.000000000E+00  0.00000E+00  9.000E+00
      21    -1     0     0   502   503  0.000000000E+00  0.000000000E+00 -9.580869229E+02  9.580869229E+02  0.000000000E+00  0.00000E+00  9.000E+00
      25     1     1     2     0     0 -2.517566477E+00 -7.032475202E+00 -3.263617832E+02  3.495596132E+02  1.249964632E+02  0.00000E+00  9.000E+00
       5     1     1     2   501     0 -2.712011653E+00 -7.731313461E-01  5.304438836E+00  7.658479656E+00  4.750000000E+00  0.00000E+00  9.000E+00
      -5     1     1     2     0   503  8.865976693E+00  8.669933169E+00 -6.180100599E+02  6.181527076E+02  4.750000000E+00  0.00000E+00  9.000E+00
      21     1     1     2   512   501 -3.636398563E+00 -8.643266209E-01  3.156760165E+00  4.892401226E+00  5.960464478E-08  0.00000E+00  9.000E+00
#rwgt            1           9   68.781285588286622                2     2624916           0
</event>
<event>
      6   9999  3.45752E-01  1.00907E+01 -1.00000E+00  1.86782E-01
      21    -1     0     0   511   502  0.000000000E+00  0.000000000E+00  1.344052503E+03  1.344052503E+03  0.000000000E+00  0.00000E+00  9.000E+00
      21    -1     0     0   502   503  0.000000000E+00  0.000000000E+00 -3.007437837E+01  3.007437837E+01  0.000000000E+00  0.00000E+00  9.000E+00
      25     1     1     2     0     0 -6.998707429E-01 -2.216337300E+01  1.735468769E+02  2.150231651E+02  1.249989526E+02  0.00000E+00  9.000E+00
       5     1     1     2   501     0  4.425963274E+00 -1.534101002E+00  2.631029267E+02  2.631874905E+02  4.750000000E+00  0.00000E+00  9.000E+00
      -5     1     1     2     0   503  4.616269473E+00  1.802058610E+01  6.815846175E-01  1.921141652E+01  4.750000000E+00  0.00000E+00  9.000E+00
      21     1     1     2   511   501 -8.342362005E+00  5.676887905E+00  8.766467368E+02  8.767048097E+02  0.000000000E+00  0.00000E+00  9.000E+00
#rwgt            1           9   9.3036589296816834E-003           2     2630816           0
</event>
<event>
      6   9999 -3.45752E-01  2.71461E+01 -1.00000E+00  1.50702E-01
      21    -1     0     0   501   502  0.000000000E+00  0.000000000E+00  2.111209723E+03  2.111209723E+03  0.000000000E+00  0.00000E+00  9.000E+00
      21    -1     0     0   512   503  0.000000000E+00  0.000000000E+00 -3.728938660E+01  3.728938660E+01  0.000000000E+00  0.00000E+00  9.000E+00
      25     1     1     2     0     0 -3.987064456E+00  1.119536312E+01  1.027786576E+03  1.035428181E+03  1.250001613E+02  0.00000E+00  9.000E+00
       5     1     1     2   501     0  5.474943418E+00  3.761093188E-01  6.255096646E+02  6.255517720E+02  4.750000000E+00  0.00000E+00  9.000E+00
      -5     1     1     2     0   503  1.658508967E+01  8.683831648E+00  4.483212988E+02  4.487371430E+02  4.750000000E+00  0.00000E+00  9.000E+00
      21     1     1     2   512   502 -1.807296863E+01 -2.025530408E+01 -2.769720256E+01  3.878201346E+01  2.920019320E-06  0.00000E+00  9.000E+00
#rwgt            1           9  -2.9226156671550985E-004           2     2633912           0
</event>
<event>
      6   9999  3.45752E-01  1.22720E+01 -1.00000E+00  1.78290E-01
      21    -1     0     0   501   502  0.000000000E+00  0.000000000E+00  3.779090129E+01  3.779090129E+01  0.000000000E+00  0.00000E+00  9.000E+00
       1    -1     0     0   502     0  0.000000000E+00  0.000000000E+00 -2.396548757E+03  2.396548757E+03  0.000000000E+00  0.00000E+00  9.000E+00
      25     1     1     2     0     0  3.206616089E+00  1.284690523E+01 -1.099917922E+03  1.107077146E+03  1.250001817E+02  0.00000E+00  9.000E+00
       5     1     1     2   501     0  1.707549995E+00 -4.513498652E+00  3.365994332E+01  3.433426396E+01  4.750000000E+00  0.00000E+00  9.000E+00
      -5     1     1     2     0   503  6.977853472E+00 -5.303306965E+00 -1.366167600E+02  1.369799880E+02  4.750000000E+00  0.00000E+00  9.000E+00
       1     1     1     2   503     0 -1.189201956E+01 -3.030099615E+00 -1.155883117E+03  1.155948261E+03  1.525878906E-05  0.00000E+00  9.000E+00
#rwgt            1           9   7.7965177815646886E-004           2     2635010           0
</event>
<event>
      6   9999  3.45752E-01  6.77876E+00 -1.00000E+00  2.06932E-01
      21    -1     0     0   501   502  0.000000000E+00  0.000000000E+00  1.458115715E+01  1.458115715E+01  0.000000000E+00  0.00000E+00  9.000E+00
      21    -1     0     0   511   503  0.000000000E+00  0.000000000E+00 -9.135484885E+02  9.135484885E+02  0.000000000E+00  0.00000E+00  9.000E+00
      25     1     1     2     0     0  7.792813814E+00 -6.600672568E+01 -6.332157208E+02  6.488480693E+02  1.249962084E+02  0.00000E+00  9.000E+00
       5     1     1     2   501     0  9.256413685E-02 -1.204791068E+00 -2.926439053E-02  4.901371853E+00  4.750000000E+00  0.00000E+00  9.000E+00
      -5     1     1     2     0   503 -4.932089160E+00  6.110990279E+01 -2.343025264E+02  2.422374498E+02  4.750000000E+00  0.00000E+00  9.000E+00
      21     1     1     2   511   502 -2.953288791E+00  6.101613954E+00 -3.141981974E+01  3.214275470E+01  0.000000000E+00  0.00000E+00  9.000E+00
#rwgt            1           9   5.2380753853986127E-006           2     2638283           0
</event>
<event>
      6   9999  3.45752E-01  9.29882E+00 -1.00000E+00  1.90582E-01
      21    -1     0     0   501   512  0.000000000E+00  0.000000000E+00  9.764353168E+00  9.764353168E+00  0.000000000E+00  0.00000E+00  9.000E+00
      21    -1     0     0   502   503  0.000000000E+00  0.000000000E+00 -2.803775813E+03  2.803775813E+03  0.000000000E+00  0.00000E+00  9.000E+00
      25     1     1     2     0     0  4.437210661E+01  3.674650525E+01 -1.161327534E+03  1.169454752E+03  1.249943500E+02  0.00000E+00  9.000E+00
       5     1     1     2   501     0 -4.409850354E+00  2.113749082E+00  2.261433976E+00  7.182708330E+00  4.750000000E+00  0.00000E+00  9.000E+00
      -5     1     1     2     0   503 -4.910547357E+01 -3.716626025E+01 -1.577565786E+03  1.578774540E+03  4.750000000E+00  0.00000E+00  9.000E+00
      21     1     1     2   502   512  9.143217318E+00 -1.693994075E+00 -5.737957447E+01  5.812816534E+01  1.168007728E-06  0.00000E+00  9.000E+00
#rwgt            1           9   2.5239582605730880E-003           2     2641527           0
</event>
<event>
      6   9999  3.45752E-01  1.05154E+01 -1.00000E+00  1.84924E-01
      21    -1     0     0   501   502  0.000000000E+00  0.000000000E+00  4.930499656E+01  4.930499656E+01  0.000000000E+00  0.00000E+00  9.000E+00
      21    -1     0     0   502   511  0.000000000E+00  0.000000000E+00 -4.846955453E+02  4.846955453E+02  0.000000000E+00  0.00000E+00  9.000E+00
      25     1     1     2     0     0 -5.190927946E+00 -2.346321425E+01 -3.995136959E+02  4.193021880E+02  1.250026540E+02  0.00000E+00  9.000E+00
       5     1     1     2   501     0  3.596970347E+00  5.230665321E+00  3.381583149E+01  3.473285210E+01  4.750000000E+00  0.00000E+00  9.000E+00
      -5     1     1     2     0   503 -2.927049183E+00  2.772642535E+01 -4.531524865E+01  5.341681888E+01  4.750000000E+00  0.00000E+00  9.000E+00
      21     1     1     2   503   511  4.521006783E+00 -9.493876420E+00 -2.437743575E+01  2.654868294E+01  3.371747881E-07  0.00000E+00  9.000E+00
#rwgt            1           9   4.2245819372568445E-005           2     2644792           0
</event>
<event>
      6   9999  3.45752E-01  2.66271E+01 -1.00000E+00  1.51269E-01
      21    -1     0     0   502   503  0.000000000E+00  0.000000000E+00  9.254507828E+02  9.254507828E+02  0.000000000E+00  0.00000E+00  9.000E+00
      21    -1     0     0   512   502  0.000000000E+00  0.000000000E+00 -5.023720975E+02  5.023720975E+02  0.000000000E+00  0.00000E+00  9.000E+00
      25     1     1     2     0     0  8.668653610E+01  9.824237108E+00  4.744692952E+02  4.983527952E+02  1.249933006E+02  0.00000E+00  9.000E+00
       5     1     1     2   501     0 -6.300189853E+01  5.397165445E+01  2.516752054E+02  2.650380166E+02  4.750000000E+00  0.00000E+00  9.000E+00
      -5     1     1     2     0   503 -5.027476651E+01 -6.239326913E+01  1.713765396E+02  1.892431055E+02  4.750000000E+00  0.00000E+00  9.000E+00
      21     1     1     2   512   501  2.659012893E+01 -1.402622426E+00 -4.744423550E+02  4.751889629E+02  7.629394531E-06  0.00000E+00  9.000E+00
#rwgt            1           9   8.6437916575864887E-002           2     2647846           0
</event>
<event>
      6   9999  3.45752E-01  7.26520E+00 -1.00000E+00  2.03102E-01
      21    -1     0     0   511   502  0.000000000E+00  0.000000000E+00  1.491093598E+01  1.491093598E+01  0.000000000E+00  0.00000E+00  9.000E+00
      21    -1     0     0   502   503  0.000000000E+00  0.000000000E+00 -7.027600720E+02  7.027600720E+02  0.000000000E+00  0.00000E+00  9.000E+00
      25     1     1     2     0     0 -1.230471415E+01  2.685162771E+01 -5.628452563E+02  5.773147672E+02  1.250005678E+02  0.00000E+00  9.000E+00
       5     1     1     2   501     0 -2.082364581E-01  1.211155374E-01 -1.352823209E+01  1.433993009E+01  4.750000000E+00  0.00000E+00  9.000E+00
      -5     1     1     2     0   503  8.440944582E+00 -2.095594345E+01 -1.154496676E+02  1.177352512E+02  4.750000000E+00  0.00000E+00  9.000E+00
      21     1     1     2   511   501  4.072006025E+00 -6.016799797E+00  3.974019977E+00  8.281059573E+00  2.421152116E-07  0.00000E+00  9.000E+00
#rwgt            1           9   1.2344135388342451E-005           2     2649172           0
</event>
<event>
      6   9999  3.45752E-01  1.39923E+01 -1.00000E+00  1.73031E-01
      -1    -1     0     0     0   503  0.000000000E+00  0.000000000E+00  1.752271080E+02  1.752271080E+02  0.000000000E+00  0.00000E+00  9.000E+00
      21    -1     0     0   501   502  0.000000000E+00  0.000000000E+00 -7.449613865E+02  7.449613865E+02  0.000000000E+00  0.00000E+00  9.000E+00
      25     1     1     2     0     0 -2.629241859E+01  4.022206224E+00 -6.601177347E+02  6.723747285E+02  1.249995296E+02  0.00000E+00  9.000E+00
       5     1     1     2   501     0 -3.854477335E-01  2.413022622E-01 -9.377766792E+00  1.052196782E+01  4.750000000E+00  0.00000E+00  9.000E+00
      -5     1     1     2     0   503  1.310774201E+01 -8.522688893E-01 -6.776129402E+01  6.918594316E+01  4.750000000E+00  0.00000E+00  9.000E+00
      -1     1     1     2     0   502  1.357012431E+01 -3.411239597E+00  1.675225170E+02  1.681058551E+02  3.303624740E-06  0.00000E+00  9.000E+00
#rwgt            1           9   1.1574644952141534E-004           2     2651988           0
</event>
<event>
      6   9999  3.45752E-01  2.03666E+02 -1.00000E+00  1.08622E-01
       1    -1     0     0   502     0  0.000000000E+00  0.000000000E+00  5.798460740E+02  5.798460740E+02  0.000000000E+00  0.00000E+00  9.000E+00
      21    -1     0     0   501   502  0.000000000E+00  0.000000000E+00 -3.561864040E+03  3.561864040E+03  0.000000000E+00  0.00000E+00  9.000E+00
      25     1     1     2     0     0  2.069856941E+02  3.888209812E+01 -1.373320488E+03  1.394986848E+03  1.249969894E+02  0.00000E+00  9.000E+00
       5     1     1     2   501     0  8.196146644E+00  8.148599593E+00 -1.256781896E+03  1.256844013E+03  4.750000000E+00  0.00000E+00  9.000E+00
      -5     1     1     2     0   503 -1.028619283E+02 -2.169250471E+02 -8.861668654E+02  9.181238088E+02  4.750000000E+00  0.00000E+00  9.000E+00
       1     1     1     2   503     0 -1.123199124E+02  1.698943494E+02  5.342512842E+02  5.717554437E+02  1.868812365E-05  0.00000E+00  9.000E+00
#rwgt            1           9   7.2869457809639898E-004           2     2653340           0
</event>
<event>
      6   9999  3.45752E-01  1.16472E+01 -1.00000E+00  1.80478E-01
      21    -1     0     0   501   511  0.000000000E+00  0.000000000E+00  8.567297817E+00  8.567297817E+00  0.000000000E+00  0.00000E+00  9.000E+00
      21    -1     0     0   502   503  0.000000000E+00  0.000000000E+00 -6.721020363E+02  6.721020363E+02  0.000000000E+00  0.00000E+00  9.000E+00
      25     1     1     2     0     0  1.473843352E+01 -2.225920984E+00 -5.803059277E+02  5.937545693E+02  1.247691578E+02  0.00000E+00  9.000E+00
       5     1     1     2   501     0 -5.558212962E+00 -3.419267082E+00 -2.894628930E+01  3.005054547E+01  4.750000000E+00  0.00000E+00  9.000E+00
      -5     1     1     2     0   503 -2.145005561E-01 -1.789437063E+00 -2.088358315E+01  2.149266481E+01  4.750000000E+00  0.00000E+00  9.000E+00
      21     1     1     2   502   511 -8.965719998E+00  7.434625129E+00 -3.339893837E+01  3.537155453E+01  0.000000000E+00  0.00000E+00  9.000E+00
#rwgt            1           9   4.9200736892181005E-002           2     2653615           0
</event>
<event>
      6   9999  3.45752E-01  2.14301E+01 -1.00000E+00  1.57954E-01
       1    -1     0     0   501     0  0.000000000E+00  0.000000000E+00  2.198150042E+03  2.198150042E+03  0.000000000E+00  0.00000E+00  9.000E+00
      21    -1     0     0   502   503  0.000000000E+00  0.000000000E+00 -4.217732266E+02  4.217732266E+02  0.000000000E+00  0.00000E+00  9.000E+00
      25     1     1     2     0     0 -1.760135929E+01  8.133661420E+01 -2.957777338E+02  3.317175059E+02  1.250063327E+02  0.00000E+00  9.000E+00
       5     1     1     2   501     0 -1.037769352E+01 -1.445563850E+01  2.718168705E+02  2.724401505E+02  4.750000000E+00  0.00000E+00  9.000E+00
      -5     1     1     2     0   503  2.475434334E+01 -8.806708332E+01 -8.816663394E+01  1.271397126E+02  4.750000000E+00  0.00000E+00  9.000E+00
       1     1     1     2   502     0  3.224709463E+00  2.118610762E+01  1.888504312E+03  1.888625899E+03  3.737624730E-05  0.00000E+00  9.000E+00
#rwgt            1           9   7.3172997453037586E-004           2     2655334           0
</event>
<event>
      6   9999  3.45752E-01  4.76468E+01 -1.00000E+00  1.35917E-01
      21    -1     0     0   502   503  0.000000000E+00  0.000000000E+00  1.010650826E+01  1.010650826E+01  0.000000000E+00  0.00000E+00  9.000E+00
      21    -1     0     0   511   502  0.000000000E+00  0.000000000E+00 -1.734414944E+03  1.734414944E+03  0.000000000E+00  0.00000E+00  9.000E+00
      25     1     1     2     0     0  3.504834964E+01 -2.664511133E+01 -4.826243777E+02  5.004948943E+02  1.250220003E+02  0.00000E+00  9.000E+00
       5     1     1     2   501     0  1.596402157E+01  1.127367699E+01 -3.476610502E+02  3.482423209E+02  4.750000000E+00  0.00000E+00  9.000E+00
      -5     1     1     2     0   503 -4.445299649E+00  5.285439572E+00 -1.144639263E+02  1.147704208E+02  4.750000000E+00  0.00000E+00  9.000E+00
      21     1     1     2   511   501 -4.656707156E+01  1.008599476E+01 -7.795590813E+02  7.810138159E+02  1.078959322E-05  0.00000E+00  9.000E+00
#rwgt            1           9   6.4041312567042676E-003           2     2658467           0
</event>
<event>
      6   9999  3.45752E-01  1.06955E+01 -1.00000E+00  1.84169E-01
      21    -1     0     0   501   502  0.000000000E+00  0.000000000E+00  1.706350319E+01  1.706350319E+01  0.000000000E+00  0.00000E+00  9.000E+00
      21    -1     0     0   502   512  0.000000000E+00  0.000000000E+00 -1.742889862E+03  1.742889862E+03  0.000000000E+00  0.00000E+00  9.000E+00
      25     1     1     2     0     0  9.565080032E+00 -5.112788217E+01 -6.328077366E+02  6.471294104E+02  1.250011648E+02  0.00000E+00  9.000E+00
       5     1     1     2   501     0  3.477493560E-01  4.440135709E-01  7.417361361E+00  8.825974577E+00  4.750000000E+00  0.00000E+00  9.000E+00
      -5     1     1     2     0   503 -1.482832938E+01  4.118485154E+01 -2.757849132E+02  2.792775541E+02  4.750000000E+00  0.00000E+00  9.000E+00
      21     1     1     2   503   512  4.915499993E+00  9.499017053E+00 -8.246510708E+02  8.247204266E+02  1.078959322E-05  0.00000E+00  9.000E+00
#rwgt            1           9   1.1079780150111736E-002           2     2659261           0
</event>
<event>
      6   9999  3.45752E-01  3.62304E+00 -1.00000E+00  2.57097E-01
      21    -1     0     0   501   502  0.000000000E+00  0.000000000E+00  1.087923401E+01  1.087923401E+01  0.000000000E+00  0.00000E+00  9.000E+00
      21    -1     0     0   502   511  0.000000000E+00  0.000000000E+00 -7.949157695E+02  7.949157695E+02  0.000000000E+00  0.00000E+00  9.000E+00
      25     1     1     2     0     0 -7.705974136E+00  1.021809845E+01 -7.460075027E+02  7.565472696E+02  1.251909966E+02  0.00000E+00  9.000E+00
       5     1     1     2   501     0 -1.510775201E+00  1.035087717E+00  1.782898559E+00  5.393985128E+00  4.750000000E+00  0.00000E+00  9.000E+00
      -5     1     1     2     0   503  8.763569003E+00 -7.658599738E+00 -1.935757110E+01  2.308099544E+01  4.750000000E+00  0.00000E+00  9.000E+00
      21     1     1     2   503   511  4.531803342E-01 -3.594586432E+00 -2.045436029E+01  2.077275328E+01  3.371747881E-07  0.00000E+00  9.000E+00
#rwgt            1           9   1.7885042545641479E-004           2     2662269           0
</event>
<event>
      6   9999  3.45752E-01  1.06090E+01 -1.00000E+00  1.84529E-01
      21    -1     0     0   501   502  0.000000000E+00  0.000000000E+00  3.435116537E+01  3.435116537E+01  0.000000000E+00  0.00000E+00  9.000E+00
      21    -1     0     0   512   503  0.000000000E+00  0.000000000E+00 -1.419386275E+03  1.419386275E+03  0.000000000E+00  0.00000E+00  9.000E+00
      25     1     1     2     0     0 -8.698031538E+01  4.558027307E+01 -5.598481137E+02  5.819819150E+02  1.250196083E+02  0.00000E+00  9.000E+00
       5     1     1     2   501     0  5.298210895E-01 -6.781374230E-01  1.965017681E+01  2.023443920E+01  4.750000000E+00  0.00000E+00  9.000E+00
      -5     1     1     2     0   503  7.584161951E+01 -4.495240429E+01 -6.007282034E+02  6.071816917E+02  4.750000000E+00  0.00000E+00  9.000E+00
      21     1     1     2   512   502  1.060887478E+01  5.026864289E-02 -2.441089694E+02  2.443393945E+02  4.672030912E-06  0.00000E+00  9.000E+00
#rwgt            1           9   4.8834283894636692E-004           2     2667151           0
</event>
<event>
      6   9999  3.45752E-01  2.33223E+01 -1.00000E+00  1.55278E-01
      21    -1     0     0   501   502  0.000000000E+00  0.000000000E+00  3.145336557E+03  3.145336557E+03  0.000000000E+00  0.00000E+00  9.000E+00
      21    -1     0     0   502   511  0.000000000E+00  0.000000000E+00 -1.256827334E+01  1.256827334E+01  0.000000000E+00  0.00000E+00  9.000E+00
      25     1     1     2     0     0  5.562609819E+01  7.381357067E+01  2.393146031E+03  2.398190815E+03  1.250142143E+02  0.00000E+00  9.000E+00
       5     1     1     2   501     0 -1.206279059E-01  2.196156442E+00  5.060503395E+02  5.060774113E+02  4.750000000E+00  0.00000E+00  9.000E+00
      -5     1     1     2     0   503 -4.549213574E+01 -5.494639000E+01  2.027487976E+02  2.149843660E+02  4.750000000E+00  0.00000E+00  9.000E+00
      21     1     1     2   503   511 -1.001333455E+01 -2.106333710E+01  3.082311504E+01  3.865223744E+01  1.936921693E-06  0.00000E+00  9.000E+00
#rwgt            1           9   3.6721141849763174E-005           2     2670868           0
</event>
<event>
      6   9999  3.45752E-01  2.94473E+01 -1.00000E+00  1.48362E-01
       2    -1     0     0   502     0  0.000000000E+00  0.000000000E+00  1.249066563E+03  1.249066563E+03  0.000000000E+00  0.00000E+00  9.000E+00
      21    -1     0     0   501   502  0.000000000E+00  0.000000000E+00 -7.501381473E+02  7.501381473E+02  0.000000000E+00  0.00000E+00  9.000E+00
      25     1     1     2     0     0 -3.636627599E+01  2.118834383E+01 -5.982611837E+02  6.126276497E+02  1.249989654E+02  0.00000E+00  9.000E+00
       5     1     1     2   501     0 -4.085053451E+00 -5.114127259E+00 -3.874587999E+01  3.958090038E+01  4.750000000E+00  0.00000E+00  9.000E+00
      -5     1     1     2     0   503  1.635660321E+01  8.546409226E-01 -1.046655044E+02  1.060457410E+02  4.750000000E+00  0.00000E+00  9.000E+00
       2     1     1     2   503     0  2.409472624E+01 -1.692885749E+01  1.240600984E+03  1.240950420E+03  2.642899792E-05  0.00000E+00  9.000E+00
#rwgt            1           9   3.0058996369354925E-004           2     2672667           0
</event>
<event>
      6   9999  3.45752E-01  1.19480E+01 -1.00000E+00  1.79403E-01
      21    -1     0     0   501   502  0.000000000E+00  0.000000000E+00  5.808001670E+01  5.808001670E+01  0.000000000E+00  0.00000E+00  9.000E+00
      21    -1     0     0   502   511  0.000000000E+00  0.000000000E+00 -2.254121756E+02  2.254121756E+02  0.000000000E+00  0.00000E+00  9.000E+00
      25     1     1     2     0     0  3.189859873E+01 -3.428406514E+00 -1.362279902E+02  1.876486493E+02  1.249987027E+02  0.00000E+00  9.000E+00
       5     1     1     2   501     0 -7.774689881E-01 -1.142614113E+00  2.408723254E+01  2.458998366E+01  4.750000000E+00  0.00000E+00  9.000E+00
      -5     1     1     2     0   503 -3.174616856E+01 -7.360572900E+00 -4.325222806E+01  5.436280883E+01  4.750000000E+00  0.00000E+00  9.000E+00
      21     1     1     2   503   511  6.250388117E-01  1.193159353E+01 -1.193917319E+01  1.689075055E+01  2.384185791E-07  0.00000E+00  9.000E+00
#rwgt            1           9   2.3095628454625396E-002           2     2673544           0
</event>
<event>
      6   9999 -3.45752E-01  1.08546E+01 -1.00000E+00  1.83519E-01
      21    -1     0     0   501   502  0.000000000E+00  0.000000000E+00  7.792334466E+00  7.792334466E+00  0.000000000E+00  0.00000E+00  9.000E+00
      21    -1     0     0   512   503  0.000000000E+00  0.000000000E+00 -1.045254950E+03  1.045254950E+03  0.000000000E+00  0.00000E+00  9.000E+00
      25     1     1     2     0     0  3.016150797E+00 -5.833040726E+00 -9.161144454E+02  9.246268367E+02  1.250039537E+02  0.00000E+00  9.000E+00
       5     1     1     2   501     0 -1.234245261E+00 -3.296647421E+00 -4.385619620E-01  5.928413125E+00  4.750000000E+00  0.00000E+00  9.000E+00
      -5     1     1     2     0   503 -4.317882664E+00 -1.424546954E+00 -2.127640845E+01  2.226929504E+01  4.750000000E+00  0.00000E+00  9.000E+00
      21     1     1     2   512   502  2.535977128E+00  1.055423510E+01 -9.963319970E+01  1.002227396E+02  1.348699152E-06  0.00000E+00  9.000E+00
#rwgt            1           9  -1.3354846761843837E-005           2     2676047           0
</event>
<event>
      6   9999  3.45752E-01  7.18404E+00 -1.00000E+00  2.03713E-01
      21    -1     0     0   501   502  0.000000000E+00  0.000000000E+00  3.852950458E+00  3.852950458E+00  0.000000000E+00  0.00000E+00  9.000E+00
      21    -1     0     0   511   503  0.000000000E+00  0.000000000E+00 -1.456131438E+03  1.456131438E+03  0.000000000E+00  0.00000E+00  9.000E+00
      25     1     1     2     0     0  4.021701256E+00 -4.889998207E+00 -1.137110580E+03  1.143978179E+03  1.250020676E+02  0.00000E+00  9.000E+00
       5     1     1     2   501     0  1.573814407E-01 -1.339594885E-01 -2.260955111E+01  2.310404760E+01  4.750000000E+00  0.00000E+00  9.000E+00
      -5     1     1     2     0   503  2.102716998E+00  1.538362487E+00 -6.334438709E+01  6.357563883E+01  4.750000000E+00  0.00000E+00  9.000E+00
      21     1     1     2   511   502 -6.281799695E+00  3.485595209E+00 -2.292139698E+02  2.293265234E+02  2.697398305E-06  0.00000E+00  9.000E+00
#rwgt            1           9   1.5204783200512877E-002           2     2678311           0
</event>
<event>
      6   9999  3.45752E-01  2.36463E+01 -1.00000E+00  1.54850E-01
      21    -1     0     0   501   502  0.000000000E+00  0.000000000E+00  2.901867201E+01  2.901867201E+01  0.000000000E+00  0.00000E+00  9.000E+00
       2    -1     0     0   502     0  0.000000000E+00  0.000000000E+00 -8.100687243E+02  8.100687243E+02  0.000000000E+00  0.00000E+00  9.000E+00
      25     1     1     2     0     0 -1.354955850E+01 -2.186168034E+01 -1.445113396E+02  1.928017411E+02  1.250098416E+02  0.00000E+00  9.000E+00
       5     1     1     2   501     0  7.102625067E-01 -1.662575108E+00  1.507979395E+00  5.301427230E+00  4.750000000E+00  0.00000E+00  9.000E+00
      -5     1     1     2     0   503  2.161941855E+01  1.568477325E+00 -1.006336740E+02  1.030512408E+02  4.750000000E+00  0.00000E+00  9.000E+00
       2     1     1     2   503     0 -8.780122553E+00  2.195577812E+01 -5.374130180E+02  5.379329872E+02  1.078959322E-05  0.00000E+00  9.000E+00
#rwgt            1           9   8.8378902987311565E-005           2     2680992           0
</event>
<event>
      6   9999  3.45752E-01  3.50061E+00 -1.00000E+00  2.60481E-01
      21    -1     0     0   511   502  0.000000000E+00  0.000000000E+00  4.930289722E+00  4.930289722E+00  0.000000000E+00  0.00000E+00  9.000E+00
      21    -1     0     0   502   503  0.000000000E+00  0.000000000E+00 -4.844194724E+03  4.844194724E+03  0.000000000E+00  0.00000E+00  9.000E+00
      25     1     1     2     0     0 -1.348748678E+00 -6.691446166E+00 -3.948893437E+03  3.950877224E+03  1.249994792E+02  0.00000E+00  9.000E+00
       5     1     1     2   501     0 -3.871038802E+00 -5.387157121E-01 -6.311454969E+00  8.813178760E+00  4.750000000E+00  0.00000E+00  9.000E+00
      -5     1     1     2     0   503  1.719219340E+00  7.212952348E+00 -8.855759065E+02  8.856196876E+02  4.750000000E+00  0.00000E+00  9.000E+00
      21     1     1     2   511   501  3.500568140E+00  1.720953015E-02  1.516364608E+00  3.814922685E+00  8.384469090E-07  0.00000E+00  9.000E+00
#rwgt            1           9   5.7677276757343062E-004           2     2682558           0
</event>
<event>
      6   9999  3.45752E-01  1.03157E+01 -1.00000E+00  1.85783E-01
      21    -1     0     0   501   512  0.000000000E+00  0.000000000E+00  9.954252186E+00  9.954252186E+00  0.000000000E+00  0.00000E+00  9.000E+00
      21    -1     0     0   502   503  0.000000000E+00  0.000000000E+00 -7.315494238E+02  7.315494238E+02  0.000000000E+00  0.00000E+00  9.000E+00
      25     1     1     2     0     0 -3.660257318E+00 -2.500252011E+00 -6.354722315E+02  6.476636118E+02  1.249941935E+02  0.00000E+00  9.000E+00
       5     1     1     2   501     0 -5.145159022E-01  6.759808476E-01 -8.073487061E+00  9.405603120E+00  4.750000000E+00  0.00000E+00  9.000E+00
      -5     1     1     2     0   503  8.344752947E+00  1.125957787E+01 -6.943661224E+01  7.099590562E+01  4.750000000E+00  0.00000E+00  9.000E+00
      21     1     1     2   502   512 -4.169979727E+00 -9.435306708E+00 -8.612840837E+00  1.343855539E+01  4.768371582E-07  0.00000E+00  9.000E+00
#rwgt            1           9   1.8366056532131369E-002           2     2687482           0
</event>
<event>
      6   9999  3.45752E-01  3.88349E+00 -1.00000E+00  2.50537E-01
      21    -1     0     0   501   502  0.000000000E+00  0.000000000E+00  3.208585397E+00  3.208585397E+00  0.000000000E+00  0.00000E+00  9.000E+00
      21    -1     0     0   511   503  0.000000000E+00  0.000000000E+00 -2.386196906E+03  2.386196906E+03  0.000000000E+00  0.00000E+00  9.000E+00
      25     1     1     2     0     0 -1.842565658E+00  2.602652140E+01 -1.461015770E+03  1.466585390E+03  1.249994009E+02  0.00000E+00  9.000E+00
       5     1     1     2   501     0 -8.063473392E-02  7.769165562E-02 -3.024398749E+01  3.061492801E+01  4.750000000E+00  0.00000E+00  9.000E+00
      -5     1     1     2     0   503  3.485463166E+00 -2.254881898E+01 -6.025715905E+02  6.030221239E+02  4.750000000E+00  0.00000E+00  9.000E+00
      21     1     1     2   511   502 -1.562262774E+00 -3.555394072E+00 -2.891569721E+02  2.891830493E+02  3.814697266E-06  0.00000E+00  9.000E+00
#rwgt            1           9   6.4530263823655469E-004           2     2689461           0
</event>
<event>
      6   9999  3.45752E-01  9.84955E+00 -1.00000E+00  1.87890E-01
      21    -1     0     0   512   502  0.000000000E+00  0.000000000E+00  1.669367104E+01  1.669367104E+01  0.000000000E+00  0.00000E+00  9.000E+00
      21    -1     0     0   502   503  0.000000000E+00  0.000000000E+00 -5.221189031E+02  5.221189031E+02  0.000000000E+00  0.00000E+00  9.000E+00
      25     1     1     2     0     0 -1.255762960E+01 -7.473849317E+00 -4.768614001E+02  4.931914746E+02  1.250099323E+02  0.00000E+00  9.000E+00
       5     1     1     2   501     0 -2.517228604E-01 -9.348785980E-02  4.648648137E+00  6.651656476E+00  4.750000000E+00  0.00000E+00  9.000E+00
      -5     1     1     2     0   503  9.076066610E+00 -1.547277092E+00 -1.956807312E+01  2.214138743E+01  4.750000000E+00  0.00000E+00  9.000E+00
      21     1     1     2   512   501  3.733285851E+00  9.114614269E+00 -1.364440697E+01  1.682805568E+01  4.460403188E-07  0.00000E+00  9.000E+00
#rwgt            1           9   9.4607186912603822E-004           2     2694168           0
</event>
<event>
      6   9999  3.45752E-01  8.07798E+00 -1.00000E+00  1.97518E-01
      -1    -1     0     0     0   502  0.000000000E+00  0.000000000E+00  3.374448374E+01  3.374448374E+01  0.000000000E+00  0.00000E+00  9.000E+00
      21    -1     0     0   502   503  0.000000000E+00  0.000000000E+00 -5.693055615E+03  5.693055615E+03  0.000000000E+00  0.00000E+00  9.000E+00
      25     1     1     2     0     0  1.075919068E+00 -8.105386397E+00 -5.357243338E+03  5.358707678E+03  1.249997605E+02  0.00000E+00  9.000E+00
       5     1     1     2   501     0  3.001019081E+00 -7.884334168E-01 -7.410212624E+00  9.332818112E+00  4.750000000E+00  0.00000E+00  9.000E+00
      -5     1     1     2     0   503 -6.691449683E-01  1.569840837E+00 -3.261797741E+02  3.262188218E+02  4.750000000E+00  0.00000E+00  9.000E+00
      -1     1     1     2     0   501 -3.407793180E+00  7.323978977E+00  3.152219362E+01  3.254078076E+01  3.320786542E-06  0.00000E+00  9.000E+00
#rwgt            1           9   5.3287182156688503E-004           2     2696322           0
</event>
<event>
      6   9999  3.45752E-01  5.31177E+00 -1.00000E+00  2.21704E-01
      21    -1     0     0   501   502  0.000000000E+00  0.000000000E+00  4.608085082E+01  4.608085082E+01  0.000000000E+00  0.00000E+00  9.000E+00
      21    -1     0     0   511   503  0.000000000E+00  0.000000000E+00 -1.596847599E+02  1.596847599E+02  0.000000000E+00  0.00000E+00  9.000E+00
      25     1     1     2     0     0  1.942298289E+00 -7.294899742E+00 -6.499246279E+01  1.410849387E+02  1.249958065E+02  0.00000E+00  9.000E+00
       5     1     1     2   501     0 -3.203996045E-01  2.750373505E-01  5.503952057E+00  7.282464535E+00  4.750000000E+00  0.00000E+00  9.000E+00
      -5     1     1     2     0   503 -5.940360829E+00  3.927008573E+00 -1.090858956E+01  1.386611370E+01  4.750000000E+00  0.00000E+00  9.000E+00
      21     1     1     2   511   502  4.318462145E+00  3.092853818E+00 -4.320680880E+01  4.353209375E+01  6.743495762E-07  0.00000E+00  9.000E+00
#rwgt            1           9   4.3929621292396567E-004           2     2698877           0
</event>
<event>
      6   9999  3.45752E-01  3.61047E+00 -1.00000E+00  2.57435E-01
      21    -1     0     0   502   503  0.000000000E+00  0.000000000E+00  1.185804172E+01  1.185804172E+01  0.000000000E+00  0.00000E+00  9.000E+00
      21    -1     0     0   501   512  0.000000000E+00  0.000000000E+00 -7.060109549E+02  7.060109549E+02  0.000000000E+00  0.00000E+00  9.000E+00
      25     1     1     2     0     0 -2.195623109E+00  5.304905765E-01 -3.414537574E+02  3.636213555E+02  1.249988782E+02  0.00000E+00  9.000E+00
       5     1     1     2   501     0  6.509290792E-01 -3.625954963E+00 -2.204403913E+01  2.284892600E+01  4.750000000E+00  0.00000E+00  9.000E+00
      -5     1     1     2     0   503  1.876160984E-01 -2.502505774E-01 -1.531108202E+01  1.603401253E+01  4.750000000E+00  0.00000E+00  9.000E+00
      21     1     1     2   502   512  1.357077931E+00  3.345714964E+00 -3.153440346E+02  3.153647026E+02  0.000000000E+00  0.00000E+00  9.000E+00
#rwgt            1           9   15.315160608595381                2     2702534           0
</event>
<event>
      6   9999  3.45752E-01  1.14903E+01 -1.00000E+00  1.81055E-01
      21    -1     0     0   502   503  0.000000000E+00  0.000000000E+00  2.347221679E+03  2.347221679E+03  0.000000000E+00  0.00000E+00  9.000E+00
      21    -1     0     0   501   511  0.000000000E+00  0.000000000E+00 -1.003687892E+01  1.003687892E+01  0.000000000E+00  0.00000E+00  9.000E+00
      25     1     1     2     0     0  9.518604711E-01  2.912581690E+01  2.184066413E+03  2.187834423E+03  1.249965842E+02  0.00000E+00  9.000E+00
       5     1     1     2   501     0  6.127769526E+00 -1.915007879E+01  1.002494960E+02  1.023562359E+02  4.750000000E+00  0.00000E+00  9.000E+00
      -5     1     1     2     0   503 -1.277313760E+00 -5.807154059E-02  5.513690702E+01  5.535590229E+01  4.750000000E+00  0.00000E+00  9.000E+00
      21     1     1     2   502   511 -5.802316237E+00 -9.917666569E+00 -2.268015634E+00  1.171199722E+01  9.019819469E-07  0.00000E+00  9.000E+00
#rwgt            1           9   1.4909596778394274                2     2706985           0
</event>
<event>
      6   9999 -3.45752E-01  6.21453E+01 -1.00000E+00  1.29921E-01
      21    -1     0     0   501   502  0.000000000E+00  0.000000000E+00  2.320268383E+02  2.320268383E+02  0.000000000E+00  0.00000E+00  9.000E+00
      21    -1     0     0   512   503  0.000000000E+00  0.000000000E+00 -6.788216192E+02  6.788216192E+02  0.000000000E+00  0.00000E+00  9.000E+00
      25     1     1     2     0     0  3.901506514E+01 -1.212091335E+02 -5.052370606E+02  5.358165873E+02  1.249843931E+02  0.00000E+00  9.000E+00
       5     1     1     2   501     0 -4.425326570E+00 -6.047385244E+00  1.606252658E+02  1.608701119E+02  4.750000000E+00  0.00000E+00  9.000E+00
      -5     1     1     2     0   503 -7.149959991E+01  7.725952788E+01 -1.402852301E+01  1.063042304E+02  4.750000000E+00  0.00000E+00  9.000E+00
      21     1     1     2   512   502  3.690986134E+01  4.999699085E+01 -8.815446313E+01  1.078575279E+02  9.536743164E-07  0.00000E+00  9.000E+00
#rwgt            1           9  -1.5446665666122425E-003           2     2709012           0
</event>
<event>
      6   9999  3.45752E-01  3.97175E+01 -1.00000E+00  1.40365E-01
      21    -1     0     0   501   511  0.000000000E+00  0.000000000E+00  1.234241965E+02  1.234241965E+02  0.000000000E+00  0.00000E+00  9.000E+00
      21    -1     0     0   502   503  0.000000000E+00  0.000000000E+00 -1.561143963E+03  1.561143963E+03  0.000000000E+00  0.00000E+00  9.000E+00
      25     1     1     2     0     0  2.092568244E+01  8.420561165E+01 -3.668630913E+02  3.971675662E+02  1.250003147E+02  0.00000E+00  9.000E+00
       5     1     1     2   501     0  2.134483605E-01 -2.424125913E+01  5.184940759E+01  5.743350740E+01  4.750000000E+00  0.00000E+00  9.000E+00
      -5     1     1     2     0   503 -2.305645483E+01 -9.963556179E+01 -1.166420087E+03  1.170904449E+03  4.750000000E+00  0.00000E+00  9.000E+00
      21     1     1     2   502   511  1.917324033E+00  3.967120927E+01  4.371400427E+01  5.906263748E+01  2.900487199E-06  0.00000E+00  9.000E+00
#rwgt            1           9  0.23016295706142384                2     2710684           0
</event>
<event>
      6   9999 -3.45752E-01  3.62546E+01 -1.00000E+00  1.42708E-01
      21    -1     0     0   502   503  0.000000000E+00  0.000000000E+00  1.002081351E+02  1.002081351E+02  0.000000000E+00  0.00000E+00  9.000E+00
      21    -1     0     0   512   502  0.000000000E+00  0.000000000E+00 -1.883783288E+03  1.883783288E+03  0.000000000E+00  0.00000E+00  9.000E+00
      25     1     1     2     0     0 -1.057255594E+02  4.503793782E+01 -1.153206258E+03  1.165639775E+03  1.250004150E+02  0.00000E+00  9.000E+00
       5     1     1     2   501     0 -9.972914154E+00 -9.254470625E+00 -4.400719474E+02  4.403078305E+02  4.750000000E+00  0.00000E+00  9.000E+00
      -5     1     1     2     0   503  1.489706826E+02 -2.138360602E+01  3.105570567E+01  1.537418038E+02  4.750000000E+00  0.00000E+00  9.000E+00
      21     1     1     2   512   501 -3.327220906E+01 -1.439986117E+01 -2.213526541E+02  2.243020138E+02  2.697398305E-06  0.00000E+00  9.000E+00
#rwgt            1           9  -3.9088994171137956E-004           2     2712398           0
</event>
<event>
      6   9999  3.45752E-01  9.37938E+01 -1.00000E+00  1.21630E-01
      21    -1     0     0   501   502  0.000000000E+00  0.000000000E+00  3.050098070E+02  3.050098070E+02  0.000000000E+00  0.00000E+00  9.000E+00
      21    -1     0     0   511   503  0.000000000E+00  0.000000000E+00 -6.448845633E+02  6.448845633E+02  0.000000000E+00  0.00000E+00  9.000E+00
      25     1     1     2     0     0 -2.125151619E+02 -1.046158591E+02  1.780839456E+02  3.216291014E+02  1.249968606E+02  0.00000E+00  9.000E+00
       5     1     1     2   501     0 -1.841805646E+00 -1.250609562E+00  2.139184554E+01  2.202566294E+01  4.750000000E+00  0.00000E+00  9.000E+00
      -5     1     1     2     0   503  1.483457805E+02  3.923461470E+01 -4.546195671E+02  4.798409517E+02  4.750000000E+00  0.00000E+00  9.000E+00
      21     1     1     2   511   502  6.601118708E+01  6.663185398E+01 -8.473098026E+01  1.263986543E+02  1.907348633E-06  0.00000E+00  9.000E+00
#rwgt            1           9  0.16043632559213017                2     2714669           0
</event>
<event>
      6   9999  3.45752E-01  5.75228E+01 -1.00000E+00  1.31609E-01
      21    -1     0     0   501   502  0.000000000E+00  0.000000000E+00  1.416401044E+02  1.416401044E+02  0.000000000E+00  0.00000E+00  9.000E+00
      21    -1     0     0   512   503  0.000000000E+00  0.000000000E+00 -9.751204057E+02  9.751204057E+02  0.000000000E+00  0.00000E+00  9.000E+00
      25     1     1     2     0     0 -5.361298060E+01  3.589019090E+01  1.989015528E+01  1.420673810E+02  1.250002599E+02  0.00000E+00  9.000E+00
       5     1     1     2   501     0 -9.285217798E+00 -2.143494634E+00  5.392130430E+01  5.496252720E+01  4.750000000E+00  0.00000E+00  9.000E+00
      -5     1     1     2     0   503  2.504026308E+01 -7.705550507E+01 -6.971379594E+02  7.018464666E+02  4.750000000E+00  0.00000E+00  9.000E+00
      21     1     1     2   512   502  3.785793532E+01  4.330880880E+01 -2.101538014E+02  2.178841353E+02  0.000000000E+00  0.00000E+00  9.000E+00
#rwgt            1           9   10.202699768320445                2     2715746           0
</event>
<event>
      6   9999  3.45752E-01  1.89339E+01 -1.00000E+00  1.62048E-01
      21    -1     0     0   501   502  0.000000000E+00  0.000000000E+00  1.027880865E+02  1.027880865E+02  0.000000000E+00  0.00000E+00  9.000E+00
      21    -1     0     0   511   503  0.000000000E+00  0.000000000E+00 -1.221297690E+02  1.221297690E+02  0.000000000E+00  0.00000E+00  9.000E+00
      25     1     1     2     0     0 -2.064849520E+01 -3.783537594E+01  1.704311570E+01  1.333178982E+02  1.250012727E+02  0.00000E+00  9.000E+00
       5     1     1     2   501     0 -7.995700683E-01 -4.724806351E-01  1.430011429E+01  1.509696390E+01  4.750000000E+00  0.00000E+00  9.000E+00
      -5     1     1     2     0   503  2.605426664E+00  3.645135122E+01 -2.474812108E+01  4.439055362E+01  4.750000000E+00  0.00000E+00  9.000E+00
      21     1     1     2   511   502  1.884263860E+01  1.856505356E+00 -2.593679139E+01  3.211243979E+01  3.371747881E-07  0.00000E+00  9.000E+00
#rwgt            1           9  0.40102484538519340                2     2717230           0
</event>
<event>
      6   9999 -3.45752E-01  5.96872E+00 -1.00000E+00  2.14375E-01
      21    -1     0     0   501   512  0.000000000E+00  0.000000000E+00  2.696591592E+01  2.696591592E+01  0.000000000E+00  0.00000E+00  9.000E+00
      21    -1     0     0   502   503  0.000000000E+00  0.000000000E+00 -1.090605304E+03  1.090605304E+03  0.000000000E+00  0.00000E+00  9.000E+00
      25     1     1     2     0     0 -7.254437379E+00 -2.038940540E+00 -1.012207054E+03  1.019927050E+03  1.250251223E+02  0.00000E+00  9.000E+00
       5     1     1     2   501     0  6.862275235E+00 -1.933971197E+00  2.133920908E+01  2.299468221E+01  4.750000000E+00  0.00000E+00  9.000E+00
      -5     1     1     2     0   503  4.928929665E+00  9.433897495E-02 -6.163740019E+01  6.201640791E+01  4.750000000E+00  0.00000E+00  9.000E+00
      21     1     1     2   502   512 -4.536767520E+00  3.878572762E+00 -1.113414225E+01  1.263307998E+01  1.192092896E-07  0.00000E+00  9.000E+00
#rwgt            1           9  -3.9993536968990496E-004           2     2718840           0
</event>
<event>
      6   9999  3.45752E-01  2.67166E+01 -1.00000E+00  1.51170E-01
      21    -1     0     0   501   511  0.000000000E+00  0.000000000E+00  2.410922739E+02  2.410922739E+02  0.000000000E+00  0.00000E+00  9.000E+00
      21    -1     0     0   502   503  0.000000000E+00  0.000000000E+00 -9.294521620E+02  9.294521620E+02  0.000000000E+00  0.00000E+00  9.000E+00
      25     1     1     2     0     0 -3.107957137E+00  3.748728162E+01 -7.051885947E+02  7.171691829E+02  1.250029089E+02  0.00000E+00  9.000E+00
       5     1     1     2   501     0  5.538414502E+00  3.016591693E+00  7.782354401E+00  1.108609041E+01  4.750000000E+00  0.00000E+00  9.000E+00
      -5     1     1     2     0   503  1.697536974E+01 -2.214111097E+01 -2.148996299E+02  2.167551738E+02  4.750000000E+00  0.00000E+00  9.000E+00
      21     1     1     2   502   511 -1.940582711E+01 -1.836276235E+01  2.239459821E+02  2.255339887E+02  7.136645101E-06  0.00000E+00  9.000E+00
#rwgt            1           9   2.1482004059331791E-004           2     2723407           0
</event>
<event>
      6   9999  3.45752E-01  1.58634E+01 -1.00000E+00  1.68292E-01
      21    -1     0     0   512   502  0.000000000E+00  0.000000000E+00  2.911164605E+03  2.911164605E+03  0.000000000E+00  0.00000E+00  9.000E+00
      21    -1     0     0   502   503  0.000000000E+00  0.000000000E+00 -5.070062550E+01  5.070062550E+01  0.000000000E+00  0.00000E+00  9.000E+00
      25     1     1     2     0     0 -1.533579288E+00 -3.030518505E+00  3.003050531E+01  1.286080372E+02  1.250066401E+02  0.00000E+00  9.000E+00
       5     1     1     2   501     0 -7.270163775E+00  2.217219438E+01  2.016023167E+03  2.016163792E+03  4.750000000E+00  0.00000E+00  9.000E+00
      -5     1     1     2     0   503  8.163050411E+00 -3.291239612E+00  1.854533391E+01  2.107034788E+01  4.750000000E+00  0.00000E+00  9.000E+00
      21     1     1     2   512   501  6.406926527E-01 -1.585043626E+01  7.958649733E+02  7.960230541E+02  0.000000000E+00  0.00000E+00  9.000E+00
#rwgt            1           9   6.6851925787983913E-004           2     2724670           0
</event>
<event>
      6   9999  3.45752E-01  1.49429E+01 -1.00000E+00  1.70515E-01
      21    -1     0     0   511   502  0.000000000E+00  0.000000000E+00  2.081536600E+01  2.081536600E+01  0.000000000E+00  0.00000E+00  9.000E+00
      21    -1     0     0   502   503  0.000000000E+00  0.000000000E+00 -9.471398116E+02  9.471398116E+02  0.000000000E+00  0.00000E+00  9.000E+00
      25     1     1     2     0     0 -8.358347824E+00 -1.300833692E+01 -8.852446579E+02  8.941598789E+02  1.249988236E+02  0.00000E+00  9.000E+00
       5     1     1     2   501     0 -3.626557781E+00  1.548229374E+00  1.301893258E+01  1.440847116E+01  4.750000000E+00  0.00000E+00  9.000E+00
      -5     1     1     2     0   503  7.951817470E-02  2.429503796E+00 -3.359291437E+01  3.401404427E+01  4.750000000E+00  0.00000E+00  9.000E+00
      21     1     1     2   511   501  1.190538743E+01  9.030603753E+00 -2.050580591E+01  2.537278325E+01  4.768371582E-07  0.00000E+00  9.000E+00
#rwgt            1           9   2.2476280139946433E-005           2     2728046           0
</event>
<event>
      6   9999  3.45752E-01  6.00141E+00 -1.00000E+00  2.14044E-01
      21    -1     0     0   501   502  0.000000000E+00  0.000000000E+00  1.563839890E+01  1.563839890E+01  0.000000000E+00  0.00000E+00  9.000E+00
      21    -1     0     0   512   503  0.000000000E+00  0.000000000E+00 -1.046716113E+03  1.046716113E+03  0.000000000E+00  0.00000E+00  9.000E+00
      25     1     1     2     0     0 -5.012842789E+00  4.903221360E+00 -8.441676524E+02  8.533997282E+02  1.249916025E+02  0.00000E+00  9.000E+00
       5     1     1     2   501     0  9.037408389E+00 -5.946984097E-01  8.425181741E+00  1.325045675E+01  4.750000000E+00  0.00000E+00  9.000E+00
      -5     1     1     2     0   503 -1.838819318E+00  1.280707281E+00 -5.777358843E+01  5.801182197E+01  4.750000000E+00  0.00000E+00  9.000E+00
      21     1     1     2   512   502 -2.185746282E+00 -5.589230232E+00 -1.375616555E+02  1.376925054E+02  1.907348633E-06  0.00000E+00  9.000E+00
#rwgt            1           9  0.39937353009875781                2     2729896           0
</event>
<event>
      6   9999 -3.45752E-01  7.56226E+00 -1.00000E+00  2.00953E-01
      21    -1     0     0   501   502  0.000000000E+00  0.000000000E+00  2.525250953E+01  2.525250953E+01  0.000000000E+00  0.00000E+00  9.000E+00
       1    -1     0     0   502     0  0.000000000E+00  0.000000000E+00 -3.481433014E+03  3.481433014E+03  0.000000000E+00  0.00000E+00  9.000E+00
      25     1     1     2     0     0 -3.197074749E+01  1.673542860E+01 -4.392224995E+02  4.580850246E+02  1.249931295E+02  0.00000E+00  9.000E+00
       5     1     1     2   501     0 -1.067417509E+00 -3.476281476E+00  1.492132171E+01  1.607582827E+01  4.750000000E+00  0.00000E+00  9.000E+00
      -5     1     1     2     0   503  3.280491200E+01 -5.700480716E+00 -8.946865305E+02  8.953184953E+02  4.750000000E+00  0.00000E+00  9.000E+00
       1     1     1     2   503     0  2.332530018E-01 -7.558666413E+00 -2.137192796E+03  2.137206175E+03  4.315837288E-05  0.00000E+00  9.000E+00
#rwgt            1           9  -2.0036325250385591E-004           2     2733912           0
</event>
<event>
      6   9999 -3.45752E-01  1.69280E+01 -1.00000E+00  1.65942E-01
      21    -1     0     0   511   502  0.000000000E+00  0.000000000E+00  4.285447425E+01  4.285447425E+01  0.000000000E+00  0.00000E+00  9.000E+00
      21    -1     0     0   502   503  0.000000000E+00  0.000000000E+00 -1.266963104E+03  1.266963104E+03  0.000000000E+00  0.00000E+00  9.000E+00
      25     1     1     2     0     0 -1.758844067E+01 -1.141688312E+00 -1.240067600E+03  1.246476287E+03  1.249992962E+02  0.00000E+00  9.000E+00
       5     1     1     2   501     0  3.611586382E+00  1.024865486E+01  3.322840673E+01  3.528126976E+01  4.750000000E+00  0.00000E+00  9.000E+00
      -5     1     1     2     0   503  3.064543810E-01  8.769692305E-01 -1.912737430E+00  5.204234218E+00  4.750000000E+00  0.00000E+00  9.000E+00
      21     1     1     2   511   501  1.367039991E+01 -9.983935777E+00 -1.535669818E+01  2.285578672E+01  3.769728732E-07  0.00000E+00  9.000E+00
#rwgt            1           9  -5.3306446169214892E-002           2     2737826           0
</event>
<event>
      6   9999  3.45752E-01  5.14571E+00 -1.00000E+00  2.23792E-01
      21    -1     0     0   512   503  0.000000000E+00  0.000000000E+00  7.496708807E+02  7.496708807E+02  0.000000000E+00  0.00000E+00  9.000E+00
      21    -1     0     0   501   502  0.000000000E+00  0.000000000E+00 -1.619544023E+02  1.619544023E+02  0.000000000E+00  0.00000E+00  9.000E+00
      25     1     1     2     0     0  6.316292547E-01 -3.118033777E+01 -1.264649636E+02  1.805302468E+02  1.250006824E+02  0.00000E+00  9.000E+00
       5     1     1     2   501     0 -2.127180477E-01  3.445777098E-01  4.195751549E+00  6.350654598E+00  4.750000000E+00  0.00000E+00  9.000E+00
      -5     1     1     2     0   503 -5.409447913E+00  2.958162673E+01  2.407316886E+01  3.881255887E+01  4.750000000E+00  0.00000E+00  9.000E+00
      21     1     1     2   512   502  4.990536706E+00  1.254133323E+00  6.859125215E+02  6.859318228E+02  7.629394531E-06  0.00000E+00  9.000E+00
#rwgt            1           9   4.1142489702926327E-003           2     2740412           0
</event>
<event>
      6   9999  3.45752E-01  2.39721E+01 -1.00000E+00  1.54428E-01
      21    -1     0     0   501   502  0.000000000E+00  0.000000000E+00  4.097162205E+01  4.097162205E+01  0.000000000E+00  0.00000E+00  9.000E+00
      21    -1     0     0   511   503  0.000000000E+00  0.000000000E+00 -1.896409656E+03  1.896409656E+03  0.000000000E+00  0.00000E+00  9.000E+00
      25     1     1     2     0     0 -2.929591987E+01 -1.428776335E+02 -9.075265506E+02  9.276309523E+02  1.249898975E+02  0.00000E+00  9.000E+00
       5     1     1     2   501     0 -1.188379472E+00 -2.909994442E+00  1.796074816E+01  1.884227396E+01  4.750000000E+00  0.00000E+00  9.000E+00
      -5     1     1     2     0   503  3.364419059E+01  1.220246873E+02 -3.138730853E+02  3.384683620E+02  4.750000000E+00  0.00000E+00  9.000E+00
      21     1     1     2   511   502 -3.159891247E+00  2.376294062E+01 -6.519991461E+02  6.524396897E+02  7.629394531E-06  0.00000E+00  9.000E+00
#rwgt            1           9   1.5806375270634157E-004           2     2744746           0
</event>
<event>
      6   9999  3.45752E-01  1.41044E+01 -1.00000E+00  1.72722E-01
      21    -1     0     0   501   502  0.000000000E+00  0.000000000E+00  1.257162197E+01  1.257162197E+01  0.000000000E+00  0.00000E+00  9.000E+00
      21    -1     0     0   502   512  0.000000000E+00  0.000000000E+00 -1.661891806E+03  1.661891806E+03  0.000000000E+00  0.00000E+00  9.000E+00
      25     1     1     2     0     0 -2.571559879E+01  3.613697241E+01 -6.600345668E+02  6.732294470E+02  1.250003441E+02  0.00000E+00  9.000E+00
       5     1     1     2   501     0 -1.050767310E+00  2.384404995E-01  1.220885239E+00  5.021357046E+00  4.750000000E+00  0.00000E+00  9.000E+00
      -5     1     1     2     0   503  1.536506161E+01 -4.467869933E+01 -1.992404311E+02  2.048208563E+02  4.750000000E+00  0.00000E+00  9.000E+00
      21     1     1     2   503   512  1.140130449E+01  8.303286415E+00 -7.912660718E+02  7.913917681E+02  2.157918644E-05  0.00000E+00  9.000E+00
#rwgt            1           9   8.2298075610441048E-005           2     2746557           0
</event>
<event>
      6   9999  3.45752E-01  3.30553E+01 -1.00000E+00  1.45164E-01
      21    -1     0     0   501   502  0.000000000E+00  0.000000000E+00  9.677880575E+01  9.677880575E+01  0.000000000E+00  0.00000E+00  9.000E+00
      21    -1     0     0   502   511  0.000000000E+00  0.000000000E+00 -2.105019107E+03  2.105019107E+03  0.000000000E+00  0.00000E+00  9.000E+00
      25     1     1     2     0     0  4.317893720E+01 -1.213472537E+02 -5.819990121E+02  6.090460682E+02  1.249987460E+02  0.00000E+00  9.000E+00
       5     1     1     2   501     0  2.124699813E-01  3.781688532E+00  8.052233802E+01  8.075119647E+01  4.750000000E+00  0.00000E+00  9.000E+00
      -5     1     1     2     0   503 -3.552590686E+01  8.545967920E+01 -1.118231173E+03  1.122064599E+03  4.750000000E+00  0.00000E+00  9.000E+00
      21     1     1     2   503   511 -7.865500320E+00  3.210588594E+01 -3.885324545E+02  3.899360489E+02  5.394796609E-06  0.00000E+00  9.000E+00
#rwgt            1           9   2.6785140774784446E-003           2     2748772           0
</event>
<event>
      6   9999  3.45752E-01  7.25114E+00 -1.00000E+00  2.03207E-01
      21    -1     0     0   501   502  0.000000000E+00  0.000000000E+00  1.880132778E+01  1.880132778E+01  0.000000000E+00  0.00000E+00  9.000E+00
      21    -1     0     0   512   503  0.000000000E+00  0.000000000E+00 -2.133610773E+03  2.133610773E+03  0.000000000E+00  0.00000E+00  9.000E+00
      25     1     1     2     0     0  1.907970347E+01  9.809391198E+00 -7.059813122E+02  7.172834827E+02  1.250028881E+02  0.00000E+00  9.000E+00
       5     1     1     2   501     0  2.232823349E+00  5.623091631E-01  1.168232305E+01  1.281955006E+01  4.750000000E+00  0.00000E+00  9.000E+00
      -5     1     1     2     0   503 -2.841228702E+01 -8.897778403E+00 -2.550135727E+02  2.567896284E+02  4.750000000E+00  0.00000E+00  9.000E+00
      21     1     1     2   512   502  7.099760203E+00 -1.473921958E+00 -1.165496883E+03  1.165519439E+03  1.525878906E-05  0.00000E+00  9.000E+00
#rwgt            1           9   3.2711909934343036E-005           2     2751925           0
</event>
<event>
      6   9999  3.45752E-01  8.23733E+00 -1.00000E+00  1.96524E-01
      21    -1     0     0   502   503  0.000000000E+00  0.000000000E+00  5.008618633E+01  5.008618633E+01  0.000000000E+00  0.00000E+00  9.000E+00
      21    -1     0     0   511   502  0.000000000E+00  0.000000000E+00 -2.293368361E+02  2.293368361E+02  0.000000000E+00  0.00000E+00  9.000E+00
      25     1     1     2     0     0 -6.658519686E+00 -3.331739091E+00 -6.636676427E+01  1.417207503E+02  1.249991492E+02  0.00000E+00  9.000E+00
       5     1     1     2   501     0 -1.113232449E-01 -3.076700667E-01  2.301180743E+00  5.288193127E+00  4.750000000E+00  0.00000E+00  9.000E+00
      -5     1     1     2     0   503 -2.391204881E-01 -6.881838932E-01  7.795646299E+00  9.157804153E+00  4.750000000E+00  0.00000E+00  9.000E+00
      21     1     1     2   511   501  7.008963419E+00  4.327593051E+00 -1.229807126E+02  1.232562749E+02  1.907348633E-06  0.00000E+00  9.000E+00
#rwgt            1           9   3.2567842497892119E-003           2     2755686           0
</event>
<event>
      6   9999  3.45752E-01  4.31732E+01 -1.00000E+00  1.38290E-01
      21    -1     0     0   501   512  0.000000000E+00  0.000000000E+00  1.723979528E+01  1.723979528E+01  0.000000000E+00  0.00000E+00  9.000E+00
      21    -1     0     0   502   503  0.000000000E+00  0.000000000E+00 -5.251182970E+02  5.251182970E+02  0.000000000E+00  0.00000E+00  9.000E+00
      25     1     1     2     0     0 -4.229477154E+01  6.329032375E+00 -3.503536109E+02  3.744375562E+02  1.250077058E+02  0.00000E+00  9.000E+00
       5     1     1     2   501     0 -5.856926743E+00 -1.770673105E+00 -2.223319875E+01  2.354392705E+01  4.750000000E+00  0.00000E+00  9.000E+00
      -5     1     1     2     0   503  5.060097145E+00 -1.905354337E+00 -2.130327968E+01  2.248615537E+01  4.750000000E+00  0.00000E+00  9.000E+00
      21     1     1     2   502   512  4.309160113E+01 -2.653004933E+00 -1.139884124E+02  1.218904537E+02  1.348699152E-06  0.00000E+00  9.000E+00
#rwgt            1           9   1.0669392041006420E-002           2     2758074           0
</event>
<event>
      6   9999 -3.45752E-01  2.04498E+01 -1.00000E+00  1.59477E-01
      21    -1     0     0   501   502  0.000000000E+00  0.000000000E+00  4.846845459E+01  4.846845459E+01  0.000000000E+00  0.00000E+00  9.000E+00
       1    -1     0     0   502     0  0.000000000E+00  0.000000000E+00 -1.761569463E+03  1.761569463E+03  0.000000000E+00  0.00000E+00  9.000E+00
      25     1     1     2     0     0  6.324631260E+01  6.624869086E+01 -6.167071311E+02  6.358779403E+02  1.249963373E+02  0.00000E+00  9.000E+00
       5     1     1     2   501     0  5.205012471E-01  5.879744511E-01  1.730686217E+01  1.796403668E+01  4.750000000E+00  0.00000E+00  9.000E+00
      -5     1     1     2     0   503 -4.355644965E+01 -6.995652116E+01 -5.939696808E+01  1.016938615E+02  4.750000000E+00  0.00000E+00  9.000E+00
       1     1     1     2   503     0 -2.021036420E+01  3.119855851E+00 -1.054303771E+03  1.054502079E+03  0.000000000E+00  0.00000E+00  9.000E+00
#rwgt            1           9  -1.1361367871936576E-002           2     2759348           0
</event>
<event>
      6   9999  3.45752E-01  3.57981E+01 -1.00000E+00  1.43040E-01
      21    -1     0     0   501   511  0.000000000E+00  0.000000000E+00  5.804771960E+01  5.804771960E+01  0.000000000E+00  0.00000E+00  9.000E+00
      21    -1     0     0   502   503  0.000000000E+00  0.000000000E+00 -8.138417044E+02  8.138417044E+02  0.000000000E+00  0.00000E+00  9.000E+00
      25     1     1     2     0     0 -6.244449578E+00 -2.739175551E+01 -7.632522506E+02  7.739272496E+02  1.249803513E+02  0.00000E+00  9.000E+00
       5     1     1     2   501     0 -3.205957244E-01 -1.637461889E+00 -1.169911058E+01  1.273639475E+01  4.750000000E+00  0.00000E+00  9.000E+00
      -5     1     1     2     0   503  5.016400204E+00 -6.735335807E+00 -2.592320162E+01  2.766051160E+01  4.750000000E+00  0.00000E+00  9.000E+00
      21     1     1     2   502   511  1.548645099E+00  3.576455320E+01  4.508057802E+01  5.756526802E+01  1.581489940E-06  0.00000E+00  9.000E+00
#rwgt            1           9   2.5725551183262209E-004           2     2761566           0
</event>
<event>
      6   9999  3.45752E-01  8.92053E+00 -1.00000E+00  1.92575E-01
      21    -1     0     0   501   512  0.000000000E+00  0.000000000E+00  2.768825272E+01  2.768825272E+01  0.000000000E+00  0.00000E+00  9.000E+00
      21    -1     0     0   502   503  0.000000000E+00  0.000000000E+00 -1.014260351E+03  1.014260351E+03  0.000000000E+00  0.00000E+00  9.000E+00
      25     1     1     2     0     0 -4.495013824E+01 -1.828628020E+01 -6.833187824E+02  6.963508056E+02  1.249999323E+02  0.00000E+00  9.000E+00
       5     1     1     2   501     0 -1.177290999E+00  3.914983634E+00  1.694592829E+01  1.806765332E+01  4.750000000E+00  0.00000E+00  9.000E+00
      -5     1     1     2     0   503  5.501392754E+01  1.514979540E+01 -3.004807460E+02  3.058877077E+02  4.750000000E+00  0.00000E+00  9.000E+00
      21     1     1     2   502   512 -8.886498301E+00 -7.784988378E-01 -1.971849776E+01  2.164243670E+01  3.371747881E-07  0.00000E+00  9.000E+00
#rwgt            1           9   2.4565257369590994E-003           2     2762197           0
</event>
<event>
      6   9999 -3.45752E-01  1.21422E+01 -1.00000E+00  1.78731E-01
      21    -1     0     0   511   503  0.000000000E+00  0.000000000E+00  5.190078596E+01  5.190078596E+01  0.000000000E+00  0.00000E+00  9.000E+00
      21    -1     0     0   501   502  0.000000000E+00  0.000000000E+00 -8.955607183E+02  8.955607183E+02  0.000000000E+00  0.00000E+00  9.000E+00
      25     1     1     2     0     0 -2.830902246E+00 -9.903476425E+01 -5.408058943E+02  5.638363942E+02  1.249982623E+02  0.00000E+00  9.000E+00
       5     1     1     2   501     0 -4.070570970E+00  1.414698796E+01 -7.358481417E+01  7.519304617E+01  4.750000000E+00  0.00000E+00  9.000E+00
      -5     1     1     2     0   503  1.892066930E+01  8.661180589E+01 -2.603458910E+02  2.750675228E+02  4.750000000E+00  0.00000E+00  9.000E+00
      21     1     1     2   511   502 -1.201919608E+01 -1.724029611E+00  3.107666719E+01  3.336454100E+01  1.215700987E-06  0.00000E+00  9.000E+00
#rwgt            1           9  -9.5359278413696734E-004           2     2766091           0
</event>
<event>
      6   9999  3.45752E-01  1.30252E+01 -1.00000E+00  1.75862E-01
      21    -1     0     0   501   512  0.000000000E+00  0.000000000E+00  2.502247554E+02  2.502247554E+02  0.000000000E+00  0.00000E+00  9.000E+00
      21    -1     0     0   502   503  0.000000000E+00  0.000000000E+00 -4.525446163E+02  4.525446163E+02  0.000000000E+00  0.00000E+00  9.000E+00
      25     1     1     2     0     0  7.676519689E+00  1.725075055E+01 -4.163333152E+02  4.351035551E+02  1.250006278E+02  0.00000E+00  9.000E+00
       5     1     1     2   501     0  2.209339446E+00 -4.954894556E+00  2.228761441E+02  2.229927583E+02  4.750000000E+00  0.00000E+00  9.000E+00
      -5     1     1     2     0   503 -9.293969668E+00  7.159192429E-01 -2.311079671E+01  2.536852060E+01  4.750000000E+00  0.00000E+00  9.000E+00
      21     1     1     2   502   512 -5.918894666E-01 -1.301177524E+01  1.424810687E+01  1.930453775E+01  2.384185791E-07  0.00000E+00  9.000E+00
#rwgt            1           9   2.4710901763452604                2     2768469           0
</event>
<event>
      6   9999  3.45752E-01  2.15108E+01 -1.00000E+00  1.57833E-01
      21    -1     0     0   501   502  0.000000000E+00  0.000000000E+00  1.837188548E+01  1.837188548E+01  0.000000000E+00  0.00000E+00  9.000E+00
       2    -1     0     0   502     0  0.000000000E+00  0.000000000E+00 -3.259205018E+03  3.259205018E+03  0.000000000E+00  0.00000E+00  9.000E+00
      25     1     1     2     0     0  3.531178452E+01 -1.796154606E+01 -2.549567660E+02  2.867006177E+02  1.249990097E+02  0.00000E+00  9.000E+00
       5     1     1     2   501     0 -1.038935507E+01  1.573737331E+01 -1.462958111E+02  1.475826225E+02  4.750000000E+00  0.00000E+00  9.000E+00
      -5     1     1     2     0   503 -4.641102883E+01  3.200245776E+00 -3.000641326E+02  3.036861395E+02  4.750000000E+00  0.00000E+00  9.000E+00
       2     1     1     2   503     0  2.148859938E+01 -9.760730241E-01 -2.539516423E+03  2.539607524E+03  0.000000000E+00  0.00000E+00  9.000E+00
#rwgt            1           9   2.7879119920554755E-002           2     2773105           0
</event>
<event>
      6   9999  3.45752E-01  1.15655E+02 -1.00000E+00  1.17811E-01
      21    -1     0     0   501   502  0.000000000E+00  0.000000000E+00  1.893086437E+03  1.893086437E+03  0.000000000E+00  0.00000E+00  9.000E+00
       1    -1     0     0   502     0  0.000000000E+00  0.000000000E+00 -1.588446876E+02  1.588446876E+02  0.000000000E+00  0.00000E+00  9.000E+00
      25     1     1     2     0     0 -9.318371297E+01 -8.036542329E+00  5.466482650E+02  5.685042500E+02  1.249998648E+02  0.00000E+00  9.000E+00
       5     1     1     2   501     0 -3.472940247E+01  2.891950588E+01  1.219414723E+03  1.220261160E+03  4.750000000E+00  0.00000E+00  9.000E+00
      -5     1     1     2     0   503  3.728019963E+01  5.096185062E+01  8.017990646E+01  1.021680156E+02  4.750000000E+00  0.00000E+00  9.000E+00
       1     1     1     2   503     0  9.063291581E+01 -7.184481417E+01 -1.120011448E+02  1.609976993E+02  5.223489356E-06  0.00000E+00  9.000E+00
#rwgt            1           9  0.41063893715237876                2     2774656           0
</event>
<event>
      6   9999  3.45752E-01  1.05601E+01 -1.00000E+00  1.84735E-01
      21    -1     0     0   501   502  0.000000000E+00  0.000000000E+00  5.910920840E+01  5.910920840E+01  0.000000000E+00  0.00000E+00  9.000E+00
      21    -1     0     0   502   511  0.000000000E+00  0.000000000E+00 -1.987651895E+02  1.987651895E+02  0.000000000E+00  0.00000E+00  9.000E+00
      25     1     1     2     0     0  1.689164028E+01 -5.912276807E+00 -1.321212485E+02  1.827670178E+02  1.250099035E+02  0.00000E+00  9.000E+00
       5     1     1     2   501     0 -2.681325815E+00  2.037845504E+00  1.838855305E+01  1.928843450E+01  4.750000000E+00  0.00000E+00  9.000E+00
      -5     1     1     2     0   503 -2.222995166E+01  1.074477358E+01  2.721022400E+00  2.529006470E+01  4.750000000E+00  0.00000E+00  9.000E+00
      21     1     1     2   503   511  8.019637188E+00 -6.870342274E+00 -2.864430808E+01  3.052888090E+01  0.000000000E+00  0.00000E+00  9.000E+00
#rwgt            1           9   2.6071015698753589E-002           2     2775106           0
</event>
<event>
      6   9999  3.45752E-01  2.00088E+00 -1.00000E+00  3.32813E-01
      21    -1     0     0   512   502  0.000000000E+00  0.000000000E+00  1.344095558E+02  1.344095558E+02  0.000000000E+00  0.00000E+00  9.000E+00
      21    -1     0     0   502   503  0.000000000E+00  0.000000000E+00 -2.711120422E+02  2.711120422E+02  0.000000000E+00  0.00000E+00  9.000E+00
      25     1     1     2     0     0 -3.798901444E+00  9.478908166E+00 -8.074048226E+01  1.491598973E+02  1.250014725E+02  0.00000E+00  9.000E+00
       5     1     1     2   501     0 -1.871932085E+00 -1.428539068E+00  2.525031241E+01  2.580088430E+01  4.750000000E+00  0.00000E+00  9.000E+00
      -5     1     1     2     0   503  7.337256064E+00 -6.942877577E+00 -1.556732831E+02  1.560729715E+02  4.750000000E+00  0.00000E+00  9.000E+00
      21     1     1     2   512   501 -1.666422534E+00 -1.107491521E+00  7.446096654E+01  7.448784491E+01  1.348699152E-06  0.00000E+00  9.000E+00
#rwgt            1           9  0.12137658813251820                2     2777472           0
</event>
<event>
      6   9999  3.45752E-01  1.48621E+01 -1.00000E+00  1.70720E-01
      21    -1     0     0   502   503  0.000000000E+00  0.000000000E+00  4.386836543E+00  4.386836543E+00  0.000000000E+00  0.00000E+00  9.000E+00
      21    -1     0     0   511   502  0.000000000E+00  0.000000000E+00 -1.692441679E+03  1.692441679E+03  0.000000000E+00  0.00000E+00  9.000E+00
      25     1     1     2     0     0 -1.343160768E+00 -2.558427402E-01 -1.003094667E+03  1.010853492E+03  1.249960067E+02  0.00000E+00  9.000E+00
       5     1     1     2   501     0  1.079275488E+01 -1.072625957E+01 -2.853455744E+02  2.857904749E+02  4.750000000E+00  0.00000E+00  9.000E+00
      -5     1     1     2     0   503  1.173804192E+00  5.885667451E-01 -4.717221805E+01  4.742894562E+01  4.750000000E+00  0.00000E+00  9.000E+00
      21     1     1     2   511   501 -1.062339830E+01  1.039353556E+01 -3.524423834E+02  3.527556035E+02  5.394796609E-06  0.00000E+00  9.000E+00
#rwgt            1           9   4.3514050375370432E-004           2     2786429           0
</event>
<event>
      6   9999  3.45752E-01  2.06447E+01 -1.00000E+00  1.59166E-01
      21    -1     0     0   501   502  0.000000000E+00  0.000000000E+00  3.729104979E+03  3.729104979E+03  0.000000000E+00  0.00000E+00  9.000E+00
      21    -1     0     0   502   512  0.000000000E+00  0.000000000E+00 -5.762453082E+00  5.762453082E+00  0.000000000E+00  0.00000E+00  9.000E+00
      25     1     1     2     0     0 -2.561415373E+01 -5.317438719E+00  8.682663881E+02  8.776021565E+02  1.249586502E+02  0.00000E+00  9.000E+00
       5     1     1     2   501     0 -4.982697878E+00 -2.415913944E+00  2.444406609E+03  2.444417497E+03  4.750000000E+00  0.00000E+00  9.000E+00
      -5     1     1     2     0   503  9.989223429E+00  6.495929574E+00  2.996889763E+02  2.999633756E+02  4.750000000E+00  0.00000E+00  9.000E+00
      21     1     1     2   503   512  2.060762818E+01  1.237423089E+00  1.109805520E+02  1.128844032E+02  3.303624740E-06  0.00000E+00  9.000E+00
#rwgt            1           9   5.1217970562054466E-005           2     2788154           0
</event>
<event>
      6   9999  3.45752E-01  1.18696E+01 -1.00000E+00  1.79679E-01
      21    -1     0     0   501   502  0.000000000E+00  0.000000000E+00  4.474164179E+01  4.474164179E+01  0.000000000E+00  0.00000E+00  9.000E+00
       1    -1     0     0   502     0  0.000000000E+00  0.000000000E+00 -1.383722173E+03  1.383722173E+03  0.000000000E+00  0.00000E+00  9.000E+00
      25     1     1     2     0     0  8.533543315E+01 -8.911007458E+01 -8.082109184E+02  8.270758379E+02  1.250072456E+02  0.00000E+00  9.000E+00
       5     1     1     2   501     0  7.116737322E+00 -4.374125522E+00  2.313724694E+01  2.505345526E+01  4.750000000E+00  0.00000E+00  9.000E+00
      -5     1     1     2     0   503 -8.081270498E+01  9.581014306E+01 -3.450519378E+02  3.671425869E+02  4.750000000E+00  0.00000E+00  9.000E+00
       1     1     1     2   503     0 -1.163946549E+01 -2.325942958E+00 -2.088549221E+02  2.091919350E+02  2.697398305E-06  0.00000E+00  9.000E+00
#rwgt            1           9   1.2325054186333454E-004           2     2790282           0
</event>
<event>
      6   9999  3.45752E-01  3.78112E+01 -1.00000E+00  1.41618E-01
      21    -1     0     0   511   502  0.000000000E+00  0.000000000E+00  1.501743408E+02  1.501743408E+02  0.000000000E+00  0.00000E+00  9.000E+00
      21    -1     0     0   502   503  0.000000000E+00  0.000000000E+00 -8.990173057E+02  8.990173057E+02  0.000000000E+00  0.00000E+00  9.000E+00
      25     1     1     2     0     0 -3.771352834E+01  1.692304674E+01 -6.240754825E+02  6.378131673E+02  1.250069148E+02  0.00000E+00  9.000E+00
       5     1     1     2   501     0  1.169706899E+01 -4.219257514E+01 -6.435036897E+01  7.797799245E+01  4.750000000E+00  0.00000E+00  9.000E+00
      -5     1     1     2     0   503  1.985090399E+01 -1.203563216E+01 -1.935537023E+02  1.949987513E+02  4.750000000E+00  0.00000E+00  9.000E+00
      21     1     1     2   511   501  6.165555369E+00  3.730516057E+01  1.331365889E+02  1.384017355E+02  3.814697266E-06  0.00000E+00  9.000E+00
#rwgt            1           9   1.9270687613543638E-002           2     2793661           0
</event>
<event>
      6   9999  3.45752E-01  9.72041E+00 -1.00000E+00  1.88500E-01
      21    -1     0     0   501   512  0.000000000E+00  0.000000000E+00  3.788265406E+00  3.788265406E+00  0.000000000E+00  0.00000E+00  9.000E+00
      21    -1     0     0   502   503  0.000000000E+00  0.000000000E+00 -2.197093294E+03  2.197093294E+03  0.000000000E+00  0.00000E+00  9.000E+00
      25     1     1     2     0     0  2.869048542E+00  1.358892061E+01 -2.032145303E+03  2.036033681E+03  1.250029079E+02  0.00000E+00  9.000E+00
       5     1     1     2   501     0 -2.318671418E-01 -3.688587882E-02 -5.981269044E+00  7.641544498E+00  4.750000000E+00  0.00000E+00  9.000E+00
      -5     1     1     2     0   503 -6.343528049E+00 -4.565964989E+00 -1.282758829E+02  1.286015281E+02  4.750000000E+00  0.00000E+00  9.000E+00
      21     1     1     2   502   512  3.706346648E+00 -8.986069745E+00 -2.690257344E+01  2.860480576E+01  1.011524364E-06  0.00000E+00  9.000E+00
#rwgt            1           9   2.8328840031800841E-002           2     2794442           0
</event>
<event>
      6   9999  3.45752E-01  6.61647E+00 -1.00000E+00  2.08307E-01
      21    -1     0     0   501   502  0.000000000E+00  0.000000000E+00  1.056360767E+03  1.056360767E+03  0.000000000E+00  0.00000E+00  9.000E+00
      21    -1     0     0   511   503  0.000000000E+00  0.000000000E+00 -9.613799616E+01  9.613799616E+01  0.000000000E+00  0.00000E+00  9.000E+00
      25     1     1     2     0     0  1.001473832E+01  1.295927956E+01  3.728731990E+02  3.936148036E+02  1.250198109E+02  0.00000E+00  9.000E+00
       5     1     1     2   501     0 -1.310479229E+00 -1.790770900E+00  6.486724443E+02  6.486936309E+02  4.750000000E+00  0.00000E+00  9.000E+00
      -5     1     1     2     0   503 -1.170775971E+01 -5.273026472E+00  2.237503802E+01  2.623130328E+01  4.750000000E+00  0.00000E+00  9.000E+00
      21     1     1     2   511   502  3.003500622E+00 -5.895482190E+00 -8.369791053E+01  8.395902544E+01  2.697398305E-06  0.00000E+00  9.000E+00
#rwgt            1           9   3.0200384201389334                2     2796758           0
</event>
<event>
      6   9999 -3.45752E-01  1.44441E+01 -1.00000E+00  1.71805E-01
      21    -1     0     0   501   502  0.000000000E+00  0.000000000E+00  2.842713761E+02  2.842713761E+02  0.000000000E+00  0.00000E+00  9.000E+00
      21    -1     0     0   512   503  0.000000000E+00  0.000000000E+00 -8.158806562E+01  8.158806562E+01  0.000000000E+00  0.00000E+00  9.000E+00
      25     1     1     2     0     0  1.696249430E+01  3.853434407E+01  2.757632084E+01  1.347535187E+02  1.250017418E+02  0.00000E+00  9.000E+00
       5     1     1     2   501     0 -1.010960988E-01 -7.997383333E-01  7.330001050E+01  7.345817750E+01  4.750000000E+00  0.00000E+00  9.000E+00
      -5     1     1     2     0   503 -4.855150851E+00 -4.576460525E+01  1.233326845E+02  1.317250362E+02  4.750000000E+00  0.00000E+00  9.000E+00
      21     1     1     2   512   502 -1.200624735E+01  8.029999516E+00 -2.152570538E+01  2.592270934E+01  6.307962682E-07  0.00000E+00  9.000E+00
#rwgt            1           9  -2.6446293508216725E-005           2     2800368           0
</event>
<event>
      6   9999  3.45752E-01  5.30059E+00 -1.00000E+00  2.21841E-01
      21    -1     0     0   501   502  0.000000000E+00  0.000000000E+00  2.034219764E+01  2.034219764E+01  0.000000000E+00  0.00000E+00  9.000E+00
      21    -1     0     0   502   511  0.000000000E+00  0.000000000E+00 -1.728910816E+03  1.728910816E+03  0.000000000E+00  0.00000E+00  9.000E+00
      25     1     1     2     0     0 -1.897993322E+01  1.213109497E+01 -5.577172061E+02  5.719969332E+02  1.249984331E+02  0.00000E+00  9.000E+00
       5     1     1     2   501     0  2.177436142E-01 -3.228393317E+00  1.226071235E+01  1.354095650E+01  4.750000000E+00  0.00000E+00  9.000E+00
      -5     1     1     2     0   503  2.141311322E+01 -4.312616093E+00 -4.275917653E+02  4.281756652E+02  4.750000000E+00  0.00000E+00  9.000E+00
      21     1     1     2   503   511 -2.650923613E+00 -4.590085558E+00 -7.355203589E+02  7.355394583E+02  1.078959322E-05  0.00000E+00  9.000E+00
#rwgt            1           9   2.1668804127289009E-004           2     2802742           0
</event>
<event>
      6   9999  3.45752E-01  1.69775E+01 -1.00000E+00  1.65839E-01
      21    -1     0     0   501   502  0.000000000E+00  0.000000000E+00  3.241571320E+03  3.241571320E+03  0.000000000E+00  0.00000E+00  9.000E+00
      21    -1     0     0   502   512  0.000000000E+00  0.000000000E+00 -1.371421213E+01  1.371421213E+01  0.000000000E+00  0.00000E+00  9.000E+00
      25     1     1     2     0     0 -5.996410398E+01 -7.362655331E+01  9.295011087E+02  9.426631013E+02  1.249993930E+02  0.00000E+00  9.000E+00
       5     1     1     2   501     0  1.230145405E+00  6.495465245E-01  1.984935371E+03  1.984941542E+03  4.750000000E+00  0.00000E+00  9.000E+00
      -5     1     1     2     0   503  5.436784102E+01  5.657055733E+01  2.609887139E+02  2.725688196E+02  4.750000000E+00  0.00000E+00  9.000E+00
      21     1     1     2   503   512  4.366117556E+00  1.640644945E+01  5.243191396E+01  5.511206916E+01  9.536743164E-07  0.00000E+00  9.000E+00
#rwgt            1           9   1.6451747663896960E-004           2     2807541           0
</event>
<event>
      6   9999  3.45752E-01  2.65521E+00 -1.00000E+00  2.91556E-01
      21    -1     0     0   501   511  0.000000000E+00  0.000000000E+00  8.762159343E+01  8.762159343E+01  0.000000000E+00  0.00000E+00  9.000E+00
      21    -1     0     0   502   503  0.000000000E+00  0.000000000E+00 -8.940524993E+02  8.940524993E+02  0.000000000E+00  0.00000E+00  9.000E+00
      25     1     1     2     0     0 -8.153906448E+00 -2.919730840E+01 -6.599345829E+02  6.723525249E+02  1.250011797E+02  0.00000E+00  9.000E+00
       5     1     1     2   501     0 -1.648259470E+00 -2.796804493E+00  1.041342119E+01  1.189708853E+01  4.750000000E+00  0.00000E+00  9.000E+00
      -5     1     1     2     0   503  1.039743643E+01  3.458174055E+01 -2.256814268E+02  2.286015581E+02  4.750000000E+00  0.00000E+00  9.000E+00
      21     1     1     2   502   511 -5.952705125E-01 -2.587627659E+00  6.877168262E+01  6.882292129E+01  0.000000000E+00  0.00000E+00  9.000E+00
#rwgt            1           9   2.8122013626686619E-003           2     2809802           0
</event>
<event>
      6   9999  3.45752E-01  1.07908E+01 -1.00000E+00  1.83778E-01
      21    -1     0     0   501   502  0.000000000E+00  0.000000000E+00  1.104991353E+02  1.104991353E+02  0.000000000E+00  0.00000E+00  9.000E+00
      21    -1     0     0   512   503  0.000000000E+00  0.000000000E+00 -1.480574424E+03  1.480574424E+03  0.000000000E+00  0.00000E+00  9.000E+00
      25     1     1     2     0     0 -1.895178931E+01  1.401322928E+01 -7.897215533E+02  7.999000727E+02  1.249978148E+02  0.00000E+00  9.000E+00
       5     1     1     2   501     0  4.790077896E+00 -2.092559675E+01  1.039709376E+02  1.062701454E+02  4.750000000E+00  0.00000E+00  9.000E+00
      -5     1     1     2     0   503  8.002862697E+00 -1.948252202E+00 -5.679178628E+02  5.679974497E+02  4.750000000E+00  0.00000E+00  9.000E+00
      21     1     1     2   512   502  6.158848714E+00  8.860619675E+00 -1.164068103E+02  1.169058915E+02  0.000000000E+00  0.00000E+00  9.000E+00
#rwgt            1           9   15.858708909433217                2     2817007           0
</event>
<event>
      6   9999  3.45752E-01  2.59724E+01 -1.00000E+00  1.52005E-01
      21    -1     0     0   501   502  0.000000000E+00  0.000000000E+00  2.424792108E+01  2.424792108E+01  0.000000000E+00  0.00000E+00  9.000E+00
      21    -1     0     0   502   511  0.000000000E+00  0.000000000E+00 -1.059300338E+03  1.059300338E+03  0.000000000E+00  0.00000E+00  9.000E+00
      25     1     1     2     0     0  7.666521748E+00 -3.883131962E-01 -3.419075380E+02  3.641250359E+02  1.250094030E+02  0.00000E+00  9.000E+00
       5     1     1     2   501     0 -2.676104609E+00  1.407204740E-01  3.174148467E+00  6.310234276E+00  4.750000000E+00  0.00000E+00  9.000E+00
      -5     1     1     2     0   503 -3.094627534E+01  1.174572118E+00 -2.197499034E+01  3.826897278E+01  4.750000000E+00  0.00000E+00  9.000E+00
      21     1     1     2   503   511  2.595585820E+01 -9.269793963E-01 -6.743440372E+02  6.748440163E+02  1.321449896E-05  0.00000E+00  9.000E+00
#rwgt            1           9   4.2729950614255720E-003           2     2821722           0
</event>
<event>
      6   9999  3.45752E-01  1.07541E+01 -1.00000E+00  1.83928E-01
      21    -1     0     0   501   512  0.000000000E+00  0.000000000E+00  6.485443498E+01  6.485443498E+01  0.000000000E+00  0.00000E+00  9.000E+00
      21    -1     0     0   502   503  0.000000000E+00  0.000000000E+00 -7.572881901E+02  7.572881901E+02  0.000000000E+00  0.00000E+00  9.000E+00
      25     1     1     2     0     0  1.993579582E+01 -1.952044712E+01 -5.738677867E+02  5.879851321E+02  1.249951804E+02  0.00000E+00  9.000E+00
       5     1     1     2   501     0 -2.781746545E+01  1.118282162E+01 -1.526303088E+02  1.556195379E+02  4.750000000E+00  0.00000E+00  9.000E+00
      -5     1     1     2     0   503  8.470288088E-01  2.034237138E-01 -2.145238629E+01  2.198922956E+01  4.750000000E+00  0.00000E+00  9.000E+00
      21     1     1     2   502   512  7.034640822E+00  8.134201791E+00  5.551672676E+01  5.654872555E+01  1.907348633E-06  0.00000E+00  9.000E+00
#rwgt            1           9   1.5674598819223451E-002           2     2823529           0
</event>
<event>
      6   9999  3.45752E-01  2.84799E+01 -1.00000E+00  1.49314E-01
      21    -1     0     0   501   502  0.000000000E+00  0.000000000E+00  7.900870458E+02  7.900870458E+02  0.000000000E+00  0.00000E+00  9.000E+00
      21    -1     0     0   511   503  0.000000000E+00  0.000000000E+00 -2.261558087E+01  2.261558087E+01  0.000000000E+00  0.00000E+00  9.000E+00
      25     1     1     2     0     0 -2.085194869E+01 -3.730533860E-01  2.695319289E+02  2.978378468E+02  1.249999174E+02  0.00000E+00  9.000E+00
       5     1     1     2   501     0 -7.927266116E+00 -1.673401395E+00  4.656734979E+02  4.657681944E+02  4.750000000E+00  0.00000E+00  9.000E+00
      -5     1     1     2     0   503  2.999010833E-01  1.864420495E+00  1.487000924E+01  1.572404780E+01  4.750000000E+00  0.00000E+00  9.000E+00
      21     1     1     2   511   502  2.847931373E+01  1.820342861E-01  1.739602888E+01  3.337253762E+01  4.129530925E-07  0.00000E+00  9.000E+00
#rwgt            1           9   7.8883937249800535                2     2825900           0
</event>
<event>
      6   9999 -3.45752E-01  3.37469E+01 -1.00000E+00  1.44606E-01
      21    -1     0     0   501   512  0.000000000E+00  0.000000000E+00  5.462405513E+01  5.462405513E+01  0.000000000E+00  0.00000E+00  9.000E+00
      21    -1     0     0   502   503  0.000000000E+00  0.000000000E+00 -9.368057058E+02  9.368057058E+02  0.000000000E+00  0.00000E+00  9.000E+00
      25     1     1     2     0     0 -6.687942137E+01 -2.919756860E+01 -8.457802944E+02  8.580762297E+02  1.250006181E+02  0.00000E+00  9.000E+00
       5     1     1     2   501     0  3.999277386E+01  4.597181531E+00 -3.195326626E+01  5.161520865E+01  4.750000000E+00  0.00000E+00  9.000E+00
      -5     1     1     2     0   503 -6.641743534E-02  4.293146875E+00 -3.538330874E+01  3.595798324E+01  4.750000000E+00  0.00000E+00  9.000E+00
      21     1     1     2   502   512  2.695306495E+01  2.030724020E+01  3.093521873E+01  4.578033936E+01  1.651812370E-06  0.00000E+00  9.000E+00
#rwgt            1           9 -0.13523667422617094                2     2827140           0
</event>
<event>
      6   9999  3.45752E-01  2.19665E+01 -1.00000E+00  1.57162E-01
      21    -1     0     0   511   502  0.000000000E+00  0.000000000E+00  1.123963973E+02  1.123963973E+02  0.000000000E+00  0.00000E+00  9.000E+00
      21    -1     0     0   502   503  0.000000000E+00  0.000000000E+00 -1.287742114E+03  1.287742114E+03  0.000000000E+00  0.00000E+00  9.000E+00
      25     1     1     2     0     0 -8.837951162E+01  3.180403600E+01 -1.830782080E+02  2.407584873E+02  1.249983368E+02  0.00000E+00  9.000E+00
       5     1     1     2   501     0  3.646464301E+00 -3.923299548E+00  1.313211475E+01  1.495673491E+01  4.750000000E+00  0.00000E+00  9.000E+00
      -5     1     1     2     0   503  8.384892858E+01 -4.982943659E+01 -1.070897144E+03  1.075340351E+03  4.750000000E+00  0.00000E+00  9.000E+00
      21     1     1     2   511   501  8.841187357E-01  2.194870014E+01  6.549752051E+01  6.908293781E+01  2.523185073E-06  0.00000E+00  9.000E+00
#rwgt            1           9   3.5796089279995722E-004           2     2828299           0
</event>
<event>
      6   9999 -3.45752E-01  9.22363E+00 -1.00000E+00  1.90968E-01
      21    -1     0     0   501   502  0.000000000E+00  0.000000000E+00  2.172524609E+01  2.172524609E+01  0.000000000E+00  0.00000E+00  9.000E+00
      21    -1     0     0   502   512  0.000000000E+00  0.000000000E+00 -1.054876266E+03  1.054876266E+03  0.000000000E+00  0.00000E+00  9.000E+00
      25     1     1     2     0     0  9.680619912E+00 -1.336624743E+01 -9.763877408E+02  9.844968622E+02  1.250147203E+02  0.00000E+00  9.000E+00
       5     1     1     2   501     0 -2.852483255E+00  4.966157920E-01  1.625030447E+01  1.717609336E+01  4.750000000E+00  0.00000E+00  9.000E+00
      -5     1     1     2     0   503 -1.778380167E+00  5.151128572E+00 -2.442843466E+01  2.547562917E+01  4.750000000E+00  0.00000E+00  9.000E+00
      21     1     1     2   503   512 -5.049756490E+00  7.718503068E+00 -4.858514879E+01  4.945292725E+01  9.536743164E-07  0.00000E+00  9.000E+00
#rwgt            1           9  -2.0351948936425324E-004           2     2830638           0
</event>
<event>
      6   9999  3.45752E-01  1.88390E+01 -1.00000E+00  1.62218E-01
      21    -1     0     0   501   502  0.000000000E+00  0.000000000E+00  1.156264679E+02  1.156264679E+02  0.000000000E+00  0.00000E+00  9.000E+00
      21    -1     0     0   511   503  0.000000000E+00  0.000000000E+00 -3.832750439E+02  3.832750439E+02  0.000000000E+00  0.00000E+00  9.000E+00
      25     1     1     2     0     0  1.144500756E+01  1.959048057E+01 -2.275834718E+01  1.290644824E+02  1.249996925E+02  0.00000E+00  9.000E+00
       5     1     1     2   501     0  2.312370523E+00 -4.785916902E-01  4.221543147E+01  4.254740018E+01  4.750000000E+00  0.00000E+00  9.000E+00
      -5     1     1     2     0   503  4.253535073E+00 -1.358788107E+01  1.695600934E+01  2.264490727E+01  4.750000000E+00  0.00000E+00  9.000E+00
      21     1     1     2   511   502 -1.801091315E+01 -5.524007809E+00 -3.040616697E+02  3.046447220E+02  5.394796609E-06  0.00000E+00  9.000E+00
#rwgt            1           9   6.4801846036748490E-005           2     2833845           0
</event>
<event>
      6   9999  3.45752E-01  7.89568E+00 -1.00000E+00  1.98693E-01
      21    -1     0     0   501   502  0.000000000E+00  0.000000000E+00  8.463023430E+00  8.463023430E+00  0.000000000E+00  0.00000E+00  9.000E+00
      21    -1     0     0   512   503  0.000000000E+00  0.000000000E+00 -8.603131477E+02  8.603131477E+02  0.000000000E+00  0.00000E+00  9.000E+00
      25     1     1     2     0     0  1.154650150E+01 -1.139602862E+01 -5.128287205E+02  5.280900169E+02  1.249903124E+02  0.00000E+00  9.000E+00
       5     1     1     2   501     0 -1.200278326E+01  9.946697184E+00 -1.589338889E+02  1.597671654E+02  4.750000000E+00  0.00000E+00  9.000E+00
      -5     1     1     2     0   503 -6.928395613E+00 -1.344993456E+00 -6.394943123E+01  6.451281987E+01  4.750000000E+00  0.00000E+00  9.000E+00
      21     1     1     2   512   502  7.384677372E+00  2.794324887E+00 -1.161380837E+02  1.164061691E+02  1.348699152E-06  0.00000E+00  9.000E+00
#rwgt            1           9   2.0395226494150805E-004           2     2835225           0
</event>
<event>
      6   9999  3.45752E-01  1.02171E+01 -1.00000E+00  1.86216E-01
      21    -1     0     0   501   502  0.000000000E+00  0.000000000E+00  3.302446846E+03  3.302446846E+03  0.000000000E+00  0.00000E+00  9.000E+00
      21    -1     0     0   511   503  0.000000000E+00  0.000000000E+00 -3.657313510E+01  3.657313510E+01  0.000000000E+00  0.00000E+00  9.000E+00
      25     1     1     2     0     0  1.162616180E+02  8.926929975E+01  2.518772939E+03  2.526128759E+03  1.249944592E+02  0.00000E+00  9.000E+00
       5     1     1     2   501     0 -6.649607846E-01  1.724548322E+00  6.148028337E+02  6.148239610E+02  4.750000000E+00  0.00000E+00  9.000E+00
      -5     1     1     2     0   503 -1.065131669E+02 -8.631621705E+01  1.226104178E+02  1.839875569E+02  4.750000000E+00  0.00000E+00  9.000E+00
      21     1     1     2   511   502 -9.083490305E+00 -4.677631024E+00  9.687520127E+00  1.407970434E+01  4.298152060E-07  0.00000E+00  9.000E+00
#rwgt            1           9   1.5616416989966571E-004           2     2838039           0
</event>
<event>
      6   9999  3.45752E-01  2.18157E+02 -1.00000E+00  1.07604E-01
       1    -1     0     0   501     0  0.000000000E+00  0.000000000E+00  3.802881033E+01  3.802881033E+01  0.000000000E+00  0.00000E+00  9.000E+00
      21    -1     0     0   512   502  0.000000000E+00  0.000000000E+00 -2.412706229E+03  2.412706229E+03  0.000000000E+00  0.00000E+00  9.000E+00
      25     1     1     2     0     0  1.326629286E+02 -1.349500297E+01 -6.857262681E+02  7.096668929E+02  1.250000653E+02  0.00000E+00  9.000E+00
       5     1     1     2   501     0  5.590788333E+01 -1.879230702E+01 -4.579642640E+01  7.482457746E+01  4.750000000E+00  0.00000E+00  9.000E+00
      -5     1     1     2     0   502  1.586574368E+01 -4.385957740E+01 -5.192176077E+02  5.213299061E+02  4.750000000E+00  0.00000E+00  9.000E+00
       1     1     1     2   512     0 -2.044365556E+02  7.614688739E+01 -1.123937117E+03  1.144913663E+03  1.525878906E-05  0.00000E+00  9.000E+00
#rwgt            1           2   8.4702228830653993E-006           2     2842495           0
</event>
<event>
      6   9999  3.45752E-01  2.04953E+01 -1.00000E+00  1.59404E-01
      21    -1     0     0   511   502  0.000000000E+00  0.000000000E+00  8.822998615E+01  8.822998615E+01  0.000000000E+00  0.00000E+00  9.000E+00
       2    -1     0     0   501     0  0.000000000E+00  0.000000000E+00 -1.259740862E+03  1.259740862E+03  0.000000000E+00  0.00000E+00  9.000E+00
      25     1     1     2     0     0 -4.658433437E+00  1.154985545E+02 -2.979100998E+02  3.431263815E+02  1.249946759E+02  0.00000E+00  9.000E+00
       5     1     1     2   501     0  1.525903809E+01  2.673473281E+01 -3.493894484E+02  3.507750467E+02  4.750000000E+00  0.00000E+00  9.000E+00
      -5     1     1     2     0   502  5.064940777E+00 -1.290178844E+02 -5.802183660E+02  5.944301328E+02  4.750000000E+00  0.00000E+00  9.000E+00
       2     1     1     2   511     0 -1.566554543E+01 -1.321540293E+01  5.600703854E+01  5.963928701E+01  0.000000000E+00  0.00000E+00  9.000E+00
#rwgt            1           3   2.4298372536244624E-003           2     2842818           0
</event>
<event>
      6   9999 -3.45752E-01  8.15113E+00 -1.00000E+00  1.97058E-01
      21    -1     0     0   512   502  0.000000000E+00  0.000000000E+00  2.032560054E+01  2.032560054E+01  0.000000000E+00  0.00000E+00  9.000E+00
      21    -1     0     0   502   503  0.000000000E+00  0.000000000E+00 -9.963699689E+02  9.963699689E+02  0.000000000E+00  0.00000E+00  9.000E+00
      25     1     1     2     0     0 -2.470721735E+01  4.897634140E-01 -9.553809871E+02  9.638407236E+02  1.250016943E+02  0.00000E+00  9.000E+00
       5     1     1     2   501     0  5.490383889E-02  2.051603085E+00  8.773277720E+00  1.018552854E+01  4.750000000E+00  0.00000E+00  9.000E+00
      -5     1     1     2     0   503  1.941491867E+01  3.704479238E+00 -1.247458196E+01  2.385036537E+01  4.750000000E+00  0.00000E+00  9.000E+00
      21     1     1     2   512   501  5.237394845E+00 -6.245845737E+00 -1.696207708E+01  1.881895195E+01  2.384185791E-07  0.00000E+00  9.000E+00
#rwgt            1           9  -3.0869611562206960E-004           2     2846631           0
</event>
<event>
      6   9999 -3.45752E-01  4.82068E+00 -1.00000E+00  2.32188E-01
      21    -1     0     0   502   503  0.000000000E+00  0.000000000E+00  7.492477697E+00  7.492477697E+00  0.000000000E+00  0.00000E+00  9.000E+00
      21    -1     0     0   501   511  0.000000000E+00  0.000000000E+00 -9.045757718E+02  9.045757718E+02  0.000000000E+00  0.00000E+00  9.000E+00
      25     1     1     2     0     0 -1.194251790E+01  7.271127101E+00 -5.766706507E+02  5.902261346E+02  1.249894299E+02  0.00000E+00  9.000E+00
       5     1     1     2   501     0 -2.086532568E-01  2.176650165E-01 -6.347059556E+01  6.364880136E+01  4.750000000E+00  0.00000E+00  9.000E+00
      -5     1     1     2     0   503  1.149811869E+01 -2.712552594E+00 -6.752965987E+01  6.871959063E+01  4.750000000E+00  0.00000E+00  9.000E+00
      21     1     1     2   502   511  6.530524720E-01 -4.776239523E+00 -1.894123879E+02  1.894737228E+02  2.697398305E-06  0.00000E+00  9.000E+00
#rwgt            1           9  -2.2778424210829254E-003           2     2850016           0
</event>
<event>
      6   9999  3.45752E-01  5.84523E+00 -1.00000E+00  2.15651E-01
      21    -1     0     0   501   502  0.000000000E+00  0.000000000E+00  1.311369118E+03  1.311369118E+03  0.000000000E+00  0.00000E+00  9.000E+00
      21    -1     0     0   512   503  0.000000000E+00  0.000000000E+00 -9.799646656E+00  9.799646656E+00  0.000000000E+00  0.00000E+00  9.000E+00
      25     1     1     2     0     0  2.199812604E+01  2.323071288E+00  5.343547397E+02  5.492259001E+02  1.249991492E+02  0.00000E+00  9.000E+00
       5     1     1     2   501     0  5.406802703E-01 -1.178544699E+00  2.926094897E+02  2.926509136E+02  4.750000000E+00  0.00000E+00  9.000E+00
      -5     1     1     2     0   503 -2.613471587E+01 -5.752797144E+00  4.721832589E+02  4.729648090E+02  4.750000000E+00  0.00000E+00  9.000E+00
      21     1     1     2   512   502  3.595909558E+00  4.608270555E+00  2.421983060E+00  6.327141930E+00  4.214684851E-07  0.00000E+00  9.000E+00
#rwgt            1           9   1.5751496760598509E-004           2     2854409           0
</event>
<event>
      6   9999  3.45752E-01  1.62076E+01 -1.00000E+00  1.67508E-01
      21    -1     0     0   501   511  0.000000000E+00  0.000000000E+00  6.589260656E+01  6.589260656E+01  0.000000000E+00  0.00000E+00  9.000E+00
      21    -1     0     0   502   503  0.000000000E+00  0.000000000E+00 -1.374894563E+03  1.374894563E+03  0.000000000E+00  0.00000E+00  9.000E+00
      25     1     1     2     0     0  1.996352873E+01 -5.168593601E+01 -4.221485470E+01  1.431096446E+02  1.250131911E+02  0.00000E+00  9.000E+00
       5     1     1     2   501     0  3.891176812E+00 -1.607983212E-01  1.172573211E+01  1.323716007E+01  4.750000000E+00  0.00000E+00  9.000E+00
      -5     1     1     2     0   503 -1.220709528E+01  4.057650102E+01 -1.255875705E+03  1.256599305E+03  4.750000000E+00  0.00000E+00  9.000E+00
      21     1     1     2   502   511 -1.164761027E+01  1.127023331E+01 -2.263712853E+01  2.784105911E+01  4.768371582E-07  0.00000E+00  9.000E+00
#rwgt            1           9   7.9857512611440252E-005           2     2857975           0
</event>
<event>
      6   9999  3.45752E-01  9.54900E+00 -1.00000E+00  1.89330E-01
      21    -1     0     0   501   502  0.000000000E+00  0.000000000E+00  1.202305441E+01  1.202305441E+01  0.000000000E+00  0.00000E+00  9.000E+00
      21    -1     0     0   512   503  0.000000000E+00  0.000000000E+00 -9.481149372E+02  9.481149372E+02  0.000000000E+00  0.00000E+00  9.000E+00
      25     1     1     2     0     0 -1.126789841E+01 -7.371549263E-01 -8.078655060E+02  8.175573006E+02  1.250030197E+02  0.00000E+00  9.000E+00
       5     1     1     2   501     0 -2.072340994E+00  4.416341202E+00  4.332083414E+00  8.070199100E+00  4.750000000E+00  0.00000E+00  9.000E+00
      -5     1     1     2     0   503  5.491657615E+00  1.759862043E+00 -1.713792497E+01  1.869562489E+01  4.750000000E+00  0.00000E+00  9.000E+00
      21     1     1     2   512   502  7.848581790E+00 -5.439048319E+00 -1.154205352E+02  1.158148671E+02  0.000000000E+00  0.00000E+00  9.000E+00
#rwgt            1           9   1.7144071718639190E-004           2     2861260           0
</event>
<event>
      6   9999 -3.45752E-01  9.03962E+00 -1.00000E+00  1.91934E-01
      21    -1     0     0   501   511  0.000000000E+00  0.000000000E+00  1.148926087E+02  1.148926087E+02  0.000000000E+00  0.00000E+00  9.000E+00
      21    -1     0     0   502   503  0.000000000E+00  0.000000000E+00 -9.822757555E+02  9.822757555E+02  0.000000000E+00  0.00000E+00  9.000E+00
      25     1     1     2     0     0  4.561739371E+01  2.032521493E+01 -9.558982391E+02  9.653291706E+02  1.249996126E+02  0.00000E+00  9.000E+00
       5     1     1     2   501     0 -1.257858665E+00  3.872540127E+00  6.550402592E+01  6.580211765E+01  4.750000000E+00  0.00000E+00  9.000E+00
      -5     1     1     2     0   503 -3.549643620E+01 -2.242008246E+01  3.221822874E+01  5.313411187E+01  4.750000000E+00  0.00000E+00  9.000E+00
      21     1     1     2   502   511 -8.863098844E+00 -1.777672603E+00 -9.207162453E+00  1.290296406E+01  1.192092896E-07  0.00000E+00  9.000E+00
#rwgt            1           9  -1.0076085350431420E-002           2     2863957           0
</event>
<event>
      6   9999  3.45752E-01  1.41484E+01 -1.00000E+00  1.72601E-01
      21    -1     0     0   501   502  0.000000000E+00  0.000000000E+00  5.812270545E+00  5.812270545E+00  0.000000000E+00  0.00000E+00  9.000E+00
       2    -1     0     0   502     0  0.000000000E+00  0.000000000E+00 -1.721618561E+03  1.721618561E+03  0.000000000E+00  0.00000E+00  9.000E+00
      25     1     1     2     0     0  5.354598490E+00  1.128746093E+01 -8.008345342E+02  8.106275097E+02  1.249997189E+02  0.00000E+00  9.000E+00
       5     1     1     2   501     0 -2.943941745E-01  2.813289221E-01 -9.469155064E+00  1.060156647E+01  4.750000000E+00  0.00000E+00  9.000E+00
      -5     1     1     2     0   503 -1.571518956E+01 -2.260291265E+00 -2.511262749E+02  2.516724946E+02  4.750000000E+00  0.00000E+00  9.000E+00
       2     1     1     2   503     0  1.065498525E+01 -9.308498586E+00 -6.543763264E+02  6.545292609E+02  7.629394531E-06  0.00000E+00  9.000E+00
#rwgt            1           9   1.2879059712038832E-002           2     2868666           0
</event>
<event>
      6   9999 -3.45752E-01  1.53759E+01 -1.00000E+00  1.69445E-01
      21    -1     0     0   511   502  0.000000000E+00  0.000000000E+00  1.957499369E+01  1.957499369E+01  0.000000000E+00  0.00000E+00  9.000E+00
      21    -1     0     0   502   503  0.000000000E+00  0.000000000E+00 -9.345148450E+02  9.345148450E+02  0.000000000E+00  0.00000E+00  9.000E+00
      25     1     1     2     0     0 -4.744720923E+01 -9.483122105E+00 -5.973400038E+02  6.121941851E+02  1.250018915E+02  0.00000E+00  9.000E+00
       5     1     1     2   501     0  1.964378881E+00 -5.138879888E+00  5.928324725E+00  9.379467199E+00  4.750000000E+00  0.00000E+00  9.000E+00
      -5     1     1     2     0   503  5.144940426E+01  4.509370287E-01 -2.999473048E+02  3.043652292E+02  4.750000000E+00  0.00000E+00  9.000E+00
      21     1     1     2   511   501 -5.966573903E+00  1.417106496E+01 -2.358086748E+01  2.815095731E+01  0.000000000E+00  0.00000E+00  9.000E+00
#rwgt            1           9  -4.5586094453844452E-005           2     2870237           0
</event>
<event>
      6   9999  3.45752E-01  1.04162E+01 -1.00000E+00  1.85348E-01
      21    -1     0     0   502   512  0.000000000E+00  0.000000000E+00  4.802390452E+02  4.802390452E+02  0.000000000E+00  0.00000E+00  9.000E+00
      21    -1     0     0   501   502  0.000000000E+00  0.000000000E+00 -9.856831210E+02  9.856831210E+02  0.000000000E+00  0.00000E+00  9.000E+00
      25     1     1     2     0     0  2.811060522E+01 -8.552142092E+00 -1.492663416E+02  1.968969744E+02  1.249985301E+02  0.00000E+00  9.000E+00
       5     1     1     2   501     0 -3.804029338E+01 -2.032190968E+01 -6.449165043E+02  6.463744301E+02  4.750000000E+00  0.00000E+00  9.000E+00
      -5     1     1     2     0   503  1.666651345E+00  2.253223410E+01 -1.660979065E+02  1.676948310E+02  4.750000000E+00  0.00000E+00  9.000E+00
      21     1     1     2   503   512  8.263036811E+00  6.341817668E+00  4.548366766E+02  4.549559306E+02  9.344061824E-06  0.00000E+00  9.000E+00
#rwgt            1           9   7.4364169673880016E-005           2     2872089           0
</event>
<event>
      6   9999  3.45752E-01  3.44919E+01 -1.00000E+00  1.44022E-01
      21    -1     0     0   501   502  0.000000000E+00  0.000000000E+00  1.204385212E+03  1.204385212E+03  0.000000000E+00  0.00000E+00  9.000E+00
      21    -1     0     0   511   503  0.000000000E+00  0.000000000E+00 -1.555556802E+02  1.555556802E+02  0.000000000E+00  0.00000E+00  9.000E+00
      25     1     1     2     0     0  3.164155338E+01 -1.622051254E+02  1.581643385E+02  2.606777579E+02  1.250009795E+02  0.00000E+00  9.000E+00
       5     1     1     2   501     0  1.192350669E+00 -2.169208119E+00  1.158705285E+02  1.159942630E+02  4.750000000E+00  0.00000E+00  9.000E+00
      -5     1     1     2     0   503 -3.440138784E+00  1.463271750E+02  8.698800029E+02  8.821208866E+02  4.750000000E+00  0.00000E+00  9.000E+00
      21     1     1     2   511   502 -2.939376527E+01  1.804715853E+01 -9.508533785E+01  1.011479849E+02  2.697398305E-06  0.00000E+00  9.000E+00
#rwgt            1           9   2.8886982743315571E-004           2     2875847           0
</event>
<event>
      6   9999 -3.45752E-01  8.53873E+00 -1.00000E+00  1.94722E-01
      21    -1     0     0   501   512  0.000000000E+00  0.000000000E+00  4.288820737E+01  4.288820737E+01  0.000000000E+00  0.00000E+00  9.000E+00
      21    -1     0     0   502   503  0.000000000E+00  0.000000000E+00 -1.180312028E+03  1.180312028E+03  0.000000000E+00  0.00000E+00  9.000E+00
      25     1     1     2     0     0  3.967673158E+01  4.584405421E-01 -1.149458030E+03  1.156914260E+03  1.249895631E+02  0.00000E+00  9.000E+00
       5     1     1     2   501     0 -2.084987094E+00 -5.087959885E+00  2.207397742E+01  2.323913695E+01  4.750000000E+00  0.00000E+00  9.000E+00
      -5     1     1     2     0   503 -3.198587387E+01 -1.811298511E+00 -1.153109313E+01  3.437885306E+01  4.750000000E+00  0.00000E+00  9.000E+00
      21     1     1     2   502   512 -5.605870624E+00  6.440817855E+00  1.491324387E+00  8.667985263E+00  1.154238983E-07  0.00000E+00  9.000E+00
#rwgt            1           9  -4.0464628808396319E-003           2     2877729           0
</event>
<event>
      6   9999  3.45752E-01  3.20385E+00 -1.00000E+00  2.69652E-01
      21    -1     0     0   501   511  0.000000000E+00  0.000000000E+00  2.199818118E+01  2.199818118E+01  0.000000000E+00  0.00000E+00  9.000E+00
      21    -1     0     0   502   503  0.000000000E+00  0.000000000E+00 -8.820059649E+02  8.820059649E+02  0.000000000E+00  0.00000E+00  9.000E+00
      25     1     1     2     0     0  5.769773885E+00 -3.512374753E+00 -8.234787721E+02  8.329396975E+02  1.250024981E+02  0.00000E+00  9.000E+00
       5     1     1     2   501     0 -2.698538997E+00 -1.369581925E+00  8.276799667E+00  1.001128264E+01  4.750000000E+00  0.00000E+00  9.000E+00
      -5     1     1     2     0   503  9.626671703E-02  4.400745849E+00 -5.240635235E+01  5.280496281E+01  4.750000000E+00  0.00000E+00  9.000E+00
      21     1     1     2   502   511 -3.167501605E+00  4.812108292E-01  7.600541057E+00  8.248203116E+00  3.769728732E-07  0.00000E+00  9.000E+00
#rwgt            1           9   5.2219187866079202E-003           2     2881771           0
</event>
<event>
      6   9999  3.45752E-01  8.76601E+00 -1.00000E+00  1.93427E-01
      21    -1     0     0   501   502  0.000000000E+00  0.000000000E+00  1.911132138E+01  1.911132138E+01  0.000000000E+00  0.00000E+00  9.000E+00
      21    -1     0     0   512   503  0.000000000E+00  0.000000000E+00 -4.177702543E+03  4.177702543E+03  0.000000000E+00  0.00000E+00  9.000E+00
      25     1     1     2     0     0 -1.280916975E+02 -6.909695460E+00 -4.965537509E+02  5.278703631E+02  1.250050632E+02  0.00000E+00  9.000E+00
       5     1     1     2   501     0 -4.829484173E-01 -1.091237691E+00 -2.679607718E-01  4.904930361E+00  4.750000000E+00  0.00000E+00  9.000E+00
      -5     1     1     2     0   503  1.198100679E+02  7.842477416E+00 -3.406795164E+03  3.408913582E+03  4.750000000E+00  0.00000E+00  9.000E+00
      21     1     1     2   512   502  8.764578004E+00  1.584557352E-01 -2.549743468E+02  2.551249898E+02  2.697398305E-06  0.00000E+00  9.000E+00
#rwgt            1           9   9.8307229087948381E-003           2     2888050           0
</event>
<event>
      6   9999  3.45752E-01  3.05433E+01 -1.00000E+00  1.47336E-01
      21    -1     0     0   502   503  0.000000000E+00  0.000000000E+00  9.559010966E+00  9.559010966E+00  0.000000000E+00  0.00000E+00  9.000E+00
      21    -1     0     0   511   502  0.000000000E+00  0.000000000E+00 -1.773437748E+03  1.773437748E+03  0.000000000E+00  0.00000E+00  9.000E+00
      25     1     1     2     0     0  6.714248561E+00 -2.339781042E+01 -5.537331916E+02  5.681892260E+02  1.250040417E+02  0.00000E+00  9.000E+00
       5     1     1     2   501     0 -6.730264686E+00  1.680412076E+01 -1.195594128E+02  1.210152495E+02  4.750000000E+00  0.00000E+00  9.000E+00
      -5     1     1     2     0   503 -1.309427631E+01 -2.099281808E+01 -1.149633543E+02  1.176915197E+02  4.750000000E+00  0.00000E+00  9.000E+00
      21     1     1     2   511   501  1.311029243E+01  2.758650774E+01 -9.756227781E+02  9.761007634E+02  1.868812365E-05  0.00000E+00  9.000E+00
#rwgt            1           9   9.3484834128372968E-003           2     2893218           0
</event>
<event>
      6   9999  3.45752E-01  1.86762E+01 -1.00000E+00  1.62514E-01
      21    -1     0     0   501   502  0.000000000E+00  0.000000000E+00  1.550541453E+01  1.550541453E+01  0.000000000E+00  0.00000E+00  9.000E+00
      21    -1     0     0   512   503  0.000000000E+00  0.000000000E+00 -1.063822158E+03  1.063822158E+03  0.000000000E+00  0.00000E+00  9.000E+00
      25     1     1     2     0     0 -2.259701800E+01  6.534881521E+01 -4.942715437E+02  5.144998056E+02  1.249983929E+02  0.00000E+00  9.000E+00
       5     1     1     2   501     0 -1.979859639E+00  6.583235065E-01  2.999449858E-01  5.196700975E+00  4.750000000E+00  0.00000E+00  9.000E+00
      -5     1     1     2     0   503  8.447603372E+00 -5.659196258E+01 -3.847029961E+02  3.889639700E+02  4.750000000E+00  0.00000E+00  9.000E+00
      21     1     1     2   512   502  1.612927427E+01 -9.415176133E+00 -1.696421482E+02  1.706670955E+02  0.000000000E+00  0.00000E+00  9.000E+00
#rwgt            1           9   7.5178603925510311E-003           2     2894197           0
</event>
<event>
      6   9999  3.45752E-01  3.75911E+01 -1.00000E+00  1.41768E-01
      21    -1     0     0   501   511  0.000000000E+00  0.000000000E+00  7.736587032E+01  7.736587032E+01  0.000000000E+00  0.00000E+00  9.000E+00
      21    -1     0     0   502   503  0.000000000E+00  0.000000000E+00 -1.314293698E+03  1.314293698E+03  0.000000000E+00  0.00000E+00  9.000E+00
      25     1     1     2     0     0 -1.869002796E+01  5.333411649E+01 -1.213487703E+03  1.221215947E+03  1.249885488E+02  0.00000E+00  9.000E+00
       5     1     1     2   501     0  3.400355455E+01 -8.226822316E+01 -9.364383346E+00  8.963568731E+01  4.750000000E+00  0.00000E+00  9.000E+00
      -5     1     1     2     0   503  9.474595290E+00  6.738617109E-01 -3.583353481E+01  3.737414564E+01  4.750000000E+00  0.00000E+00  9.000E+00
      21     1     1     2   502   511 -2.478812188E+01  2.826024496E+01  2.175779358E+01  4.343378884E+01  2.050954167E-06  0.00000E+00  9.000E+00
#rwgt            1           9   1.7747101889738848E-005           2     2895978           0
</event>
<event>
      6   9999  3.45752E-01  1.23681E+01 -1.00000E+00  1.77968E-01
      21    -1     0     0   512   502  0.000000000E+00  0.000000000E+00  4.719502034E+03  4.719502034E+03  0.000000000E+00  0.00000E+00  9.000E+00
      21    -1     0     0   502   503  0.000000000E+00  0.000000000E+00 -3.448674493E+01  3.448674493E+01  0.000000000E+00  0.00000E+00  9.000E+00
      25     1     1     2     0     0 -1.457551282E+01 -1.414021273E+01  1.182364964E+02  1.732309821E+02  1.249668472E+02  0.00000E+00  9.000E+00
       5     1     1     2   501     0  1.474388711E+01 -4.101128454E+00  4.156901418E+03  4.156932302E+03  4.750000000E+00  0.00000E+00  9.000E+00
      -5     1     1     2     0   503  1.216791489E+01  1.735533756E+01  1.027057364E+01  2.402734021E+01  4.750000000E+00  0.00000E+00  9.000E+00
      21     1     1     2   512   501 -1.233628918E+01  8.860036289E-01  3.996068018E+02  3.997981554E+02  5.394796609E-06  0.00000E+00  9.000E+00
#rwgt            1           9   4.0594267491936628E-004           2     2897664           0
</event>
<event>
      6   9999  3.45752E-01  1.77973E+01 -1.00000E+00  1.64177E-01
      21    -1     0     0   501   502  0.000000000E+00  0.000000000E+00  2.122952656E+01  2.122952656E+01  0.000000000E+00  0.00000E+00  9.000E+00
       2    -1     0     0   502     0  0.000000000E+00  0.000000000E+00 -1.988077132E+03  1.988077132E+03  0.000000000E+00  0.00000E+00  9.000E+00
      25     1     1     2     0     0  2.943853919E+01  4.836002743E+01 -4.927406196E+02  5.114869159E+02  1.249809070E+02  0.00000E+00  9.000E+00
       5     1     1     2   501     0 -7.790595967E-01  2.038100065E+00  9.461158301E+00  1.080910737E+01  4.750000000E+00  0.00000E+00  9.000E+00
      -5     1     1     2     0   503 -4.215486403E+01 -3.879564279E+01 -5.019448654E+02  5.052260334E+02  4.750000000E+00  0.00000E+00  9.000E+00
       2     1     1     2   503     0  1.349538443E+01 -1.160248470E+01 -9.816232783E+02  9.817846014E+02  1.078959322E-05  0.00000E+00  9.000E+00
#rwgt            1           9   4.6189089375226622E-004           2     2901689           0
</event>
<event>
      6   9999 -3.45752E-01  3.04216E+00 -1.00000E+00  2.75336E-01
      21    -1     0     0   501   502  0.000000000E+00  0.000000000E+00  1.311250876E+03  1.311250876E+03  0.000000000E+00  0.00000E+00  9.000E+00
      21    -1     0     0   511   503  0.000000000E+00  0.000000000E+00 -1.805171456E+01  1.805171456E+01  0.000000000E+00  0.00000E+00  9.000E+00
      25     1     1     2     0     0 -7.383321880E+01 -2.428104692E+01  6.034007075E+02  6.210945521E+02  1.250004614E+02  0.00000E+00  9.000E+00
       5     1     1     2   501     0  2.452870996E+00  1.238372415E+00  4.772391921E+02  4.772707398E+02  4.750000000E+00  0.00000E+00  9.000E+00
      -5     1     1     2     0   503  7.338626355E+01  2.075552871E+01  2.142417895E+02  2.274608593E+02  4.750000000E+00  0.00000E+00  9.000E+00
      21     1     1     2   511   502 -2.005915755E+00  2.287145796E+00 -1.682527389E+00  3.476439604E+00  2.747638362E-07  0.00000E+00  9.000E+00
#rwgt            1           9  -19.066734987396050                2     2904164           0
</event>
<event>
      6   9999  3.45752E-01  1.34762E+01 -1.00000E+00  1.74504E-01
      21    -1     0     0   501   502  0.000000000E+00  0.000000000E+00  1.708438588E+01  1.708438588E+01  0.000000000E+00  0.00000E+00  9.000E+00
       1    -1     0     0   502     0  0.000000000E+00  0.000000000E+00 -9.689537338E+02  9.689537338E+02  0.000000000E+00  0.00000E+00  9.000E+00
      25     1     1     2     0     0  3.723215382E+00  5.167708961E+00 -2.447628364E+02  2.749086687E+02  1.250014500E+02  0.00000E+00  9.000E+00
       5     1     1     2   501     0  3.201488191E-01  7.153578941E-01 -2.390411390E+00  5.375016167E+00  4.750000000E+00  0.00000E+00  9.000E+00
      -5     1     1     2     0   503  5.343264323E+00  3.786476278E+00 -3.580532983E+01  3.670792858E+01  4.750000000E+00  0.00000E+00  9.000E+00
       1     1     1     2   503     0 -9.386628523E+00 -9.669543132E+00 -6.689107703E+02  6.690465062E+02  7.629394531E-06  0.00000E+00  9.000E+00
#rwgt            1           9   4.6572709517207246E-003           2     2910513           0
</event>
<event>
      6   9999  3.45752E-01  4.63763E+01 -1.00000E+00  1.36559E-01
      21    -1     0     0   511   502  0.000000000E+00  0.000000000E+00  8.522782956E+00  8.522782956E+00  0.000000000E+00  0.00000E+00  9.000E+00
      21    -1     0     0   502   503  0.000000000E+00  0.000000000E+00 -3.380853454E+03  3.380853454E+03  0.000000000E+00  0.00000E+00  9.000E+00
      25     1     1     2     0     0 -1.599599477E+01 -4.023888334E+01 -3.252297653E+03  3.254986898E+03  1.249985658E+02  0.00000E+00  9.000E+00
       5     1     1     2   501     0 -2.027974993E+00 -3.197598062E+00 -2.444199719E+01  2.518553241E+01  4.750000000E+00  0.00000E+00  9.000E+00
      -5     1     1     2     0   503 -1.829222661E+00  1.524556802E+00 -1.840777487E+01  1.915930596E+01  4.750000000E+00  0.00000E+00  9.000E+00
      21     1     1     2   511   501  1.985319243E+01  4.191192460E+01 -7.718324626E+01  9.004450109E+01  1.348699152E-06  0.00000E+00  9.000E+00
#rwgt            1           9   2.1973479671238567E-004           2     2912011           0
</event>
<event>
      6   9999  3.45752E-01  1.32317E+01 -1.00000E+00  1.75232E-01
      21    -1     0     0   501   502  0.000000000E+00  0.000000000E+00  4.165364298E+02  4.165364298E+02  0.000000000E+00  0.00000E+00  9.000E+00
      21    -1     0     0   512   503  0.000000000E+00  0.000000000E+00 -9.509842782E+01  9.509842782E+01  0.000000000E+00  0.00000E+00  9.000E+00
      25     1     1     2     0     0 -9.738315316E+00  1.529574935E+01 -1.783584126E+01  1.275585849E+02  1.249971224E+02  0.00000E+00  9.000E+00
       5     1     1     2   501     0 -4.746772201E-01 -3.920757957E+00  3.567543234E+02  3.568078018E+02  4.750000000E+00  0.00000E+00  9.000E+00
      -5     1     1     2     0   503 -1.294006937E+00 -4.843087510E+00 -2.659278344E+00  7.400284582E+00  4.750000000E+00  0.00000E+00  9.000E+00
      21     1     1     2   512   502  1.150699947E+01 -6.531903878E+00 -1.482120183E+01  1.986818635E+01  2.920019320E-07  0.00000E+00  9.000E+00
#rwgt            1           9   4.6591785407361377E-002           2     2912491           0
</event>
<event>
      6   9999  3.45752E-01  9.82896E+00 -1.00000E+00  1.87986E-01
      21    -1     0     0   501   511  0.000000000E+00  0.000000000E+00  1.459768101E+01  1.459768101E+01  0.000000000E+00  0.00000E+00  9.000E+00
      21    -1     0     0   502   503  0.000000000E+00  0.000000000E+00 -7.699292783E+02  7.699292783E+02  0.000000000E+00  0.00000E+00  9.000E+00
      25     1     1     2     0     0 -3.272706791E+01 -1.367990051E+01 -5.756125138E+02  5.900962254E+02  1.250023541E+02  0.00000E+00  9.000E+00
       5     1     1     2   501     0  1.859819197E+01  2.000230232E+01 -1.251793424E+02  1.282123829E+02  4.750000000E+00  0.00000E+00  9.000E+00
      -5     1     1     2     0   503  7.312016455E+00  7.584753046E-01 -5.564348098E+01  5.632761618E+01  4.750000000E+00  0.00000E+00  9.000E+00
      21     1     1     2   502   511  6.816859484E+00 -7.080877112E+00  1.103739959E+00  9.890734846E+00  5.761568227E-07  0.00000E+00  9.000E+00
#rwgt            1           9   1.3821385493770638E-003           2     2914818           0
</event>
<event>
      6   9999  3.45752E-01  1.67458E+01 -1.00000E+00  1.66329E-01
       2    -1     0     0   501     0  0.000000000E+00  0.000000000E+00  4.179620643E+03  4.179620643E+03  0.000000000E+00  0.00000E+00  9.000E+00
      21    -1     0     0   502   503  0.000000000E+00  0.000000000E+00 -3.891910004E+00  3.891910004E+00  0.000000000E+00  0.00000E+00  9.000E+00
      25     1     1     2     0     0  1.244051227E+00 -2.713861232E+01  1.434801039E+03  1.440491928E+03  1.249996916E+02  0.00000E+00  9.000E+00
       5     1     1     2   501     0 -7.418999240E-01 -1.270122308E+00  1.519755931E+03  1.519764066E+03  4.750000000E+00  0.00000E+00  9.000E+00
      -5     1     1     2     0   503 -1.181101689E+01  1.605835173E+01  1.061982782E+02  1.081573279E+02  4.750000000E+00  0.00000E+00  9.000E+00
       2     1     1     2   502     0  1.130886558E+01  1.235038290E+01  1.114973485E+03  1.115099230E+03  2.157918644E-05  0.00000E+00  9.000E+00
#rwgt            1           9   2.7947726353143841E-004           2     2917391           0
</event>
<event>
      6   9999  3.45752E-01  1.55394E+01 -1.00000E+00  1.69052E-01
      21    -1     0     0   511   502  0.000000000E+00  0.000000000E+00  2.081119945E+01  2.081119945E+01  0.000000000E+00  0.00000E+00  9.000E+00
      21    -1     0     0   502   503  0.000000000E+00  0.000000000E+00 -1.042116768E+03  1.042116768E+03  0.000000000E+00  0.00000E+00  9.000E+00
      25     1     1     2     0     0 -6.209705370E+01  7.752939017E+01 -7.079725465E+02  7.257527433E+02  1.250002699E+02  0.00000E+00  9.000E+00
       5     1     1     2   501     0  2.304361615E+01 -8.126145656E+00 -2.270046810E+01  3.368851793E+01  4.750000000E+00  0.00000E+00  9.000E+00
      -5     1     1     2     0   503  2.369994039E+01 -6.700686400E+01 -2.511419595E+02  2.610487566E+02  4.750000000E+00  0.00000E+00  9.000E+00
      21     1     1     2   511   501  1.535349715E+01 -2.396380518E+00 -3.949059466E+01  4.243794977E+01  6.743495762E-07  0.00000E+00  9.000E+00
#rwgt            1           9  0.30406799061257056                2     2919534           0
</event>
<event>
      6   9999  3.45752E-01  7.75097E+00 -1.00000E+00  1.99655E-01
      21    -1     0     0   501   502  0.000000000E+00  0.000000000E+00  5.560179542E+01  5.560179542E+01  0.000000000E+00  0.00000E+00  9.000E+00
      21    -1     0     0   502   512  0.000000000E+00  0.000000000E+00 -1.780853892E+02  1.780853892E+02  0.000000000E+00  0.00000E+00  9.000E+00
      25     1     1     2     0     0  7.096662119E+00 -1.103267836E+01 -1.153531209E+02  1.705971734E+02  1.249998819E+02  0.00000E+00  9.000E+00
       5     1     1     2   501     0 -1.173169617E+00 -2.470666884E+00  2.572978921E+01  2.630712973E+01  4.750000000E+00  0.00000E+00  9.000E+00
      -5     1     1     2     0   503 -4.265348140E+00  5.931817948E+00 -1.898351915E+01  2.088818227E+01  4.750000000E+00  0.00000E+00  9.000E+00
      21     1     1     2   503   512 -1.658144361E+00  7.571527301E+00 -1.387674297E+01  1.589469924E+01  1.685873940E-07  0.00000E+00  9.000E+00
#rwgt            1           9   87.208571735395495                2     2921744           0
</event>
<event>
      6   9999  3.45752E-01  8.76338E+00 -1.00000E+00  1.93442E-01
      21    -1     0     0   511   502  0.000000000E+00  0.000000000E+00  2.487682222E+01  2.487682222E+01  0.000000000E+00  0.00000E+00  9.000E+00
      21    -1     0     0   502   503  0.000000000E+00  0.000000000E+00 -1.782555344E+03  1.782555344E+03  0.000000000E+00  0.00000E+00  9.000E+00
      25     1     1     2     0     0 -6.797038808E+01 -1.325048521E+02 -5.622368424E+02  5.949045075E+02  1.249943865E+02  0.00000E+00  9.000E+00
       5     1     1     2   501     0  1.231806562E+01 -6.307393578E+00 -1.249249575E+01  1.923909832E+01  4.750000000E+00  0.00000E+00  9.000E+00
      -5     1     1     2     0   503  6.028626603E+01  1.313742750E+02 -1.154416293E+03  1.163440233E+03  4.750000000E+00  0.00000E+00  9.000E+00
      21     1     1     2   511   501 -4.633943561E+00  7.437970646E+00 -2.853289011E+01  2.984832756E+01  3.371747881E-07  0.00000E+00  9.000E+00
#rwgt            1           9   5.5294814639775557E-002           2     2925202           0
</event>
<event>
      6   9999 -3.45752E-01  1.99914E+01 -1.00000E+00  1.60225E-01
      21    -1     0     0   501   502  0.000000000E+00  0.000000000E+00  2.515681318E+01  2.515681318E+01  0.000000000E+00  0.00000E+00  9.000E+00
      21    -1     0     0   502   512  0.000000000E+00  0.000000000E+00 -9.807806703E+02  9.807806703E+02  0.000000000E+00  0.00000E+00  9.000E+00
      25     1     1     2     0     0  1.466347195E+01  5.201472762E+01 -2.539661453E+02  2.881740497E+02  1.249997226E+02  0.00000E+00  9.000E+00
       5     1     1     2   501     0 -1.515565977E+00 -1.046767552E+00  4.655512835E+00  6.901373943E+00  4.750000000E+00  0.00000E+00  9.000E+00
      -5     1     1     2     0   503 -3.264532637E+01 -4.655119524E+01 -5.983064921E+02  6.010207585E+02  4.750000000E+00  0.00000E+00  9.000E+00
      21     1     1     2   503   512  1.949742040E+01 -4.416764825E+00 -1.080067325E+02  1.098413013E+02  1.348699152E-06  0.00000E+00  9.000E+00
#rwgt            1           9  -3.5080774889695530                2     2929283           0
</event>
<event>
      6   9999  3.45752E-01  4.19607E+00 -1.00000E+00  2.43626E-01
      21    -1     0     0   511   502  0.000000000E+00  0.000000000E+00  1.418167310E+02  1.418167310E+02  0.000000000E+00  0.00000E+00  9.000E+00
      21    -1     0     0   502   503  0.000000000E+00  0.000000000E+00 -7.482060199E+02  7.482060199E+02  0.000000000E+00  0.00000E+00  9.000E+00
      25     1     1     2     0     0 -1.723494156E+01  6.074068983E+00 -4.638069583E+02  4.807036580E+02  1.250006987E+02  0.00000E+00  9.000E+00
       5     1     1     2   501     0  5.740694386E-01 -3.869376090E-02 -4.272393736E+00  6.414585034E+00  4.750000000E+00  0.00000E+00  9.000E+00
      -5     1     1     2     0   503  2.077735969E+01 -5.222031617E+00 -2.701289222E+02  2.710187547E+02  4.750000000E+00  0.00000E+00  9.000E+00
      21     1     1     2   511   501 -4.116487567E+00 -8.133436046E-01  1.318189853E+02  1.318857532E+02  0.000000000E+00  0.00000E+00  9.000E+00
#rwgt            1           9   6.6996712945156878E-003           2     2931215           0
</event>
<event>
      6   9999  3.45752E-01  1.87778E+02 -1.00000E+00  1.09850E-01
      21    -1     0     0   512   502  0.000000000E+00  0.000000000E+00  2.043859384E+02  2.043859384E+02  0.000000000E+00  0.00000E+00  9.000E+00
       3    -1     0     0   501     0  0.000000000E+00  0.000000000E+00 -4.679233231E+02  4.679233231E+02  0.000000000E+00  0.00000E+00  9.000E+00
      25     1     1     2     0     0  4.438154944E+01  1.689262247E+02 -6.991235704E+00  2.148962055E+02  1.250028417E+02  0.00000E+00  9.000E+00
       5     1     1     2   501     0  1.283766634E+00  6.862108424E+00  9.015081651E+00  1.235195474E+01  4.750000000E+00  0.00000E+00  9.000E+00
      -5     1     1     2     0   502 -1.162909741E+01  8.879740433E+00  6.396439976E+01  6.578824085E+01  4.750000000E+00  0.00000E+00  9.000E+00
       3     1     1     2   512     0 -3.403621866E+01 -1.846680735E+02 -3.295256304E+02  3.792728604E+02  5.394796609E-06  0.00000E+00  9.000E+00
#rwgt            1           7   8.8692580705015370E-004           2     2935460           0
</event>
<event>
      6   9999  3.45752E-01  4.93005E+01 -1.00000E+00  1.35116E-01
      21    -1     0     0   502   511  0.000000000E+00  0.000000000E+00  1.693942296E+02  1.693942296E+02  0.000000000E+00  0.00000E+00  9.000E+00
      21    -1     0     0   501   502  0.000000000E+00  0.000000000E+00 -4.697859550E+02  4.697859550E+02  0.000000000E+00  0.00000E+00  9.000E+00
      25     1     1     2     0     0 -3.063585425E+01  3.851097838E+01 -3.095579668E+02  3.374508615E+02  1.250011925E+02  0.00000E+00  9.000E+00
       5     1     1     2   501     0 -7.795426711E+00 -6.770706387E+01 -1.059054771E+02  1.260299479E+02  4.750000000E+00  0.00000E+00  9.000E+00
      -5     1     1     2     0   503  6.915656805E+00 -8.715719725E+00 -2.469146847E+01  2.749583959E+01  4.750000000E+00  0.00000E+00  9.000E+00
      21     1     1     2   503   511  3.151562415E+01  3.791180522E+01  1.397631869E+02  1.482035356E+02  2.697398305E-06  0.00000E+00  9.000E+00
#rwgt            1           9   12.122781288184756                2     2935697           0
</event>
<event>
      6   9999  3.45752E-01  3.33067E+01 -1.00000E+00  1.44959E-01
      21    -1     0     0   512   502  0.000000000E+00  0.000000000E+00  1.632570326E+02  1.632570326E+02  0.000000000E+00  0.00000E+00  9.000E+00
      21    -1     0     0   502   503  0.000000000E+00  0.000000000E+00 -1.292806893E+02  1.292806893E+02  0.000000000E+00  0.00000E+00  9.000E+00
      25     1     1     2     0     0  1.639439830E+01  1.334594124E+01 -8.973538749E+01  1.553601327E+02  1.250497526E+02  0.00000E+00  9.000E+00
       5     1     1     2   501     0  6.258040136E+00  5.175172244E+00  2.677799816E+01  2.838255027E+01  4.750000000E+00  0.00000E+00  9.000E+00
      -5     1     1     2     0   503  1.407497648E+00  4.510537272E+00  4.394698955E-01  6.714285509E+00  4.750000000E+00  0.00000E+00  9.000E+00
      21     1     1     2   512   501 -2.405993608E+01 -2.303165076E+01  9.649426277E+01  1.020807534E+02  1.348699152E-06  0.00000E+00  9.000E+00
#rwgt            1           9   1.8814388700504899E-004           2     2936410           0
</event>
</LesHouchesEvents>
 #Random number generator exit values:            2       2937293             0
