<LesHouchesEvents version="3.0">
<!--
file generated with POWHEG-BOX-V2
Input file powheg.input contained:
numevts 1000    ! number of events to be generated

! Production parameters for ttH production
hmass 125.d0      ! mass of the HIggs boson [GeV]
hwidth 0.00498d0  ! width of the Higgs boson [GeV]

hdecaymode -1    ! -1 no decay
                ! 0 all decay channels open
                ! 1-6 d dbar, u ubar,..., t tbar
                ! 7-9 e+ e-, mu+ mu-, tau+ tau-
                ! 10  W+W-
                ! 11  ZZ
                ! 12  gamma gamma

#pythiatune 320	! PYTHIA tune


ih1   1           ! hadron 1 (1 for protons, -1 for antiprotons)
ih2   1           ! hadron 2 (1 for protons, -1 for antiprotons)
ebeam1 6500d0     ! energy of beam 1
ebeam2 6500d0     ! energy of beam 2

! To be set only if using 'native' pdfs
!ndns1 131         ! pdf set for hadron 1 (mlm numbering)
!ndns2 131         ! pdf set for hadron 2 (mlm numbering)
! To be set only if using LHA pdfs
! 10050 cteq6m
! 10042 cteq6l with LO alphas (corr. to vbfnlo LO set)
! 10041 cteq6l with NLO alphas
! 21000 MSTW2008 LO
! 21100 MSTW2008 NLO
! 23300 MSTW2008 NLO, NF=4
! 11082 CT10 Nf4

lhans1  23300      ! pdf set for hadron 1 (LHA numbering)
lhans2  23300      ! pdf set for hadron 2 (LHA numbering)

#bornktmin 1d0    ! Generation cut; minimum kt in underlying born
#bornsuppfact 1d0 ! (default 0d0) switch for Born suppression factor. If < 0 suppfact = 1
delta_mbbmin 0d0 ! generation cut on mbb (no gencut used, if set to 0)

use-old-grid    1 ! if 1 use old grid if file pwggrids.dat is present (<> 1 regenerate)
use-old-ubound  1 ! if 1 use norm of upper bounding function stored in pwgubound.dat, if present; <>

ncall1  500000  ! number of calls for initializing the integration grid
itmx1    2     ! number of iterations for initializing the integration grid
ncall2  50000  ! number of calls for computing the integral and finding upper bound
itmx2     1     ! number of iterations for computing the integral and finding upper bound
foldcsi   1    ! number of folds on csi integration
foldy     1    ! number of folds on  y  integration
foldphi   1    ! number of folds on phi integration
nubound 10000  ! number of bbarra calls to setup norm of upper bounding function
icsimax  1     ! <= 100, number of csi subdivision when computing the upper bounds
iymax    1     ! <= 100, number of y subdivision when computing the upper bounds
xupbound 2d0   ! increase upper bound for radiation generation

#runningscales 2	   ! default 0 (no running scales); 1,2: use running scales
renscfact 1d0   ! (default 1d0) ren scale factor: muren  = muref * renscfact
facscfact 1d0   ! (default 1d0) fac scale factor: mufact = muref * facscfact
testplots  1       ! (default 0, do not) do NLO and PWHG distributions

#bornonly   1      ! (default 0) if 1 do Born only
#fakevirt   1      ! (default 0) if 1 use Born for virtuals

iseed    2

manyseeds  1       ! Used to perform multiple runs with different random
                   ! seeds in the same directory.
                   ! If set to 1, the program asks for an integer j;
                   ! The file pwgseeds.dat at line j is read, and the
                   ! integer at line j is used to initialize the random
                   ! sequence for the generation of the event.
                   ! The event file is called pwgevents-'j'.lhe

#storeinfo_rwgt 1   ! store info for reweighting events
#compute_rwgt 1   ! store info for reweighting events
#xgriditeration 1   ! identifier for grid generation
#parallelstage  4   ! identifier for parallel running stages


toploop 1	! 1 include top loop effects; 0 disregard top loop effects
msbar  1	! 1 MSbar renormalization; 0 On-Shell renormalization
parallelstage 4
End of powheg.input content
PDF package: lha
 Random number generator initialized with:            1             0             0
-->
<init>
     2212     2212  6.50000E+03  6.50000E+03     -1     -1     -1     -1     -4      1
  3.37328E-01  1.60874E-01  1.00000E+00   9999
</init>
<event>
      6   9999  3.45752E-01  9.44226E+00 -1.00000E+00  1.89858E-01
      21    -1     0     0   501   511  0.000000000E+00  0.000000000E+00  1.059873862E+03  1.059873862E+03  0.000000000E+00  0.00000E+00  9.000E+00
      21    -1     0     0   502   503  0.000000000E+00  0.000000000E+00 -8.794720571E+00  8.794720571E+00  0.000000000E+00  0.00000E+00  9.000E+00
      25     1     1     2     0     0  2.412920439E-01  9.298339030E+00  4.667517419E+02  4.832897955E+02  1.250012820E+02  0.00000E+00  9.000E+00
       5     1     1     2   501     0 -1.203523467E-01 -3.194282252E-01  5.139126234E+01  5.161144121E+01  4.750000000E+00  0.00000E+00  9.000E+00
      -5     1     1     2     0   503 -8.181669059E+00 -1.389632609E+01  2.025912173E+02  2.032875092E+02  4.750000000E+00  0.00000E+00  9.000E+00
      21     1     1     2   502   511  8.060729362E+00  4.917415286E+00  3.303449197E+02  3.304798364E+02  5.394796609E-06  0.00000E+00  9.000E+00
#rwgt            1           9   9.7938665911607360E-005           1         101           0
</event>
<event>
      6   9999 -3.45752E-01  6.14904E+00 -1.00000E+00  2.12584E-01
      21    -1     0     0   512   502  0.000000000E+00  0.000000000E+00  7.369652758E+01  7.369652758E+01  0.000000000E+00  0.00000E+00  9.000E+00
      21    -1     0     0   502   503  0.000000000E+00  0.000000000E+00 -7.302202670E+02  7.302202670E+02  0.000000000E+00  0.00000E+00  9.000E+00
      25     1     1     2     0     0  2.100669292E+01 -3.494804041E+00 -6.386356070E+02  6.514434180E+02  1.267659007E+02  0.00000E+00  9.000E+00
       5     1     1     2   501     0 -2.460823531E+00  5.283093465E+00 -1.628424785E+01  1.793616339E+01  4.750000000E+00  0.00000E+00  9.000E+00
      -5     1     1     2     0   503 -1.242394284E+01 -2.365137491E+00 -6.725516239E+01  6.859859765E+01  4.750000000E+00  0.00000E+00  9.000E+00
      21     1     1     2   512   501 -6.121926557E+00  5.768480667E-01  6.565127781E+01  6.593861552E+01  1.907348633E-06  0.00000E+00  9.000E+00
#rwgt            1           9  -2.8116603017698701E-003           1        2525           0
</event>
<event>
      6   9999  3.45752E-01  9.32567E+00 -1.00000E+00  1.90445E-01
      21    -1     0     0   501   511  0.000000000E+00  0.000000000E+00  1.023460589E+02  1.023460589E+02  0.000000000E+00  0.00000E+00  9.000E+00
      21    -1     0     0   502   503  0.000000000E+00  0.000000000E+00 -7.908267077E+02  7.908267077E+02  0.000000000E+00  0.00000E+00  9.000E+00
      25     1     1     2     0     0  1.281263020E+01  3.790623979E+00 -6.720905543E+02  6.837469662E+02  1.250026729E+02  0.00000E+00  9.000E+00
       5     1     1     2   501     0 -8.956689012E-01  1.411019069E+00  2.233372767E+00  5.508507194E+00  4.750000000E+00  0.00000E+00  9.000E+00
      -5     1     1     2     0   503 -1.125655812E+01  4.100617171E+00 -1.106607985E+02  1.114087070E+02  4.750000000E+00  0.00000E+00  9.000E+00
      21     1     1     2   502   511 -6.604031743E-01 -9.302260219E+00  9.203733124E+01  9.250858619E+01  2.697398305E-06  0.00000E+00  9.000E+00
#rwgt            1           9   2.2602061135879956E-003           1        5216           0
</event>
<event>
      6   9999  3.45752E-01  1.40874E+01 -1.00000E+00  1.72768E-01
      21    -1     0     0   501   512  0.000000000E+00  0.000000000E+00  7.474262458E+02  7.474262458E+02  0.000000000E+00  0.00000E+00  9.000E+00
      21    -1     0     0   502   503  0.000000000E+00  0.000000000E+00 -8.247582196E+02  8.247582196E+02  0.000000000E+00  0.00000E+00  9.000E+00
      25     1     1     2     0     0 -5.249515329E+00  3.291233187E+00 -6.306609984E+02  6.429587401E+02  1.249970279E+02  0.00000E+00  9.000E+00
       5     1     1     2   501     0 -9.843717016E-01  3.300665259E+00  2.892364991E+00  6.541533004E+00  4.750000000E+00  0.00000E+00  9.000E+00
      -5     1     1     2     0   503 -2.726382422E+00  4.278637531E+00 -1.859914989E+02  1.861213047E+02  4.750000000E+00  0.00000E+00  9.000E+00
      21     1     1     2   502   512  8.960269452E+00 -1.087053598E+01  7.364281584E+02  7.365628877E+02  1.078959322E-05  0.00000E+00  9.000E+00
#rwgt            1           9   4.5818371357514822                1        7938           0
</event>
<event>
      6   9999 -3.45752E-01  1.46991E+01 -1.00000E+00  1.71138E-01
      21    -1     0     0   501   502  0.000000000E+00  0.000000000E+00  1.380911807E+01  1.380911807E+01  0.000000000E+00  0.00000E+00  9.000E+00
      21    -1     0     0   511   503  0.000000000E+00  0.000000000E+00 -9.778038504E+02  9.778038504E+02  0.000000000E+00  0.00000E+00  9.000E+00
      25     1     1     2     0     0 -1.687352156E+01  1.235931259E+01 -6.768001757E+02  6.885641282E+02  1.249984500E+02  0.00000E+00  9.000E+00
       5     1     1     2   501     0 -2.727506215E+00 -1.611727969E+00  6.292367183E+00  8.496666521E+00  4.750000000E+00  0.00000E+00  9.000E+00
      -5     1     1     2     0   503  5.375419371E+00 -7.046730648E+00 -9.847956444E+01  9.899160903E+01  4.750000000E+00  0.00000E+00  9.000E+00
      21     1     1     2   511   502  1.422560840E+01 -3.700853974E+00 -1.950073594E+02  1.955605648E+02  2.697398305E-06  0.00000E+00  9.000E+00
#rwgt            1           9  -2.1128389741245774E-002           1        9775           0
</event>
<event>
      6   9999  3.45752E-01  1.25830E+01 -1.00000E+00  1.77261E-01
      21    -1     0     0   502   503  0.000000000E+00  0.000000000E+00  4.395937694E+01  4.395937694E+01  0.000000000E+00  0.00000E+00  9.000E+00
      21    -1     0     0   512   502  0.000000000E+00  0.000000000E+00 -1.723960129E+02  1.723960129E+02  0.000000000E+00  0.00000E+00  9.000E+00
      25     1     1     2     0     0  1.105036525E+01  3.424559226E+00 -1.152289931E+02  1.704046130E+02  1.250046923E+02  0.00000E+00  9.000E+00
       5     1     1     2   501     0  4.207300434E-01  2.649874596E-01  3.966804233E+00  6.208483546E+00  4.750000000E+00  0.00000E+00  9.000E+00
      -5     1     1     2     0   503  1.108876993E+00 -3.413201372E+00  8.947838132E+00  1.074736521E+01  4.750000000E+00  0.00000E+00  9.000E+00
      21     1     1     2   512   501 -1.257997229E+01 -2.763453138E-01 -2.612228523E+01  2.899492809E+01  4.768371582E-07  0.00000E+00  9.000E+00
#rwgt            1           9   6.6870760086361900E-003           1       11787           0
</event>
<event>
      6   9999  3.45752E-01  3.72545E+00 -1.00000E+00  2.54420E-01
      21    -1     0     0   511   502  0.000000000E+00  0.000000000E+00  1.271075652E+02  1.271075652E+02  0.000000000E+00  0.00000E+00  9.000E+00
      21    -1     0     0   502   503  0.000000000E+00  0.000000000E+00 -1.513730422E+03  1.513730422E+03  0.000000000E+00  0.00000E+00  9.000E+00
      25     1     1     2     0     0  1.964349721E+00 -1.631414350E+00 -1.458382426E+03  1.463732042E+03  1.250026784E+02  0.00000E+00  9.000E+00
       5     1     1     2   501     0 -1.866130403E-01 -1.266766401E+00 -6.162040021E+00  7.884970435E+00  4.750000000E+00  0.00000E+00  9.000E+00
      -5     1     1     2     0   503 -6.680218120E-01 -6.581549309E-01 -4.549311554E+01  4.575003260E+01  4.750000000E+00  0.00000E+00  9.000E+00
      21     1     1     2   511   501 -1.109714868E+00  3.556335683E+00  1.234147254E+02  1.234709417E+02  6.180515955E-06  0.00000E+00  9.000E+00
#rwgt            1           9   1.0645796692246832E-003           1       13670           0
</event>
<event>
      6   9999  3.45752E-01  1.19718E+01 -1.00000E+00  1.79320E-01
      21    -1     0     0   512   502  0.000000000E+00  0.000000000E+00  5.485592600E+01  5.485592600E+01  0.000000000E+00  0.00000E+00  9.000E+00
      21    -1     0     0   502   503  0.000000000E+00  0.000000000E+00 -1.278574908E+03  1.278574908E+03  0.000000000E+00  0.00000E+00  9.000E+00
      25     1     1     2     0     0  4.798339850E+01 -1.857947474E+01 -7.228154315E+02  7.353473035E+02  1.250036214E+02  0.00000E+00  9.000E+00
       5     1     1     2   501     0 -2.236361484E+00  1.200538505E+01  4.197874975E+01  4.397622668E+01  4.750000000E+00  0.00000E+00  9.000E+00
      -5     1     1     2     0   503 -5.254867801E+01  1.642605746E+01 -5.385469811E+02  5.413747245E+02  4.750000000E+00  0.00000E+00  9.000E+00
      21     1     1     2   512   501  6.801640995E+00 -9.851967774E+00 -4.335319419E+00  1.273257962E+01  1.788139343E-07  0.00000E+00  9.000E+00
#rwgt            1           9   1.4278215558977131E-005           1       17648           0
</event>
<event>
      6   9999  3.45752E-01  4.31513E+01 -1.00000E+00  1.38302E-01
      21    -1     0     0   511   502  0.000000000E+00  0.000000000E+00  8.062260909E+01  8.062260909E+01  0.000000000E+00  0.00000E+00  9.000E+00
      21    -1     0     0   502   503  0.000000000E+00  0.000000000E+00 -1.640302729E+03  1.640302729E+03  0.000000000E+00  0.00000E+00  9.000E+00
      25     1     1     2     0     0 -1.085283868E+01 -5.697847647E+01 -1.373819909E+03  1.380713424E+03  1.249963383E+02  0.00000E+00  9.000E+00
       5     1     1     2   501     0 -4.153169243E+00 -1.133385381E+00  6.825246734E+01  6.855286409E+01  4.750000000E+00  0.00000E+00  9.000E+00
      -5     1     1     2     0   503 -1.657247345E+01  2.870376501E+01 -1.983184338E+02  2.011251269E+02  4.750000000E+00  0.00000E+00  9.000E+00
      21     1     1     2   511   501  3.157848138E+01  2.940809684E+01 -5.579424404E+01  7.053392314E+01  6.743495762E-07  0.00000E+00  9.000E+00
#rwgt            1           9   7.0166348070351955E-003           1       20980           0
</event>
<event>
      6   9999  3.45752E-01  3.57167E+01 -1.00000E+00  1.43099E-01
      21    -1     0     0   502   503  0.000000000E+00  0.000000000E+00  1.938209244E+01  1.938209244E+01  0.000000000E+00  0.00000E+00  9.000E+00
       2    -1     0     0   501     0  0.000000000E+00  0.000000000E+00 -4.364445505E+03  4.364445505E+03  0.000000000E+00  0.00000E+00  9.000E+00
      25     1     1     2     0     0 -4.490225357E+01  2.391775847E+01 -8.746292219E+02  8.849817676E+02  1.250127259E+02  0.00000E+00  9.000E+00
       5     1     1     2   501     0  6.643019343E-01 -1.891867933E+00 -7.862338040E+00  9.402091298E+00  4.750000000E+00  0.00000E+00  9.000E+00
      -5     1     1     2     0   503  9.044663503E+00 -1.593393095E+01  6.632045847E+00  2.005598728E+01  4.750000000E+00  0.00000E+00  9.000E+00
       2     1     1     2   502     0  3.519328814E+01 -6.091959580E+00 -3.469203899E+03  3.469387751E+03  4.315837288E-05  0.00000E+00  9.000E+00
#rwgt            1           9   37.982513656478957                1       22813           0
</event>
<event>
      6   9999  3.45752E-01  1.01451E+01 -1.00000E+00  1.86537E-01
      21    -1     0     0   501   511  0.000000000E+00  0.000000000E+00  4.608543450E+01  4.608543450E+01  0.000000000E+00  0.00000E+00  9.000E+00
      21    -1     0     0   502   503  0.000000000E+00  0.000000000E+00 -1.052754651E+03  1.052754651E+03  0.000000000E+00  0.00000E+00  9.000E+00
      25     1     1     2     0     0  1.176348957E+01  8.181008213E-01 -9.296315102E+02  9.380712448E+02  1.249954660E+02  0.00000E+00  9.000E+00
       5     1     1     2   501     0  1.103016599E+00  3.207154785E+00  1.973407187E+01  2.057908113E+01  4.750000000E+00  0.00000E+00  9.000E+00
      -5     1     1     2     0   503 -2.793912720E+00 -2.814355307E+00 -1.172094222E+02  1.173726445E+02  4.750000000E+00  0.00000E+00  9.000E+00
      21     1     1     2   502   511 -1.007259345E+01 -1.210900299E+00  2.043764433E+01  2.281711472E+01  1.634515429E-06  0.00000E+00  9.000E+00
#rwgt            1           9   3.1977275605916500E-004           1       24038           0
</event>
<event>
      6   9999  3.45752E-01  6.55818E+00 -1.00000E+00  2.08814E-01
      21    -1     0     0   501   502  0.000000000E+00  0.000000000E+00  1.186183318E+01  1.186183318E+01  0.000000000E+00  0.00000E+00  9.000E+00
      21    -1     0     0   512   503  0.000000000E+00  0.000000000E+00 -9.722068509E+02  9.722068509E+02  0.000000000E+00  0.00000E+00  9.000E+00
      25     1     1     2     0     0  1.254210765E+01 -7.280778764E+00 -7.443527880E+02  7.549138546E+02  1.249941623E+02  0.00000E+00  9.000E+00
       5     1     1     2   501     0  1.843522846E-01 -1.471331203E-02  5.283299380E+00  7.107035570E+00  4.750000000E+00  0.00000E+00  9.000E+00
      -5     1     1     2     0   503 -8.374049624E+00  2.389751285E+00 -7.887275138E+01  7.949408172E+01  4.750000000E+00  0.00000E+00  9.000E+00
      21     1     1     2   512   502 -4.352410307E+00  4.905740791E+00 -1.424027777E+02  1.425537122E+02  1.907348633E-06  0.00000E+00  9.000E+00
#rwgt            1           9   4.5354133427734237E-004           1       27159           0
</event>
<event>
      6   9999  3.45752E-01  1.19882E+01 -1.00000E+00  1.79263E-01
      21    -1     0     0   511   502  0.000000000E+00  0.000000000E+00  2.077781724E+02  2.077781724E+02  0.000000000E+00  0.00000E+00  9.000E+00
      21    -1     0     0   502   503  0.000000000E+00  0.000000000E+00 -1.267947029E+03  1.267947029E+03  0.000000000E+00  0.00000E+00  9.000E+00
      25     1     1     2     0     0 -1.192658451E+01 -1.598072035E+02 -7.489393185E+02  7.760265590E+02  1.250061265E+02  0.00000E+00  9.000E+00
       5     1     1     2   501     0  3.941355654E+00 -1.505638998E+00  1.490365189E+01  1.620131392E+01  4.750000000E+00  0.00000E+00  9.000E+00
      -5     1     1     2     0   503  1.788966902E+01  1.680670005E+02 -4.904325318E+02  5.187612049E+02  4.750000000E+00  0.00000E+00  9.000E+00
      21     1     1     2   511   501 -9.904440165E+00 -6.754157973E+00  1.642993420E+02  1.647361235E+02  6.325959759E-06  0.00000E+00  9.000E+00
#rwgt            1           9   3.1683549771970726E-004           1       30397           0
</event>
<event>
      6   9999  3.45752E-01  1.88866E+01 -1.00000E+00  1.62133E-01
      21    -1     0     0   501   502  0.000000000E+00  0.000000000E+00  5.415928627E+01  5.415928627E+01  0.000000000E+00  0.00000E+00  9.000E+00
      21    -1     0     0   502   512  0.000000000E+00  0.000000000E+00 -1.843364507E+03  1.843364507E+03  0.000000000E+00  0.00000E+00  9.000E+00
      25     1     1     2     0     0 -1.045580509E+01 -3.545877663E+00 -1.338586149E+03  1.344455136E+03  1.249993460E+02  0.00000E+00  9.000E+00
       5     1     1     2   501     0  2.498088944E-01  8.039486800E+00  4.941196852E+01  5.028718411E+01  4.750000000E+00  0.00000E+00  9.000E+00
      -5     1     1     2     0   503 -8.662733672E+00 -3.671239704E+00 -2.217425681E+01  2.455160118E+01  4.750000000E+00  0.00000E+00  9.000E+00
      21     1     1     2   503   512  1.886872986E+01 -8.223694336E-01 -4.778567827E+02  4.782298715E+02  7.629394531E-06  0.00000E+00  9.000E+00
#rwgt            1           9   1.3374240440636904E-003           1       33959           0
</event>
<event>
      6   9999  3.45752E-01  1.27304E+01 -1.00000E+00  1.76787E-01
      21    -1     0     0   501   502  0.000000000E+00  0.000000000E+00  3.156820219E+01  3.156820219E+01  0.000000000E+00  0.00000E+00  9.000E+00
      21    -1     0     0   511   503  0.000000000E+00  0.000000000E+00 -1.550392234E+03  1.550392234E+03  0.000000000E+00  0.00000E+00  9.000E+00
      25     1     1     2     0     0  1.415471242E+00 -2.606549547E+01 -1.027067202E+03  1.034975125E+03  1.250002317E+02  0.00000E+00  9.000E+00
       5     1     1     2   501     0  2.658246687E+00 -7.453319685E-01  2.635298928E+01  2.691959025E+01  4.750000000E+00  0.00000E+00  9.000E+00
      -5     1     1     2     0   503 -8.872062720E+00  1.501935199E+01 -9.166234831E+01  9.342827746E+01  4.750000000E+00  0.00000E+00  9.000E+00
      21     1     1     2   511   502  4.798344791E+00  1.179147545E+01 -4.264474711E+02  4.266374440E+02  5.394796609E-06  0.00000E+00  9.000E+00
#rwgt            1           9   4.7794819580348661E-004           1       36869           0
</event>
<event>
      6   9999  3.45752E-01  3.66598E+00 -1.00000E+00  2.55958E-01
      21    -1     0     0   512   502  0.000000000E+00  0.000000000E+00  1.600720843E+01  1.600720843E+01  0.000000000E+00  0.00000E+00  9.000E+00
      21    -1     0     0   502   503  0.000000000E+00  0.000000000E+00 -8.088784618E+02  8.088784618E+02  0.000000000E+00  0.00000E+00  9.000E+00
      25     1     1     2     0     0 -2.116390426E+00 -2.688307339E+00 -7.165250653E+02  7.273546791E+02  1.249998153E+02  0.00000E+00  9.000E+00
       5     1     1     2   501     0  2.401203577E+00 -2.101919901E+00  3.722478336E+00  6.826652975E+00  4.750000000E+00  0.00000E+00  9.000E+00
      -5     1     1     2     0   503  1.870932136E+00  1.825073404E+00 -8.465750939E+01  8.483093585E+01  4.750000000E+00  0.00000E+00  9.000E+00
      21     1     1     2   512   501 -2.155745287E+00  2.965153836E+00  4.588843006E+00  5.873402349E+00  1.032382731E-07  0.00000E+00  9.000E+00
#rwgt            1           9   1.3710500367742719E-006           1       39809           0
</event>
<event>
      6   9999  3.45752E-01  2.06083E+01 -1.00000E+00  1.59224E-01
      21    -1     0     0   511   502  0.000000000E+00  0.000000000E+00  1.997079440E+01  1.997079440E+01  0.000000000E+00  0.00000E+00  9.000E+00
      21    -1     0     0   502   503  0.000000000E+00  0.000000000E+00 -9.383061887E+02  9.383061887E+02  0.000000000E+00  0.00000E+00  9.000E+00
      25     1     1     2     0     0  1.032800664E+01  2.015984114E+01 -4.795123558E+02  4.960550993E+02  1.250019012E+02  0.00000E+00  9.000E+00
       5     1     1     2   501     0  2.108445677E+00 -2.837673633E+00  8.808901969E+00  1.061400908E+01  4.750000000E+00  0.00000E+00  9.000E+00
      -5     1     1     2     0   503  6.598414906E+00 -2.521993884E+01 -3.795843986E+02  3.805081636E+02  4.750000000E+00  0.00000E+00  9.000E+00
      21     1     1     2   511   501 -1.903486722E+01  7.897771326E+00 -6.804754188E+01  7.109971110E+01  9.536743164E-07  0.00000E+00  9.000E+00
#rwgt            1           9   4.3915404275839874E-004           1       44886           0
</event>
<event>
      6   9999  3.45752E-01  5.87532E+00 -1.00000E+00  2.15336E-01
      21    -1     0     0   501   502  0.000000000E+00  0.000000000E+00  1.644854656E+01  1.644854656E+01  0.000000000E+00  0.00000E+00  9.000E+00
      21    -1     0     0   512   503  0.000000000E+00  0.000000000E+00 -1.048027856E+03  1.048027856E+03  0.000000000E+00  0.00000E+00  9.000E+00
      25     1     1     2     0     0 -5.945915075E+00 -4.481040064E+00 -8.324785199E+02  8.418451474E+02  1.250093297E+02  0.00000E+00  9.000E+00
       5     1     1     2   501     0  1.030137324E+00  1.593045950E+00  1.094831231E+01  1.208416405E+01  4.750000000E+00  0.00000E+00  9.000E+00
      -5     1     1     2     0   503 -9.554158092E-01  3.108103424E+00 -4.169288417E+01  4.208838577E+01  4.750000000E+00  0.00000E+00  9.000E+00
      21     1     1     2   512   502  5.871193561E+00 -2.201093100E-01 -1.683562180E+02  1.684587056E+02  2.697398305E-06  0.00000E+00  9.000E+00
#rwgt            1           9   7.7017115649994474E-003           1       46635           0
</event>
<event>
      6   9999  3.45752E-01  2.18327E+01 -1.00000E+00  1.57357E-01
      21    -1     0     0   511   502  0.000000000E+00  0.000000000E+00  3.877344728E+01  3.877344728E+01  0.000000000E+00  0.00000E+00  9.000E+00
      21    -1     0     0   502   503  0.000000000E+00  0.000000000E+00 -1.163854891E+03  1.163854891E+03  0.000000000E+00  0.00000E+00  9.000E+00
      25     1     1     2     0     0 -3.261339539E+01 -1.927032326E+01 -8.170216045E+02  8.273954058E+02  1.249955056E+02  0.00000E+00  9.000E+00
       5     1     1     2   501     0 -3.736211010E+00  2.043906828E+00  2.375733813E+01  2.459899272E+01  4.750000000E+00  0.00000E+00  9.000E+00
      -5     1     1     2     0   503  1.584855552E+01  9.718255120E+00 -3.278898938E+02  3.284508581E+02  4.750000000E+00  0.00000E+00  9.000E+00
      21     1     1     2   511   501  2.050105088E+01  7.508161317E+00 -3.927283979E+00  2.218308213E+01  5.264139692E-07  0.00000E+00  9.000E+00
#rwgt            1           9  0.32500264053329569                1       50813           0
</event>
<event>
      6   9999 -3.45752E-01  6.03799E+01 -1.00000E+00  1.30546E-01
      21    -1     0     0   501   502  0.000000000E+00  0.000000000E+00  3.901762708E+01  3.901762708E+01  0.000000000E+00  0.00000E+00  9.000E+00
       2    -1     0     0   502     0  0.000000000E+00  0.000000000E+00 -2.003892736E+03  2.003892736E+03  0.000000000E+00  0.00000E+00  9.000E+00
      25     1     1     2     0     0  1.264648789E+02 -1.231817661E+02 -3.534534850E+02  4.143930811E+02  1.250005864E+02  0.00000E+00  9.000E+00
       5     1     1     2   501     0 -6.062056198E+01  1.245162725E+02 -7.293635349E+02  7.424101853E+02  4.750000000E+00  0.00000E+00  9.000E+00
      -5     1     1     2     0   503 -8.099392669E+00  1.630804273E+01 -1.024187092E+02  1.041331212E+02  4.750000000E+00  0.00000E+00  9.000E+00
       2     1     1     2   503     0 -5.774492423E+01 -1.764254919E+01 -7.796393796E+02  7.819739753E+02  0.000000000E+00  0.00000E+00  9.000E+00
#rwgt            1           9  -5.2167480558223201E-003           1       52854           0
</event>
<event>
      6   9999 -3.45752E-01  1.35973E+01 -1.00000E+00  1.74151E-01
      21    -1     0     0   511   502  0.000000000E+00  0.000000000E+00  4.415585428E+02  4.415585428E+02  0.000000000E+00  0.00000E+00  9.000E+00
      21    -1     0     0   502   503  0.000000000E+00  0.000000000E+00 -3.628625752E+01  3.628625752E+01  0.000000000E+00  0.00000E+00  9.000E+00
      25     1     1     2     0     0 -1.341778577E+01  4.110204813E+01  9.552565927E+01  1.631599634E+02  1.250064268E+02  0.00000E+00  9.000E+00
       5     1     1     2   501     0 -2.174383607E+00  7.282119293E-01  9.743121430E+01  9.757388102E+01  4.750000000E+00  0.00000E+00  9.000E+00
      -5     1     1     2     0   503  8.644753249E+00 -3.014181380E+01  1.430353621E+02  1.465091738E+02  4.750000000E+00  0.00000E+00  9.000E+00
      21     1     1     2   511   501  6.947416126E+00 -1.168844626E+01  6.928004962E+01  7.060178214E+01  9.536743164E-07  0.00000E+00  9.000E+00
#rwgt            1           9  -3.5118059815267689E-004           1       53744           0
</event>
<event>
      6   9999  3.45752E-01  1.48267E+01 -1.00000E+00  1.70810E-01
      21    -1     0     0   501   502  0.000000000E+00  0.000000000E+00  1.049073721E+01  1.049073721E+01  0.000000000E+00  0.00000E+00  9.000E+00
      21    -1     0     0   502   512  0.000000000E+00  0.000000000E+00 -9.462043191E+02  9.462043191E+02  0.000000000E+00  0.00000E+00  9.000E+00
      25     1     1     2     0     0  2.515468859E+01  3.869770102E+00 -7.191410460E+02  7.303674134E+02  1.249999244E+02  0.00000E+00  9.000E+00
       5     1     1     2   501     0  1.312424498E+00  1.513730524E+00  1.089054695E+00  5.269001641E+00  4.750000000E+00  0.00000E+00  9.000E+00
      -5     1     1     2     0   503 -1.694117835E+01  5.978131462E+00 -6.287262612E+01  6.556120190E+01  4.750000000E+00  0.00000E+00  9.000E+00
      21     1     1     2   503   512 -9.525934733E+00 -1.136163209E+01 -1.547889645E+02  1.554974394E+02  2.697398305E-06  0.00000E+00  9.000E+00
#rwgt            1           9   1.6637310133266481E-003           1       55846           0
</event>
<event>
      6   9999  3.45752E-01  1.70192E+01 -1.00000E+00  1.65751E-01
       1    -1     0     0   501     0  0.000000000E+00  0.000000000E+00  9.956461738E+02  9.956461738E+02  0.000000000E+00  0.00000E+00  9.000E+00
      21    -1     0     0   502   503  0.000000000E+00  0.000000000E+00 -9.244078069E+02  9.244078069E+02  0.000000000E+00  0.00000E+00  9.000E+00
      25     1     1     2     0     0  6.654974220E+00 -3.672866230E+01 -6.428764844E+02  6.559788986E+02  1.249994312E+02  0.00000E+00  9.000E+00
       5     1     1     2   501     0 -3.305048200E+00 -1.749520176E+00  6.301336671E+00  8.732325480E+00  4.750000000E+00  0.00000E+00  9.000E+00
      -5     1     1     2     0   503 -1.956018717E+01  4.366284326E+01 -2.715791752E+02  2.758022040E+02  4.750000000E+00  0.00000E+00  9.000E+00
       1     1     1     2   502     0  1.621026115E+01 -5.184660790E+00  9.793926899E+02  9.795405526E+02  1.078959322E-05  0.00000E+00  9.000E+00
#rwgt            1           9   1.5205070978558042E-004           1       57655           0
</event>
<event>
      6   9999 -3.45752E-01  8.92990E+00 -1.00000E+00  1.92524E-01
       2    -1     0     0   501     0  0.000000000E+00  0.000000000E+00  4.294759238E+02  4.294759238E+02  0.000000000E+00  0.00000E+00  9.000E+00
      21    -1     0     0   502   503  0.000000000E+00  0.000000000E+00 -9.046602573E+02  9.046602573E+02  0.000000000E+00  0.00000E+00  9.000E+00
      25     1     1     2     0     0 -4.488446722E+01  1.273925068E+01 -4.087736919E+02  4.299973549E+02  1.249995606E+02  0.00000E+00  9.000E+00
       5     1     1     2   501     0 -1.450548263E+00 -7.959295671E-01  2.291924886E+00  5.527478071E+00  4.750000000E+00  0.00000E+00  9.000E+00
      -5     1     1     2     0   503  3.762332986E+01 -9.981283454E+00 -4.828139111E+02  4.844037327E+02  4.750000000E+00  0.00000E+00  9.000E+00
       2     1     1     2   502     0  8.711685625E+00 -1.962037663E+00  4.141113445E+02  4.142076155E+02  5.394796609E-06  0.00000E+00  9.000E+00
#rwgt            1           9  -1.2685987285827440E-003           1       59322           0
</event>
<event>
      6   9999  3.45752E-01  3.03574E+01 -1.00000E+00  1.47506E-01
      21    -1     0     0   511   502  0.000000000E+00  0.000000000E+00  4.526914954E+01  4.526914954E+01  0.000000000E+00  0.00000E+00  9.000E+00
      21    -1     0     0   502   503  0.000000000E+00  0.000000000E+00 -1.142373098E+03  1.142373098E+03  0.000000000E+00  0.00000E+00  9.000E+00
      25     1     1     2     0     0 -1.953171908E+01  9.827028232E+01 -5.147780732E+02  5.391285575E+02  1.249984020E+02  0.00000E+00  9.000E+00
       5     1     1     2   501     0 -7.493280526E+01 -7.418508040E+01 -1.984840662E+02  2.248040002E+02  4.750000000E+00  0.00000E+00  9.000E+00
      -5     1     1     2     0   503  7.517565981E+01 -6.435509515E-01 -3.859944451E+02  3.932760711E+02  4.750000000E+00  0.00000E+00  9.000E+00
      21     1     1     2   511   501  1.928886453E+01 -2.344165096E+01  2.152636157E+00  3.043361854E+01  1.460009660E-07  0.00000E+00  9.000E+00
#rwgt            1           9   3.5805174630829390E-005           1       62117           0
</event>
<event>
      6   9999 -3.45752E-01  1.15893E+01 -1.00000E+00  1.80689E-01
      21    -1     0     0   512   502  0.000000000E+00  0.000000000E+00  1.864725770E+01  1.864725770E+01  0.000000000E+00  0.00000E+00  9.000E+00
      21    -1     0     0   502   503  0.000000000E+00  0.000000000E+00 -9.522357877E+02  9.522357877E+02  0.000000000E+00  0.00000E+00  9.000E+00
      25     1     1     2     0     0  5.835837034E+01 -2.125293726E+01 -7.785037064E+02  7.909172472E+02  1.249987377E+02  0.00000E+00  9.000E+00
       5     1     1     2   501     0 -1.440439476E+00 -7.534134478E-01  1.397723511E+00  5.211394124E+00  4.750000000E+00  0.00000E+00  9.000E+00
      -5     1     1     2     0   503 -6.420703558E+01  1.299626489E+01 -1.395658614E+02  1.542486256E+02  4.750000000E+00  0.00000E+00  9.000E+00
      21     1     1     2   512   501  7.289104712E+00  9.010085819E+00 -1.691668576E+01  2.050577848E+01  4.129530925E-07  0.00000E+00  9.000E+00
#rwgt            1           9  -2.2449628486718770E-004           1       63858           0
</event>
<event>
      6   9999  3.45752E-01  6.65028E+00 -1.00000E+00  2.08017E-01
      21    -1     0     0   501   502  0.000000000E+00  0.000000000E+00  2.167566626E+02  2.167566626E+02  0.000000000E+00  0.00000E+00  9.000E+00
      21    -1     0     0   502   511  0.000000000E+00  0.000000000E+00 -3.394780888E+02  3.394780888E+02  0.000000000E+00  0.00000E+00  9.000E+00
      25     1     1     2     0     0  6.869476158E+01  1.803576967E+02 -1.238534800E+02  2.611760480E+02  1.250014979E+02  0.00000E+00  9.000E+00
       5     1     1     2   501     0 -3.305379895E+00 -5.332794465E-01  5.650543547E+01  5.680349163E+01  4.750000000E+00  0.00000E+00  9.000E+00
      -5     1     1     2     0   503 -6.327626607E+01 -1.735187848E+02 -2.304795623E+00  1.847715593E+02  4.750000000E+00  0.00000E+00  9.000E+00
      21     1     1     2   503   511 -2.113115616E+00 -6.305632491E+00 -5.306858604E+01  5.348365248E+01  6.743495762E-07  0.00000E+00  9.000E+00
#rwgt            1           9   1.5519827826109547                1       67168           0
</event>
<event>
      6   9999  3.45752E-01  2.10219E+01 -1.00000E+00  1.58576E-01
      21    -1     0     0   501   502  0.000000000E+00  0.000000000E+00  8.469471208E+00  8.469471208E+00  0.000000000E+00  0.00000E+00  9.000E+00
       1    -1     0     0   502     0  0.000000000E+00  0.000000000E+00 -1.207729368E+03  1.207729368E+03  0.000000000E+00  0.00000E+00  9.000E+00
      25     1     1     2     0     0 -1.903641717E+01 -1.171425830E+01 -6.639646100E+02  6.759971557E+02  1.249941687E+02  0.00000E+00  9.000E+00
       5     1     1     2   501     0  4.550485050E-01 -1.308473600E+00 -1.985564488E+00  5.331429324E+00  4.750000000E+00  0.00000E+00  9.000E+00
      -5     1     1     2     0   503  9.643636190E+00 -6.004510062E+00 -6.935790402E+01  7.044242479E+01  4.750000000E+00  0.00000E+00  9.000E+00
       1     1     1     2   503     0  8.937732472E+00  1.902724197E+01 -4.639518178E+02  4.644278289E+02  5.394796609E-06  0.00000E+00  9.000E+00
#rwgt            1           9   1.1522664739382644E-002           1       72078           0
</event>
<event>
      6   9999  3.45752E-01  5.92766E+00 -1.00000E+00  2.14794E-01
      21    -1     0     0   501   502  0.000000000E+00  0.000000000E+00  2.651512732E+02  2.651512732E+02  0.000000000E+00  0.00000E+00  9.000E+00
      21    -1     0     0   502   511  0.000000000E+00  0.000000000E+00 -7.427082288E+01  7.427082288E+01  0.000000000E+00  0.00000E+00  9.000E+00
      25     1     1     2     0     0 -9.157181695E+00 -2.212038666E+01  9.270130276E+01  1.574538016E+02  1.250000105E+02  0.00000E+00  9.000E+00
       5     1     1     2   501     0 -1.760950811E+00 -1.787297680E+00  1.323150914E+02  1.324240963E+02  4.750000000E+00  0.00000E+00  9.000E+00
      -5     1     1     2     0   503  1.590481441E+01  2.070298163E+01 -1.725407076E+01  3.165188821E+01  4.750000000E+00  0.00000E+00  9.000E+00
      21     1     1     2   503   511 -4.986681901E+00  3.204702706E+00 -1.688187309E+01  1.789230994E+01  2.384185791E-07  0.00000E+00  9.000E+00
#rwgt            1           9   7.1538194869364595                1       73019           0
</event>
<event>
      6   9999  3.45752E-01  8.56865E+00 -1.00000E+00  1.94549E-01
      21    -1     0     0   501   502  0.000000000E+00  0.000000000E+00  1.918496589E+03  1.918496589E+03  0.000000000E+00  0.00000E+00  9.000E+00
      21    -1     0     0   502   512  0.000000000E+00  0.000000000E+00 -5.785449907E+02  5.785449907E+02  0.000000000E+00  0.00000E+00  9.000E+00
      25     1     1     2     0     0  1.043092620E+01 -4.821364066E+00  7.142397339E+02  7.251864038E+02  1.249994919E+02  0.00000E+00  9.000E+00
       5     1     1     2   501     0  3.593599379E+00  4.123063133E+00  1.166872874E+03  1.166895359E+03  4.750000000E+00  0.00000E+00  9.000E+00
      -5     1     1     2     0   503 -6.013203126E+00  3.738107288E+00  3.129705065E+01  3.243763150E+01  4.750000000E+00  0.00000E+00  9.000E+00
      21     1     1     2   503   512 -8.011322449E+00 -3.039806355E+00 -5.724580602E+02  5.725221850E+02  1.078959322E-05  0.00000E+00  9.000E+00
#rwgt            1           9   7.3488738736895215E-003           1       77382           0
</event>
<event>
      6   9999  3.45752E-01  9.25936E+00 -1.00000E+00  1.90784E-01
      21    -1     0     0   501   502  0.000000000E+00  0.000000000E+00  2.310652672E+03  2.310652672E+03  0.000000000E+00  0.00000E+00  9.000E+00
      21    -1     0     0   502   511  0.000000000E+00  0.000000000E+00 -8.156703906E+00  8.156703906E+00  0.000000000E+00  0.00000E+00  9.000E+00
      25     1     1     2     0     0  8.004399100E+00 -5.574674899E+00  5.447406552E+02  5.589867584E+02  1.250146680E+02  0.00000E+00  9.000E+00
       5     1     1     2   501     0 -1.768486527E+00 -1.289871553E+00  1.679739288E+03  1.679747430E+03  4.750000000E+00  0.00000E+00  9.000E+00
      -5     1     1     2     0   503 -5.232617064E+00 -2.340300805E+00  5.043348381E+01  5.097995762E+01  4.750000000E+00  0.00000E+00  9.000E+00
      21     1     1     2   503   511 -1.003295509E+00  9.204847257E+00  2.758254074E+01  2.909522931E+01  6.743495762E-07  0.00000E+00  9.000E+00
#rwgt            1           9   1.1918357219338540E-002           1       79924           0
</event>
<event>
      6   9999  3.45752E-01  1.36828E+01 -1.00000E+00  1.73905E-01
      21    -1     0     0   501   502  0.000000000E+00  0.000000000E+00  2.888795441E+01  2.888795441E+01  0.000000000E+00  0.00000E+00  9.000E+00
      21    -1     0     0   512   503  0.000000000E+00  0.000000000E+00 -5.206358485E+02  5.206358485E+02  0.000000000E+00  0.00000E+00  9.000E+00
      25     1     1     2     0     0 -2.789048347E+01  7.621879456E+00 -3.434554614E+02  3.666370048E+02  1.250002688E+02  0.00000E+00  9.000E+00
       5     1     1     2   501     0  3.771160938E-01  1.255259024E+00  9.114078202E+00  1.036083072E+01  4.750000000E+00  0.00000E+00  9.000E+00
      -5     1     1     2     0   503  4.039995511E+01 -4.277737871E+00 -5.163222478E+01  6.587036170E+01  4.750000000E+00  0.00000E+00  9.000E+00
      21     1     1     2   512   502 -1.288658773E+01 -4.599400609E+00 -1.057742861E+02  1.066556057E+02  1.348699152E-06  0.00000E+00  9.000E+00
#rwgt            1           9  0.23031023621227181                1       82796           0
</event>
<event>
      6   9999  3.45752E-01  1.35625E+01 -1.00000E+00  1.74252E-01
      21    -1     0     0   501   502  0.000000000E+00  0.000000000E+00  1.412767964E+02  1.412767964E+02  0.000000000E+00  0.00000E+00  9.000E+00
      21    -1     0     0   502   511  0.000000000E+00  0.000000000E+00 -4.150568688E+02  4.150568688E+02  0.000000000E+00  0.00000E+00  9.000E+00
      25     1     1     2     0     0 -5.736800105E+00 -8.071430928E+00 -2.446563265E+02  2.749153513E+02  1.249946936E+02  0.00000E+00  9.000E+00
       5     1     1     2   501     0 -4.236974685E+00  8.939044862E+00  1.239547164E+02  1.244395142E+02  4.750000000E+00  0.00000E+00  9.000E+00
      -5     1     1     2     0   503 -3.573858289E+00 -1.502244282E+00 -4.080678824E+00  7.365028216E+00  4.750000000E+00  0.00000E+00  9.000E+00
      21     1     1     2   503   511  1.354763308E+01  6.346303487E-01 -1.489977835E+02  1.496137715E+02  0.000000000E+00  0.00000E+00  9.000E+00
#rwgt            1           9   3.1515498204334492E-004           1       85160           0
</event>
<event>
      6   9999  3.45752E-01  1.59053E+01 -1.00000E+00  1.68195E-01
      21    -1     0     0   501   512  0.000000000E+00  0.000000000E+00  2.425405883E+01  2.425405883E+01  0.000000000E+00  0.00000E+00  9.000E+00
      21    -1     0     0   502   503  0.000000000E+00  0.000000000E+00 -4.217203690E+02  4.217203690E+02  0.000000000E+00  0.00000E+00  9.000E+00
      25     1     1     2     0     0  2.017089039E+00  9.648966796E+00 -3.556020927E+02  3.770370130E+02  1.249275375E+02  0.00000E+00  9.000E+00
       5     1     1     2   501     0 -2.847020550E+00 -1.531103641E+00  4.881877315E+00  7.539564343E+00  4.750000000E+00  0.00000E+00  9.000E+00
      -5     1     1     2     0   503 -9.682244016E+00 -2.005400954E+01 -2.013381271E+01  3.039477031E+01  4.750000000E+00  0.00000E+00  9.000E+00
      21     1     1     2   502   512  1.051217553E+01  1.193614639E+01 -2.661228204E+01  3.100308017E+01  0.000000000E+00  0.00000E+00  9.000E+00
#rwgt            1           9   4.6774660515625393E-005           1       87771           0
</event>
<event>
      6   9999  3.45752E-01  7.98691E+01 -1.00000E+00  1.24735E-01
      21    -1     0     0   511   502  0.000000000E+00  0.000000000E+00  3.653589832E+01  3.653589832E+01  0.000000000E+00  0.00000E+00  9.000E+00
       2    -1     0     0   501     0  0.000000000E+00  0.000000000E+00 -1.363341352E+03  1.363341352E+03  0.000000000E+00  0.00000E+00  9.000E+00
      25     1     1     2     0     0  1.586547099E+02  5.995088915E+00 -6.096437989E+02  6.422592101E+02  1.249962934E+02  0.00000E+00  9.000E+00
       5     1     1     2   501     0 -2.041412076E+01  2.392263310E+00 -2.424536667E+01  3.213813242E+01  4.750000000E+00  0.00000E+00  9.000E+00
      -5     1     1     2     0   502 -8.202705192E+01 -6.512449652E+01 -1.968912244E+02  2.230658065E+02  4.750000000E+00  0.00000E+00  9.000E+00
       2     1     1     2   511     0 -5.621353724E+01  5.673714430E+01 -4.960250638E+02  5.024141013E+02  0.000000000E+00  0.00000E+00  9.000E+00
#rwgt            1           3   1.9223153228906990E-004           1       89389           0
</event>
<event>
      6   9999  3.45752E-01  1.02095E+01 -1.00000E+00  1.86250E-01
      21    -1     0     0   501   502  0.000000000E+00  0.000000000E+00  1.258870897E+02  1.258870897E+02  0.000000000E+00  0.00000E+00  9.000E+00
      21    -1     0     0   502   512  0.000000000E+00  0.000000000E+00 -8.572399573E+01  8.572399573E+01  0.000000000E+00  0.00000E+00  9.000E+00
      25     1     1     2     0     0 -7.948172596E+00  1.111125159E+00 -1.537650681E+01  1.262024811E+02  1.250048848E+02  0.00000E+00  9.000E+00
       5     1     1     2   501     0 -4.674246892E-01 -1.088307992E-01  6.130146498E+01  6.148709164E+01  4.750000000E+00  0.00000E+00  9.000E+00
      -5     1     1     2     0   503  4.087757591E+00  8.244533890E+00  2.653872093E+00  1.069053966E+01  4.750000000E+00  0.00000E+00  9.000E+00
      21     1     1     2   503   512  4.327839694E+00 -9.246828250E+00 -8.415736339E+00  1.323097303E+01  2.064765462E-07  0.00000E+00  9.000E+00
#rwgt            1           9   11.701399244090229                1       90528           0
</event>
<event>
      6   9999 -3.45752E-01  1.43070E+01 -1.00000E+00  1.72171E-01
      21    -1     0     0   501   502  0.000000000E+00  0.000000000E+00  1.440865839E+02  1.440865839E+02  0.000000000E+00  0.00000E+00  9.000E+00
      21    -1     0     0   511   503  0.000000000E+00  0.000000000E+00 -1.001577620E+02  1.001577620E+02  0.000000000E+00  0.00000E+00  9.000E+00
      25     1     1     2     0     0  5.244332542E+01 -9.744359796E+00  9.293182838E-01  1.359069548E+02  1.249983272E+02  0.00000E+00  9.000E+00
       5     1     1     2   501     0  1.038879361E+00 -4.983963231E-01  4.883944362E+01  4.908341290E+01  4.750000000E+00  0.00000E+00  9.000E+00
      -5     1     1     2     0   503 -4.064940293E+01  1.656798702E+01 -7.725851903E+00  4.482324664E+01  4.750000000E+00  0.00000E+00  9.000E+00
      21     1     1     2   511   502 -1.283280185E+01 -6.325230901E+00  1.885911937E+00  1.443073155E+01  1.534168443E-07  0.00000E+00  9.000E+00
#rwgt            1           9  -2.6063848972170245                1       92902           0
</event>
<event>
      6   9999  3.45752E-01  2.26656E+01 -1.00000E+00  1.56171E-01
      21    -1     0     0   501   502  0.000000000E+00  0.000000000E+00  3.817536393E+01  3.817536393E+01  0.000000000E+00  0.00000E+00  9.000E+00
      21    -1     0     0   512   503  0.000000000E+00  0.000000000E+00 -1.214776508E+03  1.214776508E+03  0.000000000E+00  0.00000E+00  9.000E+00
      25     1     1     2     0     0  1.354634547E+02 -7.148158306E+01 -5.134308312E+02  5.501779978E+02  1.249985861E+02  0.00000E+00  9.000E+00
       5     1     1     2   501     0 -5.725893449E+01  1.210148770E+02 -3.147785091E+02  3.420983167E+02  4.750000000E+00  0.00000E+00  9.000E+00
      -5     1     1     2     0   503 -5.860302654E+01 -3.815294625E+01 -2.449938020E+02  2.548224628E+02  4.750000000E+00  0.00000E+00  9.000E+00
      21     1     1     2   512   502 -1.960149371E+01 -1.138034771E+01 -1.033980017E+02  1.058530945E+02  1.907348633E-06  0.00000E+00  9.000E+00
#rwgt            1           9   1.5420885095785675E-003           1       94975           0
</event>
<event>
      6   9999  3.45752E-01  1.25169E+01 -1.00000E+00  1.77477E-01
      21    -1     0     0   501   502  0.000000000E+00  0.000000000E+00  7.503796476E+01  7.503796476E+01  0.000000000E+00  0.00000E+00  9.000E+00
      -4    -1     0     0     0   503  0.000000000E+00  0.000000000E+00 -5.806409056E+02  5.806409056E+02  0.000000000E+00  0.00000E+00  9.000E+00
      25     1     1     2     0     0 -2.710018961E+01  1.190450472E+01 -6.092935412E+01  1.421738117E+02  1.249994761E+02  0.00000E+00  9.000E+00
       5     1     1     2   501     0 -1.251449359E-02  2.997377753E-01  4.633797652E+00  6.642633516E+00  4.750000000E+00  0.00000E+00  9.000E+00
      -5     1     1     2     0   503  2.581256134E+01  2.449826567E-01  2.269244603E+01  3.469665613E+01  4.750000000E+00  0.00000E+00  9.000E+00
      -4     1     1     2     0   502  1.300142761E+00 -1.244922515E+01 -4.719998304E+02  4.721657691E+02  0.000000000E+00  0.00000E+00  9.000E+00
#rwgt            1           9   3.0592277719434244E-004           1       96925           0
</event>
<event>
      6   9999 -3.45752E-01  8.34636E+00 -1.00000E+00  1.95861E-01
      21    -1     0     0   502   503  0.000000000E+00  0.000000000E+00  1.108297876E+01  1.108297876E+01  0.000000000E+00  0.00000E+00  9.000E+00
      21    -1     0     0   501   511  0.000000000E+00  0.000000000E+00 -9.788934959E+02  9.788934959E+02  0.000000000E+00  0.00000E+00  9.000E+00
      25     1     1     2     0     0 -2.739589448E+01  2.544346391E+01 -6.162587210E+02  6.299194123E+02  1.250029995E+02  0.00000E+00  9.000E+00
       5     1     1     2   501     0  1.415090753E+01 -2.164197138E+01 -4.381330655E+01  5.109590434E+01  4.750000000E+00  0.00000E+00  9.000E+00
      -5     1     1     2     0   503  1.269572970E+01  4.526774052E+00 -9.596701880E+01  9.702527729E+01  4.750000000E+00  0.00000E+00  9.000E+00
      21     1     1     2   502   511  5.492572513E-01 -8.328266586E+00 -2.117714709E+02  2.119358808E+02  2.697398305E-06  0.00000E+00  9.000E+00
#rwgt            1           9  -175.39576301341313                1       99442           0
</event>
<event>
      6   9999  3.45752E-01  1.29893E+01 -1.00000E+00  1.75973E-01
      21    -1     0     0   501   512  0.000000000E+00  0.000000000E+00  1.287410021E+02  1.287410021E+02  0.000000000E+00  0.00000E+00  9.000E+00
      21    -1     0     0   502   503  0.000000000E+00  0.000000000E+00 -1.169907903E+03  1.169907903E+03  0.000000000E+00  0.00000E+00  9.000E+00
      25     1     1     2     0     0 -6.513723265E+01  4.610250702E+01 -2.803359723E+02  3.171470608E+02  1.250028022E+02  0.00000E+00  9.000E+00
       5     1     1     2   501     0 -4.283717839E+00  2.621783698E+00  1.261672645E+01  1.438639199E+01  4.750000000E+00  0.00000E+00  9.000E+00
      -5     1     1     2     0   503  5.755904276E+01 -5.401739111E+01 -8.680404069E+02  8.716350340E+02  4.750000000E+00  0.00000E+00  9.000E+00
      21     1     1     2   502   512  1.186190773E+01  5.293100386E+00  9.459275143E+01  9.548041888E+01  3.015782986E-06  0.00000E+00  9.000E+00
#rwgt            1           9   2.9820864458861460E-005           1      102591           0
</event>
<event>
      6   9999  3.45752E-01  2.56289E+01 -1.00000E+00  1.52403E-01
      21    -1     0     0   501   511  0.000000000E+00  0.000000000E+00  5.686019550E+02  5.686019550E+02  0.000000000E+00  0.00000E+00  9.000E+00
      21    -1     0     0   502   503  0.000000000E+00  0.000000000E+00 -4.749977916E+01  4.749977916E+01  0.000000000E+00  0.00000E+00  9.000E+00
      25     1     1     2     0     0  9.417320351E+01  3.950454551E+01  1.300662292E+02  2.072961585E+02  1.250010878E+02  0.00000E+00  9.000E+00
       5     1     1     2   501     0 -1.933405196E+01  9.740534663E+00  1.376515421E+02  1.394245069E+02  4.750000000E+00  0.00000E+00  9.000E+00
      -5     1     1     2     0   503 -5.361966104E+01 -3.487248458E+01  2.023705059E+02  2.122911736E+02  4.750000000E+00  0.00000E+00  9.000E+00
      21     1     1     2   502   511 -2.121949052E+01 -1.437259559E+01  5.101389877E+01  5.708989533E+01  6.743495762E-07  0.00000E+00  9.000E+00
#rwgt            1           9   8.7627677084582494E-004           1      105461           0
</event>
<event>
      6   9999  3.45752E-01  1.19697E+01 -1.00000E+00  1.79327E-01
      21    -1     0     0   512   502  0.000000000E+00  0.000000000E+00  9.174615270E+01  9.174615270E+01  0.000000000E+00  0.00000E+00  9.000E+00
      21    -1     0     0   502   503  0.000000000E+00  0.000000000E+00 -8.278484081E+02  8.278484081E+02  0.000000000E+00  0.00000E+00  9.000E+00
      25     1     1     2     0     0  1.803176576E+00  1.054699204E+01 -8.011129696E+02  8.108767877E+02  1.249987371E+02  0.00000E+00  9.000E+00
       5     1     1     2   501     0  7.562146215E-01  6.971113728E-01  8.808825619E-01  4.939258943E+00  4.750000000E+00  0.00000E+00  9.000E+00
      -5     1     1     2     0   503 -5.772967792E-01  5.603420711E-01 -1.909701937E+01  1.969532695E+01  4.750000000E+00  0.00000E+00  9.000E+00
      21     1     1     2   512   501 -1.982094418E+00 -1.180444549E+01  8.322685103E+01  8.408318717E+01  1.651812370E-06  0.00000E+00  9.000E+00
#rwgt            1           9   2.5853461514375791E-004           1      106995           0
</event>
<event>
      6   9999  3.45752E-01  7.77997E+00 -1.00000E+00  1.99460E-01
      21    -1     0     0   501   502  0.000000000E+00  0.000000000E+00  8.306294775E+01  8.306294775E+01  0.000000000E+00  0.00000E+00  9.000E+00
      21    -1     0     0   502   511  0.000000000E+00  0.000000000E+00 -2.770792898E+02  2.770792898E+02  0.000000000E+00  0.00000E+00  9.000E+00
      25     1     1     2     0     0 -3.418178486E+01  5.856825463E+00 -1.783257021E+02  2.205196949E+02  1.250047318E+02  0.00000E+00  9.000E+00
       5     1     1     2   501     0  2.019002728E+00 -1.362039284E+00  5.752397814E+01  5.777111808E+01  4.750000000E+00  0.00000E+00  9.000E+00
      -5     1     1     2     0   503  2.513727678E+01 -1.152603875E+00 -3.824389970E+01  4.602574870E+01  4.750000000E+00  0.00000E+00  9.000E+00
      21     1     1     2   503   511  7.025505348E+00 -3.342182304E+00 -3.497071837E+01  3.582567586E+01  4.768371582E-07  0.00000E+00  9.000E+00
#rwgt            1           9  0.57108833900662193                1      109481           0
</event>
<event>
      6   9999  3.45752E-01  4.12024E+00 -1.00000E+00  2.45218E-01
      21    -1     0     0   501   502  0.000000000E+00  0.000000000E+00  5.687687039E+01  5.687687039E+01  0.000000000E+00  0.00000E+00  9.000E+00
      21    -1     0     0   502   512  0.000000000E+00  0.000000000E+00 -1.276893826E+02  1.276893826E+02  0.000000000E+00  0.00000E+00  9.000E+00
      25     1     1     2     0     0 -2.945286490E+00 -3.915593223E+00 -6.059404674E+01  1.390038039E+02  1.250056496E+02  0.00000E+00  9.000E+00
       5     1     1     2   501     0  7.831841907E-02  1.737447056E-01  1.526520831E+01  1.598828964E+01  4.750000000E+00  0.00000E+00  9.000E+00
      -5     1     1     2     0   503  5.236115506E-02  7.328064412E-01 -1.214265900E+00  4.957488139E+00  4.750000000E+00  0.00000E+00  9.000E+00
      21     1     1     2   503   512  2.814606915E+00  3.009042076E+00 -2.426940786E+01  2.461667127E+01  3.371747881E-07  0.00000E+00  9.000E+00
#rwgt            1           9   1.0064150347984146E-002           1      112852           0
</event>
<event>
      6   9999  3.45752E-01  2.77573E+01 -1.00000E+00  1.50054E-01
      21    -1     0     0   501   502  0.000000000E+00  0.000000000E+00  7.962380613E+01  7.962380613E+01  0.000000000E+00  0.00000E+00  9.000E+00
      21    -1     0     0   502   511  0.000000000E+00  0.000000000E+00 -1.010899547E+02  1.010899547E+02  0.000000000E+00  0.00000E+00  9.000E+00
      25     1     1     2     0     0 -9.108672981E+00  6.397354696E+00  3.166396973E+00  1.255347980E+02  1.250002614E+02  0.00000E+00  9.000E+00
       5     1     1     2   501     0 -6.076573328E+00  5.429761365E+00 -1.100972776E+00  9.496404211E+00  4.750000000E+00  0.00000E+00  9.000E+00
      -5     1     1     2     0   503 -1.014045162E+01 -4.658673733E-01 -4.776063919E+00  1.218273689E+01  4.750000000E+00  0.00000E+00  9.000E+00
      21     1     1     2   503   511  2.532569793E+01 -1.136124869E+01 -1.875550887E+01  3.349982179E+01  8.596304120E-07  0.00000E+00  9.000E+00
#rwgt            1           9   1860.5725276242888                1      117127           0
</event>
<event>
      6   9999  3.45752E-01  7.90398E+00 -1.00000E+00  1.98638E-01
      21    -1     0     0   501   502  0.000000000E+00  0.000000000E+00  2.545139382E+01  2.545139382E+01  0.000000000E+00  0.00000E+00  9.000E+00
      21    -1     0     0   502   512  0.000000000E+00  0.000000000E+00 -1.101025786E+03  1.101025786E+03  0.000000000E+00  0.00000E+00  9.000E+00
      25     1     1     2     0     0  4.144158407E+01  5.202298341E+01 -3.561753849E+02  3.832880360E+02  1.250000722E+02  0.00000E+00  9.000E+00
       5     1     1     2   501     0 -1.830964743E-01  1.334546186E+00  8.891268824E+00  1.017013762E+01  4.750000000E+00  0.00000E+00  9.000E+00
      -5     1     1     2     0   503 -4.906502098E+01 -5.459484112E+01 -6.907685309E+02  6.946738074E+02  4.750000000E+00  0.00000E+00  9.000E+00
      21     1     1     2   503   512  7.806533390E+00  1.237311524E+00 -3.752174526E+01  3.834519879E+01  4.768371582E-07  0.00000E+00  9.000E+00
#rwgt            1           9   8.0852312432036933E-003           1      118052           0
</event>
<event>
      6   9999  3.45752E-01  8.41198E+00 -1.00000E+00  1.95468E-01
      21    -1     0     0   501   502  0.000000000E+00  0.000000000E+00  1.560635344E+02  1.560635344E+02  0.000000000E+00  0.00000E+00  9.000E+00
      21    -1     0     0   511   503  0.000000000E+00  0.000000000E+00 -2.888879323E+02  2.888879323E+02  0.000000000E+00  0.00000E+00  9.000E+00
      25     1     1     2     0     0 -2.693629501E+01  4.618178740E+01  5.909282873E+01  1.482521632E+02  1.250136793E+02  0.00000E+00  9.000E+00
       5     1     1     2   501     0 -1.236888005E+00 -2.714150035E+00  4.746197596E+01  4.779223959E+01  4.750000000E+00  0.00000E+00  9.000E+00
      -5     1     1     2     0   503  3.569645625E+01 -4.723085402E+01 -2.175935097E+02  2.255537376E+02  4.750000000E+00  0.00000E+00  9.000E+00
      21     1     1     2   511   502 -7.523273233E+00  3.763216650E+00 -2.178569285E+01  2.335332637E+01  0.000000000E+00  0.00000E+00  9.000E+00
#rwgt            1           9   2.4669854714899896E-004           1      121866           0
</event>
<event>
      6   9999  3.45752E-01  1.97486E+00 -1.00000E+00  3.35026E-01
      21    -1     0     0   501   502  0.000000000E+00  0.000000000E+00  2.610961316E+01  2.610961316E+01  0.000000000E+00  0.00000E+00  9.000E+00
      21    -1     0     0   512   503  0.000000000E+00  0.000000000E+00 -1.403357739E+03  1.403357739E+03  0.000000000E+00  0.00000E+00  9.000E+00
      25     1     1     2     0     0 -1.159500017E+00 -9.075283300E+00 -9.401692554E+02  9.484957697E+02  1.250691459E+02  0.00000E+00  9.000E+00
       5     1     1     2   501     0 -2.731420680E+00  7.660065845E+00  2.084131913E+01  2.287051269E+01  4.750000000E+00  0.00000E+00  9.000E+00
      -5     1     1     2     0   503  3.422672935E+00  3.333766236E+00 -1.296461954E+02  1.298211353E+02  4.750000000E+00  0.00000E+00  9.000E+00
      21     1     1     2   512   502  4.682477623E-01 -1.918548780E+00 -3.282739946E+02  3.282799348E+02  6.607249480E-06  0.00000E+00  9.000E+00
#rwgt            1           9   3.4328948648357547E-004           1      126583           0
</event>
<event>
      6   9999 -3.45752E-01  1.22616E+01 -1.00000E+00  1.78325E-01
      21    -1     0     0   511   503  0.000000000E+00  0.000000000E+00  2.972639105E+01  2.972639105E+01  0.000000000E+00  0.00000E+00  9.000E+00
      21    -1     0     0   501   502  0.000000000E+00  0.000000000E+00 -1.140467869E+03  1.140467869E+03  0.000000000E+00  0.00000E+00  9.000E+00
      25     1     1     2     0     0 -5.182604376E+00 -3.013964479E+01 -1.091209442E+03  1.098770089E+03  1.249896193E+02  0.00000E+00  9.000E+00
       5     1     1     2   501     0  1.155102487E+00 -3.671287800E+00  8.276865918E+00  1.028987975E+01  4.750000000E+00  0.00000E+00  9.000E+00
      -5     1     1     2     0   503  1.124478082E+01  2.389838225E+01  3.918439445E+00  2.712000069E+01  4.750000000E+00  0.00000E+00  9.000E+00
      21     1     1     2   511   502 -7.217278929E+00  9.912550345E+00 -3.172734134E+01  3.401429050E+01  3.371747881E-07  0.00000E+00  9.000E+00
#rwgt            1           9  -1.2114854133333880E-004           1      137138           0
</event>
<event>
      6   9999  3.45752E-01  3.74345E+00 -1.00000E+00  2.53963E-01
      21    -1     0     0   501   502  0.000000000E+00  0.000000000E+00  4.686121091E+00  4.686121091E+00  0.000000000E+00  0.00000E+00  9.000E+00
      21    -1     0     0   512   503  0.000000000E+00  0.000000000E+00 -1.637295179E+03  1.637295179E+03  0.000000000E+00  0.00000E+00  9.000E+00
      25     1     1     2     0     0 -2.026581304E+00 -6.283090345E+00 -1.406564226E+03  1.412122968E+03  1.249990804E+02  0.00000E+00  9.000E+00
       5     1     1     2   501     0  1.218741807E+00  1.520646485E+00 -2.209245800E+00  5.589361710E+00  4.750000000E+00  0.00000E+00  9.000E+00
      -5     1     1     2     0   503  1.625465267E-01  8.449854717E+00 -1.311600839E+02  1.315178945E+02  4.750000000E+00  0.00000E+00  9.000E+00
      21     1     1     2   512   502  6.452929707E-01 -3.687410857E+00 -9.267550161E+01  9.275107546E+01  0.000000000E+00  0.00000E+00  9.000E+00
#rwgt            1           9   1.2605234619686909E-002           1      140263           0
</event>
<event>
      6   9999 -3.45752E-01  7.29666E+00 -1.00000E+00  2.02868E-01
      21    -1     0     0   501   502  0.000000000E+00  0.000000000E+00  4.895010129E+02  4.895010129E+02  0.000000000E+00  0.00000E+00  9.000E+00
      21    -1     0     0   502   511  0.000000000E+00  0.000000000E+00 -5.729012829E+02  5.729012829E+02  0.000000000E+00  0.00000E+00  9.000E+00
      25     1     1     2     0     0 -1.769199716E+01 -3.341248606E+00  2.704520539E+02  2.984858872E+02  1.250013627E+02  0.00000E+00  9.000E+00
       5     1     1     2   501     0  1.671651171E+01  1.077975976E+01  1.884900686E+02  1.895961852E+02  4.750000000E+00  0.00000E+00  9.000E+00
      -5     1     1     2     0   503  2.250108351E+00 -2.540447031E-01  1.553145388E+01  1.639866110E+01  4.750000000E+00  0.00000E+00  9.000E+00
      21     1     1     2   503   511 -1.274622899E+00 -7.184466451E+00 -5.578738464E+02  5.579215623E+02  7.629394531E-06  0.00000E+00  9.000E+00
#rwgt            1           9  -558.32023012697982                1      145384           0
</event>
<event>
      6   9999  3.45752E-01  1.04331E+01 -1.00000E+00  1.85275E-01
      21    -1     0     0   512   502  0.000000000E+00  0.000000000E+00  9.454539162E+01  9.454539162E+01  0.000000000E+00  0.00000E+00  9.000E+00
      21    -1     0     0   502   503  0.000000000E+00  0.000000000E+00 -1.442399272E+03  1.442399272E+03  0.000000000E+00  0.00000E+00  9.000E+00
      25     1     1     2     0     0  7.187603293E+00 -1.747620691E+01 -1.328214557E+03  1.334216565E+03  1.249914150E+02  0.00000E+00  9.000E+00
       5     1     1     2   501     0  7.087435082E+00  2.112486988E+01  5.821005813E+01  6.250972110E+01  4.750000000E+00  0.00000E+00  9.000E+00
      -5     1     1     2     0   503 -1.097696620E+01  6.249386521E+00 -1.077283480E+02  1.085702910E+02  4.750000000E+00  0.00000E+00  9.000E+00
      21     1     1     2   512   501 -3.298072172E+00 -9.898049487E+00  2.987896706E+01  3.164808583E+01  1.719260824E-06  0.00000E+00  9.000E+00
#rwgt            1           9   4.2357647344455541E-005           1      148117           0
</event>
<event>
      6   9999  3.45752E-01  1.05987E+01 -1.00000E+00  1.84572E-01
      21    -1     0     0   501   502  0.000000000E+00  0.000000000E+00  6.121580465E+01  6.121580465E+01  0.000000000E+00  0.00000E+00  9.000E+00
      21    -1     0     0   502   511  0.000000000E+00  0.000000000E+00 -2.771970297E+02  2.771970297E+02  0.000000000E+00  0.00000E+00  9.000E+00
      25     1     1     2     0     0  3.385343052E+00  1.990631111E+01 -1.032348380E+02  1.633716448E+02  1.250005631E+02  0.00000E+00  9.000E+00
       5     1     1     2   501     0  3.578055410E-01 -1.206082365E-02  2.767673905E+01  2.808367060E+01  4.750000000E+00  0.00000E+00  9.000E+00
      -5     1     1     2     0   503 -1.079013279E+01 -2.781082064E+01 -7.806847351E+01  8.370852864E+01  4.750000000E+00  0.00000E+00  9.000E+00
      21     1     1     2   503   511  7.046984200E+00  7.916570350E+00 -6.235465259E+01  6.324899029E+01  6.743495762E-07  0.00000E+00  9.000E+00
#rwgt            1           9   26.655260528948723                1      152207           0
</event>
<event>
      6   9999  3.45752E-01  1.62886E+01 -1.00000E+00  1.67327E-01
      21    -1     0     0   501   502  0.000000000E+00  0.000000000E+00  2.939501236E+03  2.939501236E+03  0.000000000E+00  0.00000E+00  9.000E+00
      21    -1     0     0   512   503  0.000000000E+00  0.000000000E+00 -1.211400085E+01  1.211400085E+01  0.000000000E+00  0.00000E+00  9.000E+00
      25     1     1     2     0     0 -1.232947260E+01  1.848971883E+01  3.949430038E+02  4.148475434E+02  1.249984896E+02  0.00000E+00  9.000E+00
       5     1     1     2   501     0  1.286283799E+00  1.552107989E+00  2.420147450E+03  2.420152951E+03  4.750000000E+00  0.00000E+00  9.000E+00
      -5     1     1     2     0   503 -4.009000974E+00 -1.381685116E+01  5.394219954E+01  5.602946418E+01  4.750000000E+00  0.00000E+00  9.000E+00
      21     1     1     2   512   502  1.505218978E+01 -6.224975657E+00  5.835458197E+01  6.058527854E+01  1.651812370E-06  0.00000E+00  9.000E+00
#rwgt            1           9  0.89062442490894089                1      154714           0
</event>
<event>
      6   9999  3.45752E-01  1.06461E+01 -1.00000E+00  1.84374E-01
      21    -1     0     0   511   502  0.000000000E+00  0.000000000E+00  8.744298263E+01  8.744298263E+01  0.000000000E+00  0.00000E+00  9.000E+00
      21    -1     0     0   502   503  0.000000000E+00  0.000000000E+00 -8.532698458E+02  8.532698458E+02  0.000000000E+00  0.00000E+00  9.000E+00
      25     1     1     2     0     0  7.637334327E+00  1.226762051E+01 -5.706599671E+02  5.843729412E+02  1.250204502E+02  0.00000E+00  9.000E+00
       5     1     1     2   501     0 -2.997688465E+00  2.109103902E+00  3.718943123E+00  7.058859210E+00  4.750000000E+00  0.00000E+00  9.000E+00
      -5     1     1     2     0   503 -1.403975359E+01 -9.379022037E+00 -2.734242175E+02  2.739862149E+02  4.750000000E+00  0.00000E+00  9.000E+00
      21     1     1     2   511   501  9.400107729E+00 -4.997702373E+00  7.453837827E+01  7.529481316E+01  1.348699152E-06  0.00000E+00  9.000E+00
#rwgt            1           9   2.3576921176653087                1      156813           0
</event>
<event>
      6   9999 -3.45752E-01  1.62493E+01 -1.00000E+00  1.67414E-01
      21    -1     0     0   501   502  0.000000000E+00  0.000000000E+00  1.102488017E+01  1.102488017E+01  0.000000000E+00  0.00000E+00  9.000E+00
      21    -1     0     0   502   512  0.000000000E+00  0.000000000E+00 -1.019068867E+03  1.019068867E+03  0.000000000E+00  0.00000E+00  9.000E+00
      25     1     1     2     0     0  2.434223248E+01 -5.252915495E+00 -6.542116478E+02  6.665125226E+02  1.250037009E+02  0.00000E+00  9.000E+00
       5     1     1     2   501     0 -1.529408870E+00  9.423923915E-01 -1.800864521E+00  5.388210086E+00  4.750000000E+00  0.00000E+00  9.000E+00
      -5     1     1     2     0   503 -3.902580470E+01  5.396420668E+00 -1.393025685E+02  1.448444092E+02  4.750000000E+00  0.00000E+00  9.000E+00
      21     1     1     2   503   512  1.621298108E+01 -1.085897564E+00 -2.127289055E+02  2.133486048E+02  0.000000000E+00  0.00000E+00  9.000E+00
#rwgt            1           9  -1.8793026412855895E-004           1      159117           0
</event>
<event>
      6   9999  3.45752E-01  1.26248E+01 -1.00000E+00  1.77126E-01
      21    -1     0     0   501   511  0.000000000E+00  0.000000000E+00  5.684680985E+01  5.684680985E+01  0.000000000E+00  0.00000E+00  9.000E+00
      21    -1     0     0   502   503  0.000000000E+00  0.000000000E+00 -7.837812810E+02  7.837812810E+02  0.000000000E+00  0.00000E+00  9.000E+00
      25     1     1     2     0     0  1.651655804E+00 -7.347251144E+00 -5.553355525E+02  5.692680527E+02  1.249473082E+02  0.00000E+00  9.000E+00
       5     1     1     2   501     0  6.967369381E+00 -4.969947161E+00 -6.128337371E+00  1.154831719E+01  4.750000000E+00  0.00000E+00  9.000E+00
      -5     1     1     2     0   503  3.400722822E+00  8.455622745E+00 -2.116695009E+02  2.119188584E+02  4.750000000E+00  0.00000E+00  9.000E+00
      21     1     1     2   502   511 -1.201974801E+01  3.861575560E+00  4.619891961E+01  4.789286253E+01  2.611744678E-06  0.00000E+00  9.000E+00
#rwgt            1           9   9.6697848776562711E-004           1      160738           0
</event>
<event>
      6   9999  3.45752E-01  3.68791E+01 -1.00000E+00  1.42263E-01
      21    -1     0     0   501   502  0.000000000E+00  0.000000000E+00  3.058196253E+01  3.058196253E+01  0.000000000E+00  0.00000E+00  9.000E+00
      21    -1     0     0   512   503  0.000000000E+00  0.000000000E+00 -2.220404478E+03  2.220404478E+03  0.000000000E+00  0.00000E+00  9.000E+00
      25     1     1     2     0     0 -1.320894930E+02 -4.501474976E+01 -3.445576064E+02  3.921967568E+02  1.249975603E+02  0.00000E+00  9.000E+00
       5     1     1     2   501     0 -1.281716274E+00  4.357705742E-02  1.694277145E-01  4.922997189E+00  4.750000000E+00  0.00000E+00  9.000E+00
      -5     1     1     2     0   503  9.757693490E+01  5.385007665E+01 -7.953173506E+02  8.031023220E+02  4.750000000E+00  0.00000E+00  9.000E+00
      21     1     1     2   512   502  3.579427437E+01 -8.878903945E+00 -1.050116986E+03  1.050764364E+03  1.525878906E-05  0.00000E+00  9.000E+00
#rwgt            1           9   2.0937412521839343E-004           1      163445           0
</event>
<event>
      6   9999  3.45752E-01  3.99873E+00 -1.00000E+00  2.47879E-01
      21    -1     0     0   501   502  0.000000000E+00  0.000000000E+00  2.053551871E+01  2.053551871E+01  0.000000000E+00  0.00000E+00  9.000E+00
      21    -1     0     0   511   503  0.000000000E+00  0.000000000E+00 -1.039577405E+03  1.039577405E+03  0.000000000E+00  0.00000E+00  9.000E+00
      25     1     1     2     0     0 -6.814635353E+00  1.358968634E+00 -9.815138593E+02  9.894658893E+02  1.250000165E+02  0.00000E+00  9.000E+00
       5     1     1     2   501     0  4.245307245E+00  5.878272495E-01  1.553352653E+01  1.679943811E+01  4.750000000E+00  0.00000E+00  9.000E+00
      -5     1     1     2     0   503 -1.398898302E+00 -1.453830564E+00 -2.880230969E+01  2.926099936E+01  4.750000000E+00  0.00000E+00  9.000E+00
      21     1     1     2   511   502  3.968226411E+00 -4.929653193E-01 -2.425924346E+01  2.458659653E+01  3.371747881E-07  0.00000E+00  9.000E+00
#rwgt            1           9   3.5512549373529932E-003           1      164719           0
</event>
<event>
      6   9999  3.45752E-01  1.09083E+01 -1.00000E+00  1.83302E-01
      21    -1     0     0   501   502  0.000000000E+00  0.000000000E+00  2.705027849E+01  2.705027849E+01  0.000000000E+00  0.00000E+00  9.000E+00
      21    -1     0     0   512   503  0.000000000E+00  0.000000000E+00 -2.466500090E+03  2.466500090E+03  0.000000000E+00  0.00000E+00  9.000E+00
      25     1     1     2     0     0 -2.437961731E+01 -7.940685420E+00 -4.913428122E+02  5.076412959E+02  1.249980238E+02  0.00000E+00  9.000E+00
       5     1     1     2   501     0  2.865987798E-02  1.763950339E-01  1.832012084E+01  1.892673411E+01  4.750000000E+00  0.00000E+00  9.000E+00
      -5     1     1     2     0   503  1.707104260E+01  1.588796958E+01 -5.516210521E+02  5.521342189E+02  4.750000000E+00  0.00000E+00  9.000E+00
      21     1     1     2   512   502  7.279914831E+00 -8.123679193E+00 -1.414806068E+03  1.414848120E+03  1.525878906E-05  0.00000E+00  9.000E+00
#rwgt            1           9   1.1243229277139530E-003           1      170322           0
</event>
<event>
      6   9999  3.45752E-01  3.20121E+01 -1.00000E+00  1.46037E-01
      21    -1     0     0   502   503  0.000000000E+00  0.000000000E+00  8.059462034E+00  8.059462034E+00  0.000000000E+00  0.00000E+00  9.000E+00
       2    -1     0     0   501     0  0.000000000E+00  0.000000000E+00 -2.390389082E+03  2.390389082E+03  0.000000000E+00  0.00000E+00  9.000E+00
      25     1     1     2     0     0 -1.555659695E+01 -1.691959688E+01 -7.406864980E+02  7.515108775E+02  1.249953212E+02  0.00000E+00  9.000E+00
       5     1     1     2   501     0  5.711169713E+00 -1.400495013E+01 -7.864840537E+01  8.023023279E+01  4.750000000E+00  0.00000E+00  9.000E+00
      -5     1     1     2     0   503  7.906021539E+00 -1.028793684E+00 -1.103947331E+01  1.442206864E+01  4.750000000E+00  0.00000E+00  9.000E+00
       2     1     1     2   502     0  1.939405697E+00  3.195334070E+01 -1.551955243E+03  1.552285365E+03  2.157918644E-05  0.00000E+00  9.000E+00
#rwgt            1           9   5314.5172933565846                1      173424           0
</event>
<event>
      6   9999  3.45752E-01  8.02717E+00 -1.00000E+00  1.97841E-01
      21    -1     0     0   501   511  0.000000000E+00  0.000000000E+00  1.213921536E+01  1.213921536E+01  0.000000000E+00  0.00000E+00  9.000E+00
      21    -1     0     0   502   503  0.000000000E+00  0.000000000E+00 -7.458155107E+02  7.458155107E+02  0.000000000E+00  0.00000E+00  9.000E+00
      25     1     1     2     0     0  1.384552105E+01  5.701309359E+00 -6.238681592E+02  6.364445810E+02  1.250040848E+02  0.00000E+00  9.000E+00
       5     1     1     2   501     0  1.141880028E+00  3.768026471E-01 -1.738262869E+00  5.199031452E+00  4.750000000E+00  0.00000E+00  9.000E+00
      -5     1     1     2     0   503 -9.944002145E+00  1.668517029E-01 -1.077136395E+02  1.082760438E+02  4.750000000E+00  0.00000E+00  9.000E+00
      21     1     1     2   502   511 -5.043398936E+00 -6.244963709E+00 -3.562337261E-01  8.035069821E+00  1.954978967E-07  0.00000E+00  9.000E+00
#rwgt            1           9   2.1169016194890673E-004           1      174267           0
</event>
<event>
      6   9999  3.45752E-01  1.11090E+01 -1.00000E+00  1.82507E-01
      21    -1     0     0   501   502  0.000000000E+00  0.000000000E+00  3.527608714E+01  3.527608714E+01  0.000000000E+00  0.00000E+00  9.000E+00
       2    -1     0     0   502     0  0.000000000E+00  0.000000000E+00 -2.870053333E+03  2.870053333E+03  0.000000000E+00  0.00000E+00  9.000E+00
      25     1     1     2     0     0 -7.998684721E+00 -4.574208813E+01 -1.016757777E+02  1.676858995E+02  1.249971182E+02  0.00000E+00  9.000E+00
       5     1     1     2   501     0  2.026527738E+00 -1.616002768E+00 -2.059206183E+00  5.789741767E+00  4.750000000E+00  0.00000E+00  9.000E+00
      -5     1     1     2     0   503  1.215357439E+01  3.812765786E+01 -1.047531511E+03  1.048306375E+03  4.750000000E+00  0.00000E+00  9.000E+00
       2     1     1     2   503     0 -6.181417407E+00  9.230433038E+00 -1.683510751E+03  1.683547404E+03  3.051757812E-05  0.00000E+00  9.000E+00
#rwgt            1           9   1.2191704279450364                1      176831           0
</event>
<event>
      6   9999  3.45752E-01  2.33608E+01 -1.00000E+00  1.55227E-01
      21    -1     0     0   501   502  0.000000000E+00  0.000000000E+00  5.955209067E+01  5.955209067E+01  0.000000000E+00  0.00000E+00  9.000E+00
      21    -1     0     0   502   511  0.000000000E+00  0.000000000E+00 -2.780830320E+03  2.780830320E+03  0.000000000E+00  0.00000E+00  9.000E+00
      25     1     1     2     0     0 -9.664621326E+01  1.808968223E+01 -7.197752742E+01  1.745596722E+02  1.249903499E+02  0.00000E+00  9.000E+00
       5     1     1     2   501     0 -1.384113106E+00 -9.147959945E-01  6.058470973E+00  7.875289921E+00  4.750000000E+00  0.00000E+00  9.000E+00
      -5     1     1     2     0   503  7.521755769E+01 -1.214455050E+01 -1.213388016E+03  1.215787074E+03  4.750000000E+00  0.00000E+00  9.000E+00
      21     1     1     2   503   511  2.281276867E+01 -5.030335737E+00 -1.441971157E+03  1.442160374E+03  1.525878906E-05  0.00000E+00  9.000E+00
#rwgt            1           9   2.9203602234738780E-004           1      180769           0
</event>
<event>
      6   9999 -3.45752E-01  6.69490E+00 -1.00000E+00  2.07636E-01
      21    -1     0     0   501   502  0.000000000E+00  0.000000000E+00  7.259857465E+00  7.259857465E+00  0.000000000E+00  0.00000E+00  9.000E+00
      21    -1     0     0   502   512  0.000000000E+00  0.000000000E+00 -1.231488575E+03  1.231488575E+03  0.000000000E+00  0.00000E+00  9.000E+00
      25     1     1     2     0     0 -1.096055799E+00  5.394500387E+00 -1.096548490E+03  1.103672055E+03  1.250724256E+02  0.00000E+00  9.000E+00
       5     1     1     2   501     0 -3.929106892E-01 -7.418487118E-01  1.733906153E+00  5.125782757E+00  4.750000000E+00  0.00000E+00  9.000E+00
      -5     1     1     2     0   503 -9.632778244E-01  1.576970503E+00 -5.425933680E+01  5.449819144E+01  4.750000000E+00  0.00000E+00  9.000E+00
      21     1     1     2   503   512  2.452244313E+00 -6.229622178E+00 -7.515479721E+01  7.545240380E+01  9.536743164E-07  0.00000E+00  9.000E+00
#rwgt            1           9  -6.0543334709913335E-004           1      183728           0
</event>
<event>
      6   9999  3.45752E-01  3.20959E+01 -1.00000E+00  1.45966E-01
      21    -1     0     0   501   511  0.000000000E+00  0.000000000E+00  5.126546624E+01  5.126546624E+01  0.000000000E+00  0.00000E+00  9.000E+00
      21    -1     0     0   502   503  0.000000000E+00  0.000000000E+00 -9.268467056E+02  9.268467056E+02  0.000000000E+00  0.00000E+00  9.000E+00
      25     1     1     2     0     0 -6.922892659E+01  4.052315643E+01 -4.317868222E+02  4.566174949E+02  1.249996254E+02  0.00000E+00  9.000E+00
       5     1     1     2   501     0  3.865760513E+01 -3.451574603E+01 -2.432002678E+02  2.487060111E+02  4.750000000E+00  0.00000E+00  9.000E+00
      -5     1     1     2     0   503  2.279946198E+00 -2.116468993E+01 -2.289346610E+02  2.299712672E+02  4.750000000E+00  0.00000E+00  9.000E+00
      21     1     1     2   502   511  2.829137526E+01  1.515727953E+01  2.834051157E+01  4.281739872E+01  4.768371582E-07  0.00000E+00  9.000E+00
#rwgt            1           9  0.71593664202618157                1      186986           0
</event>
<event>
      6   9999  3.45752E-01  5.29535E+00 -1.00000E+00  2.21905E-01
      21    -1     0     0   501   512  0.000000000E+00  0.000000000E+00  1.141286128E+01  1.141286128E+01  0.000000000E+00  0.00000E+00  9.000E+00
      21    -1     0     0   502   503  0.000000000E+00  0.000000000E+00 -7.883540780E+02  7.883540780E+02  0.000000000E+00  0.00000E+00  9.000E+00
      25     1     1     2     0     0  3.961437748E-01  1.264766388E+01 -6.569990658E+02  6.689069553E+02  1.250144876E+02  0.00000E+00  9.000E+00
       5     1     1     2   501     0 -8.716803358E-01 -2.354050666E+00  2.647507380E+00  5.989422048E+00  4.750000000E+00  0.00000E+00  9.000E+00
      -5     1     1     2     0   503  2.416393671E+00 -1.522045598E+01 -1.105203315E+02  1.116906774E+02  4.750000000E+00  0.00000E+00  9.000E+00
      21     1     1     2   502   512 -1.940857110E+00  4.926842767E+00 -1.206932683E+01  1.317988452E+01  2.384185791E-07  0.00000E+00  9.000E+00
#rwgt            1           9   9.2486901063958769E-003           1      188072           0
</event>
<event>
      6   9999  3.45752E-01  3.33463E+01 -1.00000E+00  1.44927E-01
      21    -1     0     0   501   502  0.000000000E+00  0.000000000E+00  3.837724103E+01  3.837724103E+01  0.000000000E+00  0.00000E+00  9.000E+00
      21    -1     0     0   511   503  0.000000000E+00  0.000000000E+00 -1.485668094E+03  1.485668094E+03  0.000000000E+00  0.00000E+00  9.000E+00
      25     1     1     2     0     0 -2.897259173E+00  3.605263086E+01 -2.829743811E+02  3.114596799E+02  1.249977820E+02  0.00000E+00  9.000E+00
       5     1     1     2   501     0  3.883775939E+00  3.009479288E+00  2.256556182E+01  2.357769627E+01  4.750000000E+00  0.00000E+00  9.000E+00
      -5     1     1     2     0   503  9.284924833E+00 -7.337196534E+00 -9.149662601E+02  9.150551153E+02  4.750000000E+00  0.00000E+00  9.000E+00
      21     1     1     2   511   502 -1.027144160E+01 -3.172491361E+01 -2.719157736E+02  2.739528438E+02  3.814697266E-06  0.00000E+00  9.000E+00
#rwgt            1           9   3.1388430618996607E-004           1      192193           0
</event>
<event>
      6   9999  3.45752E-01  5.01830E+00 -1.00000E+00  2.25470E-01
      21    -1     0     0   501   502  0.000000000E+00  0.000000000E+00  1.739000188E+01  1.739000188E+01  0.000000000E+00  0.00000E+00  9.000E+00
      21    -1     0     0   502   512  0.000000000E+00  0.000000000E+00 -9.830175553E+02  9.830175553E+02  0.000000000E+00  0.00000E+00  9.000E+00
      25     1     1     2     0     0  4.180035537E+01 -2.014080179E+01 -7.556704144E+02  7.673432559E+02  1.249999022E+02  0.00000E+00  9.000E+00
       5     1     1     2   501     0  2.963776201E+00 -2.763818041E+00  7.089901378E+00  9.447320312E+00  4.750000000E+00  0.00000E+00  9.000E+00
      -5     1     1     2     0   503 -3.980255344E+01  2.215227188E+01 -1.622313528E+02  1.685720639E+02  4.750000000E+00  0.00000E+00  9.000E+00
      21     1     1     2   503   512 -4.961578133E+00  7.523479554E-01 -5.481568760E+01  5.504491704E+01  6.743495762E-07  0.00000E+00  9.000E+00
#rwgt            1           9   7.1028978896670784E-004           1      194488           0
</event>
<event>
      6   9999 -3.45752E-01  2.26994E+01 -1.00000E+00  1.56124E-01
      21    -1     0     0   501   502  0.000000000E+00  0.000000000E+00  1.796197118E+02  1.796197118E+02  0.000000000E+00  0.00000E+00  9.000E+00
      21    -1     0     0   511   503  0.000000000E+00  0.000000000E+00 -4.338227999E+02  4.338227999E+02  0.000000000E+00  0.00000E+00  9.000E+00
      25     1     1     2     0     0  2.072441116E+01 -3.601468671E+01 -3.752367788E+02  3.976840267E+02  1.249935440E+02  0.00000E+00  9.000E+00
       5     1     1     2   501     0 -3.007935161E+00  3.007971540E+00  1.159634248E+02  1.161385980E+02  4.750000000E+00  0.00000E+00  9.000E+00
      -5     1     1     2     0   503 -3.228060971E+01  1.559560634E+01  4.252539662E+01  5.582322597E+01  4.750000000E+00  0.00000E+00  9.000E+00
      21     1     1     2   511   502  1.456413371E+01  1.741110882E+01 -3.745513069E+01  4.379666102E+01  4.768371582E-07  0.00000E+00  9.000E+00
#rwgt            1           9  -1.8030448563314259E-004           1      199123           0
</event>
<event>
      6   9999  3.45752E-01  6.72356E+00 -1.00000E+00  2.07394E-01
      -1    -1     0     0     0   502  0.000000000E+00  0.000000000E+00  3.374521544E+02  3.374521544E+02  0.000000000E+00  0.00000E+00  9.000E+00
      21    -1     0     0   502   503  0.000000000E+00  0.000000000E+00 -8.921892428E+02  8.921892428E+02  0.000000000E+00  0.00000E+00  9.000E+00
      25     1     1     2     0     0  2.204694228E+01 -7.706455853E+00 -6.459067516E+02  6.583065250E+02  1.250059675E+02  0.00000E+00  9.000E+00
       5     1     1     2   501     0  2.230423268E+00  4.160434756E+00  6.347356445E+00  9.226886753E+00  4.750000000E+00  0.00000E+00  9.000E+00
      -5     1     1     2     0   503 -2.371532337E+01  1.024604906E+01 -2.378849197E+02  2.393307244E+02  4.750000000E+00  0.00000E+00  9.000E+00
      -1     1     1     2     0   501 -5.620421774E-01 -6.700027959E+00  3.227072265E+02  3.227772611E+02  3.814697266E-06  0.00000E+00  9.000E+00
#rwgt            1           9   1.2556275754842426E-004           1      201504           0
</event>
<event>
      6   9999  3.45752E-01  8.43383E+00 -1.00000E+00  1.95338E-01
      21    -1     0     0   501   502  0.000000000E+00  0.000000000E+00  2.200329683E+00  2.200329683E+00  0.000000000E+00  0.00000E+00  9.000E+00
      21    -1     0     0   502   511  0.000000000E+00  0.000000000E+00 -3.375679866E+03  3.375679866E+03  0.000000000E+00  0.00000E+00  9.000E+00
      25     1     1     2     0     0  5.825066581E+00 -7.063524365E+00 -2.669469162E+03  2.672409807E+03  1.249989666E+02  0.00000E+00  9.000E+00
       5     1     1     2   501     0 -1.964714199E-01  1.069850543E-01 -3.550964012E+01  3.582662541E+01  4.750000000E+00  0.00000E+00  9.000E+00
      -5     1     1     2     0   503 -1.401366219E+01  7.862129432E+00 -1.298025625E+02  1.308795765E+02  4.750000000E+00  0.00000E+00  9.000E+00
      21     1     1     2   503   511  8.385067025E+00 -9.055901216E-01 -5.386981709E+02  5.387641866E+02  0.000000000E+00  0.00000E+00  9.000E+00
#rwgt            1           9   4.8739486524606336E-003           1      205131           0
</event>
<event>
      6   9999  3.45752E-01  5.60448E+00 -1.00000E+00  2.18268E-01
      -2    -1     0     0     0   502  0.000000000E+00  0.000000000E+00  2.212707990E+02  2.212707990E+02  0.000000000E+00  0.00000E+00  9.000E+00
      21    -1     0     0   502   503  0.000000000E+00  0.000000000E+00 -1.008268930E+03  1.008268930E+03  0.000000000E+00  0.00000E+00  9.000E+00
      25     1     1     2     0     0 -1.997653811E+01  1.444926279E+01 -8.343584151E+02  8.440209957E+02  1.249385168E+02  0.00000E+00  9.000E+00
       5     1     1     2   501     0  3.323563579E+00 -1.027073672E+00  1.530541212E+01  1.639875286E+01  4.750000000E+00  0.00000E+00  9.000E+00
      -5     1     1     2     0   503  1.739864975E+01 -7.867541480E+00 -1.679188299E+02  1.690677591E+02  4.750000000E+00  0.00000E+00  9.000E+00
      -2     1     1     2     0   501 -7.456752164E-01 -5.554647641E+00  1.999737015E+02  2.000522218E+02  2.697398305E-06  0.00000E+00  9.000E+00
#rwgt            1           9   2.6713972285814088E-003           1      207342           0
</event>
<event>
      6   9999 -3.45752E-01  7.83585E+00 -1.00000E+00  1.99087E-01
      21    -1     0     0   501   511  0.000000000E+00  0.000000000E+00  3.755103619E+01  3.755103619E+01  0.000000000E+00  0.00000E+00  9.000E+00
      21    -1     0     0   502   503  0.000000000E+00  0.000000000E+00 -7.282361205E+02  7.282361205E+02  0.000000000E+00  0.00000E+00  9.000E+00
      25     1     1     2     0     0 -2.092784343E+00  6.941381071E+00 -6.370398892E+02  6.492280946E+02  1.249989432E+02  0.00000E+00  9.000E+00
       5     1     1     2   501     0  5.069823098E-01  7.035329119E-01 -1.863441422E+00  5.175606588E+00  4.750000000E+00  0.00000E+00  9.000E+00
      -5     1     1     2     0   503  7.677089822E-01  1.481107602E-01 -8.099481049E+01  8.113774177E+01  4.750000000E+00  0.00000E+00  9.000E+00
      21     1     1     2   502   511  8.180930506E-01 -7.793024743E+00  2.921305683E+01  3.024571375E+01  2.477718555E-06  0.00000E+00  9.000E+00
#rwgt            1           9  -3.0043384062033047E-004           1      212480           0
</event>
<event>
      6   9999  3.45752E-01  3.32978E+01 -1.00000E+00  1.44967E-01
      21    -1     0     0   501   502  0.000000000E+00  0.000000000E+00  3.841969395E+01  3.841969395E+01  0.000000000E+00  0.00000E+00  9.000E+00
       2    -1     0     0   502     0  0.000000000E+00  0.000000000E+00 -2.567176901E+03  2.567176901E+03  0.000000000E+00  0.00000E+00  9.000E+00
      25     1     1     2     0     0  1.351223585E+01  3.651462944E+00 -1.004542226E+03  1.012387473E+03  1.250095897E+02  0.00000E+00  9.000E+00
       5     1     1     2   501     0 -8.001021878E+00 -1.919061570E+00  3.187584716E+01  3.326155860E+01  4.750000000E+00  0.00000E+00  9.000E+00
      -5     1     1     2     0   503 -2.509932797E+01 -2.865914620E+01 -2.122395661E+02  2.156838400E+02  4.750000000E+00  0.00000E+00  9.000E+00
       2     1     1     2   503     0  1.958811400E+01  2.692674483E+01 -1.343851262E+03  1.344263724E+03  2.157918644E-05  0.00000E+00  9.000E+00
#rwgt            1           9   3.7131827274172283E-005           1      215021           0
</event>
<event>
      6   9999  3.45752E-01  1.25186E+01 -1.00000E+00  1.77471E-01
      21    -1     0     0   501   511  0.000000000E+00  0.000000000E+00  3.214442804E+02  3.214442804E+02  0.000000000E+00  0.00000E+00  9.000E+00
      21    -1     0     0   502   503  0.000000000E+00  0.000000000E+00 -1.263853348E+02  1.263853348E+02  0.000000000E+00  0.00000E+00  9.000E+00
      25     1     1     2     0     0 -1.088857503E+02 -5.285236743E+00  1.697723613E+02  2.373441820E+02  1.250022627E+02  0.00000E+00  9.000E+00
       5     1     1     2   501     0  5.228193143E-01 -3.682520639E+00  7.016580622E+01  7.042469141E+01  4.750000000E+00  0.00000E+00  9.000E+00
      -5     1     1     2     0   503  1.089912431E+02 -3.535099746E+00 -5.656282660E+01  1.229369914E+02  4.750000000E+00  0.00000E+00  9.000E+00
      21     1     1     2   502   511 -6.283120470E-01  1.250285713E+01  1.168360469E+01  1.712375049E+01  1.685873940E-07  0.00000E+00  9.000E+00
#rwgt            1           9   5.7499931998419677E-004           1      216951           0
</event>
<event>
      6   9999  3.45752E-01  5.24704E+01 -1.00000E+00  1.33676E-01
      21    -1     0     0   502   512  0.000000000E+00  0.000000000E+00  8.986615754E+01  8.986615754E+01  0.000000000E+00  0.00000E+00  9.000E+00
      21    -1     0     0   501   502  0.000000000E+00  0.000000000E+00 -8.653104188E+02  8.653104188E+02  0.000000000E+00  0.00000E+00  9.000E+00
      25     1     1     2     0     0 -1.181032914E+02 -2.413208239E+01 -1.153173406E+02  2.084563113E+02  1.250007994E+02  0.00000E+00  9.000E+00
       5     1     1     2   501     0  3.358450313E+00 -1.579931835E+01 -4.662023819E+02  4.665062926E+02  4.750000000E+00  0.00000E+00  9.000E+00
      -5     1     1     2     0   503  8.562926527E+01  8.358256377E+01 -1.937162278E+02  2.277431788E+02  4.750000000E+00  0.00000E+00  9.000E+00
      21     1     1     2   503   512  2.911557583E+01 -4.365116303E+01 -2.083109384E-01  5.247079362E+01  2.469673610E-07  0.00000E+00  9.000E+00
#rwgt            1           9   8.7042746859913936E-002           1      220519           0
</event>
<event>
      6   9999  3.45752E-01  1.46416E+01 -1.00000E+00  1.71287E-01
      21    -1     0     0   501   502  0.000000000E+00  0.000000000E+00  3.220048729E+03  3.220048729E+03  0.000000000E+00  0.00000E+00  9.000E+00
      21    -1     0     0   502   511  0.000000000E+00  0.000000000E+00 -8.332181858E+00  8.332181858E+00  0.000000000E+00  0.00000E+00  9.000E+00
      25     1     1     2     0     0  8.330192816E+00 -5.206377425E+00  2.421280694E+03  2.424524949E+03  1.249981285E+02  0.00000E+00  9.000E+00
       5     1     1     2   501     0  1.541829189E+00 -1.387867389E+00  7.315095000E+02  7.315278631E+02  4.750000000E+00  0.00000E+00  9.000E+00
      -5     1     1     2     0   503 -4.472404214E+00 -7.015366011E+00  5.671735596E+01  5.752076779E+01  4.750000000E+00  0.00000E+00  9.000E+00
      21     1     1     2   503   511 -5.399617791E+00  1.360961082E+01  2.208997422E+00  1.480733091E+01  1.550007298E-06  0.00000E+00  9.000E+00
#rwgt            1           9   2.7489588991964600E-002           1      221681           0
</event>
<event>
      6   9999  3.45752E-01  1.05770E+01 -1.00000E+00  1.84664E-01
       2    -1     0     0   501     0  0.000000000E+00  0.000000000E+00  3.093644962E+02  3.093644962E+02  0.000000000E+00  0.00000E+00  9.000E+00
      21    -1     0     0   502   503  0.000000000E+00  0.000000000E+00 -1.646806622E+02  1.646806622E+02  0.000000000E+00  0.00000E+00  9.000E+00
      25     1     1     2     0     0 -4.043077934E+00  1.669741670E+01 -1.198732013E+02  1.740613228E+02  1.250304343E+02  0.00000E+00  9.000E+00
       5     1     1     2   501     0  3.329615168E-01  8.928082433E-01  2.459627923E+00  5.433253119E+00  4.750000000E+00  0.00000E+00  9.000E+00
      -5     1     1     2     0   503  3.043851899E+00 -7.034263204E+00 -1.486509800E+01  1.738618796E+01  4.750000000E+00  0.00000E+00  9.000E+00
       2     1     1     2   502     0  6.662645180E-01 -1.055596174E+01  2.769625053E+02  2.771643945E+02  5.394796609E-06  0.00000E+00  9.000E+00
#rwgt            1           9   1.7785584205417176E-002           1      223088           0
</event>
<event>
      6   9999  3.45752E-01  1.77667E+01 -1.00000E+00  1.64237E-01
      21    -1     0     0   501   511  0.000000000E+00  0.000000000E+00  3.052987141E+01  3.052987141E+01  0.000000000E+00  0.00000E+00  9.000E+00
      21    -1     0     0   502   503  0.000000000E+00  0.000000000E+00 -1.101118110E+03  1.101118110E+03  0.000000000E+00  0.00000E+00  9.000E+00
      25     1     1     2     0     0  8.420181488E+00  1.891374711E+01 -1.005115188E+03  1.013069730E+03  1.250004343E+02  0.00000E+00  9.000E+00
       5     1     1     2   501     0 -4.552496529E+00  3.390878949E+00  2.118291150E+01  2.243883964E+01  4.750000000E+00  0.00000E+00  9.000E+00
      -5     1     1     2     0   503 -1.143522722E-01 -4.938877919E+00 -7.402213836E+01  7.433871843E+01  4.750000000E+00  0.00000E+00  9.000E+00
      21     1     1     2   502   511 -3.753332688E+00 -1.736574814E+01 -1.263382438E+01  2.180069341E+01  2.384185791E-07  0.00000E+00  9.000E+00
#rwgt            1           9   4.0957315774320926E-003           1      225161           0
</event>
<event>
      6   9999  3.45752E-01  1.51120E+01 -1.00000E+00  1.70092E-01
      21    -1     0     0   501   502  0.000000000E+00  0.000000000E+00  4.106052407E+02  4.106052407E+02  0.000000000E+00  0.00000E+00  9.000E+00
      21    -1     0     0   502   512  0.000000000E+00  0.000000000E+00 -8.867877517E+01  8.867877517E+01  0.000000000E+00  0.00000E+00  9.000E+00
      25     1     1     2     0     0  5.228695253E+01 -1.577289405E+01  2.627517560E+01  1.389176619E+02  1.250000894E+02  0.00000E+00  9.000E+00
       5     1     1     2   501     0 -1.107991896E+00  7.674202392E-01  2.991361884E+02  2.991769348E+02  4.750000000E+00  0.00000E+00  9.000E+00
      -5     1     1     2     0   503 -4.501162093E+01  1.209187955E+00  1.423983317E+00  4.530009252E+01  4.750000000E+00  0.00000E+00  9.000E+00
      21     1     1     2   503   512 -6.167339702E+00  1.379628586E+01 -4.908881789E+00  1.588932670E+01  1.685873940E-07  0.00000E+00  9.000E+00
#rwgt            1           9  0.79328235426801641                1      227322           0
</event>
<event>
      6   9999  3.45752E-01  1.11039E+01 -1.00000E+00  1.82527E-01
      21    -1     0     0   501   502  0.000000000E+00  0.000000000E+00  1.588067821E+01  1.588067821E+01  0.000000000E+00  0.00000E+00  9.000E+00
       2    -1     0     0   502     0  0.000000000E+00  0.000000000E+00 -1.437957286E+03  1.437957286E+03  0.000000000E+00  0.00000E+00  9.000E+00
      25     1     1     2     0     0 -1.614937981E+01  8.148048078E-01 -6.004218296E+02  6.135093232E+02  1.250033996E+02  0.00000E+00  9.000E+00
       5     1     1     2   501     0  3.252414928E+00  5.592218680E+00  7.098851982E+00  1.071481741E+01  4.750000000E+00  0.00000E+00  9.000E+00
      -5     1     1     2     0   503  1.980842498E+01  2.283687032E+00 -2.805717132E+02  2.813194584E+02  4.750000000E+00  0.00000E+00  9.000E+00
       2     1     1     2   503     0 -6.911460089E+00 -8.690710520E+00 -5.481819165E+02  5.482943647E+02  0.000000000E+00  0.00000E+00  9.000E+00
#rwgt            1           9   3.0177292356112603E-002           1      230047           0
</event>
<event>
      6   9999  3.45752E-01  1.37803E+01 -1.00000E+00  1.73627E-01
      21    -1     0     0   501   502  0.000000000E+00  0.000000000E+00  2.497751448E+01  2.497751448E+01  0.000000000E+00  0.00000E+00  9.000E+00
      21    -1     0     0   511   503  0.000000000E+00  0.000000000E+00 -1.056503176E+03  1.056503176E+03  0.000000000E+00  0.00000E+00  9.000E+00
      25     1     1     2     0     0 -7.288598178E+01  7.031730532E+01 -4.849631086E+02  5.109508184E+02  1.249985292E+02  0.00000E+00  9.000E+00
       5     1     1     2   501     0 -7.303367465E-01 -9.360181390E-01  3.474841378E+00  6.003877440E+00  4.750000000E+00  0.00000E+00  9.000E+00
      -5     1     1     2     0   503  7.568843950E+01 -8.300485869E+01 -4.663626834E+02  4.797241514E+02  4.750000000E+00  0.00000E+00  9.000E+00
      21     1     1     2   511   502 -2.072120968E+00  1.362357151E+01 -8.367471040E+01  8.480184283E+01  1.348699152E-06  0.00000E+00  9.000E+00
#rwgt            1           9  0.26031347461842053                1      232212           0
</event>
<event>
      6   9999  3.45752E-01  6.02235E+00 -1.00000E+00  2.13833E-01
      21    -1     0     0   501   502  0.000000000E+00  0.000000000E+00  1.529171071E+01  1.529171071E+01  0.000000000E+00  0.00000E+00  9.000E+00
      21    -1     0     0   512   503  0.000000000E+00  0.000000000E+00 -1.313824044E+03  1.313824044E+03  0.000000000E+00  0.00000E+00  9.000E+00
      25     1     1     2     0     0  1.116566890E+01 -1.504269171E+01 -7.733372763E+02  7.835974055E+02  1.249935844E+02  0.00000E+00  9.000E+00
       5     1     1     2   501     0 -2.318802997E+00 -3.622782565E+00  6.228822685E+00  8.936561581E+00  4.750000000E+00  0.00000E+00  9.000E+00
      -5     1     1     2     0   503 -1.146933485E+01  1.324409744E+01 -2.960710787E+01  3.472887984E+01  4.750000000E+00  0.00000E+00  9.000E+00
      21     1     1     2   512   502  2.622468946E+00  5.421376841E+00 -5.018167714E+02  5.018529075E+02  5.394796609E-06  0.00000E+00  9.000E+00
#rwgt            1           9   1.5959783903798797E-004           1      235172           0
</event>
<event>
      6   9999  3.45752E-01  9.34106E+00 -1.00000E+00  1.90367E-01
      21    -1     0     0   511   503  0.000000000E+00  0.000000000E+00  1.303275463E+01  1.303275463E+01  0.000000000E+00  0.00000E+00  9.000E+00
      21    -1     0     0   501   502  0.000000000E+00  0.000000000E+00 -8.421076361E+02  8.421076361E+02  0.000000000E+00  0.00000E+00  9.000E+00
      25     1     1     2     0     0 -3.939372393E+01  4.508554992E+01 -5.931617581E+02  6.091391094E+02  1.250000438E+02  0.00000E+00  9.000E+00
       5     1     1     2   501     0  1.270354135E+01 -6.790731191E+00 -8.357083012E+01  8.493609445E+01  4.750000000E+00  0.00000E+00  9.000E+00
      -5     1     1     2     0   503  3.048383583E+01 -2.975880014E+01 -1.215211917E+02  1.288596638E+02  4.750000000E+00  0.00000E+00  9.000E+00
      21     1     1     2   511   502 -3.793653246E+00 -8.536018589E+00 -3.082110153E+01  3.220552310E+01  3.371747881E-07  0.00000E+00  9.000E+00
#rwgt            1           9   1.7094789038120284E-004           1      239372           0
</event>
<event>
      6   9999  3.45752E-01  2.42633E+01 -1.00000E+00  1.54058E-01
      21    -1     0     0   501   502  0.000000000E+00  0.000000000E+00  4.965964785E+01  4.965964785E+01  0.000000000E+00  0.00000E+00  9.000E+00
      21    -1     0     0   512   503  0.000000000E+00  0.000000000E+00 -1.429243749E+03  1.429243749E+03  0.000000000E+00  0.00000E+00  9.000E+00
      25     1     1     2     0     0 -4.086809063E+01 -5.547866720E+01 -1.036062757E+03  1.045847948E+03  1.249952445E+02  0.00000E+00  9.000E+00
       5     1     1     2   501     0 -1.781917070E+01 -2.619500963E-01  3.833517801E+01  4.254103707E+01  4.750000000E+00  0.00000E+00  9.000E+00
      -5     1     1     2     0   503  3.868933557E+01  4.200052471E+01 -2.806555572E+02  2.864454801E+02  4.750000000E+00  0.00000E+00  9.000E+00
      21     1     1     2   512   502  1.999792575E+01  1.374009259E+01 -1.012009649E+02  1.040689314E+02  1.348699152E-06  0.00000E+00  9.000E+00
#rwgt            1           9   1.1459524450687681E-003           1      243347           0
</event>
<event>
      6   9999  3.45752E-01  2.24178E+00 -1.00000E+00  3.14821E-01
      21    -1     0     0   511   502  0.000000000E+00  0.000000000E+00  9.814799184E+00  9.814799184E+00  0.000000000E+00  0.00000E+00  9.000E+00
      21    -1     0     0   502   503  0.000000000E+00  0.000000000E+00 -1.478378096E+03  1.478378096E+03  0.000000000E+00  0.00000E+00  9.000E+00
      25     1     1     2     0     0 -5.966080425E-01 -2.546330004E+01 -1.394581095E+03  1.400402967E+03  1.249932170E+02  0.00000E+00  9.000E+00
       5     1     1     2   501     0  2.597157757E+00 -9.644844245E-02  2.046095088E+00  5.788223892E+00  4.750000000E+00  0.00000E+00  9.000E+00
      -5     1     1     2     0   503 -4.346202080E-01  2.716393695E+01 -7.402309006E+01  7.899397906E+01  4.750000000E+00  0.00000E+00  9.000E+00
      21     1     1     2   511   501 -1.565929506E+00 -1.604188472E+00 -2.005206947E+00  3.007725183E+00  1.228781231E-07  0.00000E+00  9.000E+00
#rwgt            1           9   2.5184709282628288E-004           1      245776           0
</event>
<event>
      6   9999  3.45752E-01  1.36873E+01 -1.00000E+00  1.73892E-01
      21    -1     0     0   501   502  0.000000000E+00  0.000000000E+00  6.062600141E+02  6.062600141E+02  0.000000000E+00  0.00000E+00  9.000E+00
      21    -1     0     0   512   503  0.000000000E+00  0.000000000E+00 -7.062838932E+01  7.062838932E+01  0.000000000E+00  0.00000E+00  9.000E+00
      25     1     1     2     0     0 -7.060556897E+01 -5.619034197E+01  6.278193736E+01  1.664593860E+02  1.249986185E+02  0.00000E+00  9.000E+00
       5     1     1     2   501     0  1.225604034E+00 -1.596405376E+00  3.824639729E+02  3.824987630E+02  4.750000000E+00  0.00000E+00  9.000E+00
      -5     1     1     2     0   503  5.904733499E+01  4.881012905E+01  7.870066442E+01  1.099334960E+02  4.750000000E+00  0.00000E+00  9.000E+00
      21     1     1     2   512   502  1.033262994E+01  8.976618293E+00  1.168505004E+01  1.799675837E+01  2.384185791E-07  0.00000E+00  9.000E+00
#rwgt            1           9   2.9252670199348474                1      253401           0
</event>
<event>
      6   9999  3.45752E-01  6.67085E+00 -1.00000E+00  2.07841E-01
      21    -1     0     0   501   511  0.000000000E+00  0.000000000E+00  1.277526354E+02  1.277526354E+02  0.000000000E+00  0.00000E+00  9.000E+00
      21    -1     0     0   502   503  0.000000000E+00  0.000000000E+00 -1.940963177E+03  1.940963177E+03  0.000000000E+00  0.00000E+00  9.000E+00
      25     1     1     2     0     0 -3.221509506E+00 -4.080730286E+00 -1.816979098E+03  1.821281220E+03  1.250008297E+02  0.00000E+00  9.000E+00
       5     1     1     2   501     0 -4.728567629E-02 -1.267300772E+00 -6.739439270E+00  8.342111774E+00  4.750000000E+00  0.00000E+00  9.000E+00
      -5     1     1     2     0   503 -2.304794594E+00  1.682608015E+00 -1.141358340E+02  1.142702689E+02  4.750000000E+00  0.00000E+00  9.000E+00
      21     1     1     2   502   511  5.573589776E+00  3.665423042E+00  1.246438300E+02  1.248222120E+02  5.722045898E-06  0.00000E+00  9.000E+00
#rwgt            1           9   6.0991425141123552E-003           1      256342           0
</event>
<event>
      6   9999  3.45752E-01  8.90427E+00 -1.00000E+00  1.92664E-01
      21    -1     0     0   501   502  0.000000000E+00  0.000000000E+00  2.050658120E+02  2.050658120E+02  0.000000000E+00  0.00000E+00  9.000E+00
      21    -1     0     0   502   512  0.000000000E+00  0.000000000E+00 -5.674277898E+02  5.674277898E+02  0.000000000E+00  0.00000E+00  9.000E+00
      25     1     1     2     0     0  2.996438708E+01 -4.554927723E+01  5.235494213E+01  1.460781145E+02  1.250006977E+02  0.00000E+00  9.000E+00
       5     1     1     2   501     0 -3.140109562E-01  1.302744344E+00  6.359411730E+01  6.378534315E+01  4.750000000E+00  0.00000E+00  9.000E+00
      -5     1     1     2     0   503 -3.849130840E+01  4.318633843E+01  2.212227858E+01  6.211761714E+01  4.750000000E+00  0.00000E+00  9.000E+00
      21     1     1     2   503   512  8.840932282E+00  1.060194458E+00 -5.004333158E+02  5.005125270E+02  0.000000000E+00  0.00000E+00  9.000E+00
#rwgt            1           9   4.5164407152113836E-004           1      259315           0
</event>
<event>
      6   9999 -3.45752E-01  2.07919E+01 -1.00000E+00  1.58934E-01
      21    -1     0     0   501   502  0.000000000E+00  0.000000000E+00  3.211805171E+01  3.211805171E+01  0.000000000E+00  0.00000E+00  9.000E+00
       1    -1     0     0   502     0  0.000000000E+00  0.000000000E+00 -1.581148429E+03  1.581148429E+03  0.000000000E+00  0.00000E+00  9.000E+00
      25     1     1     2     0     0 -4.786617320E+01  1.923610775E+01 -3.827696537E+02  4.059571952E+02  1.250097523E+02  0.00000E+00  9.000E+00
       5     1     1     2   501     0 -4.700400524E-01  2.609112455E-01  1.924513660E+01  1.982994693E+01  4.750000000E+00  0.00000E+00  9.000E+00
      -5     1     1     2     0   503  4.699763740E+01  1.251769329E+00 -7.625032902E+02  7.639660823E+02  4.750000000E+00  0.00000E+00  9.000E+00
       1     1     1     2   503     0  1.338575857E+00 -2.074878832E+01 -4.230025702E+02  4.235132564E+02  7.629394531E-06  0.00000E+00  9.000E+00
#rwgt            1           9  -8.2370842010543767E-004           1      262186           0
</event>
<event>
      6   9999  3.45752E-01  2.17631E+01 -1.00000E+00  1.57459E-01
       2    -1     0     0   501     0  0.000000000E+00  0.000000000E+00  8.225359988E+02  8.225359988E+02  0.000000000E+00  0.00000E+00  9.000E+00
      21    -1     0     0   502   503  0.000000000E+00  0.000000000E+00 -1.301574237E+02  1.301574237E+02  0.000000000E+00  0.00000E+00  9.000E+00
      25     1     1     2     0     0 -4.543304666E+01 -2.583162398E+01 -6.505893119E+00  1.356468649E+02  1.250052430E+02  0.00000E+00  9.000E+00
       5     1     1     2   501     0  9.210244902E+00 -1.284506663E+01  2.252605236E+02  2.258643184E+02  4.750000000E+00  0.00000E+00  9.000E+00
      -5     1     1     2     0   503  4.794066201E+01  2.033757844E+01 -4.687624762E+01  7.022726865E+01  4.750000000E+00  0.00000E+00  9.000E+00
       2     1     1     2   502     0 -1.171786025E+01  1.833911216E+01  5.205001922E+02  5.209549706E+02  7.629394531E-06  0.00000E+00  9.000E+00
#rwgt            1           9   1.7539989732773926E-003           1      264457           0
</event>
<event>
      6   9999 -3.45752E-01  1.32062E+01 -1.00000E+00  1.75309E-01
      21    -1     0     0   511   502  0.000000000E+00  0.000000000E+00  4.027601715E+02  4.027601715E+02  0.000000000E+00  0.00000E+00  9.000E+00
      21    -1     0     0   502   503  0.000000000E+00  0.000000000E+00 -8.799844376E+02  8.799844376E+02  0.000000000E+00  0.00000E+00  9.000E+00
      25     1     1     2     0     0 -1.602180264E+01 -4.685237343E+00 -5.142292323E+02  5.294672243E+02  1.250007548E+02  0.00000E+00  9.000E+00
       5     1     1     2   501     0  8.830423644E+00 -1.658794788E+01 -1.493619044E+01  2.447015900E+01  4.750000000E+00  0.00000E+00  9.000E+00
      -5     1     1     2     0   503  1.977851261E+01  1.727736231E+01 -3.377948756E+02  3.388475133E+02  4.750000000E+00  0.00000E+00  9.000E+00
      21     1     1     2   511   501 -1.258713361E+01  3.995822917E+00  3.897360322E+02  3.899597125E+02  5.394796609E-06  0.00000E+00  9.000E+00
#rwgt            1           9  -8.4520274107296274E-004           1      267008           0
</event>
<event>
      6   9999 -3.45752E-01  9.91826E+00 -1.00000E+00  1.87570E-01
      -2    -1     0     0     0   502  0.000000000E+00  0.000000000E+00  1.693759056E+02  1.693759056E+02  0.000000000E+00  0.00000E+00  9.000E+00
      21    -1     0     0   502   503  0.000000000E+00  0.000000000E+00 -1.205503609E+03  1.205503609E+03  0.000000000E+00  0.00000E+00  9.000E+00
      25     1     1     2     0     0  9.144853737E+00  5.576032827E+01 -4.652868159E+02  4.850872595E+02  1.249999428E+02  0.00000E+00  9.000E+00
       5     1     1     2   501     0  4.046386198E-01 -1.105985803E+01  2.478996424E+01  2.756064258E+01  4.750000000E+00  0.00000E+00  9.000E+00
      -5     1     1     2     0   503 -5.697766794E+00 -5.384027903E+01 -7.277320078E+02  7.297586436E+02  4.750000000E+00  0.00000E+00  9.000E+00
      -2     1     1     2     0   501 -3.851725562E+00  9.139808793E+00  1.321011564E+02  1.324729686E+02  5.394796609E-06  0.00000E+00  9.000E+00
#rwgt            1           9  -4.9111647890990294E-004           1      269081           0
</event>
<event>
      6   9999  3.45752E-01  8.90928E+00 -1.00000E+00  1.92637E-01
      21    -1     0     0   501   511  0.000000000E+00  0.000000000E+00  4.370591940E+01  4.370591940E+01  0.000000000E+00  0.00000E+00  9.000E+00
      21    -1     0     0   502   503  0.000000000E+00  0.000000000E+00 -9.768501452E+02  9.768501452E+02  0.000000000E+00  0.00000E+00  9.000E+00
      25     1     1     2     0     0 -8.061012599E+00 -1.076725523E+01 -8.039167555E+02  8.136876809E+02  1.249983146E+02  0.00000E+00  9.000E+00
       5     1     1     2   501     0  8.790357969E+00 -5.464693228E+00 -1.955020850E+01  2.262534900E+01  4.750000000E+00  0.00000E+00  9.000E+00
      -5     1     1     2     0   503  6.057766543E+00  1.046044018E+01 -1.461357557E+02  1.467117546E+02  4.750000000E+00  0.00000E+00  9.000E+00
      21     1     1     2   502   511 -6.787111913E+00  5.771508280E+00  3.645849396E+01  3.753127999E+01  2.336015456E-06  0.00000E+00  9.000E+00
#rwgt            1           9   113.77011400618041                1      273007           0
</event>
<event>
      6   9999  3.45752E-01  5.95450E+00 -1.00000E+00  2.14519E-01
      21    -1     0     0   501   502  0.000000000E+00  0.000000000E+00  1.636585444E+01  1.636585444E+01  0.000000000E+00  0.00000E+00  9.000E+00
      21    -1     0     0   502   512  0.000000000E+00  0.000000000E+00 -5.089881493E+02  5.089881493E+02  0.000000000E+00  0.00000E+00  9.000E+00
      25     1     1     2     0     0  4.790075844E+00  7.714437656E+00 -4.711731632E+02  4.875559883E+02  1.249969384E+02  0.00000E+00  9.000E+00
       5     1     1     2   501     0  9.516234267E-01  1.274597828E+00  5.141356402E+00  7.178177514E+00  4.750000000E+00  0.00000E+00  9.000E+00
      -5     1     1     2     0   503 -5.783620705E+00 -3.034684083E+00 -9.218699103E+00  1.225587570E+01  4.750000000E+00  0.00000E+00  9.000E+00
      21     1     1     2   503   512  4.192143432E-02 -5.954351401E+00 -1.737178893E+01  1.836396223E+01  0.000000000E+00  0.00000E+00  9.000E+00
#rwgt            1           9   5.2397747141437999E-004           1      275634           0
</event>
<event>
      6   9999  3.45752E-01  1.26910E+01 -1.00000E+00  1.76913E-01
      21    -1     0     0   511   502  0.000000000E+00  0.000000000E+00  3.049028914E+02  3.049028914E+02  0.000000000E+00  0.00000E+00  9.000E+00
      21    -1     0     0   502   503  0.000000000E+00  0.000000000E+00 -1.110131986E+03  1.110131986E+03  0.000000000E+00  0.00000E+00  9.000E+00
      25     1     1     2     0     0 -1.298646218E+01 -5.329081885E+00 -1.000675536E+03  1.008551637E+03  1.250113128E+02  0.00000E+00  9.000E+00
       5     1     1     2   501     0 -5.042661194E+00  7.778640273E+00  2.665210685E+01  2.861525775E+01  4.750000000E+00  0.00000E+00  9.000E+00
      -5     1     1     2     0   503  6.042806725E+00  1.720606057E+00 -1.042408557E+02  1.045380051E+02  4.750000000E+00  0.00000E+00  9.000E+00
      21     1     1     2   511   501  1.198631664E+01 -4.170164446E+00  2.730351899E+02  2.733299782E+02  0.000000000E+00  0.00000E+00  9.000E+00
#rwgt            1           9   1.3244099321238385E-003           1      279352           0
</event>
<event>
      6   9999  3.45752E-01  1.20052E+01 -1.00000E+00  1.79204E-01
      21    -1     0     0   512   502  0.000000000E+00  0.000000000E+00  1.511018146E+01  1.511018146E+01  0.000000000E+00  0.00000E+00  9.000E+00
      21    -1     0     0   502   503  0.000000000E+00  0.000000000E+00 -8.060259041E+02  8.060259041E+02  0.000000000E+00  0.00000E+00  9.000E+00
      25     1     1     2     0     0 -9.251492788E+00 -1.917525476E+00 -6.649895386E+02  6.767018570E+02  1.250001991E+02  0.00000E+00  9.000E+00
       5     1     1     2   501     0 -2.263416192E+00 -7.695410732E-01  2.924409427E+00  6.068765675E+00  4.750000000E+00  0.00000E+00  9.000E+00
      -5     1     1     2     0   503  1.861074942E+00 -4.449314758E+00 -1.257956930E+02  1.259776920E+02  4.750000000E+00  0.00000E+00  9.000E+00
      21     1     1     2   512   501  9.653834039E+00  7.136381307E+00 -3.054900382E+00  1.238777083E+01  3.526258339E-07  0.00000E+00  9.000E+00
#rwgt            1           9   2.0618972151229529E-003           1      282283           0
</event>
<event>
      6   9999 -3.45752E-01  2.08743E+01 -1.00000E+00  1.58805E-01
      21    -1     0     0   501   511  0.000000000E+00  0.000000000E+00  3.028531470E+01  3.028531470E+01  0.000000000E+00  0.00000E+00  9.000E+00
      21    -1     0     0   502   503  0.000000000E+00  0.000000000E+00 -1.996350744E+03  1.996350744E+03  0.000000000E+00  0.00000E+00  9.000E+00
      25     1     1     2     0     0 -4.585210511E+01 -3.445776040E+01 -1.413633987E+03  1.420308617E+03  1.250030605E+02  0.00000E+00  9.000E+00
       5     1     1     2   501     0  7.103846054E+00  7.030661264E+00  1.736906737E+00  1.120152541E+01  4.750000000E+00  0.00000E+00  9.000E+00
      -5     1     1     2     0   503  5.451652058E+01  4.110542416E+01 -5.666740773E+02  5.707922383E+02  4.750000000E+00  0.00000E+00  9.000E+00
      21     1     1     2   502   511 -1.576826152E+01 -1.367832503E+01  1.250572833E+01  2.433367806E+01  8.920806376E-07  0.00000E+00  9.000E+00
#rwgt            1           9  -1.5841149910883465E-002           1      285036           0
</event>
<event>
      6   9999 -3.45752E-01  6.35517E+01 -1.00000E+00  1.29441E-01
      21    -1     0     0   501   512  0.000000000E+00  0.000000000E+00  1.937483279E+02  1.937483279E+02  0.000000000E+00  0.00000E+00  9.000E+00
      21    -1     0     0   502   503  0.000000000E+00  0.000000000E+00 -4.855113473E+02  4.855113473E+02  0.000000000E+00  0.00000E+00  9.000E+00
      25     1     1     2     0     0  2.501968660E+01 -9.871772749E+01 -4.386331519E+02  4.673563966E+02  1.251070944E+02  0.00000E+00  9.000E+00
       5     1     1     2   501     0  3.420203598E+00 -5.033211049E+00  8.577041711E+00  1.153946059E+01  4.750000000E+00  0.00000E+00  9.000E+00
      -5     1     1     2     0   503 -4.058858210E+00  4.506204009E+01 -2.840458683E+00  4.558171226E+01  4.750000000E+00  0.00000E+00  9.000E+00
      21     1     1     2   502   512 -2.438103199E+01  5.868889845E+01  1.411335494E+02  1.547821058E+02  0.000000000E+00  0.00000E+00  9.000E+00
#rwgt            1           9  -4.9899513297749199E-004           1      287092           0
</event>
<event>
      6   9999  3.45752E-01  5.54078E+00 -1.00000E+00  2.18991E-01
      21    -1     0     0   501   511  0.000000000E+00  0.000000000E+00  3.051120830E+02  3.051120830E+02  0.000000000E+00  0.00000E+00  9.000E+00
      21    -1     0     0   502   503  0.000000000E+00  0.000000000E+00 -6.685319666E+02  6.685319666E+02  0.000000000E+00  0.00000E+00  9.000E+00
      25     1     1     2     0     0 -1.311317787E+01 -3.136520625E+00 -5.297957933E+02  5.445071262E+02  1.249905383E+02  0.00000E+00  9.000E+00
       5     1     1     2   501     0 -8.995721392E-02 -8.297003587E-02 -1.384487241E+01  1.463755336E+01  4.750000000E+00  0.00000E+00  9.000E+00
      -5     1     1     2     0   503  1.026180387E+01 -1.476120592E+00 -1.168358522E+02  1.173910662E+02  4.750000000E+00  0.00000E+00  9.000E+00
      21     1     1     2   502   511  2.941331209E+00  4.695611252E+00  2.970566344E+02  2.971083039E+02  5.394796609E-06  0.00000E+00  9.000E+00
#rwgt            1           9   7.9225118784144617E-004           1      288081           0
</event>
<event>
      6   9999  3.45752E-01  5.61027E+00 -1.00000E+00  2.18203E-01
      21    -1     0     0   512   502  0.000000000E+00  0.000000000E+00  1.820388688E+02  1.820388688E+02  0.000000000E+00  0.00000E+00  9.000E+00
      21    -1     0     0   502   503  0.000000000E+00  0.000000000E+00 -4.979485557E+02  4.979485557E+02  0.000000000E+00  0.00000E+00  9.000E+00
      25     1     1     2     0     0 -3.747640879E+01  1.590062981E+02 -1.532966336E+01  2.062683029E+02  1.249965206E+02  0.00000E+00  9.000E+00
       5     1     1     2   501     0 -5.317334353E+00 -1.523310714E+00  6.798995408E+01  6.837975487E+01  4.750000000E+00  0.00000E+00  9.000E+00
      -5     1     1     2     0   503  4.209018310E+01 -1.519170036E+02 -3.670936916E+02  3.995381088E+02  4.750000000E+00  0.00000E+00  9.000E+00
      21     1     1     2   512   501  7.035600447E-01 -5.565983794E+00 -1.476286076E+00  5.801257873E+00  1.460009660E-07  0.00000E+00  9.000E+00
#rwgt            1           9   3.5179176509435284E-004           1      291310           0
</event>
<event>
      6   9999  3.45752E-01  9.90449E+01 -1.00000E+00  1.20613E-01
      21    -1     0     0   511   502  0.000000000E+00  0.000000000E+00  1.452078329E+01  1.452078329E+01  0.000000000E+00  0.00000E+00  9.000E+00
       2    -1     0     0   501     0  0.000000000E+00  0.000000000E+00 -2.029167341E+03  2.029167341E+03  0.000000000E+00  0.00000E+00  9.000E+00
      25     1     1     2     0     0  8.927403175E+01  2.061818771E+01 -6.224296820E+02  6.414425080E+02  1.250392722E+02  0.00000E+00  9.000E+00
       5     1     1     2   501     0 -9.236244793E+00  4.655387542E+01 -2.618844896E+02  2.661928247E+02  4.750000000E+00  0.00000E+00  9.000E+00
      -5     1     1     2     0   502 -4.617707129E+00 -2.971523103E+00 -1.940271628E+01  2.071668574E+01  4.750000000E+00  0.00000E+00  9.000E+00
       2     1     1     2   511     0 -7.542007983E+01 -6.420054002E+01 -1.110929670E+03  1.115336106E+03  0.000000000E+00  0.00000E+00  9.000E+00
#rwgt            1           3   2.3235525150847629E-002           1      297903           0
</event>
<event>
      6   9999  3.45752E-01  1.71413E+01 -1.00000E+00  1.65497E-01
      21    -1     0     0   501   502  0.000000000E+00  0.000000000E+00  2.416899300E+01  2.416899300E+01  0.000000000E+00  0.00000E+00  9.000E+00
      21    -1     0     0   502   512  0.000000000E+00  0.000000000E+00 -1.107212625E+03  1.107212625E+03  0.000000000E+00  0.00000E+00  9.000E+00
      25     1     1     2     0     0  3.410537561E+01 -1.177929196E+02 -6.887061417E+02  7.106187400E+02  1.249979817E+02  0.00000E+00  9.000E+00
       5     1     1     2   501     0  6.763807338E-01  3.237792417E-01 -7.574522813E-01  4.868116458E+00  4.750000000E+00  0.00000E+00  9.000E+00
      -5     1     1     2     0   503 -1.783998099E+01  1.148612555E+02 -3.246219219E+02  3.448381180E+02  4.750000000E+00  0.00000E+00  9.000E+00
      21     1     1     2   503   512 -1.694177536E+01  2.607884815E+00 -6.895811611E+01  7.105664355E+01  9.536743164E-07  0.00000E+00  9.000E+00
#rwgt            1           9   1.9798594434197506E-005           1      298385           0
</event>
<event>
      6   9999  3.45752E-01  2.10404E+01 -1.00000E+00  1.58547E-01
      21    -1     0     0   501   502  0.000000000E+00  0.000000000E+00  3.501369641E+01  3.501369641E+01  0.000000000E+00  0.00000E+00  9.000E+00
      21    -1     0     0   502   511  0.000000000E+00  0.000000000E+00 -1.756375411E+03  1.756375411E+03  0.000000000E+00  0.00000E+00  9.000E+00
      25     1     1     2     0     0 -1.555311154E+00 -6.119394181E+00 -1.015410753E+03  1.023095378E+03  1.250011607E+02  0.00000E+00  9.000E+00
       5     1     1     2   501     0  1.642159282E+01  8.327525756E+00  2.771531604E+01  3.361127251E+01  4.750000000E+00  0.00000E+00  9.000E+00
      -5     1     1     2     0   503 -7.737546951E-01  1.341549040E+01 -1.609507249E+02  1.615805447E+02  4.750000000E+00  0.00000E+00  9.000E+00
      21     1     1     2   503   511 -1.409252698E+01 -1.562362197E+01 -5.727155527E+02  5.731019117E+02  1.078959322E-05  0.00000E+00  9.000E+00
#rwgt            1           9   3.9682482396041522E-003           1      300406           0
</event>
<event>
      6   9999  3.45752E-01  6.85326E+00 -1.00000E+00  2.06318E-01
      21    -1     0     0   501   502  0.000000000E+00  0.000000000E+00  3.591061441E+03  3.591061441E+03  0.000000000E+00  0.00000E+00  9.000E+00
      21    -1     0     0   512   503  0.000000000E+00  0.000000000E+00 -1.347087965E+01  1.347087965E+01  0.000000000E+00  0.00000E+00  9.000E+00
      25     1     1     2     0     0  7.558965910E+00 -1.569432463E+01  6.974386498E+02  7.087660662E+02  1.250008663E+02  0.00000E+00  9.000E+00
       5     1     1     2   501     0  9.730670383E-01  1.827259903E+00  2.870175638E+03  2.870180315E+03  4.750000000E+00  0.00000E+00  9.000E+00
      -5     1     1     2     0   503 -1.287173523E+01  8.562900954E+00  9.405126983E+00  1.870892178E+01  4.750000000E+00  0.00000E+00  9.000E+00
      21     1     1     2   512   502  4.339702279E+00  5.304163769E+00  5.711471239E-01  6.877018119E+00  3.863540936E-07  0.00000E+00  9.000E+00
#rwgt            1           9   9.1816098215539109E-004           1      303581           0
</event>
<event>
      6   9999  3.45752E-01  1.94180E+00 -1.00000E+00  3.37928E-01
      21    -1     0     0   501   502  0.000000000E+00  0.000000000E+00  9.661258775E+00  9.661258775E+00  0.000000000E+00  0.00000E+00  9.000E+00
      21    -1     0     0   511   503  0.000000000E+00  0.000000000E+00 -5.891523774E+02  5.891523774E+02  0.000000000E+00  0.00000E+00  9.000E+00
      25     1     1     2     0     0  3.589655190E+00 -6.169015384E-01 -5.216436393E+02  5.364234384E+02  1.249990108E+02  0.00000E+00  9.000E+00
       5     1     1     2   501     0  1.362749469E-01  5.498965180E-01 -1.004753941E+00  4.888045368E+00  4.750000000E+00  0.00000E+00  9.000E+00
      -5     1     1     2     0   503 -1.789252906E+00  2.080283458E-01 -2.095701206E+01  2.156394111E+01  4.750000000E+00  0.00000E+00  9.000E+00
      21     1     1     2   511   502 -1.936677232E+00 -1.410233254E-01 -3.588571334E+01  3.593821125E+01  0.000000000E+00  0.00000E+00  9.000E+00
#rwgt            1           9   1.1254257414132736E-003           1      307977           0
</event>
<event>
      6   9999  3.45752E-01  2.06933E+01 -1.00000E+00  1.59089E-01
      21    -1     0     0   501   502  0.000000000E+00  0.000000000E+00  1.853295627E+03  1.853295627E+03  0.000000000E+00  0.00000E+00  9.000E+00
      21    -1     0     0   502   512  0.000000000E+00  0.000000000E+00 -5.888504015E+01  5.888504015E+01  0.000000000E+00  0.00000E+00  9.000E+00
      25     1     1     2     0     0 -2.645387150E+01  3.875537334E+01  5.702818255E+02  5.857022928E+02  1.249961163E+02  0.00000E+00  9.000E+00
       5     1     1     2   501     0 -1.867763130E+00  4.023924533E-01  1.251083195E+03  1.251093671E+03  4.750000000E+00  0.00000E+00  9.000E+00
      -5     1     1     2     0   503  8.504970939E+00 -3.319857834E+01  7.304645930E+00  3.536100234E+01  4.750000000E+00  0.00000E+00  9.000E+00
      21     1     1     2   503   512  1.981666369E+01 -5.959187456E+00 -3.425907974E+01  4.002370072E+01  4.768371582E-07  0.00000E+00  9.000E+00
#rwgt            1           9   197.44082649133844                1      315640           0
</event>
<event>
      6   9999  3.45752E-01  7.58001E+00 -1.00000E+00  2.00829E-01
      21    -1     0     0   511   502  0.000000000E+00  0.000000000E+00  8.511434951E+00  8.511434951E+00  0.000000000E+00  0.00000E+00  9.000E+00
      21    -1     0     0   502   503  0.000000000E+00  0.000000000E+00 -2.675077763E+03  2.675077763E+03  0.000000000E+00  0.00000E+00  9.000E+00
      25     1     1     2     0     0 -3.066724643E+01 -4.247521340E+01 -2.457612454E+03  2.461346857E+03  1.249990070E+02  0.00000E+00  9.000E+00
       5     1     1     2   501     0  1.530069023E+00 -7.132421740E-01  1.590372070E+00  5.285982306E+00  4.750000000E+00  0.00000E+00  9.000E+00
      -5     1     1     2     0   503  2.478921009E+01  3.697945056E+01 -1.790903819E+02  1.846020371E+02  4.750000000E+00  0.00000E+00  9.000E+00
      21     1     1     2   511   501  4.347967318E+00  6.209005007E+00 -3.145386454E+01  3.235432209E+01  3.371747881E-07  0.00000E+00  9.000E+00
#rwgt            1           9   2.7876885082220837E-005           1      317688           0
</event>
<event>
      6   9999  3.45752E-01  5.06081E+00 -1.00000E+00  2.24902E-01
      21    -1     0     0   501   502  0.000000000E+00  0.000000000E+00  1.045135076E+01  1.045135076E+01  0.000000000E+00  0.00000E+00  9.000E+00
      21    -1     0     0   502   512  0.000000000E+00  0.000000000E+00 -2.900515515E+03  2.900515515E+03  0.000000000E+00  0.00000E+00  9.000E+00
      25     1     1     2     0     0 -8.616608233E+00  3.092395810E+00 -2.662219721E+03  2.665168414E+03  1.250001043E+02  0.00000E+00  9.000E+00
       5     1     1     2   501     0  6.804768097E+00  1.164937787E+00  6.876615874E+00  1.084030880E+01  4.750000000E+00  0.00000E+00  9.000E+00
      -5     1     1     2     0   503  3.837181692E-01  5.977905200E-01 -7.294339720E+01  7.310134258E+01  4.750000000E+00  0.00000E+00  9.000E+00
      21     1     1     2   503   512  1.428121967E+00 -4.855124118E+00 -1.617776624E+02  1.618568003E+02  0.000000000E+00  0.00000E+00  9.000E+00
#rwgt            1           9   3.3457510619570620E-002           1      321168           0
</event>
<event>
      6   9999  3.45752E-01  1.95315E+01 -1.00000E+00  1.61000E-01
      21    -1     0     0   501   502  0.000000000E+00  0.000000000E+00  4.588828356E+01  4.588828356E+01  0.000000000E+00  0.00000E+00  9.000E+00
      21    -1     0     0   511   503  0.000000000E+00  0.000000000E+00 -2.236638851E+03  2.236638851E+03  0.000000000E+00  0.00000E+00  9.000E+00
      25     1     1     2     0     0 -8.737704236E+01 -1.102724215E+02 -6.368765267E+02  6.641005418E+02  1.249922589E+02  0.00000E+00  9.000E+00
       5     1     1     2   501     0  1.118427308E+00 -3.217937939E+00  2.075646967E+01  2.156384792E+01  4.750000000E+00  0.00000E+00  9.000E+00
      -5     1     1     2     0   503  1.048602542E+02  1.194451627E+02 -5.625041219E+02  5.845479189E+02  4.750000000E+00  0.00000E+00  9.000E+00
      21     1     1     2   511   502 -1.860163916E+01 -5.954803225E+00 -1.012126388E+03  1.012314826E+03  1.525878906E-05  0.00000E+00  9.000E+00
#rwgt            1           9   7.7123313394206958E-003           1      325951           0
</event>
<event>
      6   9999  3.45752E-01  4.38856E+01 -1.00000E+00  1.37890E-01
      21    -1     0     0   501   512  0.000000000E+00  0.000000000E+00  9.783666108E+01  9.783666108E+01  0.000000000E+00  0.00000E+00  9.000E+00
      21    -1     0     0   502   503  0.000000000E+00  0.000000000E+00 -1.644519547E+03  1.644519547E+03  0.000000000E+00  0.00000E+00  9.000E+00
      25     1     1     2     0     0  2.234778186E+01 -3.825611234E+01 -8.629875278E+02  8.731781163E+02  1.254176866E+02  0.00000E+00  9.000E+00
       5     1     1     2   501     0  4.140341968E+00  3.281599660E-01  8.239736559E+01  8.263860161E+01  4.750000000E+00  0.00000E+00  9.000E+00
      -5     1     1     2     0   503  3.652956248E+00  6.030310473E+00 -7.290803407E+02  7.291299023E+02  4.750000000E+00  0.00000E+00  9.000E+00
      21     1     1     2   502   512 -3.014108008E+01  3.189764190E+01 -3.701238254E+01  5.740958743E+01  4.768371582E-07  0.00000E+00  9.000E+00
#rwgt            1           9   4.9087260129128689E-004           1      328779           0
</event>
<event>
      6   9999  3.45752E-01  5.01409E+00 -1.00000E+00  2.25526E-01
      21    -1     0     0   511   502  0.000000000E+00  0.000000000E+00  1.574989179E+00  1.574989179E+00  0.000000000E+00  0.00000E+00  9.000E+00
      21    -1     0     0   502   503  0.000000000E+00  0.000000000E+00 -4.214853800E+03  4.214853800E+03  0.000000000E+00  0.00000E+00  9.000E+00
      25     1     1     2     0     0 -2.615044848E+01 -8.781204251E+00 -2.996930584E+03  2.999663385E+03  1.250061626E+02  0.00000E+00  9.000E+00
       5     1     1     2   501     0  1.409867888E+01  3.921603668E+00 -7.131077003E+02  7.132736546E+02  4.750000000E+00  0.00000E+00  9.000E+00
      -5     1     1     2     0   503  7.449587596E+00  2.869364241E+00 -4.184512368E+02  4.185543330E+02  4.750000000E+00  0.00000E+00  9.000E+00
      21     1     1     2   511   501  4.602182007E+00  1.990236342E+00 -8.478929003E+01  8.493741710E+01  2.132480600E-06  0.00000E+00  9.000E+00
#rwgt            1           9   2.5722648953724635E-004           1      330395           0
</event>
<event>
      6   9999  3.45752E-01  5.90639E+00 -1.00000E+00  2.15014E-01
      21    -1     0     0   512   503  0.000000000E+00  0.000000000E+00  3.728206041E+00  3.728206041E+00  0.000000000E+00  0.00000E+00  9.000E+00
      21    -1     0     0   501   502  0.000000000E+00  0.000000000E+00 -3.184844752E+03  3.184844752E+03  0.000000000E+00  0.00000E+00  9.000E+00
      25     1     1     2     0     0  4.604439137E+01 -1.297540736E+01 -1.894538683E+03  1.899260393E+03  1.249990784E+02  0.00000E+00  9.000E+00
       5     1     1     2   501     0 -3.807022752E+01  1.460441303E+01 -1.228332724E+03  1.229018500E+03  4.750000000E+00  0.00000E+00  9.000E+00
      -5     1     1     2     0   503 -3.360095017E+00 -5.316261135E+00 -1.844780868E+01  2.006083288E+01  4.750000000E+00  0.00000E+00  9.000E+00
      21     1     1     2   512   502 -4.614068831E+00  3.687255460E+00 -3.979733021E+01  4.023323223E+01  4.768371582E-07  0.00000E+00  9.000E+00
#rwgt            1           9   126.05714610437963                1      333863           0
</event>
<event>
      6   9999  3.45752E-01  1.70556E+01 -1.00000E+00  1.65675E-01
      21    -1     0     0   511   502  0.000000000E+00  0.000000000E+00  3.238723863E+01  3.238723863E+01  0.000000000E+00  0.00000E+00  9.000E+00
      21    -1     0     0   502   503  0.000000000E+00  0.000000000E+00 -1.131074682E+03  1.131074682E+03  0.000000000E+00  0.00000E+00  9.000E+00
      25     1     1     2     0     0 -1.090832001E+01  5.034123291E+01 -7.659407593E+02  7.777747396E+02  1.249602641E+02  0.00000E+00  9.000E+00
       5     1     1     2   501     0 -6.749606409E+00  5.863092904E+00  1.124040682E+01  1.512753419E+01  4.750000000E+00  0.00000E+00  9.000E+00
      -5     1     1     2     0   503  1.219048488E+01 -4.004878655E+01 -3.499610656E+02  3.524880468E+02  4.750000000E+00  0.00000E+00  9.000E+00
      21     1     1     2   511   501  5.467441542E+00 -1.615553926E+01  5.973974454E+00  1.807160028E+01  4.842304232E-07  0.00000E+00  9.000E+00
#rwgt            1           9   3.2643312943374810E-002           1      337620           0
</event>
<event>
      6   9999  3.45752E-01  1.57562E+01 -1.00000E+00  1.68541E-01
      21    -1     0     0   512   502  0.000000000E+00  0.000000000E+00  1.266621172E+03  1.266621172E+03  0.000000000E+00  0.00000E+00  9.000E+00
      21    -1     0     0   502   503  0.000000000E+00  0.000000000E+00 -9.646185184E+00  9.646185184E+00  0.000000000E+00  0.00000E+00  9.000E+00
      25     1     1     2     0     0  3.945653987E+01 -1.680306482E+01  5.184121265E+02  5.349904458E+02  1.249979305E+02  0.00000E+00  9.000E+00
       5     1     1     2   501     0 -2.688634651E+00  1.526473168E+01  3.253473578E+02  3.257509885E+02  4.750000000E+00  0.00000E+00  9.000E+00
      -5     1     1     2     0   503 -2.429836453E+01  1.116995630E+01  2.985421313E+02  2.997751575E+02  4.750000000E+00  0.00000E+00  9.000E+00
      21     1     1     2   512   501 -1.246954068E+01 -9.631623160E+00  1.146733714E+02  1.157507656E+02  1.348699152E-06  0.00000E+00  9.000E+00
#rwgt            1           9   1.7336207143586018                1      339700           0
</event>
<event>
      6   9999  3.45752E-01  5.64291E+01 -1.00000E+00  1.32036E-01
      21    -1     0     0   501   502  0.000000000E+00  0.000000000E+00  8.676372512E+02  8.676372512E+02  0.000000000E+00  0.00000E+00  9.000E+00
      21    -1     0     0   511   503  0.000000000E+00  0.000000000E+00 -3.781521308E+03  3.781521308E+03  0.000000000E+00  0.00000E+00  9.000E+00
      25     1     1     2     0     0  1.954952645E+02 -1.336927460E+01 -2.514825707E+03  2.525542768E+03  1.249832148E+02  0.00000E+00  9.000E+00
       5     1     1     2   501     0 -9.365888267E+00 -8.596302008E+00  8.548447428E+02  8.549524624E+02  4.750000000E+00  0.00000E+00  9.000E+00
      -5     1     1     2     0   503 -1.342793196E+02 -3.012507322E-01 -7.905915656E+02  8.019280594E+02  4.750000000E+00  0.00000E+00  9.000E+00
      21     1     1     2   511   502 -5.185005664E+01  2.226682734E+01 -4.633115270E+02  4.667352687E+02  0.000000000E+00  0.00000E+00  9.000E+00
#rwgt            1           9   1.5398252321193366E-003           1      341475           0
</event>
<event>
      6   9999  3.45752E-01  9.78271E+00 -1.00000E+00  1.88204E-01
      21    -1     0     0   501   502  0.000000000E+00  0.000000000E+00  2.709762963E+01  2.709762963E+01  0.000000000E+00  0.00000E+00  9.000E+00
      21    -1     0     0   512   503  0.000000000E+00  0.000000000E+00 -1.252359724E+03  1.252359724E+03  0.000000000E+00  0.00000E+00  9.000E+00
      25     1     1     2     0     0  3.184607497E+00  2.466719283E+01 -1.032164259E+03  1.040008696E+03  1.250456640E+02  0.00000E+00  9.000E+00
       5     1     1     2   501     0 -3.242148000E-01 -3.302790019E+00  2.149796649E+01  2.226518808E+01  4.750000000E+00  0.00000E+00  9.000E+00
      -5     1     1     2     0   503  3.562912178E+00 -1.398588813E+01 -4.906307677E+01  5.136192570E+01  4.750000000E+00  0.00000E+00  9.000E+00
      21     1     1     2   512   502 -6.423304876E+00 -7.378514677E+00 -1.655327251E+02  1.658215438E+02  1.907348633E-06  0.00000E+00  9.000E+00
#rwgt            1           9   9.5599595376160595E-005           1      345147           0
</event>
<event>
      6   9999  3.45752E-01  1.11065E+01 -1.00000E+00  1.82517E-01
      21    -1     0     0   511   503  0.000000000E+00  0.000000000E+00  2.956788485E+01  2.956788485E+01  0.000000000E+00  0.00000E+00  9.000E+00
      21    -1     0     0   501   502  0.000000000E+00  0.000000000E+00 -5.390509380E+03  5.390509380E+03  0.000000000E+00  0.00000E+00  9.000E+00
      25     1     1     2     0     0  1.751588905E+02 -1.917648040E+02 -1.527294909E+03  1.554255117E+03  1.249994044E+02  0.00000E+00  9.000E+00
       5     1     1     2   501     0 -2.620740136E+02  1.877510015E+02 -3.627894507E+03  3.642193617E+03  4.750000000E+00  0.00000E+00  9.000E+00
      -5     1     1     2     0   503  7.600150901E+01  6.074533739E+00 -1.832306122E+02  1.985173773E+02  4.750000000E+00  0.00000E+00  9.000E+00
      21     1     1     2   511   502  1.091361409E+01 -2.060731197E+00 -2.252146673E+01  2.511115388E+01  9.233911863E-07  0.00000E+00  9.000E+00
#rwgt            1           9   1.8009057304434507E-002           1      348248           0
</event>
<event>
      6   9999 -3.45752E-01  1.02105E+01 -1.00000E+00  1.86246E-01
      21    -1     0     0   501   512  0.000000000E+00  0.000000000E+00  7.152961251E+01  7.152961251E+01  0.000000000E+00  0.00000E+00  9.000E+00
      21    -1     0     0   502   503  0.000000000E+00  0.000000000E+00 -9.316581796E+02  9.316581796E+02  0.000000000E+00  0.00000E+00  9.000E+00
      25     1     1     2     0     0 -1.259417341E-01 -1.457548708E+00 -8.120264807E+02  8.215883664E+02  1.249731895E+02  0.00000E+00  9.000E+00
       5     1     1     2   501     0  2.925790451E-01  8.735574586E+00  1.205469978E+01  1.562927230E+01  4.750000000E+00  0.00000E+00  9.000E+00
      -5     1     1     2     0   503 -1.080175696E+00  2.891504700E+00 -1.124989074E+02  1.126414410E+02  4.750000000E+00  0.00000E+00  9.000E+00
      21     1     1     2   502   512  9.135383854E-01 -1.016953058E+01  5.234212125E+01  5.332871235E+01  2.132480600E-06  0.00000E+00  9.000E+00
#rwgt            1           9  -3.7048322402833405E-003           1      352744           0
</event>
<event>
      6   9999  3.45752E-01  1.17702E+01 -1.00000E+00  1.80034E-01
      21    -1     0     0   501   502  0.000000000E+00  0.000000000E+00  1.428552418E+03  1.428552418E+03  0.000000000E+00  0.00000E+00  9.000E+00
      21    -1     0     0   511   503  0.000000000E+00  0.000000000E+00 -9.291896863E+00  9.291896863E+00  0.000000000E+00  0.00000E+00  9.000E+00
      25     1     1     2     0     0 -6.606068208E+00  7.000253835E+00  5.029376114E+02  5.183279262E+02  1.249998177E+02  0.00000E+00  9.000E+00
       5     1     1     2   501     0 -7.606947956E-01 -6.171672239E-01  8.575777438E+02  8.575914579E+02  4.750000000E+00  0.00000E+00  9.000E+00
      -5     1     1     2     0   503 -3.101576673E+00 -1.002503846E+00  3.445500747E+01  3.493329116E+01  4.750000000E+00  0.00000E+00  9.000E+00
      21     1     1     2   511   502  1.046833968E+01 -5.380582765E+00  2.429015819E+01  2.699163929E+01  4.768371582E-07  0.00000E+00  9.000E+00
#rwgt            1           9  0.13717018930536126                1      356733           0
</event>
<event>
      6   9999  3.45752E-01  1.41006E+01 -1.00000E+00  1.72732E-01
      21    -1     0     0   501   502  0.000000000E+00  0.000000000E+00  1.907466778E+01  1.907466778E+01  0.000000000E+00  0.00000E+00  9.000E+00
      21    -1     0     0   502   512  0.000000000E+00  0.000000000E+00 -1.013089481E+03  1.013089481E+03  0.000000000E+00  0.00000E+00  9.000E+00
      25     1     1     2     0     0  1.406965413E+01 -4.846612520E+01 -8.405446089E+02  8.512824547E+02  1.249786292E+02  0.00000E+00  9.000E+00
       5     1     1     2   501     0  2.629319076E+00 -7.145676747E-01  6.355028029E+00  8.388850161E+00  4.750000000E+00  0.00000E+00  9.000E+00
      -5     1     1     2     0   503 -3.018138915E+00  4.576575798E+01 -8.855047878E+01  9.983668443E+01  4.750000000E+00  0.00000E+00  9.000E+00
      21     1     1     2   503   512 -1.368083429E+01  3.414934895E+00 -7.127475377E+01  7.265615963E+01  9.536743164E-07  0.00000E+00  9.000E+00
#rwgt            1           9   8.1121921197801344E-003           1      358962           0
</event>
<event>
      6   9999  3.45752E-01  2.99999E+00 -1.00000E+00  2.76912E-01
      21    -1     0     0   511   502  0.000000000E+00  0.000000000E+00  1.617923268E+02  1.617923268E+02  0.000000000E+00  0.00000E+00  9.000E+00
      21    -1     0     0   502   503  0.000000000E+00  0.000000000E+00 -4.858974360E+01  4.858974360E+01  0.000000000E+00  0.00000E+00  9.000E+00
      25     1     1     2     0     0  4.342256482E+00  1.604329156E+00  4.257368749E+01  1.321366075E+02  1.250045403E+02  0.00000E+00  9.000E+00
       5     1     1     2   501     0  9.072050332E-01 -4.100257735E-01  6.803924172E+01  6.821211077E+01  4.750000000E+00  0.00000E+00  9.000E+00
      -5     1     1     2     0   503 -3.976083767E+00  1.522030487E+00  5.431877474E-01  6.401825666E+00  4.750000000E+00  0.00000E+00  9.000E+00
      21     1     1     2   511   501 -1.273377748E+00 -2.716333870E+00  2.046466224E+00  3.631526482E+00  0.000000000E+00  0.00000E+00  9.000E+00
#rwgt            1           9   145.54106332726315                1      361144           0
</event>
<event>
      6   9999  3.45752E-01  1.04309E+01 -1.00000E+00  1.85284E-01
      21    -1     0     0   512   502  0.000000000E+00  0.000000000E+00  1.548403768E+01  1.548403768E+01  0.000000000E+00  0.00000E+00  9.000E+00
      21    -1     0     0   502   503  0.000000000E+00  0.000000000E+00 -8.570127773E+02  8.570127773E+02  0.000000000E+00  0.00000E+00  9.000E+00
      25     1     1     2     0     0  7.693199089E+00 -4.917098616E+01 -7.554585715E+02  7.673436409E+02  1.249865544E+02  0.00000E+00  9.000E+00
       5     1     1     2   501     0 -4.650276420E+00  2.544690825E+01 -2.338459258E+01  3.519334995E+01  4.750000000E+00  0.00000E+00  9.000E+00
      -5     1     1     2     0   503 -5.818849046E+00  1.366935533E+01 -5.453671417E+01  5.672324014E+01  4.750000000E+00  0.00000E+00  9.000E+00
      21     1     1     2   512   501  2.775926376E+00  1.005472258E+01 -8.148861282E+00  1.323658391E+01  3.153981341E-07  0.00000E+00  9.000E+00
#rwgt            1           9   2.4938681122159924E-003           1      367373           0
</event>
<event>
      6   9999  3.45752E-01  6.67790E+00 -1.00000E+00  2.07781E-01
      21    -1     0     0   501   502  0.000000000E+00  0.000000000E+00  7.078093461E+01  7.078093461E+01  0.000000000E+00  0.00000E+00  9.000E+00
      21    -1     0     0   511   503  0.000000000E+00  0.000000000E+00 -3.145167386E+02  3.145167386E+02  0.000000000E+00  0.00000E+00  9.000E+00
      25     1     1     2     0     0  1.946372535E+01 -1.032639914E+01 -1.129297292E+02  1.698875631E+02  1.249927567E+02  0.00000E+00  9.000E+00
       5     1     1     2   501     0 -8.157104781E-01  1.799243719E+00  4.005363481E+01  4.038265498E+01  4.750000000E+00  0.00000E+00  9.000E+00
      -5     1     1     2     0   503 -2.132282694E+01  2.408349289E+00 -5.886805279E+01  6.283687798E+01  4.750000000E+00  0.00000E+00  9.000E+00
      21     1     1     2   511   502  2.674812068E+00  6.118806131E+00 -1.119916568E+02  1.121905771E+02  1.348699152E-06  0.00000E+00  9.000E+00
#rwgt            1           9   2.6218273776949981E-004           1      370254           0
</event>
<event>
      6   9999  3.45752E-01  1.16916E+01 -1.00000E+00  1.80317E-01
      21    -1     0     0   512   502  0.000000000E+00  0.000000000E+00  1.018097486E+01  1.018097486E+01  0.000000000E+00  0.00000E+00  9.000E+00
      21    -1     0     0   502   503  0.000000000E+00  0.000000000E+00 -7.774190786E+02  7.774190786E+02  0.000000000E+00  0.00000E+00  9.000E+00
      25     1     1     2     0     0 -7.878118655E+00  2.115190715E+01 -5.772625053E+02  5.910721581E+02  1.249993128E+02  0.00000E+00  9.000E+00
       5     1     1     2   501     0  5.426397182E+00 -2.255441674E+01 -1.037162659E+02  1.063850262E+02  4.750000000E+00  0.00000E+00  9.000E+00
      -5     1     1     2     0   503 -8.725387294E+00  4.832661435E+00 -6.452027090E+01  6.545926105E+01  4.750000000E+00  0.00000E+00  9.000E+00
      21     1     1     2   512   501  1.117710877E+01 -3.430151840E+00 -2.173906168E+01  2.468360802E+01  2.384185791E-07  0.00000E+00  9.000E+00
#rwgt            1           9   7.8093583144891343E-002           1      373907           0
</event>
<event>
      6   9999  3.45752E-01  7.16782E+00 -1.00000E+00  2.03836E-01
      21    -1     0     0   501   502  0.000000000E+00  0.000000000E+00  9.326830286E+00  9.326830286E+00  0.000000000E+00  0.00000E+00  9.000E+00
      21    -1     0     0   502   511  0.000000000E+00  0.000000000E+00 -8.502375522E+02  8.502375522E+02  0.000000000E+00  0.00000E+00  9.000E+00
      25     1     1     2     0     0  3.353792052E+00  1.220192173E+01 -6.834424413E+02  6.948936264E+02  1.249937861E+02  0.00000E+00  9.000E+00
       5     1     1     2   501     0 -2.436773183E-01  2.701125468E+00  7.724381679E-01  5.524003816E+00  4.750000000E+00  0.00000E+00  9.000E+00
      -5     1     1     2     0   503 -2.764987189E+00 -7.743544139E+00 -7.517812339E+01  7.577546018E+01  4.750000000E+00  0.00000E+00  9.000E+00
      21     1     1     2   503   511 -3.451275455E-01 -7.159503063E+00 -8.306259532E+01  8.337129205E+01  0.000000000E+00  0.00000E+00  9.000E+00
#rwgt            1           9   2.7356492113225338E-004           1      376048           0
</event>
<event>
      6   9999  3.45752E-01  3.03987E+01 -1.00000E+00  1.47468E-01
      21    -1     0     0   512   502  0.000000000E+00  0.000000000E+00  8.637152995E+01  8.637152995E+01  0.000000000E+00  0.00000E+00  9.000E+00
      21    -1     0     0   502   503  0.000000000E+00  0.000000000E+00 -7.096836899E+02  7.096836899E+02  0.000000000E+00  0.00000E+00  9.000E+00
      25     1     1     2     0     0  4.770791527E-01 -2.381774176E+01 -6.555987472E+02  6.678315526E+02  1.249870108E+02  0.00000E+00  9.000E+00
       5     1     1     2   501     0 -5.633964734E+00  5.402873548E-02 -1.626266896E+01  1.785444985E+01  4.750000000E+00  0.00000E+00  9.000E+00
      -5     1     1     2     0   503 -1.094853188E+01 -2.017971699E+00 -2.664359221E+01  2.926407466E+01  4.750000000E+00  0.00000E+00  9.000E+00
      21     1     1     2   512   501  1.610541746E+01  2.578168472E+01  7.519284838E+01  8.110514278E+01  3.438521648E-06  0.00000E+00  9.000E+00
#rwgt            1           9   3.2387178910108443E-004           1      379121           0
</event>
<event>
      6   9999  3.45752E-01  1.13720E+01 -1.00000E+00  1.81498E-01
      21    -1     0     0   511   502  0.000000000E+00  0.000000000E+00  2.631378964E+01  2.631378964E+01  0.000000000E+00  0.00000E+00  9.000E+00
      21    -1     0     0   502   503  0.000000000E+00  0.000000000E+00 -1.103364349E+03  1.103364349E+03  0.000000000E+00  0.00000E+00  9.000E+00
      25     1     1     2     0     0  8.746995780E+01  9.594679829E+00 -7.336194594E+02  7.493761622E+02  1.249962796E+02  0.00000E+00  9.000E+00
       5     1     1     2   501     0  2.423786927E-01  1.081411908E+00  1.170669284E+01  1.268216687E+01  4.750000000E+00  0.00000E+00  9.000E+00
      -5     1     1     2     0   503 -8.034319961E+01 -1.933738230E+01 -3.259236393E+02  3.362703455E+02  4.750000000E+00  0.00000E+00  9.000E+00
      21     1     1     2   511   501 -7.369136884E+00  8.661290558E+00 -2.921415302E+01  3.134946361E+01  4.768371582E-07  0.00000E+00  9.000E+00
#rwgt            1           9   4.0243726683740272E-006           1      380027           0
</event>
<event>
      6   9999  3.45752E-01  5.15021E+00 -1.00000E+00  2.23734E-01
      21    -1     0     0   501   502  0.000000000E+00  0.000000000E+00  7.835684431E+00  7.835684431E+00  0.000000000E+00  0.00000E+00  9.000E+00
       2    -1     0     0   502     0  0.000000000E+00  0.000000000E+00 -8.803777115E+02  8.803777115E+02  0.000000000E+00  0.00000E+00  9.000E+00
      25     1     1     2     0     0  3.140617821E+00 -4.373975172E+00 -6.377064286E+02  6.498628504E+02  1.249929603E+02  0.00000E+00  9.000E+00
       5     1     1     2   501     0 -4.842777174E-01  4.786769354E-01 -3.599453910E+00  5.998518564E+00  4.750000000E+00  0.00000E+00  9.000E+00
      -5     1     1     2     0   503 -1.767056489E+00  8.968155639E+00 -5.036868508E+01  5.141125598E+01  4.750000000E+00  0.00000E+00  9.000E+00
       2     1     1     2   503     0 -8.892836143E-01 -5.072857402E+00 -1.808674595E+02  1.809407710E+02  1.907348633E-06  0.00000E+00  9.000E+00
#rwgt            1           9   6.5461957878625617E-004           1      382807           0
</event>
<event>
      6   9999  3.45752E-01  1.89118E+01 -1.00000E+00  1.62087E-01
      21    -1     0     0   501   502  0.000000000E+00  0.000000000E+00  5.252468340E+01  5.252468340E+01  0.000000000E+00  0.00000E+00  9.000E+00
      21    -1     0     0   502   511  0.000000000E+00  0.000000000E+00 -1.393566354E+03  1.393566354E+03  0.000000000E+00  0.00000E+00  9.000E+00
      25     1     1     2     0     0 -4.424423019E+00  4.789164593E+01 -6.004861615E+02  6.152419556E+02  1.250033937E+02  0.00000E+00  9.000E+00
       5     1     1     2   501     0 -8.065069818E+00  7.313424094E+00  4.208484506E+01  4.372903163E+01  4.750000000E+00  0.00000E+00  9.000E+00
      -5     1     1     2     0   503 -4.461543863E+00 -6.359070761E+01 -6.504870373E+02  6.536204034E+02  4.750000000E+00  0.00000E+00  9.000E+00
      21     1     1     2   503   511  1.695103670E+01  8.385637596E+00 -1.321533165E+02  1.334996466E+02  2.697398305E-06  0.00000E+00  9.000E+00
#rwgt            1           9   4.0340472702676903E-004           1      386311           0
</event>
<event>
      6   9999 -3.45752E-01  8.30834E+01 -1.00000E+00  1.23958E-01
      21    -1     0     0   501   512  0.000000000E+00  0.000000000E+00  5.630825340E+01  5.630825340E+01  0.000000000E+00  0.00000E+00  9.000E+00
      21    -1     0     0   502   503  0.000000000E+00  0.000000000E+00 -1.033605574E+03  1.033605574E+03  0.000000000E+00  0.00000E+00  9.000E+00
      25     1     1     2     0     0  3.382275586E+01  2.897115113E+01 -3.508446738E+02  3.751001875E+02  1.249994365E+02  0.00000E+00  9.000E+00
       5     1     1     2   501     0 -1.122580187E+01 -2.237846911E-01 -5.643291367E-01  1.220449403E+01  4.750000000E+00  0.00000E+00  9.000E+00
      -5     1     1     2     0   503 -1.054059845E+02 -3.549348230E+01 -6.073691024E+02  6.174868402E+02  4.750000000E+00  0.00000E+00  9.000E+00
      21     1     1     2   502   512  8.280903046E+01  6.746115865E+00 -1.851921549E+01  8.512230582E+01  2.145767212E-06  0.00000E+00  9.000E+00
#rwgt            1           9  -4.9294479370559272E-004           1      389208           0
</event>
<event>
      6   9999  3.45752E-01  4.79908E+00 -1.00000E+00  2.32540E-01
      21    -1     0     0   511   502  0.000000000E+00  0.000000000E+00  4.856353994E+02  4.856353994E+02  0.000000000E+00  0.00000E+00  9.000E+00
      21    -1     0     0   502   503  0.000000000E+00  0.000000000E+00 -1.418814457E+03  1.418814457E+03  0.000000000E+00  0.00000E+00  9.000E+00
      25     1     1     2     0     0  1.682795661E+01  5.435140166E+00 -9.899819056E+02  9.979988464E+02  1.249992129E+02  0.00000E+00  9.000E+00
       5     1     1     2   501     0 -1.530839007E+01 -5.506854112E+00  5.365364720E+01  5.626676289E+01  4.750000000E+00  0.00000E+00  9.000E+00
      -5     1     1     2     0   503 -6.125307600E+00 -1.276727878E+00 -4.234675979E+02  4.235404567E+02  4.750000000E+00  0.00000E+00  9.000E+00
      21     1     1     2   511   501  4.605741057E+00  1.348441823E+00  4.266167986E+02  4.266437905E+02  9.344061824E-06  0.00000E+00  9.000E+00
#rwgt            1           9   1.3127716730086472E-003           1      389866           0
</event>
<event>
      6   9999  3.45752E-01  1.32210E+01 -1.00000E+00  1.75264E-01
      21    -1     0     0   501   512  0.000000000E+00  0.000000000E+00  4.404528500E+01  4.404528500E+01  0.000000000E+00  0.00000E+00  9.000E+00
      21    -1     0     0   502   503  0.000000000E+00  0.000000000E+00 -3.848496257E+02  3.848496257E+02  0.000000000E+00  0.00000E+00  9.000E+00
      25     1     1     2     0     0  1.435085997E+01  3.736650412E+00 -3.603667359E+02  3.817162924E+02  1.249929349E+02  0.00000E+00  9.000E+00
       5     1     1     2   501     0  5.513588281E-01  6.850750757E-02  2.369904342E+01  2.417676258E+01  4.750000000E+00  0.00000E+00  9.000E+00
      -5     1     1     2     0   503 -2.379171899E+00  4.335844389E-01 -7.648358442E+00  9.322464333E+00  4.750000000E+00  0.00000E+00  9.000E+00
      21     1     1     2   502   512 -1.252304690E+01 -4.238742358E+00  3.511710238E+00  1.367939140E+01  1.519626234E-07  0.00000E+00  9.000E+00
#rwgt            1           9   2.5567198437686139E-004           1      396393           0
</event>
<event>
      6   9999  3.45752E-01  5.21347E+01 -1.00000E+00  1.33823E-01
      21    -1     0     0   501   502  0.000000000E+00  0.000000000E+00  1.443756761E+02  1.443756761E+02  0.000000000E+00  0.00000E+00  9.000E+00
      21    -1     0     0   502   511  0.000000000E+00  0.000000000E+00 -8.419302384E+02  8.419302384E+02  0.000000000E+00  0.00000E+00  9.000E+00
      25     1     1     2     0     0 -1.236150660E+01  7.531721485E+01  7.281477511E+01  1.635610552E+02  1.249989504E+02  0.00000E+00  9.000E+00
       5     1     1     2   501     0 -2.364027493E+00 -3.184155446E+00  1.564162670E+01  1.682113128E+01  4.750000000E+00  0.00000E+00  9.000E+00
      -5     1     1     2     0   503  1.164943850E+00 -1.224732590E+02 -4.742306158E+02  4.898145523E+02  4.750000000E+00  0.00000E+00  9.000E+00
      21     1     1     2   503   511  1.356059025E+01  5.034019959E+01 -3.117803484E+02  3.161091757E+02  3.814697266E-06  0.00000E+00  9.000E+00
#rwgt            1           9   8.5448596460831229E-003           1      398588           0
</event>
<event>
      6   9999  3.45752E-01  2.03515E+01 -1.00000E+00  1.59635E-01
      21    -1     0     0   502   503  0.000000000E+00  0.000000000E+00  8.207232950E+00  8.207232950E+00  0.000000000E+00  0.00000E+00  9.000E+00
      21    -1     0     0   512   502  0.000000000E+00  0.000000000E+00 -8.249419116E+02  8.249419116E+02  0.000000000E+00  0.00000E+00  9.000E+00
      25     1     1     2     0     0 -3.636712951E+00  1.553208479E+01 -5.695503826E+02  5.833240377E+02  1.249992932E+02  0.00000E+00  9.000E+00
       5     1     1     2   501     0  1.439802365E-01  7.980876338E-01 -1.048482598E+01  1.153913992E+01  4.750000000E+00  0.00000E+00  9.000E+00
      -5     1     1     2     0   503  2.583875916E+00  4.001064278E+00 -7.739808984E+01  7.768984323E+01  4.750000000E+00  0.00000E+00  9.000E+00
      21     1     1     2   512   501  9.088567995E-01 -2.033123671E+01 -1.593013802E+02  1.605961237E+02  1.907348633E-06  0.00000E+00  9.000E+00
#rwgt            1           9   4.4333214307299557E-003           1      399905           0
</event>
<event>
      6   9999  3.45752E-01  1.33277E+01 -1.00000E+00  1.74944E-01
      21    -1     0     0   501   502  0.000000000E+00  0.000000000E+00  8.003530775E+01  8.003530775E+01  0.000000000E+00  0.00000E+00  9.000E+00
      21    -1     0     0   511   503  0.000000000E+00  0.000000000E+00 -3.710638268E+02  3.710638268E+02  0.000000000E+00  0.00000E+00  9.000E+00
      25     1     1     2     0     0 -1.707627612E+01 -1.114107111E+02 -1.780774679E+02  2.450319929E+02  1.250005888E+02  0.00000E+00  9.000E+00
       5     1     1     2   501     0  2.419632366E+00 -3.290577665E+00  1.377810544E+01  1.513542902E+01  4.750000000E+00  0.00000E+00  9.000E+00
      -5     1     1     2     0   503  1.416616850E+01  1.280200083E+02 -1.093194773E+02  1.690062528E+02  4.750000000E+00  0.00000E+00  9.000E+00
      21     1     1     2   511   502  4.904752621E-01 -1.331871956E+01 -1.740967934E+01  2.192545989E+01  4.129530925E-07  0.00000E+00  9.000E+00
#rwgt            1           9   20400.658377644890                1      401005           0
</event>
<event>
      6   9999  3.45752E-01  5.98083E+00 -1.00000E+00  2.14252E-01
      21    -1     0     0   512   502  0.000000000E+00  0.000000000E+00  8.207788717E+01  8.207788717E+01  0.000000000E+00  0.00000E+00  9.000E+00
      21    -1     0     0   502   503  0.000000000E+00  0.000000000E+00 -7.084454577E+02  7.084454577E+02  0.000000000E+00  0.00000E+00  9.000E+00
      25     1     1     2     0     0 -2.169087232E+00 -9.458995147E-01 -6.626290312E+02  6.743209115E+02  1.250034359E+02  0.00000E+00  9.000E+00
       5     1     1     2   501     0 -3.093231659E+00  6.199242257E-01 -5.535496297E+00  7.947113148E+00  4.750000000E+00  0.00000E+00  9.000E+00
      -5     1     1     2     0   503 -6.690129865E-01 -4.418842824E-01 -3.293449425E+01  3.328492529E+01  4.750000000E+00  0.00000E+00  9.000E+00
      21     1     1     2   512   501  5.931331878E+00  7.678595715E-01  7.473145126E+01  7.497039492E+01  2.132480600E-06  0.00000E+00  9.000E+00
#rwgt            1           9   2.6887797024103818E-002           1      403862           0
</event>
<event>
      6   9999  3.45752E-01  1.15746E+01 -1.00000E+00  1.80743E-01
      21    -1     0     0   501   502  0.000000000E+00  0.000000000E+00  8.261351268E+00  8.261351268E+00  0.000000000E+00  0.00000E+00  9.000E+00
      21    -1     0     0   511   503  0.000000000E+00  0.000000000E+00 -8.624794105E+02  8.624794105E+02  0.000000000E+00  0.00000E+00  9.000E+00
      25     1     1     2     0     0  6.524951382E+00  9.399153602E+00 -6.564415671E+02  6.683346553E+02  1.249990457E+02  0.00000E+00  9.000E+00
       5     1     1     2   501     0 -8.618833770E-01  1.120944422E+00 -1.514358464E+00  5.182194604E+00  4.750000000E+00  0.00000E+00  9.000E+00
      -5     1     1     2     0   503 -6.032452404E+00  1.048599900E+00 -6.781587766E+01  6.825720333E+01  4.750000000E+00  0.00000E+00  9.000E+00
      21     1     1     2   511   502  3.693843986E-01 -1.156869792E+01 -1.284462561E+02  1.289667085E+02  0.000000000E+00  0.00000E+00  9.000E+00
#rwgt            1           9   3.8719013344343760E-004           1      407218           0
</event>
<event>
      6   9999 -3.45752E-01  1.56275E+01 -1.00000E+00  1.68843E-01
      21    -1     0     0   512   502  0.000000000E+00  0.000000000E+00  2.074681687E+01  2.074681687E+01  0.000000000E+00  0.00000E+00  9.000E+00
      21    -1     0     0   502   503  0.000000000E+00  0.000000000E+00 -9.667016809E+02  9.667016809E+02  0.000000000E+00  0.00000E+00  9.000E+00
      25     1     1     2     0     0 -2.164040666E+01 -9.380409232E+00 -5.956350006E+02  6.090685113E+02  1.250083930E+02  0.00000E+00  9.000E+00
       5     1     1     2   501     0 -4.249602960E+00  2.981459152E+00  9.523292471E+00  1.184076955E+01  4.750000000E+00  0.00000E+00  9.000E+00
      -5     1     1     2     0   503  1.062753394E+01  3.041126878E+00 -3.442591981E+02  3.444693759E+02  4.750000000E+00  0.00000E+00  9.000E+00
      21     1     1     2   512   501  1.526247568E+01  3.357823203E+00 -1.558395777E+01  2.206984097E+01  5.591411304E-07  0.00000E+00  9.000E+00
#rwgt            1           9  -4.0353405720983381E-004           1      409340           0
</event>
<event>
      6   9999  3.45752E-01  2.99635E+01 -1.00000E+00  1.47872E-01
      21    -1     0     0   501   511  0.000000000E+00  0.000000000E+00  3.415659523E+01  3.415659523E+01  0.000000000E+00  0.00000E+00  9.000E+00
      21    -1     0     0   502   503  0.000000000E+00  0.000000000E+00 -4.190597031E+03  4.190597031E+03  0.000000000E+00  0.00000E+00  9.000E+00
      25     1     1     2     0     0 -4.218193382E+01 -1.434434965E+02 -5.839650321E+02  6.156264089E+02  1.250014574E+02  0.00000E+00  9.000E+00
       5     1     1     2   501     0 -5.070250088E+00  1.188312848E+00  6.327631429E+00  9.472113960E+00  4.750000000E+00  0.00000E+00  9.000E+00
      -5     1     1     2     0   503  2.790392044E+01  1.651343951E+02 -3.560716481E+03  3.564656003E+03  4.750000001E+00  0.00000E+00  9.000E+00
      21     1     1     2   502   511  1.934826347E+01 -2.287921147E+01 -1.808655437E+01  3.499910093E+01  1.892388805E-06  0.00000E+00  9.000E+00
#rwgt            1           9   9.8795386570769174E-003           1      411306           0
</event>
<event>
      6   9999 -3.45752E-01  2.52509E+02 -1.00000E+00  1.05502E-01
      -2    -1     0     0     0   502  0.000000000E+00  0.000000000E+00  1.096490360E+02  1.096490360E+02  0.000000000E+00  0.00000E+00  9.000E+00
       2    -1     0     0   512     0  0.000000000E+00  0.000000000E+00 -2.734205548E+03  2.734205548E+03  0.000000000E+00  0.00000E+00  9.000E+00
      25     1     1     2     0     0  3.682822700E+02 -1.930128356E+02 -9.323423216E+02  1.028480755E+03  1.249986912E+02  0.00000E+00  9.000E+00
       5     1     1     2   501     0  7.242048994E+01  1.347800082E+02 -1.674384521E+02  2.268668678E+02  4.750000000E+00  0.00000E+00  9.000E+00
      -5     1     1     2     0   502 -1.925103695E+02  1.174478192E+01 -6.617991869E+02  6.893467260E+02  4.750000000E+00  0.00000E+00  9.000E+00
      21     1     1     2   512   501 -2.481923904E+02  4.648804546E+01 -8.629765517E+02  8.991602359E+02  1.525878906E-05  0.00000E+00  9.000E+00
#rwgt            1           3  -1.5522552687886900E-004           1      413490           0
</event>
<event>
      6   9999  3.45752E-01  3.57688E+00 -1.00000E+00  2.58348E-01
      21    -1     0     0   502   503  0.000000000E+00  0.000000000E+00  1.437788882E+01  1.437788882E+01  0.000000000E+00  0.00000E+00  9.000E+00
      21    -1     0     0   511   502  0.000000000E+00  0.000000000E+00 -9.378211763E+02  9.378211763E+02  0.000000000E+00  0.00000E+00  9.000E+00
      25     1     1     2     0     0 -3.762046356E+01 -2.617810047E+01 -3.668884228E+02  3.902965618E+02  1.249947966E+02  0.00000E+00  9.000E+00
       5     1     1     2   501     0  3.339371894E+01  3.330651558E+01 -4.033721127E+02  4.061478650E+02  4.750000000E+00  0.00000E+00  9.000E+00
      -5     1     1     2     0   503  5.921728497E+00 -3.978634001E+00 -1.327649436E+01  1.580266431E+01  4.750000000E+00  0.00000E+00  9.000E+00
      21     1     1     2   511   501 -1.694983878E+00 -3.149781109E+00 -1.399062576E+02  1.399519740E+02  2.697398305E-06  0.00000E+00  9.000E+00
#rwgt            1           9   1329.4115386961480                1      414570           0
</event>
<event>
      6   9999  3.45752E-01  6.03678E+00 -1.00000E+00  2.13689E-01
      21    -1     0     0   501   502  0.000000000E+00  0.000000000E+00  1.777256570E+01  1.777256570E+01  0.000000000E+00  0.00000E+00  9.000E+00
      21    -1     0     0   512   503  0.000000000E+00  0.000000000E+00 -9.856614792E+02  9.856614792E+02  0.000000000E+00  0.00000E+00  9.000E+00
      25     1     1     2     0     0 -1.874521272E+01  2.585158352E+01 -4.461722770E+02  4.644505591E+02  1.249997347E+02  0.00000E+00  9.000E+00
       5     1     1     2   501     0  2.183665834E-02 -1.568085206E+00  6.882531872E+00  8.508296717E+00  4.750000000E+00  0.00000E+00  9.000E+00
      -5     1     1     2     0   503  2.464320626E+01 -2.310097293E+01 -5.037395964E+02  5.048931431E+02  4.750000000E+00  0.00000E+00  9.000E+00
      21     1     1     2   512   502 -5.919830199E+00 -1.182525383E+00 -2.485957195E+01  2.558204592E+01  3.371747881E-07  0.00000E+00  9.000E+00
#rwgt            1           9   3.8875506662098123E-005           1      419850           0
</event>
<event>
      6   9999  3.45752E-01  9.56793E+01 -1.00000E+00  1.21256E-01
       1    -1     0     0   501     0  0.000000000E+00  0.000000000E+00  2.536793623E+03  2.536793623E+03  0.000000000E+00  0.00000E+00  9.000E+00
      21    -1     0     0   502   503  0.000000000E+00  0.000000000E+00 -9.622251003E+02  9.622251003E+02  0.000000000E+00  0.00000E+00  9.000E+00
      25     1     1     2     0     0 -4.692959732E+01 -5.797961193E+01 -8.138972415E+02  8.268117540E+02  1.249997374E+02  0.00000E+00  9.000E+00
       5     1     1     2   501     0 -4.397645436E+01  5.014000293E+01 -8.986161964E+01  1.120072391E+02  4.750000000E+00  0.00000E+00  9.000E+00
      -5     1     1     2     0   503 -4.767456056E+00  6.784483177E+00 -3.945715424E+01  4.059787396E+01  4.750000000E+00  0.00000E+00  9.000E+00
       1     1     1     2   502     0  9.567350774E+01  1.055125821E+00  2.517784538E+03  2.519601856E+03  6.103515625E-05  0.00000E+00  9.000E+00
#rwgt            1           9   1.7357138563995188E-002           1      423921           0
</event>
<event>
      6   9999  3.45752E-01  3.48893E+01 -1.00000E+00  1.43718E-01
      21    -1     0     0   501   502  0.000000000E+00  0.000000000E+00  4.955787465E+01  4.955787465E+01  0.000000000E+00  0.00000E+00  9.000E+00
      21    -1     0     0   511   503  0.000000000E+00  0.000000000E+00 -3.292051146E+02  3.292051146E+02  0.000000000E+00  0.00000E+00  9.000E+00
      25     1     1     2     0     0 -2.016732003E+01  4.276362919E+01 -2.286503170E+02  2.648429678E+02  1.250015254E+02  0.00000E+00  9.000E+00
       5     1     1     2   501     0 -3.845771853E+00 -1.946821534E+00  3.238884269E+00  7.185606901E+00  4.750000000E+00  0.00000E+00  9.000E+00
      -5     1     1     2     0   503 -1.065165712E+01 -4.476886187E+01 -5.201638732E+00  4.655457376E+01  4.750000000E+00  0.00000E+00  9.000E+00
      21     1     1     2   511   502  3.466474901E+01  3.952054210E+00 -4.903416853E+01  6.017984080E+01  0.000000000E+00  0.00000E+00  9.000E+00
#rwgt            1           9   5.4923003523791807E-002           1      424529           0
</event>
<event>
      6   9999  3.45752E-01  4.11669E+00 -1.00000E+00  2.45293E-01
      21    -1     0     0   501   502  0.000000000E+00  0.000000000E+00  5.381220555E+01  5.381220555E+01  0.000000000E+00  0.00000E+00  9.000E+00
      21    -1     0     0   502   512  0.000000000E+00  0.000000000E+00 -1.684642893E+02  1.684642893E+02  0.000000000E+00  0.00000E+00  9.000E+00
      25     1     1     2     0     0  1.017792846E+01  2.268181729E+01 -1.259508428E+02  1.791849463E+02  1.250023004E+02  0.00000E+00  9.000E+00
       5     1     1     2   501     0 -1.000034515E+01 -2.330917601E+01  1.697125464E+01  3.088544275E+01  4.750000000E+00  0.00000E+00  9.000E+00
      -5     1     1     2     0   503 -4.154304179E+00 -4.370025863E-01 -1.855177332E+00  6.591919099E+00  4.750000000E+00  0.00000E+00  9.000E+00
      21     1     1     2   503   512  3.976720862E+00  1.064361307E+00 -3.817318347E+00  5.614186777E+00  0.000000000E+00  0.00000E+00  9.000E+00
#rwgt            1           9   8.4658314239472787                1      425941           0
</event>
<event>
      6   9999  3.45752E-01  3.07013E+01 -1.00000E+00  1.47192E-01
       2    -1     0     0   501     0  0.000000000E+00  0.000000000E+00  9.293435072E+02  9.293435072E+02  0.000000000E+00  0.00000E+00  9.000E+00
      21    -1     0     0   502   503  0.000000000E+00  0.000000000E+00 -2.012265315E+02  2.012265315E+02  0.000000000E+00  0.00000E+00  9.000E+00
      25     1     1     2     0     0 -5.767510649E+00  5.205735796E-01 -1.410966671E+02  1.885950826E+02  1.250052020E+02  0.00000E+00  9.000E+00
       5     1     1     2   501     0  2.844394204E+01  1.190677772E+01  7.458537479E+02  7.465059979E+02  4.750000000E+00  0.00000E+00  9.000E+00
      -5     1     1     2     0   503  7.723134187E+00 -1.672126885E+01 -3.193378284E+01  3.716956577E+01  4.750000000E+00  0.00000E+00  9.000E+00
       2     1     1     2   502     0 -3.039956558E+01  4.293917549E+00  1.552936778E+02  1.582993925E+02  1.907348633E-06  0.00000E+00  9.000E+00
#rwgt            1           9   8.1664925405553600E-003           1      430672           0
</event>
<event>
      6   9999 -3.45752E-01  6.61531E+00 -1.00000E+00  2.08318E-01
      21    -1     0     0   501   511  0.000000000E+00  0.000000000E+00  9.324486432E+01  9.324486432E+01  0.000000000E+00  0.00000E+00  9.000E+00
      21    -1     0     0   502   503  0.000000000E+00  0.000000000E+00 -9.678686387E+01  9.678686387E+01  0.000000000E+00  0.00000E+00  9.000E+00
      25     1     1     2     0     0  1.322723140E+01 -4.539804006E+01  9.516396225E+00  1.339850649E+02  1.250019765E+02  0.00000E+00  9.000E+00
       5     1     1     2   501     0 -1.209271051E+01  3.624010320E+01 -1.301415402E+01  4.063876760E+01  4.750000000E+00  0.00000E+00  9.000E+00
      -5     1     1     2     0   503  3.323780754E+00  4.270617264E+00 -3.430806441E+00  7.976128331E+00  4.750000000E+00  0.00000E+00  9.000E+00
      21     1     1     2   502   511 -4.458301640E+00  4.887319604E+00  3.386564678E+00  7.431767403E+00  1.115100797E-07  0.00000E+00  9.000E+00
#rwgt            1           9  -6.2147329557342326E-002           1      432857           0
</event>
<event>
      6   9999  3.45752E-01  3.89163E+00 -1.00000E+00  2.50345E-01
      21    -1     0     0   501   502  0.000000000E+00  0.000000000E+00  1.386867229E+01  1.386867229E+01  0.000000000E+00  0.00000E+00  9.000E+00
      21    -1     0     0   502   512  0.000000000E+00  0.000000000E+00 -1.662782818E+03  1.662782818E+03  0.000000000E+00  0.00000E+00  9.000E+00
      25     1     1     2     0     0 -5.013536086E+00 -1.855196446E+00 -8.776227394E+02  8.864970836E+02  1.250073164E+02  0.00000E+00  9.000E+00
       5     1     1     2   501     0 -2.558268620E-01  7.363266194E-01  8.310789943E+00  9.604132118E+00  4.750000000E+00  0.00000E+00  9.000E+00
      -5     1     1     2     0   503  1.965546535E+00  3.175461548E+00 -1.898970797E+01  1.992783074E+01  4.750000000E+00  0.00000E+00  9.000E+00
      21     1     1     2   503   512  3.303816413E+00 -2.056591721E+00 -7.606124888E+02  7.606224444E+02  1.525878906E-05  0.00000E+00  9.000E+00
#rwgt            1           9   1.1952667983026475E-004           1      436125           0
</event>
<event>
      6   9999  3.45752E-01  9.76953E+00 -1.00000E+00  1.88267E-01
      21    -1     0     0   501   511  0.000000000E+00  0.000000000E+00  4.270840761E+01  4.270840761E+01  0.000000000E+00  0.00000E+00  9.000E+00
      21    -1     0     0   502   503  0.000000000E+00  0.000000000E+00 -1.212739378E+03  1.212739378E+03  0.000000000E+00  0.00000E+00  9.000E+00
      25     1     1     2     0     0  3.509932525E+00 -1.143578815E+01 -1.103636586E+03  1.110757594E+03  1.250024848E+02  0.00000E+00  9.000E+00
       5     1     1     2   501     0 -6.509897113E+00  8.207211564E+00  3.454719508E+01  3.641165019E+01  4.750000000E+00  0.00000E+00  9.000E+00
      -5     1     1     2     0   503 -5.817549055E+00 -9.779820423E-01 -9.768846679E+01  9.798162772E+01  4.750000000E+00  0.00000E+00  9.000E+00
      21     1     1     2   502   511  8.817513643E+00  4.206558624E+00 -3.253111758E+00  1.029691305E+01  2.920019320E-07  0.00000E+00  9.000E+00
#rwgt            1           9   1.5904543213412164E-005           1      441186           0
</event>
<event>
      6   9999  3.45752E-01  2.48811E+01 -1.00000E+00  1.53293E-01
      21    -1     0     0   501   502  0.000000000E+00  0.000000000E+00  4.491449339E+01  4.491449339E+01  0.000000000E+00  0.00000E+00  9.000E+00
      21    -1     0     0   502   512  0.000000000E+00  0.000000000E+00 -1.360146046E+03  1.360146046E+03  0.000000000E+00  0.00000E+00  9.000E+00
      25     1     1     2     0     0 -7.862189533E+00  4.375087913E+01 -9.581585356E+02  9.672999794E+02  1.250020694E+02  0.00000E+00  9.000E+00
       5     1     1     2   501     0  4.075601334E+00 -8.495161142E-01  3.780867531E+01  3.833263144E+01  4.750000000E+00  0.00000E+00  9.000E+00
      -5     1     1     2     0   503  1.579633306E+01 -2.111065513E+01 -3.047408079E+02  3.059161755E+02  4.750000000E+00  0.00000E+00  9.000E+00
      21     1     1     2   503   512 -1.200974486E+01 -2.179070789E+01 -9.014088390E+01  9.351175258E+01  0.000000000E+00  0.00000E+00  9.000E+00
#rwgt            1           9   4.8361511349036478E-005           1      444995           0
</event>
<event>
      6   9999  3.45752E-01  8.61617E+00 -1.00000E+00  1.94275E-01
       1    -1     0     0   501     0  0.000000000E+00  0.000000000E+00  5.117037667E+02  5.117037667E+02  0.000000000E+00  0.00000E+00  9.000E+00
      21    -1     0     0   502   503  0.000000000E+00  0.000000000E+00 -7.176625331E+01  7.176625331E+01  0.000000000E+00  0.00000E+00  9.000E+00
      25     1     1     2     0     0  2.720320123E+00 -6.972306439E+00 -1.387311216E+01  1.259906442E+02  1.250006639E+02  0.00000E+00  9.000E+00
       5     1     1     2   501     0 -3.068794145E+00 -3.480080128E+00  8.267516819E+01  8.294139130E+01  4.750000000E+00  0.00000E+00  9.000E+00
      -5     1     1     2     0   503 -2.165829641E-01  1.854761981E+00  2.293674227E+00  5.595577865E+00  4.750000000E+00  0.00000E+00  9.000E+00
       1     1     1     2   502     0  5.650569859E-01  8.597624586E+00  3.688417831E+02  3.689424066E+02  7.629394531E-06  0.00000E+00  9.000E+00
#rwgt            1           9   1.1840026905506687E-003           1      446937           0
</event>
<event>
      6   9999 -3.45752E-01  1.60520E+01 -1.00000E+00  1.67859E-01
      21    -1     0     0   501   502  0.000000000E+00  0.000000000E+00  6.878008274E+01  6.878008274E+01  0.000000000E+00  0.00000E+00  9.000E+00
      21    -1     0     0   511   503  0.000000000E+00  0.000000000E+00 -1.341998817E+03  1.341998817E+03  0.000000000E+00  0.00000E+00  9.000E+00
      25     1     1     2     0     0 -5.896484820E-01 -4.084513281E+00 -1.690122320E+02  2.102550982E+02  1.250001632E+02  0.00000E+00  9.000E+00
       5     1     1     2   501     0 -1.129215270E+00 -1.833252342E-01  3.580981811E+01  3.614158696E+01  4.750000000E+00  0.00000E+00  9.000E+00
      -5     1     1     2     0   503 -1.277677151E+01 -2.627384682E+00  8.154016910E+00  1.609967491E+01  4.750000000E+00  0.00000E+00  9.000E+00
      21     1     1     2   511   502  1.449563526E+01  6.895223198E+00 -1.148170337E+03  1.148282539E+03  1.525878906E-05  0.00000E+00  9.000E+00
#rwgt            1           9  -4.8631783811756875E-002           1      449710           0
</event>
<event>
      6   9999  3.45752E-01  7.04648E+00 -1.00000E+00  2.04773E-01
      21    -1     0     0   512   503  0.000000000E+00  0.000000000E+00  1.008528727E+01  1.008528727E+01  0.000000000E+00  0.00000E+00  9.000E+00
      21    -1     0     0   501   502  0.000000000E+00  0.000000000E+00 -8.098000702E+02  8.098000702E+02  0.000000000E+00  0.00000E+00  9.000E+00
      25     1     1     2     0     0 -5.393705557E+00  1.532558934E+01 -6.473753813E+02  6.595318886E+02  1.249938478E+02  0.00000E+00  9.000E+00
       5     1     1     2   501     0 -3.959872302E+00 -1.001105785E+01 -8.630087544E+01  8.709939994E+01  4.750000000E+00  0.00000E+00  9.000E+00
      -5     1     1     2     0   503  2.417061659E+00 -6.554526661E+00 -6.565595630E+01  6.619721372E+01  4.750000000E+00  0.00000E+00  9.000E+00
      21     1     1     2   512   502  6.936516200E+00  1.239995167E+00 -3.825698070E-01  7.056855154E+00  3.015875019E-07  0.00000E+00  9.000E+00
#rwgt            1           9  0.57925474888760509                1      451854           0
</event>
<event>
      6   9999  3.45752E-01  2.18091E+00 -1.00000E+00  3.18984E-01
      21    -1     0     0   501   502  0.000000000E+00  0.000000000E+00  1.121784801E+03  1.121784801E+03  0.000000000E+00  0.00000E+00  9.000E+00
      21    -1     0     0   502   511  0.000000000E+00  0.000000000E+00 -1.903632299E+02  1.903632299E+02  0.000000000E+00  0.00000E+00  9.000E+00
      25     1     1     2     0     0  6.514930397E+00 -2.984527466E+00  7.254251718E+01  1.446993833E+02  1.249965720E+02  0.00000E+00  9.000E+00
       5     1     1     2   501     0 -3.593432486E+00  5.704081243E+00  1.009222283E+03  1.009255977E+03  4.750000000E+00  0.00000E+00  9.000E+00
      -5     1     1     2     0   503 -4.764764058E+00 -1.553895189E+00  8.735980648E-01  6.960117841E+00  4.750000000E+00  0.00000E+00  9.000E+00
      21     1     1     2   503   511  1.843266147E+00 -1.165658588E+00 -1.512168265E+02  1.512325528E+02  1.907348633E-06  0.00000E+00  9.000E+00
#rwgt            1           9   5.8291156868176236E-004           1      454879           0
</event>
<event>
      6   9999 -3.45752E-01  2.40630E+01 -1.00000E+00  1.54312E-01
      21    -1     0     0   502   512  0.000000000E+00  0.000000000E+00  1.527723401E+01  1.527723401E+01  0.000000000E+00  0.00000E+00  9.000E+00
      21    -1     0     0   501   502  0.000000000E+00  0.000000000E+00 -7.821969441E+02  7.821969441E+02  0.000000000E+00  0.00000E+00  9.000E+00
      25     1     1     2     0     0 -4.208755338E+00  1.223850435E+01 -4.107967098E+02  4.295886465E+02  1.249998954E+02  0.00000E+00  9.000E+00
       5     1     1     2   501     0 -7.855814802E+00  2.849006384E+00 -1.686617531E+02  1.689354318E+02  4.750000000E+00  0.00000E+00  9.000E+00
      -5     1     1     2     0   503  2.312919584E+01  6.280730295E+00 -1.623219778E+02  1.641505232E+02  4.750000000E+00  0.00000E+00  9.000E+00
      21     1     1     2   503   512 -1.106462570E+01 -2.136824103E+01 -2.513926939E+01  3.479957660E+01  1.066240300E-06  0.00000E+00  9.000E+00
#rwgt            1           9  -2.1763055960582833                1      464551           0
</event>
<event>
      6   9999  3.45752E-01  5.20318E+01 -1.00000E+00  1.33868E-01
      21    -1     0     0   501   502  0.000000000E+00  0.000000000E+00  2.828361821E+02  2.828361821E+02  0.000000000E+00  0.00000E+00  9.000E+00
      21    -1     0     0   502   511  0.000000000E+00  0.000000000E+00 -3.768150661E+02  3.768150661E+02  0.000000000E+00  0.00000E+00  9.000E+00
      25     1     1     2     0     0  7.284659702E+01 -4.961338998E+00 -2.122758003E+02  2.569377211E+02  1.249989422E+02  0.00000E+00  9.000E+00
       5     1     1     2   501     0 -1.929924505E+01 -6.204234839E+00  2.229744805E+02  2.239444906E+02  4.750000000E+00  0.00000E+00  9.000E+00
      -5     1     1     2     0   503 -8.500569588E+01 -3.027928136E+01 -8.195634898E+01  1.219926590E+02  4.750000000E+00  0.00000E+00  9.000E+00
      21     1     1     2   503   511  3.145834391E+01  4.144485520E+01 -2.272121521E+01  5.677637752E+01  1.118282261E-06  0.00000E+00  9.000E+00
#rwgt            1           9   1.7924652955127796E-003           1      465730           0
</event>
<event>
      6   9999  3.45752E-01  2.91285E+02 -1.00000E+00  1.03528E-01
      21    -1     0     0   512   502  0.000000000E+00  0.000000000E+00  8.532588816E+01  8.532588816E+01  0.000000000E+00  0.00000E+00  9.000E+00
       1    -1     0     0   501     0  0.000000000E+00  0.000000000E+00 -2.361007219E+03  2.361007219E+03  0.000000000E+00  0.00000E+00  9.000E+00
      25     1     1     2     0     0  7.351094787E+01  1.533972806E+02 -1.344317458E+03  1.360789595E+03  1.249972318E+02  0.00000E+00  9.000E+00
       5     1     1     2   501     0 -7.998041466E-01  1.628674593E-01  6.343140160E+00  7.966438324E+00  4.750000000E+00  0.00000E+00  9.000E+00
      -5     1     1     2     0   502 -1.343858146E+02  1.311203763E+02 -1.586795585E+02  2.458736770E+02  4.750000000E+00  0.00000E+00  9.000E+00
       1     1     1     2   512     0  6.167467091E+01 -2.846805243E+02 -7.790274542E+02  8.317033968E+02  1.525878906E-05  0.00000E+00  9.000E+00
#rwgt            1           1   7.2437866907818253E-003           1      467185           0
</event>
<event>
      6   9999  3.45752E-01  6.48401E+01 -1.00000E+00  1.29013E-01
      21    -1     0     0   501   502  0.000000000E+00  0.000000000E+00  8.932895142E+01  8.932895142E+01  0.000000000E+00  0.00000E+00  9.000E+00
       2    -1     0     0   502     0  0.000000000E+00  0.000000000E+00 -2.428792495E+03  2.428792495E+03  0.000000000E+00  0.00000E+00  9.000E+00
      25     1     1     2     0     0  1.289030196E+02  1.193760232E+01 -7.312596114E+02  7.530767279E+02  1.250017759E+02  0.00000E+00  9.000E+00
       5     1     1     2   501     0 -1.974510358E+02 -8.954700403E+00 -6.654277835E+01  2.086087296E+02  4.750000000E+00  0.00000E+00  9.000E+00
      -5     1     1     2     0   503  1.328011553E+02  5.722011812E+00 -7.172258019E+02  7.294547976E+02  4.750000000E+00  0.00000E+00  9.000E+00
       2     1     1     2   503     0 -6.425313904E+01 -8.704913724E+00 -8.244353516E+02  8.269811911E+02  1.868812365E-05  0.00000E+00  9.000E+00
#rwgt            1           9   4.9541694753278036E-003           1      467480           0
</event>
<event>
      6   9999  3.45752E-01  7.22102E+00 -1.00000E+00  2.03433E-01
      21    -1     0     0   511   502  0.000000000E+00  0.000000000E+00  1.514674501E+03  1.514674501E+03  0.000000000E+00  0.00000E+00  9.000E+00
      21    -1     0     0   502   503  0.000000000E+00  0.000000000E+00 -2.344207753E+02  2.344207753E+02  0.000000000E+00  0.00000E+00  9.000E+00
      25     1     1     2     0     0 -5.047372179E+00 -2.475370466E+01 -2.060283179E+02  2.422809504E+02  1.249566697E+02  0.00000E+00  9.000E+00
       5     1     1     2   501     0 -3.152842915E+00  2.630757585E+00  4.037095839E+01  4.085631023E+01  4.750000000E+00  0.00000E+00  9.000E+00
      -5     1     1     2     0   503  1.864214147E+00  1.865910930E+01 -6.729521128E-01  1.935595565E+01  4.750000000E+00  0.00000E+00  9.000E+00
      21     1     1     2   511   501  6.336000946E+00  3.463837771E+00  1.446584037E+03  1.446602060E+03  0.000000000E+00  0.00000E+00  9.000E+00
#rwgt            1           9   2.2766295512279821E-004           1      468615           0
</event>
<event>
      6   9999  3.45752E-01  7.49424E+00 -1.00000E+00  2.01434E-01
      -3    -1     0     0     0   502  0.000000000E+00  0.000000000E+00  3.257216873E+02  3.257216873E+02  0.000000000E+00  0.00000E+00  9.000E+00
      21    -1     0     0   502   503  0.000000000E+00  0.000000000E+00 -1.256501681E+03  1.256501681E+03  0.000000000E+00  0.00000E+00  9.000E+00
      25     1     1     2     0     0  1.526432676E+01  8.800745227E+00 -1.232390497E+03  1.238837592E+03  1.249871525E+02  0.00000E+00  9.000E+00
       5     1     1     2   501     0 -6.650160390E+00 -2.896365226E+00  3.660759063E+01  3.762036358E+01  4.750000000E+00  0.00000E+00  9.000E+00
      -5     1     1     2     0   503 -2.341775449E+00 -1.803071971E+00 -1.994715343E+01  2.071681468E+01  4.750000000E+00  0.00000E+00  9.000E+00
      -3     1     1     2     0   501 -6.272390924E+00 -4.101308030E+00  2.849500659E+02  2.850485987E+02  5.394796609E-06  0.00000E+00  9.000E+00
#rwgt            1           9   8.5967093592639540E-004           1      471953           0
</event>
<event>
      6   9999  3.45752E-01  2.24203E+01 -1.00000E+00  1.56514E-01
      21    -1     0     0   501   502  0.000000000E+00  0.000000000E+00  1.079302757E+02  1.079302757E+02  0.000000000E+00  0.00000E+00  9.000E+00
      21    -1     0     0   502   511  0.000000000E+00  0.000000000E+00 -2.010780805E+03  2.010780805E+03  0.000000000E+00  0.00000E+00  9.000E+00
      25     1     1     2     0     0  8.598706811E+00  1.395354321E+01  1.081391697E+01  1.265111421E+02  1.249779546E+02  0.00000E+00  9.000E+00
       5     1     1     2   501     0  3.794105050E-01  2.935447895E+00  3.304326065E+01  3.351388341E+01  4.750000000E+00  0.00000E+00  9.000E+00
      -5     1     1     2     0   503  1.393063155E+00  2.988365643E+00  4.514022974E+00  7.335520266E+00  4.750000000E+00  0.00000E+00  9.000E+00
      21     1     1     2   503   511 -1.037118047E+01 -1.987735674E+01 -1.951221730E+03  1.951350535E+03  2.157918644E-05  0.00000E+00  9.000E+00
#rwgt            1           9   9.6117739764078761E-004           1      476286           0
</event>
<event>
      6   9999  3.45752E-01  2.36449E+01 -1.00000E+00  1.54852E-01
      21    -1     0     0   512   503  0.000000000E+00  0.000000000E+00  2.642307453E+01  2.642307453E+01  0.000000000E+00  0.00000E+00  9.000E+00
      21    -1     0     0   501   502  0.000000000E+00  0.000000000E+00 -8.972427739E+02  8.972427739E+02  0.000000000E+00  0.00000E+00  9.000E+00
      25     1     1     2     0     0  1.152093009E+00  3.915562932E+01 -3.077112194E+02  3.344339851E+02  1.250016208E+02  0.00000E+00  9.000E+00
       5     1     1     2   501     0 -2.845048257E+00 -1.817473372E+01 -5.506451389E+02  5.509728185E+02  4.750000000E+00  0.00000E+00  9.000E+00
      -5     1     1     2     0   503  2.816890455E+00  2.637274540E+00 -1.325640445E+01  1.460085093E+01  4.750000000E+00  0.00000E+00  9.000E+00
      21     1     1     2   512   502 -1.123935207E+00 -2.361817014E+01  7.930633687E-01  2.365819394E+01  4.142951600E-07  0.00000E+00  9.000E+00
#rwgt            1           9   1.5428027592973544E-003           1      477509           0
</event>
<event>
      6   9999  3.45752E-01  5.62549E+00 -1.00000E+00  2.18033E-01
      -3    -1     0     0     0   502  0.000000000E+00  0.000000000E+00  9.254869460E+01  9.254869460E+01  0.000000000E+00  0.00000E+00  9.000E+00
      21    -1     0     0   502   503  0.000000000E+00  0.000000000E+00 -6.975419981E+02  6.975419981E+02  0.000000000E+00  0.00000E+00  9.000E+00
      25     1     1     2     0     0 -1.589993854E+00  1.266331837E+01 -5.452165192E+02  5.595085886E+02  1.250036807E+02  0.00000E+00  9.000E+00
       5     1     1     2   501     0 -4.061184795E-03 -3.980905413E-01 -2.071098036E+00  5.197156881E+00  4.750000000E+00  0.00000E+00  9.000E+00
      -5     1     1     2     0   503 -3.931953139E+00 -1.121195548E+01 -1.411612470E+02  1.417400026E+02  4.750000000E+00  0.00000E+00  9.000E+00
      -3     1     1     2     0   501  5.526008177E+00 -1.053272344E+00  8.345556068E+01  8.364494460E+01  0.000000000E+00  0.00000E+00  9.000E+00
#rwgt            1           9   9.6572080645652373E-004           1      479320           0
</event>
<event>
      6   9999 -3.45752E-01  4.48373E+00 -1.00000E+00  2.38016E-01
      21    -1     0     0   511   502  0.000000000E+00  0.000000000E+00  1.946458593E+02  1.946458593E+02  0.000000000E+00  0.00000E+00  9.000E+00
      21    -1     0     0   502   503  0.000000000E+00  0.000000000E+00 -1.274545050E+03  1.274545050E+03  0.000000000E+00  0.00000E+00  9.000E+00
      25     1     1     2     0     0  9.170412962E+01 -2.611344377E+01 -7.577808634E+02  7.739204522E+02  1.250178791E+02  0.00000E+00  9.000E+00
       5     1     1     2   501     0  6.993988005E+00 -3.483492298E+00  2.714043476E+01  2.863941839E+01  4.750000000E+00  0.00000E+00  9.000E+00
      -5     1     1     2     0   503 -9.700808400E+01  3.374995987E+01 -5.027084047E+02  5.131159038E+02  4.750000000E+00  0.00000E+00  9.000E+00
      21     1     1     2   511   501 -1.690033628E+00 -4.153023800E+00  1.534496426E+02  1.535151349E+02  5.046370146E-06  0.00000E+00  9.000E+00
#rwgt            1           9  -1.7065866205238757E-004           1      484216           0
</event>
<event>
      6   9999 -3.45752E-01  1.68944E+01 -1.00000E+00  1.66013E-01
      21    -1     0     0   501   502  0.000000000E+00  0.000000000E+00  1.685373708E+01  1.685373708E+01  0.000000000E+00  0.00000E+00  9.000E+00
      21    -1     0     0   502   512  0.000000000E+00  0.000000000E+00 -1.063740039E+03  1.063740039E+03  0.000000000E+00  0.00000E+00  9.000E+00
      25     1     1     2     0     0  1.717428135E+00 -2.074023150E+01 -2.728250361E+02  3.008147146E+02  1.249915414E+02  0.00000E+00  9.000E+00
       5     1     1     2   501     0  1.662770674E+00 -1.016855147E+00 -8.957019381E-01  5.211869402E+00  4.750000000E+00  0.00000E+00  9.000E+00
      -5     1     1     2     0   503  9.968143198E+00  1.140134245E+01 -6.557878103E+02  6.559798542E+02  4.750000000E+00  0.00000E+00  9.000E+00
      21     1     1     2   503   512 -1.334834201E+01  1.035574420E+01 -1.173777533E+02  1.185873376E+02  1.348699152E-06  0.00000E+00  9.000E+00
#rwgt            1           9  -1.6803034552875242E-004           1      490741           0
</event>
<event>
      6   9999  3.45752E-01  7.14287E+00 -1.00000E+00  2.04027E-01
      21    -1     0     0   501   502  0.000000000E+00  0.000000000E+00  1.270863799E+01  1.270863799E+01  0.000000000E+00  0.00000E+00  9.000E+00
      21    -1     0     0   502   511  0.000000000E+00  0.000000000E+00 -8.932338590E+02  8.932338590E+02  0.000000000E+00  0.00000E+00  9.000E+00
      25     1     1     2     0     0  3.189270590E+00  1.698172267E+00 -8.090460988E+02  8.186543804E+02  1.250053968E+02  0.00000E+00  9.000E+00
       5     1     1     2   501     0  2.389809263E-01 -1.796850537E+00  6.458372146E+00  8.219419354E+00  4.750000000E+00  0.00000E+00  9.000E+00
      -5     1     1     2     0   503  3.698735477E+00 -3.774430422E-01 -2.982512917E+01  3.042899830E+01  4.750000000E+00  0.00000E+00  9.000E+00
      21     1     1     2   503   511 -7.126986993E+00  4.761213115E-01 -4.811236516E+01  4.863969898E+01  0.000000000E+00  0.00000E+00  9.000E+00
#rwgt            1           9   4.3442117315388058E-003           1      493328           0
</event>
<event>
      6   9999 -3.45752E-01  4.01141E+01 -1.00000E+00  1.40114E-01
      21    -1     0     0   501   512  0.000000000E+00  0.000000000E+00  3.555000022E+02  3.555000022E+02  0.000000000E+00  0.00000E+00  9.000E+00
      21    -1     0     0   502   503  0.000000000E+00  0.000000000E+00 -1.126456261E+03  1.126456261E+03  0.000000000E+00  0.00000E+00  9.000E+00
      25     1     1     2     0     0 -1.138020858E+01 -2.942227805E+00 -1.060486893E+03  1.067890639E+03  1.249792038E+02  0.00000E+00  9.000E+00
       5     1     1     2   501     0  6.420911249E+00 -2.405108903E+01  2.057612164E+01  3.264387027E+01  4.750000000E+00  0.00000E+00  9.000E+00
      -5     1     1     2     0   503  1.949541770E+01 -1.039443867E+01 -5.266585160E+01  5.730942410E+01  4.750000000E+00  0.00000E+00  9.000E+00
      21     1     1     2   502   512 -1.453612037E+01  3.738775551E+01  3.216203645E+02  3.241123292E+02  5.394796609E-06  0.00000E+00  9.000E+00
#rwgt            1           9  -3.0496742995120436E-005           1      496559           0
</event>
<event>
      6   9999  3.45752E-01  3.23944E+01 -1.00000E+00  1.45713E-01
      21    -1     0     0   511   502  0.000000000E+00  0.000000000E+00  2.614094337E+01  2.614094337E+01  0.000000000E+00  0.00000E+00  9.000E+00
      21    -1     0     0   502   503  0.000000000E+00  0.000000000E+00 -1.612114494E+03  1.612114494E+03  0.000000000E+00  0.00000E+00  9.000E+00
      25     1     1     2     0     0  1.334392174E+02 -8.633442474E+00 -7.007743520E+02  7.242866871E+02  1.250038070E+02  0.00000E+00  9.000E+00
       5     1     1     2   501     0  1.329081561E+00 -3.125035127E+00  6.714568223E-01  5.877555326E+00  4.750000000E+00  0.00000E+00  9.000E+00
      -5     1     1     2     0   503 -1.152143870E+02 -1.406864576E+01 -8.565701172E+02  8.644114818E+02  4.750000000E+00  0.00000E+00  9.000E+00
      21     1     1     2   511   501 -1.955391197E+01  2.582712336E+01 -2.930053783E+01  4.367971258E+01  1.305872339E-06  0.00000E+00  9.000E+00
#rwgt            1           9  0.33486565542639080                1      497750           0
</event>
<event>
      6   9999  3.45752E-01  4.70038E+00 -1.00000E+00  2.34186E-01
      21    -1     0     0   501   502  0.000000000E+00  0.000000000E+00  1.776670447E+03  1.776670447E+03  0.000000000E+00  0.00000E+00  9.000E+00
      21    -1     0     0   512   503  0.000000000E+00  0.000000000E+00 -1.329350638E+02  1.329350638E+02  0.000000000E+00  0.00000E+00  9.000E+00
      25     1     1     2     0     0  1.120395877E+00  5.212835304E+00  1.276026208E+03  1.282145471E+03  1.250027893E+02  0.00000E+00  9.000E+00
       5     1     1     2   501     0  1.206163606E+00  2.899137663E-01  4.386725481E+02  4.387000180E+02  4.750000000E+00  0.00000E+00  9.000E+00
      -5     1     1     2     0   503  4.114181787E-02 -1.442260675E+00  5.875107676E+01  5.896043868E+01  4.750000000E+00  0.00000E+00  9.000E+00
      21     1     1     2   512   502 -2.367701302E+00 -4.060488395E+00 -1.297144489E+02  1.297995833E+02  3.303624740E-06  0.00000E+00  9.000E+00
#rwgt            1           9   5.9675578615672940E-005           1      499171           0
</event>
<event>
      6   9999  3.45752E-01  8.75499E+00 -1.00000E+00  1.93489E-01
      21    -1     0     0   502   511  0.000000000E+00  0.000000000E+00  2.193306567E+01  2.193306567E+01  0.000000000E+00  0.00000E+00  9.000E+00
      21    -1     0     0   501   502  0.000000000E+00  0.000000000E+00 -7.078850224E+02  7.078850224E+02  0.000000000E+00  0.00000E+00  9.000E+00
      25     1     1     2     0     0 -1.307115941E+01  1.086264552E+01 -6.611945777E+02  6.731220760E+02  1.250048296E+02  0.00000E+00  9.000E+00
       5     1     1     2   501     0  3.879698687E+00 -4.057634599E+00 -2.458874240E+01  2.566486339E+01  4.750000000E+00  0.00000E+00  9.000E+00
      -5     1     1     2     0   503  3.460729287E+00 -1.862007779E-01 -1.370337933E+01  1.491162040E+01  4.750000000E+00  0.00000E+00  9.000E+00
      21     1     1     2   503   511  5.730731439E+00 -6.618810142E+00  1.353474268E+01  1.611952822E+01  9.386548846E-07  0.00000E+00  9.000E+00
#rwgt            1           9   2.8835216373587331E-003           1      502681           0
</event>
<event>
      6   9999  3.45752E-01  7.09521E+00 -1.00000E+00  2.04394E-01
      21    -1     0     0   501   512  0.000000000E+00  0.000000000E+00  3.070650810E+02  3.070650810E+02  0.000000000E+00  0.00000E+00  9.000E+00
      21    -1     0     0   502   503  0.000000000E+00  0.000000000E+00 -7.660003303E+02  7.660003303E+02  0.000000000E+00  0.00000E+00  9.000E+00
      25     1     1     2     0     0 -2.234324565E+00 -6.941808280E+00 -7.373797212E+02  7.479351187E+02  1.249996305E+02  0.00000E+00  9.000E+00
       5     1     1     2   501     0 -7.061701685E-01 -2.321045328E+00  1.516522099E+00  5.545111991E+00  4.750000000E+00  0.00000E+00  9.000E+00
      -5     1     1     2     0   503  7.350775617E-01  2.519105754E+00 -2.094050582E+01  2.163223328E+01  4.750000000E+00  0.00000E+00  9.000E+00
      21     1     1     2   502   512  2.205417172E+00  6.743747854E+00  2.978684556E+02  2.979529474E+02  6.607249480E-06  0.00000E+00  9.000E+00
#rwgt            1           9   4.6231299258062694E-004           1      504939           0
</event>
<event>
      6   9999  3.45752E-01  6.08066E+00 -1.00000E+00  2.13253E-01
      21    -1     0     0   501   502  0.000000000E+00  0.000000000E+00  9.015425328E+00  9.015425328E+00  0.000000000E+00  0.00000E+00  9.000E+00
       2    -1     0     0   502     0  0.000000000E+00  0.000000000E+00 -1.955422029E+03  1.955422029E+03  0.000000000E+00  0.00000E+00  9.000E+00
      25     1     1     2     0     0 -1.139363938E+00 -5.240692928E+00 -1.001874220E+03  1.009656659E+03  1.250034090E+02  0.00000E+00  9.000E+00
       5     1     1     2   501     0 -2.145886404E+00  2.372767177E+00  2.978915740E+00  6.455330473E+00  4.750000000E+00  0.00000E+00  9.000E+00
      -5     1     1     2     0   503 -2.790215333E+00  2.616561475E+00 -2.301996879E+01  2.381413779E+01  4.750000000E+00  0.00000E+00  9.000E+00
       2     1     1     2   503     0  6.075465675E+00  2.513642769E-01 -9.244913305E+02  9.245113274E+02  1.078959322E-05  0.00000E+00  9.000E+00
#rwgt            1           9   4.1818834191161469E-004           1      508069           0
</event>
<event>
      6   9999  3.45752E-01  1.89156E+01 -1.00000E+00  1.62081E-01
      21    -1     0     0   501   502  0.000000000E+00  0.000000000E+00  1.663312608E+03  1.663312608E+03  0.000000000E+00  0.00000E+00  9.000E+00
      21    -1     0     0   511   503  0.000000000E+00  0.000000000E+00 -1.353232459E+02  1.353232459E+02  0.000000000E+00  0.00000E+00  9.000E+00
      25     1     1     2     0     0 -4.748321266E+00  4.716643887E+01  2.735073057E+02  3.044284826E+02  1.249929407E+02  0.00000E+00  9.000E+00
       5     1     1     2   501     0 -4.260578666E+00 -1.539882029E+00  1.359295509E+03  1.359311357E+03  4.750000000E+00  0.00000E+00  9.000E+00
      -5     1     1     2     0   503  2.489932382E+01 -3.536533556E+01 -1.980185901E+01  4.780543281E+01  4.750000000E+00  0.00000E+00  9.000E+00
      21     1     1     2   511   502 -1.589042389E+01 -1.026122128E+01 -8.501159356E+01  8.709058085E+01  3.568322551E-06  0.00000E+00  9.000E+00
#rwgt            1           9   1.4736975726628058E-004           1      511717           0
</event>
<event>
      6   9999  3.45752E-01  5.73011E+01 -1.00000E+00  1.31695E-01
      21    -1     0     0   501   502  0.000000000E+00  0.000000000E+00  1.229183392E+03  1.229183392E+03  0.000000000E+00  0.00000E+00  9.000E+00
      21    -1     0     0   502   512  0.000000000E+00  0.000000000E+00 -2.355114696E+01  2.355114696E+01  0.000000000E+00  0.00000E+00  9.000E+00
      25     1     1     2     0     0 -1.949986325E+01  7.791100497E+00  8.548461732E+02  8.641918660E+02  1.249986221E+02  0.00000E+00  9.000E+00
       5     1     1     2   501     0 -7.283322692E-01  3.010817152E+00  1.115627452E+02  1.117067774E+02  4.750000000E+00  0.00000E+00  9.000E+00
      -5     1     1     2     0   503  1.438847470E+01  4.620086991E+01  2.036872429E+02  2.094101335E+02  4.750000000E+00  0.00000E+00  9.000E+00
      21     1     1     2   503   512  5.839720820E+00 -5.700278756E+01  3.553608339E+01  6.742576178E+01  2.132480600E-06  0.00000E+00  9.000E+00
#rwgt            1           9  0.21319990872605971                1      514401           0
</event>
<event>
      6   9999  3.45752E-01  4.28281E+00 -1.00000E+00  2.41865E-01
      21    -1     0     0   511   502  0.000000000E+00  0.000000000E+00  1.184723174E+01  1.184723174E+01  0.000000000E+00  0.00000E+00  9.000E+00
      21    -1     0     0   502   503  0.000000000E+00  0.000000000E+00 -2.149357318E+03  2.149357318E+03  0.000000000E+00  0.00000E+00  9.000E+00
      25     1     1     2     0     0  6.456319862E+00 -8.893841889E+00 -1.097333122E+03  1.104483880E+03  1.249955061E+02  0.00000E+00  9.000E+00
       5     1     1     2   501     0 -1.602343390E-01  7.847506369E-01 -4.403227733E+00  6.526287082E+00  4.750000000E+00  0.00000E+00  9.000E+00
      -5     1     1     2     0   503 -9.526729593E+00  5.297434042E+00 -1.042311165E+03  1.042378986E+03  4.750000000E+00  0.00000E+00  9.000E+00
      21     1     1     2   511   501  3.230644070E+00  2.811657210E+00  6.537428028E+00  7.815397789E+00  1.346062397E-06  0.00000E+00  9.000E+00
#rwgt            1           9  0.27455007697883049                1      514971           0
</event>
<event>
      6   9999  3.45752E-01  1.57386E+01 -1.00000E+00  1.68582E-01
      21    -1     0     0   501   512  0.000000000E+00  0.000000000E+00  1.055926690E+01  1.055926690E+01  0.000000000E+00  0.00000E+00  9.000E+00
      21    -1     0     0   502   503  0.000000000E+00  0.000000000E+00 -3.199255023E+03  3.199255023E+03  0.000000000E+00  0.00000E+00  9.000E+00
      25     1     1     2     0     0  2.235904535E+01 -7.375796793E+01 -2.184048207E+03  2.188979594E+03  1.249997246E+02  0.00000E+00  9.000E+00
       5     1     1     2   501     0  1.629085760E+00  5.474967656E+00  3.695875236E-01  7.438298608E+00  4.750000000E+00  0.00000E+00  9.000E+00
      -5     1     1     2     0   503 -3.107449202E+01  8.233599840E+01 -9.792140501E+02  9.831721919E+02  4.750000000E+00  0.00000E+00  9.000E+00
      21     1     1     2   502   512  7.086360908E+00 -1.405299813E+01 -2.580308684E+01  3.022420484E+01  1.430511475E-06  0.00000E+00  9.000E+00
#rwgt            1           9   9.3604942333237632E-006           1      519240           0
</event>
<event>
      6   9999  3.45752E-01  3.42340E+01 -1.00000E+00  1.44222E-01
      21    -1     0     0   501   502  0.000000000E+00  0.000000000E+00  1.234377249E+02  1.234377249E+02  0.000000000E+00  0.00000E+00  9.000E+00
      21    -1     0     0   502   511  0.000000000E+00  0.000000000E+00 -1.539856119E+03  1.539856119E+03  0.000000000E+00  0.00000E+00  9.000E+00
      25     1     1     2     0     0 -1.478251953E+02 -3.205059954E+01 -2.003460962E+01  1.972451472E+02  1.249989329E+02  0.00000E+00  9.000E+00
       5     1     1     2   501     0 -2.299166014E+00 -4.058110698E+00  3.011694960E+01  3.084392291E+01  4.750000000E+00  0.00000E+00  9.000E+00
      -5     1     1     2     0   503  1.159854368E+02  3.865835610E+01 -1.033881948E+03  1.041096314E+03  4.750000000E+00  0.00000E+00  9.000E+00
      21     1     1     2   503   511  3.413892454E+01 -2.549645866E+00 -3.926187866E+02  3.941084603E+02  5.394796609E-06  0.00000E+00  9.000E+00
#rwgt            1           9   1.8326645066897489E-003           1      521501           0
</event>
<event>
      6   9999  3.45752E-01  3.28617E+00 -1.00000E+00  2.66956E-01
      21    -1     0     0   502   512  0.000000000E+00  0.000000000E+00  9.640630839E+00  9.640630839E+00  0.000000000E+00  0.00000E+00  9.000E+00
      21    -1     0     0   501   502  0.000000000E+00  0.000000000E+00 -7.156431450E+02  7.156431450E+02  0.000000000E+00  0.00000E+00  9.000E+00
      25     1     1     2     0     0 -1.197089594E+01  5.921958689E-01 -6.584583562E+02  6.703273901E+02  1.250109999E+02  0.00000E+00  9.000E+00
       5     1     1     2   501     0  9.469963083E+00  4.463759179E+00 -3.203155855E+01  3.403216993E+01  4.750000000E+00  0.00000E+00  9.000E+00
      -5     1     1     2     0   503  1.980940970E+00 -1.811189387E+00 -1.659144866E+01  1.746548605E+01  4.750000000E+00  0.00000E+00  9.000E+00
      21     1     1     2   503   512  5.199918881E-01 -3.244765660E+00  1.078849228E+00  3.458729739E+00  2.374854304E-07  0.00000E+00  9.000E+00
#rwgt            1           9   5.6655892363884242E-002           1      523690           0
</event>
<event>
      6   9999  3.45752E-01  1.44234E+01 -1.00000E+00  1.71860E-01
      21    -1     0     0   501   511  0.000000000E+00  0.000000000E+00  5.968460619E+01  5.968460619E+01  0.000000000E+00  0.00000E+00  9.000E+00
      21    -1     0     0   502   503  0.000000000E+00  0.000000000E+00 -1.195265761E+03  1.195265761E+03  0.000000000E+00  0.00000E+00  9.000E+00
      25     1     1     2     0     0  1.857662285E+00 -6.579397756E-01 -8.416052929E+02  8.508400585E+02  1.250018096E+02  0.00000E+00  9.000E+00
       5     1     1     2   501     0  2.833295018E+00 -9.401928876E-02  3.053658621E+01  3.103356244E+01  4.750000000E+00  0.00000E+00  9.000E+00
      -5     1     1     2     0   503 -1.822951989E+01 -4.222119289E+00 -3.463599726E+02  3.468975854E+02  4.750000000E+00  0.00000E+00  9.000E+00
      21     1     1     2   502   511  1.353856259E+01  4.974078353E+00  2.184752446E+01  2.617916075E+01  7.907449699E-07  0.00000E+00  9.000E+00
#rwgt            1           9   5.1871974533290221E-003           1      528870           0
</event>
<event>
      6   9999  3.45752E-01  8.08416E+00 -1.00000E+00  1.97479E-01
      21    -1     0     0   501   502  0.000000000E+00  0.000000000E+00  3.557322471E+01  3.557322471E+01  0.000000000E+00  0.00000E+00  9.000E+00
       2    -1     0     0   502     0  0.000000000E+00  0.000000000E+00 -2.259375074E+03  2.259375074E+03  0.000000000E+00  0.00000E+00  9.000E+00
      25     1     1     2     0     0  1.642907112E+00  3.054496710E+00 -1.095853831E+03  1.102965220E+03  1.249985118E+02  0.00000E+00  9.000E+00
       5     1     1     2   501     0  1.014588088E+01 -4.040828260E+00  3.050176695E+01  3.274427399E+01  4.750000000E+00  0.00000E+00  9.000E+00
      -5     1     1     2     0   503 -3.907649427E+00 -8.140497465E-01 -2.493909753E+01  2.569928962E+01  4.750000000E+00  0.00000E+00  9.000E+00
       2     1     1     2   503     0 -7.881138562E+00  1.800381296E+00 -1.133510688E+03  1.133539516E+03  2.157918644E-05  0.00000E+00  9.000E+00
#rwgt            1           9   4.3267197093184709E-003           1      532161           0
</event>
<event>
      6   9999  3.45752E-01  4.34139E+00 -1.00000E+00  2.40711E-01
      21    -1     0     0   511   502  0.000000000E+00  0.000000000E+00  2.027011459E+02  2.027011459E+02  0.000000000E+00  0.00000E+00  9.000E+00
      21    -1     0     0   502   503  0.000000000E+00  0.000000000E+00 -3.316049907E+02  3.316049907E+02  0.000000000E+00  0.00000E+00  9.000E+00
      25     1     1     2     0     0  5.902425561E+00 -4.757486872E+00 -2.856152237E+02  3.118621375E+02  1.249978579E+02  0.00000E+00  9.000E+00
       5     1     1     2   501     0  5.664908173E+00  4.067612731E+00  1.392912615E+02  1.395466041E+02  4.750000000E+00  0.00000E+00  9.000E+00
      -5     1     1     2     0   503 -7.261716933E+00  1.336602217E-01 -3.206682438E+01  3.322038717E+01  4.750000000E+00  0.00000E+00  9.000E+00
      21     1     1     2   511   501 -4.305616801E+00  5.562139194E-01  4.948694170E+01  4.967700785E+01  9.536743164E-07  0.00000E+00  9.000E+00
#rwgt            1           9   75.742588348256675                1      536142           0
</event>
<event>
      6   9999  3.45752E-01  8.47208E+00 -1.00000E+00  1.95112E-01
      21    -1     0     0   501   502  0.000000000E+00  0.000000000E+00  1.135857431E+01  1.135857431E+01  0.000000000E+00  0.00000E+00  9.000E+00
       2    -1     0     0   502     0  0.000000000E+00  0.000000000E+00 -2.293583764E+03  2.293583764E+03  0.000000000E+00  0.00000E+00  9.000E+00
      25     1     1     2     0     0 -6.759595278E+00 -3.932062666E+00 -7.942939179E+02  8.041073072E+02  1.249983210E+02  0.00000E+00  9.000E+00
       5     1     1     2   501     0 -1.688075270E+00  2.435503966E+00  5.018979035E+00  7.518904724E+00  4.750000000E+00  0.00000E+00  9.000E+00
      -5     1     1     2     0   503  2.610547274E-02  5.727527487E-01 -3.336589389E+01  3.370718176E+01  4.750000000E+00  0.00000E+00  9.000E+00
       2     1     1     2   503     0  8.421565075E+00  9.238059514E-01 -1.459584357E+03  1.459608945E+03  0.000000000E+00  0.00000E+00  9.000E+00
#rwgt            1           9   8.4505996711713995E-005           1      542534           0
</event>
<event>
      6   9999  3.45752E-01  8.80211E+00 -1.00000E+00  1.93226E-01
      21    -1     0     0   501   502  0.000000000E+00  0.000000000E+00  1.024245649E+01  1.024245649E+01  0.000000000E+00  0.00000E+00  9.000E+00
      21    -1     0     0   511   503  0.000000000E+00  0.000000000E+00 -1.028329135E+03  1.028329135E+03  0.000000000E+00  0.00000E+00  9.000E+00
      25     1     1     2     0     0  2.968183237E+01 -1.865180327E+01 -4.901074588E+02  5.070096308E+02  1.249981744E+02  0.00000E+00  9.000E+00
       5     1     1     2   501     0  5.070512105E-01  3.382178504E-02 -4.764022639E+00  6.746603334E+00  4.750000000E+00  0.00000E+00  9.000E+00
      -5     1     1     2     0   503 -2.210383503E+01  1.513815753E+01 -2.533875394E+02  2.548441699E+02  4.750000000E+00  0.00000E+00  9.000E+00
      21     1     1     2   511   502 -8.085048552E+00  3.479823957E+00 -2.698276575E+02  2.699711872E+02  0.000000000E+00  0.00000E+00  9.000E+00
#rwgt            1           9   1.1092336868321124E-005           1      545717           0
</event>
<event>
      6   9999  3.45752E-01  1.95397E+01 -1.00000E+00  1.60986E-01
      21    -1     0     0   502   503  0.000000000E+00  0.000000000E+00  8.430940016E+00  8.430940016E+00  0.000000000E+00  0.00000E+00  9.000E+00
      21    -1     0     0   501   512  0.000000000E+00  0.000000000E+00 -9.161117135E+02  9.161117135E+02  0.000000000E+00  0.00000E+00  9.000E+00
      25     1     1     2     0     0 -2.247952373E+01  7.622206026E+00 -5.328728065E+02  5.479467968E+02  1.254146611E+02  0.00000E+00  9.000E+00
       5     1     1     2   501     0  7.544775702E+00  5.449753409E+00 -1.506211145E+02  1.509831318E+02  4.750000000E+00  0.00000E+00  9.000E+00
      -5     1     1     2     0   503  2.480065733E+00  1.984024137E+00 -5.815701726E+01  5.843704505E+01  4.750000000E+00  0.00000E+00  9.000E+00
      21     1     1     2   502   512  1.245468230E+01 -1.505598357E+01 -1.660298352E+02  1.671756798E+02  2.697398305E-06  0.00000E+00  9.000E+00
#rwgt            1           9  0.10343816266420373                1      549241           0
</event>
<event>
      6   9999  3.45752E-01  3.96819E+01 -1.00000E+00  1.40387E-01
      21    -1     0     0   501   502  0.000000000E+00  0.000000000E+00  1.407076747E+01  1.407076747E+01  0.000000000E+00  0.00000E+00  9.000E+00
      21    -1     0     0   502   511  0.000000000E+00  0.000000000E+00 -1.176328991E+03  1.176328991E+03  0.000000000E+00  0.00000E+00  9.000E+00
      25     1     1     2     0     0 -1.028383482E+01 -7.644465387E+01 -6.485428841E+02  6.649671866E+02  1.249957774E+02  0.00000E+00  9.000E+00
       5     1     1     2   501     0  1.628443036E+00  3.365975243E+00 -1.346910650E+00  6.193406523E+00  4.750000000E+00  0.00000E+00  9.000E+00
      -5     1     1     2     0   503  2.173467751E+01  3.561419627E+01 -2.000350423E+02  2.043950778E+02  4.750000000E+00  0.00000E+00  9.000E+00
      21     1     1     2   503   511 -1.307928572E+01  3.746448236E+01 -3.123333866E+02  3.148440876E+02  0.000000000E+00  0.00000E+00  9.000E+00
#rwgt            1           9  0.25401708307936594                1      550538           0
</event>
<event>
      6   9999 -3.45752E-01  1.41351E+01 -1.00000E+00  1.72637E-01
      21    -1     0     0   501   502  0.000000000E+00  0.000000000E+00  1.960824307E+01  1.960824307E+01  0.000000000E+00  0.00000E+00  9.000E+00
      21    -1     0     0   512   503  0.000000000E+00  0.000000000E+00 -1.218785350E+03  1.218785350E+03  0.000000000E+00  0.00000E+00  9.000E+00
      25     1     1     2     0     0  2.808661850E+01 -4.269952761E+01 -8.705929546E+02  8.810043369E+02  1.249977654E+02  0.00000E+00  9.000E+00
       5     1     1     2   501     0  3.180537480E-01  3.542554912E-01  8.172357477E+00  9.464490576E+00  4.750000000E+00  0.00000E+00  9.000E+00
      -5     1     1     2     0   503 -1.719586517E+01  3.373346451E+01 -6.198381726E+01  7.278873889E+01  4.750000000E+00  0.00000E+00  9.000E+00
      21     1     1     2   512   502 -1.120880707E+01  8.611807604E+00 -2.747726923E+02  2.751360264E+02  3.814697266E-06  0.00000E+00  9.000E+00
#rwgt            1           9  -1.1453873302505570E-003           1      552053           0
</event>
<event>
      6   9999 -3.45752E-01  1.26252E+01 -1.00000E+00  1.77124E-01
      21    -1     0     0   501   502  0.000000000E+00  0.000000000E+00  1.663002206E+03  1.663002206E+03  0.000000000E+00  0.00000E+00  9.000E+00
      21    -1     0     0   502   511  0.000000000E+00  0.000000000E+00 -8.765207167E+00  8.765207167E+00  0.000000000E+00  0.00000E+00  9.000E+00
      25     1     1     2     0     0  4.204966664E+00  1.172680841E+01  6.523485458E+02  6.643373199E+02  1.250209964E+02  0.00000E+00  9.000E+00
       5     1     1     2   501     0  4.633029637E-01  7.662953299E-04  9.510033997E+02  9.510153750E+02  4.750000000E+00  0.00000E+00  9.000E+00
      -5     1     1     2     0   503  1.478777975E+00 -6.998667831E-01  3.815978367E+01  3.848906582E+01  4.750000000E+00  0.00000E+00  9.000E+00
      21     1     1     2   503   511 -6.147047603E+00 -1.102770792E+01  1.272527007E+01  1.792565297E+01  4.460403188E-07  0.00000E+00  9.000E+00
#rwgt            1           9  -5.3185779650712032E-005           1      554581           0
</event>
<event>
      6   9999  3.45752E-01  1.38485E+02 -1.00000E+00  1.14718E-01
      21    -1     0     0   512   502  0.000000000E+00  0.000000000E+00  3.956527606E+01  3.956527606E+01  0.000000000E+00  0.00000E+00  9.000E+00
       1    -1     0     0   501     0  0.000000000E+00  0.000000000E+00 -3.432269554E+03  3.432269554E+03  0.000000000E+00  0.00000E+00  9.000E+00
      25     1     1     2     0     0  7.852423638E+01 -3.937296195E+01 -5.427679535E+02  5.638599029E+02  1.249986113E+02  0.00000E+00  9.000E+00
       5     1     1     2   501     0  4.529803367E+01  1.135500710E+01  5.000002832E+00  4.720604377E+01  4.750000000E+00  0.00000E+00  9.000E+00
      -5     1     1     2     0   502  1.400054939E+01  4.154304697E+01 -6.809875982E+02  6.824137393E+02  4.750000000E+00  0.00000E+00  9.000E+00
       1     1     1     2   512     0 -1.378228194E+02 -1.352509211E+01 -2.173948729E+03  2.178355144E+03  0.000000000E+00  0.00000E+00  9.000E+00
#rwgt            1           1   2.6504305651550594E-006           1      556726           0
</event>
<event>
      6   9999  3.45752E-01  8.96164E+00 -1.00000E+00  1.92353E-01
      21    -1     0     0   501   502  0.000000000E+00  0.000000000E+00  1.124730152E+01  1.124730152E+01  0.000000000E+00  0.00000E+00  9.000E+00
      21    -1     0     0   511   503  0.000000000E+00  0.000000000E+00 -2.068597686E+03  2.068597686E+03  0.000000000E+00  0.00000E+00  9.000E+00
      25     1     1     2     0     0 -8.208254894E+00 -8.422701211E+00 -9.256228299E+02  9.340992009E+02  1.250015066E+02  0.00000E+00  9.000E+00
       5     1     1     2   501     0 -1.642387433E+00  4.374320028E+00  4.827320760E+00  8.227857431E+00  4.750000000E+00  0.00000E+00  9.000E+00
      -5     1     1     2     0   503  1.560243332E+00  7.451355438E+00 -4.299822343E+01  4.392455777E+01  4.750000000E+00  0.00000E+00  9.000E+00
      21     1     1     2   511   502  8.290398994E+00 -3.402974256E+00 -1.093556652E+03  1.093593372E+03  2.157918644E-05  0.00000E+00  9.000E+00
#rwgt            1           9   47.662132040106073                1      556944           0
</event>
<event>
      6   9999  3.45752E-01  1.19678E+01 -1.00000E+00  1.79334E-01
      21    -1     0     0   501   502  0.000000000E+00  0.000000000E+00  4.533032903E+02  4.533032903E+02  0.000000000E+00  0.00000E+00  9.000E+00
      21    -1     0     0   512   503  0.000000000E+00  0.000000000E+00 -4.167256318E+02  4.167256318E+02  0.000000000E+00  0.00000E+00  9.000E+00
      25     1     1     2     0     0 -3.994101937E+01  1.931527400E+02  2.739922637E+02  3.600003770E+02  1.250009794E+02  0.00000E+00  9.000E+00
       5     1     1     2   501     0 -1.067555414E+00 -3.903566889E-01  6.300530718E+01  6.319432954E+01  4.750000000E+00  0.00000E+00  9.000E+00
      -5     1     1     2     0   503  5.089736149E+01 -1.860213883E+02 -5.428619181E+01  2.004097089E+02  4.750000000E+00  0.00000E+00  9.000E+00
      21     1     1     2   512   502 -9.888786710E+00 -6.740994982E+00 -2.461337205E+02  2.464245067E+02  2.697398305E-06  0.00000E+00  9.000E+00
#rwgt            1           9   9.1782166803766230E-005           1      559605           0
</event>
<event>
      6   9999  3.45752E-01  2.42156E+01 -1.00000E+00  1.54119E-01
      21    -1     0     0   502   503  0.000000000E+00  0.000000000E+00  2.671687132E+01  2.671687132E+01  0.000000000E+00  0.00000E+00  9.000E+00
      21    -1     0     0   501   511  0.000000000E+00  0.000000000E+00 -1.313774285E+03  1.313774285E+03  0.000000000E+00  0.00000E+00  9.000E+00
      25     1     1     2     0     0  3.645043921E+01  9.279580081E+01 -3.080286483E+02  3.470558262E+02  1.250056124E+02  0.00000E+00  9.000E+00
       5     1     1     2   501     0 -3.973996687E+01 -1.220215206E+02 -7.294508682E+02  7.406683793E+02  4.750000000E+00  0.00000E+00  9.000E+00
      -5     1     1     2     0   503  3.173803166E+00  5.010404014E+00 -1.384166235E+01  1.579022772E+01  4.750000000E+00  0.00000E+00  9.000E+00
      21     1     1     2   502   511  1.157244970E-01  2.421531579E+01 -2.357362346E+02  2.369767229E+02  4.672030912E-06  0.00000E+00  9.000E+00
#rwgt            1           9   1.5750152305337561E-002           1      563160           0
</event>
<event>
      6   9999  3.45752E-01  1.86718E+01 -1.00000E+00  1.62522E-01
      21    -1     0     0   501   502  0.000000000E+00  0.000000000E+00  3.175970702E+01  3.175970702E+01  0.000000000E+00  0.00000E+00  9.000E+00
      21    -1     0     0   502   512  0.000000000E+00  0.000000000E+00 -1.275249221E+03  1.275249221E+03  0.000000000E+00  0.00000E+00  9.000E+00
      25     1     1     2     0     0 -8.680908299E+00 -7.308441626E+00 -1.012027785E+03  1.019781307E+03  1.249996212E+02  0.00000E+00  9.000E+00
       5     1     1     2   501     0  8.519205608E+00 -1.027597714E+01  2.534188055E+01  2.903353199E+01  4.750000000E+00  0.00000E+00  9.000E+00
      -5     1     1     2     0   503  1.345052724E+00 -1.049810994E+00 -1.219005679E+02  1.220050090E+02  4.750000000E+00  0.00000E+00  9.000E+00
      21     1     1     2   503   512 -1.183350033E+00  1.863422976E+01 -1.349030419E+02  1.361890801E+02  0.000000000E+00  0.00000E+00  9.000E+00
#rwgt            1           9   3.9214436303947395E-004           1      564988           0
</event>
<event>
      6   9999  3.45752E-01  4.29218E+00 -1.00000E+00  2.41679E-01
      21    -1     0     0   511   502  0.000000000E+00  0.000000000E+00  9.306365923E+01  9.306365923E+01  0.000000000E+00  0.00000E+00  9.000E+00
      21    -1     0     0   502   503  0.000000000E+00  0.000000000E+00 -3.508582864E+02  3.508582864E+02  0.000000000E+00  0.00000E+00  9.000E+00
      25     1     1     2     0     0  9.326335806E+00 -2.496264134E+00 -3.069812056E+02  3.315940973E+02  1.249958917E+02  0.00000E+00  9.000E+00
       5     1     1     2   501     0 -7.603957700E+00 -5.267762335E+00  7.447394204E+01  7.519640972E+01  4.750000000E+00  0.00000E+00  9.000E+00
      -5     1     1     2     0   503 -5.976864566E+00  7.196471177E+00 -2.938226909E+01  3.119923628E+01  4.750000000E+00  0.00000E+00  9.000E+00
      21     1     1     2   511   501  4.254486460E+00  5.675552925E-01  4.094905436E+00  5.932202338E+00  1.332800375E-07  0.00000E+00  9.000E+00
#rwgt            1           9   4.9324136087377033                1      567284           0
</event>
<event>
      6   9999  3.45752E-01  2.05873E+01 -1.00000E+00  1.59257E-01
      21    -1     0     0   501   502  0.000000000E+00  0.000000000E+00  2.591897784E+01  2.591897784E+01  0.000000000E+00  0.00000E+00  9.000E+00
      21    -1     0     0   502   512  0.000000000E+00  0.000000000E+00 -2.202118032E+03  2.202118032E+03  0.000000000E+00  0.00000E+00  9.000E+00
      25     1     1     2     0     0 -5.528960716E+00 -3.580324298E+00 -5.219450806E+02  5.367467112E+02  1.250079063E+02  0.00000E+00  9.000E+00
       5     1     1     2   501     0 -2.757266410E+00  1.483787520E+00  1.787318373E+01  1.875679450E+01  4.750000000E+00  0.00000E+00  9.000E+00
      -5     1     1     2     0   503 -1.047490034E+01  1.057332402E+01 -5.699167733E+02  5.701308706E+02  4.750000000E+00  0.00000E+00  9.000E+00
      21     1     1     2   503   512  1.876112747E+01 -8.476787244E+00 -1.102210384E+03  1.102402634E+03  1.525878906E-05  0.00000E+00  9.000E+00
#rwgt            1           9   3.8908861602063491                1      573294           0
</event>
<event>
      6   9999  3.45752E-01  3.00146E+01 -1.00000E+00  1.47824E-01
      21    -1     0     0   501   502  0.000000000E+00  0.000000000E+00  3.432168810E+01  3.432168810E+01  0.000000000E+00  0.00000E+00  9.000E+00
      21    -1     0     0   511   503  0.000000000E+00  0.000000000E+00 -1.364128374E+03  1.364128374E+03  0.000000000E+00  0.00000E+00  9.000E+00
      25     1     1     2     0     0  6.503681127E+01  4.716568840E+01 -3.995328289E+02  4.262711132E+02  1.250047664E+02  0.00000E+00  9.000E+00
       5     1     1     2   501     0 -4.961394028E+00  1.224774068E+01  1.531862835E+01  2.078089163E+01  4.750000000E+00  0.00000E+00  9.000E+00
      -5     1     1     2     0   503 -6.456519679E+01 -2.973653366E+01 -7.669393249E+02  7.702411419E+02  4.750000000E+00  0.00000E+00  9.000E+00
      21     1     1     2   511   502  4.489779553E+00 -2.967689542E+01 -1.786531608E+02  1.811569157E+02  1.907348633E-06  0.00000E+00  9.000E+00
#rwgt            1           9   4.0412250026830754E-005           1      575215           0
</event>
<event>
      6   9999 -3.45752E-01  4.75896E+01 -1.00000E+00  1.35946E-01
      21    -1     0     0   502   503  0.000000000E+00  0.000000000E+00  5.635082546E+01  5.635082546E+01  0.000000000E+00  0.00000E+00  9.000E+00
       2    -1     0     0   501     0  0.000000000E+00  0.000000000E+00 -1.904292455E+03  1.904292455E+03  0.000000000E+00  0.00000E+00  9.000E+00
      25     1     1     2     0     0 -2.480509840E+02 -1.067107852E+02 -5.458748733E+02  6.217079899E+02  1.249998602E+02  0.00000E+00  9.000E+00
       5     1     1     2   501     0  1.249211034E+02  5.784864884E+01 -4.281206751E+02  4.497350589E+02  4.750000000E+00  0.00000E+00  9.000E+00
      -5     1     1     2     0   503  7.678133794E+01  3.806464001E+01 -2.684598134E+02  2.818466331E+02  4.750000000E+00  0.00000E+00  9.000E+00
       2     1     1     2   502     0  4.634854263E+01  1.079749637E+01 -6.054862676E+02  6.073535985E+02  0.000000000E+00  0.00000E+00  9.000E+00
#rwgt            1           9  -1.4184139063816354                1      577131           0
</event>
<event>
      6   9999  3.45752E-01  2.31613E+01 -1.00000E+00  1.55493E-01
      21    -1     0     0   501   511  0.000000000E+00  0.000000000E+00  2.245418938E+01  2.245418938E+01  0.000000000E+00  0.00000E+00  9.000E+00
      21    -1     0     0   502   503  0.000000000E+00  0.000000000E+00 -9.385031042E+02  9.385031042E+02  0.000000000E+00  0.00000E+00  9.000E+00
      25     1     1     2     0     0 -5.280655440E+01 -1.322178448E+01 -4.468986494E+02  4.672418934E+02  1.250329411E+02  0.00000E+00  9.000E+00
       5     1     1     2   501     0  2.785720979E+00 -2.287763064E+00  2.935627468E+00  6.646390738E+00  4.750000000E+00  0.00000E+00  9.000E+00
      -5     1     1     2     0   503  6.169835802E+01 -4.492443194E+00 -4.525085482E+02  4.567421791E+02  4.750000000E+00  0.00000E+00  9.000E+00
      21     1     1     2   502   511 -1.167752460E+01  2.000199073E+01 -1.957734466E+01  3.032683034E+01  8.920806376E-07  0.00000E+00  9.000E+00
#rwgt            1           9   9.2576713896982202E-002           1      578344           0
</event>
<event>
      6   9999  3.45752E-01  1.13748E+01 -1.00000E+00  1.81487E-01
      21    -1     0     0   501   512  0.000000000E+00  0.000000000E+00  3.590561660E+01  3.590561660E+01  0.000000000E+00  0.00000E+00  9.000E+00
      21    -1     0     0   502   503  0.000000000E+00  0.000000000E+00 -1.118948488E+03  1.118948488E+03  0.000000000E+00  0.00000E+00  9.000E+00
      25     1     1     2     0     0 -5.497051163E+01 -2.117339389E+01 -6.645655372E+02  6.787801835E+02  1.250004579E+02  0.00000E+00  9.000E+00
       5     1     1     2   501     0 -7.096672169E+00  4.086550137E+00  2.471827843E+01  2.646919788E+01  4.750000000E+00  0.00000E+00  9.000E+00
      -5     1     1     2     0   503  5.069748075E+01  1.742572290E+01 -4.231331095E+02  4.265420040E+02  4.750000000E+00  0.00000E+00  9.000E+00
      21     1     1     2   502   512  1.136970306E+01 -3.388791419E-01 -2.006250345E+01  2.306271952E+01  4.768371582E-07  0.00000E+00  9.000E+00
#rwgt            1           9   2.2739053464317933E-002           1      579734           0
</event>
<event>
      6   9999 -3.45752E-01  6.39279E+00 -1.00000E+00  2.10292E-01
      21    -1     0     0   501   511  0.000000000E+00  0.000000000E+00  4.471073682E+01  4.471073682E+01  0.000000000E+00  0.00000E+00  9.000E+00
      21    -1     0     0   502   503  0.000000000E+00  0.000000000E+00 -1.248924399E+03  1.248924399E+03  0.000000000E+00  0.00000E+00  9.000E+00
      25     1     1     2     0     0 -4.332873053E+01 -4.571631538E+01 -1.108849732E+03  1.117649470E+03  1.250010021E+02  0.00000E+00  9.000E+00
       5     1     1     2   501     0 -2.751930889E+00  1.890261694E+00  2.704530548E+01  2.766147613E+01  4.750000000E+00  0.00000E+00  9.000E+00
      -5     1     1     2     0   503  5.160161611E+01  4.704891122E+01 -1.233876363E+02  1.418569636E+02  4.750000000E+00  0.00000E+00  9.000E+00
      21     1     1     2   502   511 -5.520954693E+00 -3.222857536E+00  9.783997275E-01  6.467226411E+00  2.608767360E-07  0.00000E+00  9.000E+00
#rwgt            1           9  -2.0488102029518005E-004           1      582878           0
</event>
<event>
      6   9999  3.45752E-01  4.39945E+01 -1.00000E+00  1.37830E-01
      -2    -1     0     0     0   512  0.000000000E+00  0.000000000E+00  3.706892682E+01  3.706892682E+01  0.000000000E+00  0.00000E+00  9.000E+00
       2    -1     0     0   501     0  0.000000000E+00  0.000000000E+00 -1.067814701E+03  1.067814701E+03  0.000000000E+00  0.00000E+00  9.000E+00
      25     1     1     2     0     0  8.441788823E+01 -4.217055550E+01 -9.140004528E+02  9.273217783E+02  1.249964687E+02  0.00000E+00  9.000E+00
       5     1     1     2   501     0 -4.248568416E+01  6.448073125E+01 -8.800450546E+01  1.171757379E+02  4.750000000E+00  0.00000E+00  9.000E+00
      -5     1     1     2     0   502 -1.085000368E+00 -5.969370901E+00 -9.853802493E+00  1.250881842E+01  4.750000000E+00  0.00000E+00  9.000E+00
      21     1     1     2   502   512 -4.084720370E+01 -1.634080485E+01 -1.888701379E+01  4.787729361E+01  1.283923342E-06  0.00000E+00  9.000E+00
#rwgt            1           3   1.5372149329900012E-004           1      588308           0
</event>
<event>
      6   9999  3.45752E-01  9.44389E+00 -1.00000E+00  1.89850E-01
      21    -1     0     0   501   502  0.000000000E+00  0.000000000E+00  7.389850143E+00  7.389850143E+00  0.000000000E+00  0.00000E+00  9.000E+00
      21    -1     0     0   502   511  0.000000000E+00  0.000000000E+00 -8.751624418E+02  8.751624418E+02  0.000000000E+00  0.00000E+00  9.000E+00
      25     1     1     2     0     0  1.143047902E+01  6.106987018E+00 -6.002632249E+02  6.132776211E+02  1.250022010E+02  0.00000E+00  9.000E+00
       5     1     1     2   501     0  4.844062328E-01  4.562983473E-01 -9.934489442E+00  1.103174683E+01  4.750000000E+00  0.00000E+00  9.000E+00
      -5     1     1     2     0   503 -4.890386721E+00 -2.511188922E-01 -5.125542728E+01  5.170744887E+01  4.750000000E+00  0.00000E+00  9.000E+00
      21     1     1     2   503   511 -7.024498535E+00 -6.312166473E+00 -2.063194501E+02  2.065354752E+02  2.697398305E-06  0.00000E+00  9.000E+00
#rwgt            1           9   2.4689064926635119E-002           1      590160           0
</event>
<event>
      6   9999  3.45752E-01  1.29130E+02 -1.00000E+00  1.15899E-01
      21    -1     0     0   512   502  0.000000000E+00  0.000000000E+00  3.047357873E+02  3.047357873E+02  0.000000000E+00  0.00000E+00  9.000E+00
       1    -1     0     0   501     0  0.000000000E+00  0.000000000E+00 -2.320228817E+03  2.320228817E+03  0.000000000E+00  0.00000E+00  9.000E+00
      25     1     1     2     0     0  1.286514151E+02 -2.409548851E+01 -4.751161589E+02  5.084212622E+02  1.250001451E+02  0.00000E+00  9.000E+00
       5     1     1     2   501     0 -1.069701276E+02 -2.646296619E+00 -6.975205658E+02  7.056961905E+02  4.750000000E+00  0.00000E+00  9.000E+00
      -5     1     1     2     0   502 -1.275708312E+02  1.006470653E+02 -1.105917470E+03  1.117801486E+03  4.750000000E+00  0.00000E+00  9.000E+00
       1     1     1     2   512     0  1.058895437E+02 -7.390528012E+01  2.630611649E+02  2.930456660E+02  8.529922400E-06  0.00000E+00  9.000E+00
#rwgt            1           1   4.3015484198930491E-004           1      592609           0
</event>
<event>
      6   9999  3.45752E-01  1.88595E+01 -1.00000E+00  1.62182E-01
      21    -1     0     0   501   502  0.000000000E+00  0.000000000E+00  1.060067539E+03  1.060067539E+03  0.000000000E+00  0.00000E+00  9.000E+00
       2    -1     0     0   502     0  0.000000000E+00  0.000000000E+00 -1.015780774E+02  1.015780774E+02  0.000000000E+00  0.00000E+00  9.000E+00
      25     1     1     2     0     0 -2.588681204E+01 -3.042932201E+00 -3.213273898E+01  1.316672286E+02  1.249974388E+02  0.00000E+00  9.000E+00
       5     1     1     2   501     0  2.173488004E+00 -7.372351818E+00  9.804687999E+02  9.805104312E+02  4.750000000E+00  0.00000E+00  9.000E+00
      -5     1     1     2     0   503  5.767769508E+00  1.621497887E+01  2.111730429E+01  2.765313264E+01  4.750000000E+00  0.00000E+00  9.000E+00
       2     1     1     2   503     0  1.794555453E+01 -5.799694848E+00 -1.096390321E+01  2.181482434E+01  8.172577143E-07  0.00000E+00  9.000E+00
#rwgt            1           9   2.5594605638052802E-004           1      592842           0
</event>
<event>
      6   9999  3.45752E-01  6.91792E+00 -1.00000E+00  2.05793E-01
      21    -1     0     0   501   502  0.000000000E+00  0.000000000E+00  7.601437287E+00  7.601437287E+00  0.000000000E+00  0.00000E+00  9.000E+00
       2    -1     0     0   502     0  0.000000000E+00  0.000000000E+00 -1.062854813E+03  1.062854813E+03  0.000000000E+00  0.00000E+00  9.000E+00
      25     1     1     2     0     0 -5.021021529E+00 -2.794357748E+00 -6.080192828E+02  6.207620979E+02  1.250004593E+02  0.00000E+00  9.000E+00
       5     1     1     2   501     0 -4.767187268E-01 -6.129380377E-01 -5.423506100E+00  7.251197984E+00  4.750000000E+00  0.00000E+00  9.000E+00
      -5     1     1     2     0   503 -5.418748648E-01  3.377049554E-02 -1.956382699E+01  2.013952818E+01  4.750000000E+00  0.00000E+00  9.000E+00
       2     1     1     2   503     0  6.039615121E+00  3.373525290E+00 -4.222467603E+02  4.223034267E+02  5.394796609E-06  0.00000E+00  9.000E+00
#rwgt            1           9   6.8518640807759026E-005           1      596380           0
</event>
<event>
      6   9999  3.45752E-01  2.14555E+01 -1.00000E+00  1.57916E-01
      21    -1     0     0   501   502  0.000000000E+00  0.000000000E+00  3.250535414E+01  3.250535414E+01  0.000000000E+00  0.00000E+00  9.000E+00
      21    -1     0     0   502   511  0.000000000E+00  0.000000000E+00 -1.350976104E+03  1.350976104E+03  0.000000000E+00  0.00000E+00  9.000E+00
      25     1     1     2     0     0 -4.772305524E+01  4.224891085E+01 -3.574196419E+02  3.839737300E+02  1.249982578E+02  0.00000E+00  9.000E+00
       5     1     1     2   501     0  1.815378281E+00  8.660734533E+00  1.648317192E+01  1.930184907E+01  4.750000000E+00  0.00000E+00  9.000E+00
      -5     1     1     2     0   503  3.709187445E+01 -3.134894847E+01 -7.760036258E+02  7.775363358E+02  4.750000000E+00  0.00000E+00  9.000E+00
      21     1     1     2   503   511  8.815802505E+00 -1.956069692E+01 -2.015306540E+02  2.026695432E+02  0.000000000E+00  0.00000E+00  9.000E+00
#rwgt            1           9   8.6495796178654629E-003           1      599171           0
</event>
<event>
      6   9999  3.45752E-01  1.64096E+01 -1.00000E+00  1.67059E-01
      21    -1     0     0   501   512  0.000000000E+00  0.000000000E+00  1.446823359E+01  1.446823359E+01  0.000000000E+00  0.00000E+00  9.000E+00
      21    -1     0     0   502   503  0.000000000E+00  0.000000000E+00 -8.500378470E+02  8.500378470E+02  0.000000000E+00  0.00000E+00  9.000E+00
      25     1     1     2     0     0  1.544457930E+01 -6.113523205E+00 -7.642586727E+02  7.745911210E+02  1.249967029E+02  0.00000E+00  9.000E+00
       5     1     1     2   501     0  1.721358188E+00  8.101327011E-01  6.600260585E+00  8.351366882E+00  4.750000000E+00  0.00000E+00  9.000E+00
      -5     1     1     2     0   503 -7.729672230E-01  6.041551725E+00 -2.464509089E+01  2.582713361E+01  4.750000000E+00  0.00000E+00  9.000E+00
      21     1     1     2   502   512 -1.639297026E+01 -7.381612205E-01 -5.326611036E+01  5.573645906E+01  0.000000000E+00  0.00000E+00  9.000E+00
#rwgt            1           9   1.5779614109270656E-004           1      601050           0
</event>
<event>
      6   9999  3.45752E-01  4.86773E+00 -1.00000E+00  2.31429E-01
      21    -1     0     0   501   502  0.000000000E+00  0.000000000E+00  4.123450488E+01  4.123450488E+01  0.000000000E+00  0.00000E+00  9.000E+00
      21    -1     0     0   511   503  0.000000000E+00  0.000000000E+00 -2.127031056E+03  2.127031056E+03  0.000000000E+00  0.00000E+00  9.000E+00
      25     1     1     2     0     0  1.013917208E+01 -1.699232452E+00 -1.124877924E+03  1.131848693E+03  1.250017226E+02  0.00000E+00  9.000E+00
       5     1     1     2   501     0 -1.198807940E+01 -2.470473358E+00  3.638231766E+01  3.867884208E+01  4.750000000E+00  0.00000E+00  9.000E+00
      -5     1     1     2     0   503 -1.985145192E+00  1.170567884E+00 -3.259543979E+01  3.302023964E+01  4.750000000E+00  0.00000E+00  9.000E+00
      21     1     1     2   511   502  3.834052515E+00  2.999137926E+00 -9.647055048E+02  9.647177855E+02  1.525878906E-05  0.00000E+00  9.000E+00
#rwgt            1           9   4.9647079514014160E-004           1      602669           0
</event>
<event>
      6   9999  3.45752E-01  1.53582E+01 -1.00000E+00  1.69488E-01
      21    -1     0     0   501   502  0.000000000E+00  0.000000000E+00  6.461263896E+01  6.461263896E+01  0.000000000E+00  0.00000E+00  9.000E+00
      21    -1     0     0   502   512  0.000000000E+00  0.000000000E+00 -1.609509471E+03  1.609509471E+03  0.000000000E+00  0.00000E+00  9.000E+00
      25     1     1     2     0     0 -2.621460138E+01  9.535589000E+01 -1.138950197E+03  1.150049060E+03  1.250013457E+02  0.00000E+00  9.000E+00
       5     1     1     2   501     0  1.145184871E+01 -4.794541148E-01  5.336139272E+01  5.478481038E+01  4.750000000E+00  0.00000E+00  9.000E+00
      -5     1     1     2     0   503  1.351779898E+01 -7.956880939E+01 -3.796345313E+02  3.881479952E+02  4.750000000E+00  0.00000E+00  9.000E+00
      21     1     1     2   503   512  1.244953690E+00 -1.530762650E+01 -7.967349640E+01  8.114024506E+01  0.000000000E+00  0.00000E+00  9.000E+00
#rwgt            1           9   1.0393072538788409E-003           1      609020           0
</event>
<event>
      6   9999  3.45752E-01  9.40458E+00 -1.00000E+00  1.90046E-01
      21    -1     0     0   501   502  0.000000000E+00  0.000000000E+00  2.802549580E+01  2.802549580E+01  0.000000000E+00  0.00000E+00  9.000E+00
      21    -1     0     0   502   511  0.000000000E+00  0.000000000E+00 -9.417160745E+02  9.417160745E+02  0.000000000E+00  0.00000E+00  9.000E+00
      25     1     1     2     0     0 -5.393550587E+01 -5.904576426E+01 -5.462415842E+02  5.660407765E+02  1.250074049E+02  0.00000E+00  9.000E+00
       5     1     1     2   501     0 -1.567428482E+00 -1.728812028E+00  1.319542543E+01  1.421715075E+01  4.750000000E+00  0.00000E+00  9.000E+00
      -5     1     1     2     0   503  4.910640779E+01  5.388033285E+01 -3.329027991E+02  3.408245380E+02  4.750000000E+00  0.00000E+00  9.000E+00
      21     1     1     2   503   511  6.396526567E+00  6.894243432E+00 -4.774162082E+01  4.865910504E+01  6.743495762E-07  0.00000E+00  9.000E+00
#rwgt            1           9   1.4707074475448572E-003           1      612868           0
</event>
<event>
      6   9999  3.45752E-01  5.08034E+00 -1.00000E+00  2.24644E-01
      21    -1     0     0   501   512  0.000000000E+00  0.000000000E+00  2.151103353E+01  2.151103353E+01  0.000000000E+00  0.00000E+00  9.000E+00
      21    -1     0     0   502   503  0.000000000E+00  0.000000000E+00 -2.310416065E+03  2.310416065E+03  0.000000000E+00  0.00000E+00  9.000E+00
      25     1     1     2     0     0 -3.195439607E+00 -8.620775376E+00 -2.099741680E+03  2.103478843E+03  1.249943759E+02  0.00000E+00  9.000E+00
       5     1     1     2   501     0  9.820142488E+00  7.396831087E+00  1.694499538E+01  2.146726991E+01  4.750000000E+00  0.00000E+00  9.000E+00
      -5     1     1     2     0   503 -2.448125829E+00  4.116355947E+00 -1.893356383E+02  1.894557577E+02  4.750000000E+00  0.00000E+00  9.000E+00
      21     1     1     2   502   512 -4.176577051E+00 -2.892411659E+00 -1.677270886E+01  1.752522764E+01  2.384185791E-07  0.00000E+00  9.000E+00
#rwgt            1           9   9.0209602894566338E-003           1      616201           0
</event>
<event>
      6   9999  3.45752E-01  6.21421E+00 -1.00000E+00  2.11958E-01
      21    -1     0     0   511   502  0.000000000E+00  0.000000000E+00  9.624784596E+01  9.624784596E+01  0.000000000E+00  0.00000E+00  9.000E+00
      21    -1     0     0   502   503  0.000000000E+00  0.000000000E+00 -1.007875459E+03  1.007875459E+03  0.000000000E+00  0.00000E+00  9.000E+00
      25     1     1     2     0     0 -4.965257584E+01  1.186622460E+01 -5.432808165E+02  5.598078041E+02  1.249981855E+02  0.00000E+00  9.000E+00
       5     1     1     2   501     0 -7.564537742E-01  1.970021893E+00  3.110495295E+00  6.057300517E+00  4.750000000E+00  0.00000E+00  9.000E+00
      -5     1     1     2     0   503  4.525220011E+01 -1.036875099E+01 -4.535430077E+02  4.559375998E+02  4.750000000E+00  0.00000E+00  9.000E+00
      21     1     1     2   511   501  5.156829508E+00 -3.467495498E+00  8.208571618E+01  8.232060019E+01  3.162979880E-06  0.00000E+00  9.000E+00
#rwgt            1           9   1.9803416139229724                1      621816           0
</event>
<event>
      6   9999  3.45752E-01  3.82563E+00 -1.00000E+00  2.51926E-01
      21    -1     0     0   512   502  0.000000000E+00  0.000000000E+00  1.641536302E+01  1.641536302E+01  0.000000000E+00  0.00000E+00  9.000E+00
      21    -1     0     0   502   503  0.000000000E+00  0.000000000E+00 -8.502420779E+02  8.502420779E+02  0.000000000E+00  0.00000E+00  9.000E+00
      25     1     1     2     0     0  5.562609243E+00  3.827475938E+00 -7.735763507E+02  7.836382963E+02  1.249920675E+02  0.00000E+00  9.000E+00
       5     1     1     2   501     0 -4.041846143E+00  2.347352758E+00  9.664771244E+00  1.173954379E+01  4.750000000E+00  0.00000E+00  9.000E+00
      -5     1     1     2     0   503 -3.370307786E+00 -2.826004863E+00 -6.335951484E+01  6.368937037E+01  4.750000000E+00  0.00000E+00  9.000E+00
      21     1     1     2   512   501  1.849544685E+00 -3.348823833E+00 -6.555620613E+00  7.590230446E+00  8.429369702E-08  0.00000E+00  9.000E+00
#rwgt            1           9   2.4287272967456926E-003           1      625721           0
</event>
<event>
      6   9999 -3.45752E-01  5.85638E+00 -1.00000E+00  2.15534E-01
      21    -1     0     0   501   502  0.000000000E+00  0.000000000E+00  9.412728205E+00  9.412728205E+00  0.000000000E+00  0.00000E+00  9.000E+00
      21    -1     0     0   511   503  0.000000000E+00  0.000000000E+00 -8.615472932E+02  8.615472932E+02  0.000000000E+00  0.00000E+00  9.000E+00
      25     1     1     2     0     0  6.899396457E+00  4.104394795E+00 -5.167835713E+02  5.317470703E+02  1.250009580E+02  0.00000E+00  9.000E+00
       5     1     1     2   501     0 -6.721470676E-01 -8.871974902E-01 -2.083201918E+00  5.304821514E+00  4.750000000E+00  0.00000E+00  9.000E+00
      -5     1     1     2     0   503 -1.156284576E+01 -5.631450877E+00 -1.768127511E+02  1.773435201E+02  4.750000000E+00  0.00000E+00  9.000E+00
      21     1     1     2   511   502  5.335596369E+00  2.414253572E+00 -1.564550406E+02  1.565646095E+02  0.000000000E+00  0.00000E+00  9.000E+00
#rwgt            1           9  -3.5841278565214605E-004           1      631100           0
</event>
<event>
      6   9999  3.45752E-01  1.36387E+01 -1.00000E+00  1.74032E-01
      21    -1     0     0   501   502  0.000000000E+00  0.000000000E+00  1.592646126E+01  1.592646126E+01  0.000000000E+00  0.00000E+00  9.000E+00
      21    -1     0     0   512   503  0.000000000E+00  0.000000000E+00 -1.109683384E+03  1.109683384E+03  0.000000000E+00  0.00000E+00  9.000E+00
      25     1     1     2     0     0 -2.865112936E+01  1.605945249E+01 -5.472209048E+02  5.622759851E+02  1.249990861E+02  0.00000E+00  9.000E+00
       5     1     1     2   501     0 -8.386935834E-01 -5.876460988E-01  5.781566125E+00  7.552333528E+00  4.750000000E+00  0.00000E+00  9.000E+00
      -5     1     1     2     0   503  3.005287833E+01 -2.909885025E+01 -2.825462589E+02  2.856656604E+02  4.750000000E+00  0.00000E+00  9.000E+00
      21     1     1     2   512   502 -5.630553854E-01  1.362704385E+01 -2.697713253E+02  2.701158665E+02  5.394796609E-06  0.00000E+00  9.000E+00
#rwgt            1           9   3.1282379527778319E-004           1      634332           0
</event>
<event>
      6   9999  3.45752E-01  1.01647E+01 -1.00000E+00  1.86449E-01
      21    -1     0     0   501   502  0.000000000E+00  0.000000000E+00  5.114335017E+01  5.114335017E+01  0.000000000E+00  0.00000E+00  9.000E+00
      21    -1     0     0   502   511  0.000000000E+00  0.000000000E+00 -2.965988566E+02  2.965988566E+02  0.000000000E+00  0.00000E+00  9.000E+00
      25     1     1     2     0     0  6.627557816E+00  5.209655519E+01 -1.490383505E+02  2.014830456E+02  1.250000487E+02  0.00000E+00  9.000E+00
       5     1     1     2   501     0 -2.333882643E+00  6.181590002E-01  1.153081883E+01  1.270241755E+01  4.750000000E+00  0.00000E+00  9.000E+00
      -5     1     1     2     0   503 -1.285184262E+01 -4.723024763E+01 -3.612996505E+01  6.102297128E+01  4.750000000E+00  0.00000E+00  9.000E+00
      21     1     1     2   503   511  8.558167452E+00 -5.484466563E+00 -7.181800970E+01  7.253377227E+01  9.536743164E-07  0.00000E+00  9.000E+00
#rwgt            1           9   2.0276406457071941E-003           1      636468           0
</event>
<event>
      6   9999  3.45752E-01  1.02316E+01 -1.00000E+00  1.86152E-01
      21    -1     0     0   501   502  0.000000000E+00  0.000000000E+00  2.778911728E+01  2.778911728E+01  0.000000000E+00  0.00000E+00  9.000E+00
      21    -1     0     0   512   503  0.000000000E+00  0.000000000E+00 -1.159762393E+03  1.159762393E+03  0.000000000E+00  0.00000E+00  9.000E+00
      25     1     1     2     0     0  2.665479878E+01 -1.342946106E+01 -9.850834299E+02  9.934342209E+02  1.250254316E+02  0.00000E+00  9.000E+00
       5     1     1     2   501     0 -4.658990282E+00  1.110969147E-01  2.120751258E+01  2.222700211E+01  4.750000000E+00  0.00000E+00  9.000E+00
      -5     1     1     2     0   503 -2.486534065E+01  3.497372433E+00 -1.133568563E+02  1.162017907E+02  4.750000000E+00  0.00000E+00  9.000E+00
      21     1     1     2   512   502  2.869532156E+00  9.820991709E+00 -5.474050229E+01  5.568849687E+01  6.743495762E-07  0.00000E+00  9.000E+00
#rwgt            1           9  0.59228852750651151                1      638964           0
</event>
<event>
      6   9999  3.45752E-01  2.11240E+01 -1.00000E+00  1.58419E-01
      21    -1     0     0   511   502  0.000000000E+00  0.000000000E+00  1.797776650E+02  1.797776650E+02  0.000000000E+00  0.00000E+00  9.000E+00
      21    -1     0     0   502   503  0.000000000E+00  0.000000000E+00 -1.644325879E+03  1.644325879E+03  0.000000000E+00  0.00000E+00  9.000E+00
      25     1     1     2     0     0  1.019211222E+01 -1.480816508E+01 -1.265996662E+03  1.272279898E+03  1.250017238E+02  0.00000E+00  9.000E+00
       5     1     1     2   501     0  2.441627241E+01  1.629411148E+01  8.939236197E+01  9.420832928E+01  4.750000000E+00  0.00000E+00  9.000E+00
      -5     1     1     2     0   503 -1.444111202E+01  4.799211454E+00 -3.712909583E+02  3.716330399E+02  4.750000000E+00  0.00000E+00  9.000E+00
      21     1     1     2   511   501 -2.016727262E+01 -6.285157847E+00  8.334704415E+01  8.598227644E+01  0.000000000E+00  0.00000E+00  9.000E+00
#rwgt            1           9   1.0150332777806975E-004           1      642357           0
</event>
<event>
      6   9999  3.45752E-01  1.75419E+01 -1.00000E+00  1.64683E-01
      21    -1     0     0   501   502  0.000000000E+00  0.000000000E+00  5.369847963E+01  5.369847963E+01  0.000000000E+00  0.00000E+00  9.000E+00
      21    -1     0     0   502   512  0.000000000E+00  0.000000000E+00 -1.398930535E+03  1.398930535E+03  0.000000000E+00  0.00000E+00  9.000E+00
      25     1     1     2     0     0  1.443525912E+01 -8.661620943E+00 -1.017033493E+03  1.024824882E+03  1.250020523E+02  0.00000E+00  9.000E+00
       5     1     1     2   501     0  7.115498890E+00  5.817475210E+00  4.834486903E+01  4.943948021E+01  4.750000000E+00  0.00000E+00  9.000E+00
      -5     1     1     2     0   503 -4.497309010E+00 -1.266672645E+00 -2.892180124E+02  2.892947483E+02  4.750000000E+00  0.00000E+00  9.000E+00
      21     1     1     2   503   512 -1.705344900E+01  4.110818379E+00 -8.732541918E+01  8.906990393E+01  1.651812370E-06  0.00000E+00  9.000E+00
#rwgt            1           9   1.0061896004939995E-004           1      645073           0
</event>
<event>
      6   9999  3.45752E-01  1.52185E+01 -1.00000E+00  1.69829E-01
      21    -1     0     0   501   511  0.000000000E+00  0.000000000E+00  5.934923376E+01  5.934923376E+01  0.000000000E+00  0.00000E+00  9.000E+00
      21    -1     0     0   502   503  0.000000000E+00  0.000000000E+00 -1.652665499E+02  1.652665499E+02  0.000000000E+00  0.00000E+00  9.000E+00
      25     1     1     2     0     0 -5.406987335E+00 -1.175895219E+00 -1.207777273E+02  1.739045889E+02  1.249997136E+02  0.00000E+00  9.000E+00
       5     1     1     2   501     0 -1.126334501E+00 -6.200712071E-01  2.182282886E+00  5.383119570E+00  4.750000000E+00  0.00000E+00  9.000E+00
      -5     1     1     2     0   503 -5.422405972E+00 -7.620114709E+00 -1.224644150E+01  1.612471594E+01  4.750000000E+00  0.00000E+00  9.000E+00
      21     1     1     2   502   511  1.195572781E+01  9.416081135E+00  2.492456979E+01  2.920335923E+01  3.371747881E-07  0.00000E+00  9.000E+00
#rwgt            1           9   6.4563855070058646E-003           1      647812           0
</event>
<event>
      6   9999  3.45752E-01  1.09714E+01 -1.00000E+00  1.83050E-01
      21    -1     0     0   512   503  0.000000000E+00  0.000000000E+00  7.491732618E+00  7.491732618E+00  0.000000000E+00  0.00000E+00  9.000E+00
      21    -1     0     0   501   502  0.000000000E+00  0.000000000E+00 -7.484732352E+02  7.484732352E+02  0.000000000E+00  0.00000E+00  9.000E+00
      25     1     1     2     0     0  6.550559822E+00  5.667495212E+00 -6.282252471E+02  6.405979917E+02  1.249951823E+02  0.00000E+00  9.000E+00
       5     1     1     2   501     0 -1.750941530E+00  5.951294077E+00 -4.227127374E+01  4.298728627E+01  4.750000000E+00  0.00000E+00  9.000E+00
      -5     1     1     2     0   503 -2.473573695E+00 -8.967856094E-01 -2.072536539E+01  2.142489351E+01  4.750000000E+00  0.00000E+00  9.000E+00
      21     1     1     2   512   502 -2.326044597E+00 -1.072200368E+01 -4.975961635E+01  5.095479629E+01  0.000000000E+00  0.00000E+00  9.000E+00
#rwgt            1           9   3.7353851539252414E-002           1      649467           0
</event>
<event>
      6   9999  3.45752E-01  5.21497E+00 -1.00000E+00  2.22908E-01
      21    -1     0     0   502   503  0.000000000E+00  0.000000000E+00  7.401610929E+00  7.401610929E+00  0.000000000E+00  0.00000E+00  9.000E+00
       2    -1     0     0   501     0  0.000000000E+00  0.000000000E+00 -3.866099852E+03  3.866099852E+03  0.000000000E+00  0.00000E+00  9.000E+00
      25     1     1     2     0     0  6.347046524E+00 -4.730140559E+00 -6.620465627E+02  6.737900747E+02  1.249990173E+02  0.00000E+00  9.000E+00
       5     1     1     2   501     0 -4.678555069E+00  6.275485981E+00 -1.686337213E+01  1.918870557E+01  4.750000000E+00  0.00000E+00  9.000E+00
      -5     1     1     2     0   503 -2.902123120E+00  3.521609704E+00 -2.934933583E+01  3.007939606E+01  4.750000000E+00  0.00000E+00  9.000E+00
       2     1     1     2   502     0  1.233631664E+00 -5.066955126E+00 -3.150438970E+03  3.150443286E+03  6.103515625E-05  0.00000E+00  9.000E+00
#rwgt            1           9   5.1149657653894232E-002           1      651627           0
</event>
<event>
      6   9999  3.45752E-01  6.30415E+00 -1.00000E+00  2.11110E-01
      21    -1     0     0   511   502  0.000000000E+00  0.000000000E+00  4.690881368E+01  4.690881368E+01  0.000000000E+00  0.00000E+00  9.000E+00
      21    -1     0     0   502   503  0.000000000E+00  0.000000000E+00 -2.244164218E+02  2.244164218E+02  0.000000000E+00  0.00000E+00  9.000E+00
      25     1     1     2     0     0 -4.590024803E+00  1.455340349E+01 -1.989035432E+02  2.354188819E+02  1.250062423E+02  0.00000E+00  9.000E+00
       5     1     1     2   501     0 -1.228358938E+00  2.041052662E-01  7.417890906E+00  8.895961451E+00  4.750000000E+00  0.00000E+00  9.000E+00
      -5     1     1     2     0   503  5.556048660E-01 -1.128685326E+01  6.603948646E-01  1.227600809E+01  4.750000000E+00  0.00000E+00  9.000E+00
      21     1     1     2   511   501  5.262778875E+00 -3.470655497E+00  1.331764926E+01  1.473438403E+01  0.000000000E+00  0.00000E+00  9.000E+00
#rwgt            1           9   1.7371773041148174E-003           1      654990           0
</event>
<event>
      6   9999  3.45752E-01  1.82661E+01 -1.00000E+00  1.63276E-01
      21    -1     0     0   502   512  0.000000000E+00  0.000000000E+00  8.703269276E+02  8.703269276E+02  0.000000000E+00  0.00000E+00  9.000E+00
      21    -1     0     0   501   502  0.000000000E+00  0.000000000E+00 -7.106914443E+02  7.106914443E+02  0.000000000E+00  0.00000E+00  9.000E+00
      25     1     1     2     0     0 -7.151175636E+00  1.166014703E+01 -6.020711448E+02  6.150631819E+02  1.250038239E+02  0.00000E+00  9.000E+00
       5     1     1     2   501     0 -2.124936134E-01  2.285343503E+00 -6.135052267E+01  6.157692002E+01  4.750000000E+00  0.00000E+00  9.000E+00
      -5     1     1     2     0   503  6.629672914E+00  4.305827751E+00 -4.003972251E+01  4.108813204E+01  4.750000000E+00  0.00000E+00  9.000E+00
      21     1     1     2   503   512  7.339963349E-01 -1.825131829E+01  8.630968733E+02  8.632901379E+02  1.525878906E-05  0.00000E+00  9.000E+00
#rwgt            1           9   2.0203215399416222E-002           1      658093           0
</event>
<event>
      6   9999  3.45752E-01  7.36212E+00 -1.00000E+00  2.02386E-01
      21    -1     0     0   501   502  0.000000000E+00  0.000000000E+00  1.148274483E+01  1.148274483E+01  0.000000000E+00  0.00000E+00  9.000E+00
       2    -1     0     0   502     0  0.000000000E+00  0.000000000E+00 -1.685308715E+03  1.685308715E+03  0.000000000E+00  0.00000E+00  9.000E+00
      25     1     1     2     0     0  4.482383664E+00  3.272078583E+00 -3.763232271E+02  3.965797736E+02  1.250021892E+02  0.00000E+00  9.000E+00
       5     1     1     2   501     0  3.610913990E-01  4.804349592E-01 -3.659073250E+00  6.025987205E+00  4.750000000E+00  0.00000E+00  9.000E+00
      -5     1     1     2     0   503  2.090058289E+00 -1.277258530E+00 -4.442108108E+01  4.474142015E+01  4.750000000E+00  0.00000E+00  9.000E+00
       2     1     1     2   503     0 -6.933533352E+00 -2.475255012E+00 -1.249422588E+03  1.249444279E+03  1.525878906E-05  0.00000E+00  9.000E+00
#rwgt            1           9   5.0786013766275940E-004           1      659583           0
</event>
<event>
      6   9999 -3.45752E-01  9.97648E+00 -1.00000E+00  1.87301E-01
       2    -1     0     0   501     0  0.000000000E+00  0.000000000E+00  8.196700250E+02  8.196700250E+02  0.000000000E+00  0.00000E+00  9.000E+00
      21    -1     0     0   502   503  0.000000000E+00  0.000000000E+00 -5.264272011E+02  5.264272011E+02  0.000000000E+00  0.00000E+00  9.000E+00
      25     1     1     2     0     0 -6.264367708E+00 -1.577882357E+00 -4.994026061E+02  5.148479126E+02  1.249947123E+02  0.00000E+00  9.000E+00
       5     1     1     2   501     0  3.135083123E+00 -9.201694441E+00  3.386891630E+01  3.555511100E+01  4.750000000E+00  0.00000E+00  9.000E+00
      -5     1     1     2     0   503  2.306816018E+00  8.370607768E-01 -1.803900208E+01  1.881462641E+01  4.750000000E+00  0.00000E+00  9.000E+00
       2     1     1     2   502     0  8.224685675E-01  9.942516021E+00  7.768155158E+02  7.768795761E+02  0.000000000E+00  0.00000E+00  9.000E+00
#rwgt            1           9  -4.0791783123791782E-003           1      662358           0
</event>
<event>
      6   9999  3.45752E-01  1.84505E+01 -1.00000E+00  1.62930E-01
      21    -1     0     0   502   511  0.000000000E+00  0.000000000E+00  3.975883017E+01  3.975883017E+01  0.000000000E+00  0.00000E+00  9.000E+00
      21    -1     0     0   501   502  0.000000000E+00  0.000000000E+00 -1.009232238E+03  1.009232238E+03  0.000000000E+00  0.00000E+00  9.000E+00
      25     1     1     2     0     0  1.151459576E+02 -3.961252330E+00 -5.831955846E+02  6.074677736E+02  1.250028918E+02  0.00000E+00  9.000E+00
       5     1     1     2   501     0 -1.103217184E+02  1.771948365E+01 -3.917646211E+02  4.074149513E+02  4.750000000E+00  0.00000E+00  9.000E+00
      -5     1     1     2     0   503  3.220755038E+00  2.845921937E+00 -8.721391736E+00  1.082116946E+01  4.750000000E+00  0.00000E+00  9.000E+00
      21     1     1     2   503   511 -8.044994159E+00 -1.660415326E+01  1.420818932E+01  2.328717416E+01  9.078709013E-07  0.00000E+00  9.000E+00
#rwgt            1           9   9.2537836974699293E-004           1      665779           0
</event>
<event>
      6   9999 -3.45752E-01  3.57803E+00 -1.00000E+00  2.58317E-01
      21    -1     0     0   501   502  0.000000000E+00  0.000000000E+00  2.342258196E+01  2.342258196E+01  0.000000000E+00  0.00000E+00  9.000E+00
      21    -1     0     0   502   512  0.000000000E+00  0.000000000E+00 -1.243103374E+03  1.243103374E+03  0.000000000E+00  0.00000E+00  9.000E+00
      25     1     1     2     0     0 -2.127120913E+01 -3.178312385E+01 -9.842530258E+02  9.928957984E+02  1.250016653E+02  0.00000E+00  9.000E+00
       5     1     1     2   501     0 -1.671408231E+00  1.591647303E+00  1.096938116E+01  1.217443098E+01  4.750000000E+00  0.00000E+00  9.000E+00
      -5     1     1     2     0   503  2.564781122E+01  2.784962764E+01 -4.093018984E+01  5.595761718E+01  4.750000000E+00  0.00000E+00  9.000E+00
      21     1     1     2   503   512 -2.705193855E+00  2.341848902E+00 -2.054669574E+02  2.054981093E+02  3.814697266E-06  0.00000E+00  9.000E+00
#rwgt            1           9  -1.2235285905553908E-004           1      667891           0
</event>
<event>
      6   9999  3.45752E-01  7.57736E+00 -1.00000E+00  2.00848E-01
      21    -1     0     0   501   502  0.000000000E+00  0.000000000E+00  1.088865519E+03  1.088865519E+03  0.000000000E+00  0.00000E+00  9.000E+00
       2    -1     0     0   502     0  0.000000000E+00  0.000000000E+00 -5.948173336E+01  5.948173336E+01  0.000000000E+00  0.00000E+00  9.000E+00
      25     1     1     2     0     0  1.021050885E+01  3.759544364E+00  5.764174485E+01  1.380793058E+02  1.249997411E+02  0.00000E+00  9.000E+00
       5     1     1     2   501     0 -1.105439552E+01 -2.894684913E+00  9.851411727E+02  9.852188953E+02  4.750000000E+00  0.00000E+00  9.000E+00
      -5     1     1     2     0   503 -1.340654444E+00 -8.120491858E+00  1.736989283E-01  9.504336572E+00  4.750000000E+00  0.00000E+00  9.000E+00
       2     1     1     2   503     0  2.184541115E+00  7.255632406E+00 -1.357283083E+01  1.554471480E+01  3.769728732E-07  0.00000E+00  9.000E+00
#rwgt            1           9   1.7607236521780126E-003           1      674079           0
</event>
<event>
      6   9999  3.45752E-01  1.38068E+01 -1.00000E+00  1.73551E-01
      21    -1     0     0   501   502  0.000000000E+00  0.000000000E+00  3.049645331E+01  3.049645331E+01  0.000000000E+00  0.00000E+00  9.000E+00
      21    -1     0     0   502   511  0.000000000E+00  0.000000000E+00 -2.522154639E+03  2.522154639E+03  0.000000000E+00  0.00000E+00  9.000E+00
      25     1     1     2     0     0  7.710578266E+01  4.934692720E+01 -1.114899000E+03  1.125616810E+03  1.250320047E+02  0.00000E+00  9.000E+00
       5     1     1     2   501     0 -1.943241416E+00 -3.530230138E-01  2.162276293E+01  2.222627250E+01  4.750000000E+00  0.00000E+00  9.000E+00
      -5     1     1     2     0   503 -6.727598926E+01 -6.032665821E+01 -6.467622232E+02  6.530614827E+02  4.750000000E+00  0.00000E+00  9.000E+00
      21     1     1     2   503   511 -7.886551985E+00  1.133275402E+01 -7.516197257E+02  7.517465271E+02  1.868812365E-05  0.00000E+00  9.000E+00
#rwgt            1           9   2.7509133840852141E-004           1      678526           0
</event>
<event>
      6   9999  3.45752E-01  2.41720E+00 -1.00000E+00  3.03994E-01
      21    -1     0     0   501   502  0.000000000E+00  0.000000000E+00  4.708060896E+01  4.708060896E+01  0.000000000E+00  0.00000E+00  9.000E+00
      21    -1     0     0   512   503  0.000000000E+00  0.000000000E+00 -1.460100702E+03  1.460100702E+03  0.000000000E+00  0.00000E+00  9.000E+00
      25     1     1     2     0     0 -1.142548694E+01  2.681670001E+01 -1.195356362E+03  1.202227811E+03  1.250008041E+02  0.00000E+00  9.000E+00
       5     1     1     2   501     0 -2.121201018E+00 -1.169890078E+01  4.058600070E+01  4.255760479E+01  4.750000000E+00  0.00000E+00  9.000E+00
      -5     1     1     2     0   503  1.492582845E+01 -1.710295043E+01 -6.303097397E+01  6.716217275E+01  4.750000000E+00  0.00000E+00  9.000E+00
      21     1     1     2   512   502 -1.379140490E+00  1.985151199E+00 -1.952187579E+02  1.952337222E+02  2.697398305E-06  0.00000E+00  9.000E+00
#rwgt            1           9   3.1589594644478291E-004           1      681813           0
</event>
<event>
      6   9999  3.45752E-01  2.25646E+01 -1.00000E+00  1.56311E-01
      21    -1     0     0   511   503  0.000000000E+00  0.000000000E+00  8.097472561E+01  8.097472561E+01  0.000000000E+00  0.00000E+00  9.000E+00
      21    -1     0     0   501   502  0.000000000E+00  0.000000000E+00 -8.319821852E+02  8.319821852E+02  0.000000000E+00  0.00000E+00  9.000E+00
      25     1     1     2     0     0 -1.481218510E+01 -7.925442767E+00 -5.616507757E+02  5.756362896E+02  1.249933222E+02  0.00000E+00  9.000E+00
       5     1     1     2   501     0  5.088342525E+00  3.027040182E+01 -1.214145284E+02  1.253245334E+02  4.750000000E+00  0.00000E+00  9.000E+00
      -5     1     1     2     0   503 -9.605340138E+00 -3.398729732E+01 -1.358453502E+02  1.404418762E+02  4.750000000E+00  0.00000E+00  9.000E+00
      21     1     1     2   511   502  1.932918271E+01  1.164233827E+01  6.790319471E+01  7.155421159E+01  3.814697266E-06  0.00000E+00  9.000E+00
#rwgt            1           9  0.35953507830243120                1      691387           0
</event>
<event>
      6   9999  3.45752E-01  1.37334E+01 -1.00000E+00  1.73760E-01
      21    -1     0     0   501   502  0.000000000E+00  0.000000000E+00  1.056277946E+01  1.056277946E+01  0.000000000E+00  0.00000E+00  9.000E+00
      21    -1     0     0   502   512  0.000000000E+00  0.000000000E+00 -1.005248731E+03  1.005248731E+03  0.000000000E+00  0.00000E+00  9.000E+00
      25     1     1     2     0     0 -1.274759960E+01 -8.339260180E+00 -6.579201412E+02  6.698630121E+02  1.250019929E+02  0.00000E+00  9.000E+00
       5     1     1     2   501     0 -9.100581121E-02 -1.344202051E+00  2.596447322E+00  5.578458560E+00  4.750000000E+00  0.00000E+00  9.000E+00
      -5     1     1     2     0   503  7.581053308E+00 -3.003766588E+00 -6.695139082E+01  6.761321037E+01  4.750000000E+00  0.00000E+00  9.000E+00
      21     1     1     2   503   512  5.257552108E+00  1.268722882E+01 -2.724108672E+02  2.727568297E+02  5.394796609E-06  0.00000E+00  9.000E+00
#rwgt            1           9   7.3476029984753916E-002           1      692731           0
</event>
<event>
      6   9999 -3.45752E-01  3.55188E+01 -1.00000E+00  1.43246E-01
       2    -1     0     0   502     0  0.000000000E+00  0.000000000E+00  2.604961280E+03  2.604961280E+03  0.000000000E+00  0.00000E+00  9.000E+00
      21    -1     0     0   501   502  0.000000000E+00  0.000000000E+00 -3.334778312E+01  3.334778312E+01  0.000000000E+00  0.00000E+00  9.000E+00
      25     1     1     2     0     0 -6.869942788E+00  1.255799340E+02  2.304350496E+02  2.907635352E+02  1.250024216E+02  0.00000E+00  9.000E+00
       5     1     1     2   501     0  4.144487002E-01  4.375271948E-01  1.370159494E+02  1.370995845E+02  4.750000000E+00  0.00000E+00  9.000E+00
      -5     1     1     2     0   503  3.540860383E+01 -1.054431469E+02  1.080127572E+03  1.085849971E+03  4.750000000E+00  0.00000E+00  9.000E+00
       2     1     1     2   503     0 -2.895310975E+01 -2.057431426E+01  1.124034926E+03  1.124595971E+03  0.000000000E+00  0.00000E+00  9.000E+00
#rwgt            1           9  -1.5093929328325057E-005           1      694869           0
</event>
<event>
      6   9999  3.45752E-01  2.72965E+01 -1.00000E+00  1.50541E-01
      21    -1     0     0   511   502  0.000000000E+00  0.000000000E+00  2.086516907E+01  2.086516907E+01  0.000000000E+00  0.00000E+00  9.000E+00
      21    -1     0     0   502   503  0.000000000E+00  0.000000000E+00 -4.289204678E+02  4.289204678E+02  0.000000000E+00  0.00000E+00  9.000E+00
      25     1     1     2     0     0  8.118786946E+00  2.212781379E+01 -3.757740715E+02  3.967205850E+02  1.250020598E+02  0.00000E+00  9.000E+00
       5     1     1     2   501     0  1.567658413E+00  2.346553805E+00  2.147616711E+00  5.927784173E+00  4.750000000E+00  0.00000E+00  9.000E+00
      -5     1     1     2     0   503  7.828034107E-01  7.346341430E-01 -5.959469541E+00  7.696118874E+00  4.750000000E+00  0.00000E+00  9.000E+00
      21     1     1     2   511   501 -1.046924877E+01 -2.520900174E+01 -2.846937446E+01  3.944114883E+01  6.743495762E-07  0.00000E+00  9.000E+00
#rwgt            1           9   1.3321321638350318E-004           1      697130           0
</event>
<event>
      6   9999  3.45752E-01  6.89783E+00 -1.00000E+00  2.05956E-01
      21    -1     0     0   512   502  0.000000000E+00  0.000000000E+00  8.038222312E+00  8.038222312E+00  0.000000000E+00  0.00000E+00  9.000E+00
      21    -1     0     0   502   503  0.000000000E+00  0.000000000E+00 -7.158012651E+02  7.158012651E+02  0.000000000E+00  0.00000E+00  9.000E+00
      25     1     1     2     0     0 -4.149733421E+00 -1.015736733E+01 -6.041574899E+02  6.170556218E+02  1.250238994E+02  0.00000E+00  9.000E+00
       5     1     1     2   501     0 -1.763177540E+00  8.452443557E+00 -5.551752520E+01  5.638537667E+01  4.750000000E+00  0.00000E+00  9.000E+00
      -5     1     1     2     0   503 -2.471571131E-01 -1.398885425E+00 -3.706513427E+01  3.739524897E+01  4.750000000E+00  0.00000E+00  9.000E+00
      21     1     1     2   512   501  6.160068075E+00  3.103809198E+00 -1.102289349E+01  1.300324002E+01  2.064765462E-07  0.00000E+00  9.000E+00
#rwgt            1           9  0.10587060298503269                1      698078           0
</event>
<event>
      6   9999 -3.45752E-01  1.19785E+01 -1.00000E+00  1.79297E-01
      21    -1     0     0   501   502  0.000000000E+00  0.000000000E+00  2.095908184E+01  2.095908184E+01  0.000000000E+00  0.00000E+00  9.000E+00
      21    -1     0     0   502   511  0.000000000E+00  0.000000000E+00 -1.086572141E+03  1.086572141E+03  0.000000000E+00  0.00000E+00  9.000E+00
      25     1     1     2     0     0  2.023896203E+01 -8.543868323E+00 -3.904524594E+02  4.105613922E+02  1.249996818E+02  0.00000E+00  9.000E+00
       5     1     1     2   501     0 -6.018272839E+00 -2.378678463E+00  8.661331357E+00  1.180927094E+01  4.750000000E+00  0.00000E+00  9.000E+00
      -5     1     1     2     0   503 -2.425175347E+01  4.375703667E+00 -5.956758212E+02  5.962042777E+02  4.750000000E+00  0.00000E+00  9.000E+00
      21     1     1     2   503   511  1.003106428E+01  6.546843118E+00 -8.814610968E+01  8.895628171E+01  1.348699152E-06  0.00000E+00  9.000E+00
#rwgt            1           9  -1.1253256077587681E-004           1      700834           0
</event>
<event>
      6   9999 -3.45752E-01  8.20052E+00 -1.00000E+00  1.96751E-01
      21    -1     0     0   501   502  0.000000000E+00  0.000000000E+00  3.327208429E+00  3.327208429E+00  0.000000000E+00  0.00000E+00  9.000E+00
      21    -1     0     0   512   503  0.000000000E+00  0.000000000E+00 -2.542741134E+03  2.542741134E+03  0.000000000E+00  0.00000E+00  9.000E+00
      25     1     1     2     0     0  5.775317717E+00  2.281009123E-01 -2.281485786E+03  2.284913938E+03  1.249836359E+02  0.00000E+00  9.000E+00
       5     1     1     2   501     0  6.974378210E-01  2.010803024E+00 -3.268191702E+00  6.146000758E+00  4.750000000E+00  0.00000E+00  9.000E+00
      -5     1     1     2     0   503  1.572870467E+00 -6.525761364E-01 -1.109242246E+02  1.110389385E+02  4.750000000E+00  0.00000E+00  9.000E+00
      21     1     1     2   512   502 -8.045626005E+00 -1.586327800E+00 -1.437357237E+02  1.439694648E+02  2.697398305E-06  0.00000E+00  9.000E+00
#rwgt            1           9  -2.0404812505744788E-002           1      703689           0
</event>
<event>
      6   9999  3.45752E-01  1.55756E+01 -1.00000E+00  1.68966E-01
      21    -1     0     0   501   511  0.000000000E+00  0.000000000E+00  9.839748750E+00  9.839748750E+00  0.000000000E+00  0.00000E+00  9.000E+00
      21    -1     0     0   502   503  0.000000000E+00  0.000000000E+00 -1.920513200E+03  1.920513200E+03  0.000000000E+00  0.00000E+00  9.000E+00
      25     1     1     2     0     0 -2.531850480E+01 -8.908486491E+00 -6.832433800E+02  6.951049026E+02  1.250156847E+02  0.00000E+00  9.000E+00
       5     1     1     2   501     0 -2.152469849E-01  1.500016568E-02  5.286944034E-01  4.784200460E+00  4.750000000E+00  0.00000E+00  9.000E+00
      -5     1     1     2     0   503  1.372278027E+01  1.904736776E+01 -1.175442257E+03  1.175686259E+03  4.750000000E+00  0.00000E+00  9.000E+00
      21     1     1     2   502   511  1.181097151E+01 -1.015388144E+01 -5.251650823E+01  5.477758659E+01  6.743495762E-07  0.00000E+00  9.000E+00
#rwgt            1           9   7.8371070969788889E-002           1      706221           0
</event>
<event>
      6   9999  3.45752E-01  2.51639E+01 -1.00000E+00  1.52952E-01
      21    -1     0     0   512   502  0.000000000E+00  0.000000000E+00  3.584265065E+01  3.584265065E+01  0.000000000E+00  0.00000E+00  9.000E+00
      21    -1     0     0   502   503  0.000000000E+00  0.000000000E+00 -1.012272648E+03  1.012272648E+03  0.000000000E+00  0.00000E+00  9.000E+00
      25     1     1     2     0     0 -4.372777070E+01  6.106119222E+01 -7.530179762E+02  7.670082112E+02  1.249997454E+02  0.00000E+00  9.000E+00
       5     1     1     2   501     0  2.536601175E+00 -3.326077072E+00  9.935761965E+00  1.178044991E+01  4.750000000E+00  0.00000E+00  9.000E+00
      -5     1     1     2     0   503  3.907452373E+01 -8.280987356E+01 -2.247519972E+02  2.427350743E+02  4.750000000E+00  0.00000E+00  9.000E+00
      21     1     1     2   512   501  2.116645804E+00  2.507475841E+01 -8.595785825E+00  2.659156318E+01  7.348554138E-07  0.00000E+00  9.000E+00
#rwgt            1           9   1.4928349577610181E-004           1      708111           0
</event>
<event>
      6   9999  3.45752E-01  2.28784E+00 -1.00000E+00  3.11818E-01
      21    -1     0     0   501   511  0.000000000E+00  0.000000000E+00  8.928770110E+01  8.928770110E+01  0.000000000E+00  0.00000E+00  9.000E+00
      21    -1     0     0   502   503  0.000000000E+00  0.000000000E+00 -8.133220737E+01  8.133220737E+01  0.000000000E+00  0.00000E+00  9.000E+00
      25     1     1     2     0     0 -7.405307927E-01 -2.447249921E+00 -2.906868320E+01  1.283520126E+02  1.249908532E+02  0.00000E+00  9.000E+00
       5     1     1     2   501     0 -3.577908065E-01  4.313651128E-01  2.941517238E+01  2.980149252E+01  4.750000000E+00  0.00000E+00  9.000E+00
      -5     1     1     2     0   503 -8.389269295E-01  7.988074527E-01  4.028387210E-01  4.905779324E+00  4.750000000E+00  0.00000E+00  9.000E+00
      21     1     1     2   502   511  1.937248529E+00  1.217077355E+00  7.206165826E+00  7.560623987E+00  0.000000000E+00  0.00000E+00  9.000E+00
#rwgt            1           9   1.9692881158551922E-004           1      709742           0
</event>
<event>
      6   9999  3.45752E-01  5.37035E+00 -1.00000E+00  2.20992E-01
      21    -1     0     0   501   512  0.000000000E+00  0.000000000E+00  3.349338330E+03  3.349338330E+03  0.000000000E+00  0.00000E+00  9.000E+00
      21    -1     0     0   502   503  0.000000000E+00  0.000000000E+00 -9.370330298E+02  9.370330298E+02  0.000000000E+00  0.00000E+00  9.000E+00
      25     1     1     2     0     0  1.213171810E+00 -4.635784075E+00 -8.695909050E+02  8.785340726E+02  1.249432368E+02  0.00000E+00  9.000E+00
       5     1     1     2   501     0  1.460586770E+00  1.599896271E+00  1.203192941E+01  1.311574653E+01  4.750000000E+00  0.00000E+00  9.000E+00
      -5     1     1     2     0   503 -6.112347413E-01 -1.922602556E+00 -6.231981314E+01  6.253312417E+01  4.750000000E+00  0.00000E+00  9.000E+00
      21     1     1     2   502   512 -2.062523839E+00  4.958490360E+00  3.332184088E+03  3.332188416E+03  0.000000000E+00  0.00000E+00  9.000E+00
#rwgt            1           9   4.3608395864058340E-004           1      716226           0
</event>
<event>
      6   9999  3.45752E-01  1.18632E+01 -1.00000E+00  1.79702E-01
      21    -1     0     0   501   502  0.000000000E+00  0.000000000E+00  1.562215721E+03  1.562215721E+03  0.000000000E+00  0.00000E+00  9.000E+00
      21    -1     0     0   502   511  0.000000000E+00  0.000000000E+00 -2.434624172E+02  2.434624172E+02  0.000000000E+00  0.00000E+00  9.000E+00
      25     1     1     2     0     0 -2.262645549E+01  2.976590499E+01  8.242455841E+02  8.345088625E+02  1.250051722E+02  0.00000E+00  9.000E+00
       5     1     1     2   501     0  2.836656550E+01 -4.046679794E+01  6.882111712E+02  6.899995669E+02  4.750000000E+00  0.00000E+00  9.000E+00
      -5     1     1     2     0   503 -1.074823856E+00 -2.064782357E-01  4.344857324E+01  4.372114930E+01  4.750000000E+00  0.00000E+00  9.000E+00
      21     1     1     2   503   511 -4.665286157E+00  1.090737118E+01 -2.371520246E+02  2.374485595E+02  8.529922400E-06  0.00000E+00  9.000E+00
#rwgt            1           9   2.0282620310073558E-003           1      720553           0
</event>
<event>
      6   9999  3.45752E-01  1.03792E+01 -1.00000E+00  1.85507E-01
      21    -1     0     0   501   502  0.000000000E+00  0.000000000E+00  1.070533060E+01  1.070533060E+01  0.000000000E+00  0.00000E+00  9.000E+00
      21    -1     0     0   512   503  0.000000000E+00  0.000000000E+00 -8.418272464E+02  8.418272464E+02  0.000000000E+00  0.00000E+00  9.000E+00
      25     1     1     2     0     0 -1.810104663E+00 -2.008858097E+01 -4.874927664E+02  5.036661572E+02  1.249942919E+02  0.00000E+00  9.000E+00
       5     1     1     2   501     0 -1.035426120E+00 -3.625927134E-01 -1.927919984E+00  5.242418925E+00  4.750000000E+00  0.00000E+00  9.000E+00
      -5     1     1     2     0   503 -6.831665086E+00  2.420358115E+01 -2.627149761E+02  2.639587205E+02  4.750000000E+00  0.00000E+00  9.000E+00
      21     1     1     2   512   502  9.677195869E+00 -3.752407462E+00 -7.898625337E+01  7.966528042E+01  0.000000000E+00  0.00000E+00  9.000E+00
#rwgt            1           9   3.6659026864325621E-004           1      722714           0
</event>
<event>
      6   9999  3.45752E-01  1.04936E+01 -1.00000E+00  1.85016E-01
      21    -1     0     0   511   503  0.000000000E+00  0.000000000E+00  6.786078325E+00  6.786078325E+00  0.000000000E+00  0.00000E+00  9.000E+00
      21    -1     0     0   501   502  0.000000000E+00  0.000000000E+00 -8.857069004E+02  8.857069004E+02  0.000000000E+00  0.00000E+00  9.000E+00
      25     1     1     2     0     0  8.088321939E+00 -1.110785537E+00 -8.018880238E+02  8.116136112E+02  1.250023854E+02  0.00000E+00  9.000E+00
       5     1     1     2   501     0  1.358657068E+00  3.466526650E-01 -5.354483883E+00  7.293772326E+00  4.750000000E+00  0.00000E+00  9.000E+00
      -5     1     1     2     0   503  6.510207463E-01  3.618210269E+00 -2.159507666E+01  2.241484127E+01  4.750000000E+00  0.00000E+00  9.000E+00
      21     1     1     2   511   502 -1.009799975E+01 -2.854077397E+00 -5.008323775E+01  5.117075395E+01  9.536743164E-07  0.00000E+00  9.000E+00
#rwgt            1           9   2.8084686582072318E-005           1      724806           0
</event>
<event>
      6   9999 -3.45752E-01  9.35279E+00 -1.00000E+00  1.90307E-01
      21    -1     0     0   501   512  0.000000000E+00  0.000000000E+00  1.973332321E+01  1.973332321E+01  0.000000000E+00  0.00000E+00  9.000E+00
      21    -1     0     0   502   503  0.000000000E+00  0.000000000E+00 -8.916384021E+02  8.916384021E+02  0.000000000E+00  0.00000E+00  9.000E+00
      25     1     1     2     0     0 -1.478785760E+01 -1.253946004E+01 -8.394798404E+02  8.489567342E+02  1.250008614E+02  0.00000E+00  9.000E+00
       5     1     1     2   501     0 -2.379754998E+00  1.552175735E+00  1.023449856E+01  1.163528874E+01  4.750000000E+00  0.00000E+00  9.000E+00
      -5     1     1     2     0   503  8.622132631E+00  1.478853060E+01 -3.198330723E+01  3.658601167E+01  4.750000000E+00  0.00000E+00  9.000E+00
      21     1     1     2   502   512  8.545479967E+00 -3.801246301E+00 -1.067642983E+01  1.419369068E+01  2.064765462E-07  0.00000E+00  9.000E+00
#rwgt            1           9  -1.4645110423519103E-005           1      726794           0
</event>
<event>
      6   9999  3.45752E-01  5.47348E+00 -1.00000E+00  2.19769E-01
      21    -1     0     0   501   511  0.000000000E+00  0.000000000E+00  1.819244403E+02  1.819244403E+02  0.000000000E+00  0.00000E+00  9.000E+00
      21    -1     0     0   502   503  0.000000000E+00  0.000000000E+00 -1.669855287E+03  1.669855287E+03  0.000000000E+00  0.00000E+00  9.000E+00
      25     1     1     2     0     0 -1.791544188E+02  1.441512418E+02 -4.943300570E+02  5.593423675E+02  1.250031700E+02  0.00000E+00  9.000E+00
       5     1     1     2   501     0  3.283068241E+00  8.380810942E-01  5.648377233E+01  5.678432842E+01  4.750000000E+00  0.00000E+00  9.000E+00
      -5     1     1     2     0   503  1.810986625E+02 -1.433663046E+02 -1.131100245E+03  1.154452662E+03  4.750000000E+00  0.00000E+00  9.000E+00
      21     1     1     2   502   511 -5.227311946E+00 -1.623018349E+00  8.101568324E+01  8.120036890E+01  1.348699152E-06  0.00000E+00  9.000E+00
#rwgt            1           9   4.5553553647608829E-004           1      729873           0
</event>
<event>
      6   9999  3.45752E-01  1.87595E+01 -1.00000E+00  1.62362E-01
      21    -1     0     0   501   502  0.000000000E+00  0.000000000E+00  3.118416071E+01  3.118416071E+01  0.000000000E+00  0.00000E+00  9.000E+00
      21    -1     0     0   512   503  0.000000000E+00  0.000000000E+00 -1.162887948E+03  1.162887948E+03  0.000000000E+00  0.00000E+00  9.000E+00
      25     1     1     2     0     0  8.983362025E+01 -6.383126476E+01 -6.833551887E+02  7.033805388E+02  1.250014347E+02  0.00000E+00  9.000E+00
       5     1     1     2   501     0  2.230540256E+00  1.320576645E+00  1.403728836E+01  1.504417485E+01  4.750000000E+00  0.00000E+00  9.000E+00
      -5     1     1     2     0   503 -7.753855961E+01  5.063948174E+01 -3.893800512E+02  4.002698741E+02  4.750000000E+00  0.00000E+00  9.000E+00
      21     1     1     2   512   502 -1.452560090E+01  1.187120638E+01 -7.300583591E+01  7.537752118E+01  0.000000000E+00  0.00000E+00  9.000E+00
#rwgt            1           9   1.0491161093740023E-002           1      736815           0
</event>
<event>
      6   9999  3.45752E-01  6.09051E+00 -1.00000E+00  2.13156E-01
      21    -1     0     0   501   502  0.000000000E+00  0.000000000E+00  1.930726033E+02  1.930726033E+02  0.000000000E+00  0.00000E+00  9.000E+00
      21    -1     0     0   502   511  0.000000000E+00  0.000000000E+00 -1.001806876E+02  1.001806876E+02  0.000000000E+00  0.00000E+00  9.000E+00
      25     1     1     2     0     0 -6.201309300E+00 -2.744259842E+00 -4.493979633E+01  1.330058530E+02  1.249999378E+02  0.00000E+00  9.000E+00
       5     1     1     2   501     0  5.747922459E+00 -3.171927880E+00  1.447109505E+02  1.449376467E+02  4.750000000E+00  0.00000E+00  9.000E+00
      -5     1     1     2     0   503  2.230206401E+00  9.062225405E-02  1.008509194E+00  5.344307605E+00  4.750000000E+00  0.00000E+00  9.000E+00
      21     1     1     2   503   511 -1.776819559E+00  5.825565469E+00 -7.887747679E+00  9.965483642E+00  0.000000000E+00  0.00000E+00  9.000E+00
#rwgt            1           9   1.5044779674929540E-004           1      739319           0
</event>
<event>
      6   9999  3.45752E-01  5.21900E+00 -1.00000E+00  2.22857E-01
      21    -1     0     0   501   502  0.000000000E+00  0.000000000E+00  8.247934607E+00  8.247934607E+00  0.000000000E+00  0.00000E+00  9.000E+00
      21    -1     0     0   512   503  0.000000000E+00  0.000000000E+00 -8.876518631E+02  8.876518631E+02  0.000000000E+00  0.00000E+00  9.000E+00
      25     1     1     2     0     0  1.218012170E+01 -7.028993495E+00 -6.342733767E+02  6.466257583E+02  1.249975710E+02  0.00000E+00  9.000E+00
       5     1     1     2   501     0 -6.921390158E+00  8.501388999E+00 -2.049041130E+01  2.371916339E+01  4.750000000E+00  0.00000E+00  9.000E+00
      -5     1     1     2     0   503 -1.043433611E+01 -2.144052570E+00 -8.265520915E+01  8.347405843E+01  4.750000000E+00  0.00000E+00  9.000E+00
      21     1     1     2   512   502  5.175604574E+00  6.716570650E-01 -1.419849314E+02  1.420808176E+02  1.907348633E-06  0.00000E+00  9.000E+00
#rwgt            1           9   35.472668240408233                1      743723           0
</event>
<event>
      6   9999  3.45752E-01  1.10143E+01 -1.00000E+00  1.82880E-01
      21    -1     0     0   511   502  0.000000000E+00  0.000000000E+00  3.938521823E+02  3.938521823E+02  0.000000000E+00  0.00000E+00  9.000E+00
      21    -1     0     0   502   503  0.000000000E+00  0.000000000E+00 -8.595802824E+02  8.595802824E+02  0.000000000E+00  0.00000E+00  9.000E+00
      25     1     1     2     0     0  6.607102291E+01 -7.521977049E+00  8.829271804E+01  1.664269301E+02  1.244200901E+02  0.00000E+00  9.000E+00
       5     1     1     2   501     0 -2.438107448E+00  1.907330669E+01  2.559437891E+02  2.567090202E+02  4.750000000E+00  0.00000E+00  9.000E+00
      -5     1     1     2     0   503 -5.267222371E+01 -1.046545213E+01 -8.159715783E+02  8.177506148E+02  4.750000000E+00  0.00000E+00  9.000E+00
      21     1     1     2   511   501 -1.096069176E+01 -1.085877509E+00  6.006971193E+00  1.254589960E+01  1.460009660E-07  0.00000E+00  9.000E+00
#rwgt            1           9   1.3126195771071234                1      747456           0
</event>
<event>
      6   9999  3.45752E-01  1.10381E+01 -1.00000E+00  1.82786E-01
      21    -1     0     0   501   502  0.000000000E+00  0.000000000E+00  3.064474444E+01  3.064474444E+01  0.000000000E+00  0.00000E+00  9.000E+00
      21    -1     0     0   512   503  0.000000000E+00  0.000000000E+00 -1.375691951E+03  1.375691951E+03  0.000000000E+00  0.00000E+00  9.000E+00
      25     1     1     2     0     0 -1.304527361E+01  6.873001867E+00 -8.747925380E+02  8.838007691E+02  1.249975904E+02  0.00000E+00  9.000E+00
       5     1     1     2   501     0  2.503726928E+00  5.044756800E+00  2.538941403E+01  2.643677485E+01  4.750000000E+00  0.00000E+00  9.000E+00
      -5     1     1     2     0   503 -1.110628448E-01 -9.025974580E+00 -2.322553072E+02  2.324791835E+02  4.750000000E+00  0.00000E+00  9.000E+00
      21     1     1     2   512   502  1.065260953E+01 -2.891784087E+00 -2.633887754E+02  2.636199679E+02  0.000000000E+00  0.00000E+00  9.000E+00
#rwgt            1           9  0.23771091430111702                1      752686           0
</event>
<event>
      6   9999 -3.45752E-01  1.28267E+01 -1.00000E+00  1.76481E-01
      21    -1     0     0   501   511  0.000000000E+00  0.000000000E+00  6.113054475E+01  6.113054475E+01  0.000000000E+00  0.00000E+00  9.000E+00
      21    -1     0     0   502   503  0.000000000E+00  0.000000000E+00 -1.504683726E+03  1.504683726E+03  0.000000000E+00  0.00000E+00  9.000E+00
      25     1     1     2     0     0 -1.577222110E+01 -8.124806855E+01 -1.363231695E+03  1.371461085E+03  1.251193047E+02  0.00000E+00  9.000E+00
       5     1     1     2   501     0 -1.642015559E-01 -8.280114088E+00  3.719366288E+01  3.839945715E+01  4.750000000E+00  0.00000E+00  9.000E+00
      -5     1     1     2     0   503  7.481599755E+00  7.988251244E+01 -1.183934578E+02  1.430970422E+02  4.750000000E+00  0.00000E+00  9.000E+00
      21     1     1     2   502   511  8.454822904E+00  9.645670202E+00  8.783082706E-01  1.285668734E+01  5.591411304E-07  0.00000E+00  9.000E+00
#rwgt            1           9  -1.5790924192462190E-002           1      755830           0
</event>
<event>
      6   9999  3.45752E-01  7.80881E+00 -1.00000E+00  1.99267E-01
      21    -1     0     0   502   503  0.000000000E+00  0.000000000E+00  3.295383626E+02  3.295383626E+02  0.000000000E+00  0.00000E+00  9.000E+00
      21    -1     0     0   501   512  0.000000000E+00  0.000000000E+00 -7.648548399E+01  7.648548399E+01  0.000000000E+00  0.00000E+00  9.000E+00
      25     1     1     2     0     0 -5.601097886E-01 -8.076888383E+00  2.839947605E+02  3.103913678E+02  1.249969093E+02  0.00000E+00  9.000E+00
       5     1     1     2   501     0 -6.148357487E-01  5.630528054E-02  5.578058540E+00  7.352443836E+00  4.750000000E+00  0.00000E+00  9.000E+00
      -5     1     1     2     0   503  4.377964380E+00  8.989180682E-01  2.521926263E+01  2.604896032E+01  4.750000000E+00  0.00000E+00  9.000E+00
      21     1     1     2   502   512 -3.203018843E+00  7.121665034E+00 -6.173920314E+01  6.223107461E+01  1.168007728E-06  0.00000E+00  9.000E+00
#rwgt            1           9   311.44340041027999                1      759120           0
</event>
<event>
      6   9999  3.45752E-01  4.43997E+00 -1.00000E+00  2.38829E-01
      -1    -1     0     0     0   502  0.000000000E+00  0.000000000E+00  6.557939002E+01  6.557939002E+01  0.000000000E+00  0.00000E+00  9.000E+00
      21    -1     0     0   502   503  0.000000000E+00  0.000000000E+00 -8.994527606E+02  8.994527606E+02  0.000000000E+00  0.00000E+00  9.000E+00
      25     1     1     2     0     0  4.296015481E+00 -1.900821875E+00 -8.699028158E+02  8.788508590E+02  1.250034182E+02  0.00000E+00  9.000E+00
       5     1     1     2   501     0  1.211870465E+00 -2.633896537E+00  9.434064589E+00  1.095308704E+01  4.750000000E+00  0.00000E+00  9.000E+00
      -5     1     1     2     0   503 -1.186463687E+00  3.515591225E+00 -2.384387954E+01  2.459390512E+01  4.750000000E+00  0.00000E+00  9.000E+00
      -1     1     1     2     0   501 -4.321422259E+00  1.019127188E+00  5.043926019E+01  5.063429943E+01  1.507891493E-06  0.00000E+00  9.000E+00
#rwgt            1           9   1.2621483978604109E-004           1      761668           0
</event>
<event>
      6   9999  3.45752E-01  2.82767E+01 -1.00000E+00  1.49519E-01
      21    -1     0     0   511   503  0.000000000E+00  0.000000000E+00  1.227381935E+01  1.227381935E+01  0.000000000E+00  0.00000E+00  9.000E+00
      21    -1     0     0   501   502  0.000000000E+00  0.000000000E+00 -8.131265511E+02  8.131265511E+02  0.000000000E+00  0.00000E+00  9.000E+00
      25     1     1     2     0     0 -8.281881876E+00 -3.647989792E+01 -5.369230787E+02  5.525490620E+02  1.249988038E+02  0.00000E+00  9.000E+00
       5     1     1     2   501     0  1.501880765E+01  2.543285320E+00 -1.543764073E+02  1.551988096E+02  4.750000000E+00  0.00000E+00  9.000E+00
      -5     1     1     2     0   503 -9.949707564E-01  6.249066001E+00 -6.064023813E+01  6.115424575E+01  4.750000000E+00  0.00000E+00  9.000E+00
      21     1     1     2   511   502 -5.741955021E+00  2.768754660E+01 -4.891300758E+01  5.649825302E+01  6.743495762E-07  0.00000E+00  9.000E+00
#rwgt            1           9  0.46359880591475855                1      766301           0
</event>
<event>
      6   9999 -3.45752E-01  1.16512E+01 -1.00000E+00  1.80463E-01
      21    -1     0     0   501   502  0.000000000E+00  0.000000000E+00  2.990656400E+02  2.990656400E+02  0.000000000E+00  0.00000E+00  9.000E+00
       2    -1     0     0   502     0  0.000000000E+00  0.000000000E+00 -1.652429418E+03  1.652429418E+03  0.000000000E+00  0.00000E+00  9.000E+00
      25     1     1     2     0     0 -2.060435275E+00  1.004787353E+01  2.148462718E+02  2.487737319E+02  1.249969760E+02  0.00000E+00  9.000E+00
       5     1     1     2   501     0  4.936756946E-01  1.454595953E+00  5.944954605E+01  5.965878469E+01  4.750000000E+00  0.00000E+00  9.000E+00
      -5     1     1     2     0   503 -2.249907977E-01  1.016156134E-02  6.944671546E+00  8.416750383E+00  4.750000000E+00  0.00000E+00  9.000E+00
       2     1     1     2   503     0  1.791750378E+00 -1.151263104E+01 -1.634604267E+03  1.634645791E+03  2.157918644E-05  0.00000E+00  9.000E+00
#rwgt            1           9  -1.1384612951154760E-003           1      767042           0
</event>
<event>
      6   9999  3.45752E-01  1.16041E+01 -1.00000E+00  1.80635E-01
      21    -1     0     0   501   502  0.000000000E+00  0.000000000E+00  1.033088257E+02  1.033088257E+02  0.000000000E+00  0.00000E+00  9.000E+00
       1    -1     0     0   502     0  0.000000000E+00  0.000000000E+00 -2.514882579E+03  2.514882579E+03  0.000000000E+00  0.00000E+00  9.000E+00
      25     1     1     2     0     0 -4.926972271E+01 -2.261190319E+01 -9.759294908E+00  1.365897831E+02  1.249908847E+02  0.00000E+00  9.000E+00
       5     1     1     2   501     0  2.122082873E+00 -7.510870302E-01  3.687032618E+01  3.724313118E+01  4.750000000E+00  0.00000E+00  9.000E+00
      -5     1     1     2     0   503  4.591608766E+01  3.490157361E+01 -2.939515374E+02  2.995938513E+02  4.750000000E+00  0.00000E+00  9.000E+00
       1     1     1     2   503     0  1.231552181E+00 -1.153858339E+01 -2.144733247E+03  2.144764639E+03  4.315837288E-05  0.00000E+00  9.000E+00
#rwgt            1           9   2.5137870411570706E-004           1      769300           0
</event>
<event>
      6   9999  3.45752E-01  1.09527E+01 -1.00000E+00  1.83124E-01
      21    -1     0     0   501   502  0.000000000E+00  0.000000000E+00  2.854917060E+03  2.854917060E+03  0.000000000E+00  0.00000E+00  9.000E+00
      21    -1     0     0   511   503  0.000000000E+00  0.000000000E+00 -8.006215568E+01  8.006215568E+01  0.000000000E+00  0.00000E+00  9.000E+00
      25     1     1     2     0     0 -7.854239516E+00  9.486727409E+00  1.124399111E+03  1.131393898E+03  1.250084152E+02  0.00000E+00  9.000E+00
       5     1     1     2   501     0 -2.246842334E+00  3.796028467E+00  1.707923100E+03  1.707935401E+03  4.750000000E+00  0.00000E+00  9.000E+00
      -5     1     1     2     0   503 -7.796911555E-01 -1.453630836E+01  1.554526082E+01  2.182039901E+01  4.750000000E+00  0.00000E+00  9.000E+00
      21     1     1     2   511   502  1.088077301E+01  1.253552483E+00 -7.301256751E+01  7.382951733E+01  3.932099939E-06  0.00000E+00  9.000E+00
#rwgt            1           9   1.5228096874829062                1      772468           0
</event>
<event>
      6   9999  3.45752E-01  6.38598E+00 -1.00000E+00  2.10355E-01
      21    -1     0     0   512   502  0.000000000E+00  0.000000000E+00  1.636766094E+01  1.636766094E+01  0.000000000E+00  0.00000E+00  9.000E+00
      21    -1     0     0   502   503  0.000000000E+00  0.000000000E+00 -1.149744453E+03  1.149744453E+03  0.000000000E+00  0.00000E+00  9.000E+00
      25     1     1     2     0     0  3.028857117E+01 -7.803406033E+00 -1.041671275E+03  1.049610820E+03  1.250021465E+02  0.00000E+00  9.000E+00
       5     1     1     2   501     0  3.431147096E+00 -3.139780534E+00  5.976576426E+00  8.939404789E+00  4.750000000E+00  0.00000E+00  9.000E+00
      -5     1     1     2     0   503 -3.140943433E+01  4.989756598E+00 -9.557156392E+01  1.008361868E+02  4.750000000E+00  0.00000E+00  9.000E+00
      21     1     1     2   512   501 -2.310283941E+00  5.953429968E+00 -2.110529197E+00  6.725702474E+00  1.032382731E-07  0.00000E+00  9.000E+00
#rwgt            1           9   22.310159997097500                1      775253           0
</event>
<event>
      6   9999  3.45752E-01  1.62030E+01 -1.00000E+00  1.67518E-01
      21    -1     0     0   501   511  0.000000000E+00  0.000000000E+00  3.158874935E+01  3.158874935E+01  0.000000000E+00  0.00000E+00  9.000E+00
      21    -1     0     0   502   503  0.000000000E+00  0.000000000E+00 -1.167624282E+03  1.167624282E+03  0.000000000E+00  0.00000E+00  9.000E+00
      25     1     1     2     0     0 -2.437590613E+01  1.193065862E+01 -9.688481233E+02  9.772555549E+02  1.250008327E+02  0.00000E+00  9.000E+00
       5     1     1     2   501     0 -1.278397328E+00  1.065270043E+01  2.208633276E+01  2.500965655E+01  4.750000000E+00  0.00000E+00  9.000E+00
      -5     1     1     2     0   503  3.541235751E+01 -9.648249095E+00 -1.492174641E+02  1.537385374E+02  4.750000000E+00  0.00000E+00  9.000E+00
      21     1     1     2   502   511 -9.758054048E+00 -1.293510995E+01 -4.005627774E+01  4.320928227E+01  6.743495762E-07  0.00000E+00  9.000E+00
#rwgt            1           9   1.6989083881767931E-004           1      778839           0
</event>
<event>
      6   9999  3.45752E-01  1.91366E+01 -1.00000E+00  1.61687E-01
      21    -1     0     0   501   512  0.000000000E+00  0.000000000E+00  5.028986877E+01  5.028986877E+01  0.000000000E+00  0.00000E+00  9.000E+00
      21    -1     0     0   502   503  0.000000000E+00  0.000000000E+00 -1.315840980E+03  1.315840980E+03  0.000000000E+00  0.00000E+00  9.000E+00
      25     1     1     2     0     0  3.284139762E+01 -7.407867184E+00 -2.685163098E+02  2.980929085E+02  1.249997582E+02  0.00000E+00  9.000E+00
       5     1     1     2   501     0  2.384565986E+00  6.804186735E-01  3.070187472E+01  3.116595475E+01  4.750000000E+00  0.00000E+00  9.000E+00
      -5     1     1     2     0   503 -2.637593193E+01 -1.023981329E+01 -1.011122645E+03  1.011529589E+03  4.750000000E+00  0.00000E+00  9.000E+00
      21     1     1     2   502   512 -8.850031671E+00  1.696726180E+01 -1.661403098E+01  2.534239648E+01  7.152557373E-07  0.00000E+00  9.000E+00
#rwgt            1           9   5.4306089814352527E-005           1      781250           0
</event>
<event>
      6   9999  3.45752E-01  2.45902E+01 -1.00000E+00  1.53650E-01
      21    -1     0     0   511   502  0.000000000E+00  0.000000000E+00  4.201982535E+02  4.201982535E+02  0.000000000E+00  0.00000E+00  9.000E+00
      21    -1     0     0   502   503  0.000000000E+00  0.000000000E+00 -8.914383933E+01  8.914383933E+01  0.000000000E+00  0.00000E+00  9.000E+00
      25     1     1     2     0     0  1.914729860E+00  1.296645005E-01 -3.306372784E+01  1.293149410E+02  1.250018434E+02  0.00000E+00  9.000E+00
       5     1     1     2   501     0 -4.173212892E+00  1.489893838E+00  7.147577906E+00  9.658460510E+00  4.750000000E+00  0.00000E+00  9.000E+00
      -5     1     1     2     0   503 -2.174802981E+01 -6.945273985E+00  1.546982244E+01  2.798377275E+01  4.750000000E+00  0.00000E+00  9.000E+00
      21     1     1     2   511   501  2.400651284E+01  5.325715646E+00  3.415007416E+02  3.423849186E+02  3.814697266E-06  0.00000E+00  9.000E+00
#rwgt            1           9   5.3487039473036852E-004           1      783391           0
</event>
<event>
      6   9999  3.45752E-01  1.68831E+01 -1.00000E+00  1.66037E-01
      21    -1     0     0   501   502  0.000000000E+00  0.000000000E+00  2.124689093E+02  2.124689093E+02  0.000000000E+00  0.00000E+00  9.000E+00
      21    -1     0     0   502   512  0.000000000E+00  0.000000000E+00 -2.379998939E+02  2.379998939E+02  0.000000000E+00  0.00000E+00  9.000E+00
      25     1     1     2     0     0  6.715761753E+00 -7.722092059E+00  9.468982914E+01  1.571448962E+02  1.249944899E+02  0.00000E+00  9.000E+00
       5     1     1     2   501     0  2.835178009E+00 -1.716444306E-01  4.833214604E+01  4.864798595E+01  4.750000000E+00  0.00000E+00  9.000E+00
      -5     1     1     2     0   503  7.215155968E+00  9.877730530E+00  3.657327049E+01  3.885607611E+01  4.750000000E+00  0.00000E+00  9.000E+00
      21     1     1     2   503   512 -1.676609573E+01 -1.983994039E+00 -2.051262302E+02  2.058198448E+02  0.000000000E+00  0.00000E+00  9.000E+00
#rwgt            1           9   2.4789440294249265E-004           1      784486           0
</event>
<event>
      6   9999  3.45752E-01  9.56675E+00 -1.00000E+00  1.89243E-01
      21    -1     0     0   501   511  0.000000000E+00  0.000000000E+00  8.940732117E+01  8.940732117E+01  0.000000000E+00  0.00000E+00  9.000E+00
      21    -1     0     0   502   503  0.000000000E+00  0.000000000E+00 -8.589814240E+02  8.589814240E+02  0.000000000E+00  0.00000E+00  9.000E+00
      25     1     1     2     0     0 -5.674594331E+00 -1.685315873E+00 -8.102652131E+02  8.198718382E+02  1.250002965E+02  0.00000E+00  9.000E+00
       5     1     1     2   501     0 -1.704857976E-01  4.105463155E+00  6.958896209E+00  9.374040195E+00  4.750000000E+00  0.00000E+00  9.000E+00
      -5     1     1     2     0   503 -2.249282460E+00  2.679269658E+00 -4.220001729E+01  4.261034753E+01  4.750000000E+00  0.00000E+00  9.000E+00
      21     1     1     2   502   511  8.094362588E+00 -5.099416940E+00  7.593223133E+01  7.653251932E+01  2.336015456E-06  0.00000E+00  9.000E+00
#rwgt            1           9   1.8512835668315443E-002           1      786076           0
</event>
<event>
      6   9999  3.45752E-01  1.14943E+01 -1.00000E+00  1.81040E-01
      21    -1     0     0   501   512  0.000000000E+00  0.000000000E+00  3.226535386E+01  3.226535386E+01  0.000000000E+00  0.00000E+00  9.000E+00
      21    -1     0     0   502   503  0.000000000E+00  0.000000000E+00 -8.105630560E+02  8.105630560E+02  0.000000000E+00  0.00000E+00  9.000E+00
      25     1     1     2     0     0  1.744658293E+01  7.401190400E+00 -7.496185085E+02  7.602054176E+02  1.250008311E+02  0.00000E+00  9.000E+00
       5     1     1     2   501     0 -3.858525307E-01  2.816713893E-02 -1.154013819E+01  1.248547015E+01  4.750000000E+00  0.00000E+00  9.000E+00
      -5     1     1     2     0   503 -2.775644079E+01 -3.219879973E+00 -3.734994282E+01  4.688676105E+01  4.750000000E+00  0.00000E+00  9.000E+00
      21     1     1     2   502   512  1.069571039E+01 -4.209477567E+00  2.021088736E+01  2.325076107E+01  0.000000000E+00  0.00000E+00  9.000E+00
#rwgt            1           9   4.5428677018053134E-003           1      789380           0
</event>
<event>
      6   9999  3.45752E-01  6.17902E+00 -1.00000E+00  2.12295E-01
      21    -1     0     0   511   503  0.000000000E+00  0.000000000E+00  1.696630570E+01  1.696630570E+01  0.000000000E+00  0.00000E+00  9.000E+00
      21    -1     0     0   501   502  0.000000000E+00  0.000000000E+00 -9.056667091E+02  9.056667091E+02  0.000000000E+00  0.00000E+00  9.000E+00
      25     1     1     2     0     0  2.013079746E+00  2.734303016E+01 -8.569118357E+02  8.664141454E+02  1.249955332E+02  0.00000E+00  9.000E+00
       5     1     1     2   501     0 -7.112139462E+00 -9.595341782E+00 -2.351936721E+00  1.306702789E+01  4.750000000E+00  0.00000E+00  9.000E+00
      -5     1     1     2     0   503  7.174857250E+00 -1.192777685E+01 -3.292180555E+01  3.605770678E+01  4.750000000E+00  0.00000E+00  9.000E+00
      21     1     1     2   511   502 -2.075797533E+00 -5.819911527E+00  3.485174614E+00  7.094134738E+00  2.528810911E-07  0.00000E+00  9.000E+00
#rwgt            1           9   4.8910698668033051E-006           1      791799           0
</event>
<event>
      6   9999  3.45752E-01  1.74046E+01 -1.00000E+00  1.64959E-01
      21    -1     0     0   501   502  0.000000000E+00  0.000000000E+00  1.543376288E+03  1.543376288E+03  0.000000000E+00  0.00000E+00  9.000E+00
      21    -1     0     0   502   512  0.000000000E+00  0.000000000E+00 -1.504718548E+03  1.504718548E+03  0.000000000E+00  0.00000E+00  9.000E+00
      25     1     1     2     0     0 -2.585861282E+02 -1.961623506E+02  9.234194279E+02  9.867497662E+02  1.250008307E+02  0.00000E+00  9.000E+00
       5     1     1     2   501     0 -8.479096842E-01  2.706292804E-01  5.629041165E+01  5.649747902E+01  4.750000000E+00  0.00000E+00  9.000E+00
      -5     1     1     2     0   503  2.489776609E+02  2.098051239E+02  4.820035431E+02  5.816855197E+02  4.750000000E+00  0.00000E+00  9.000E+00
      21     1     1     2   503   512  1.045637695E+01 -1.391340267E+01 -1.423055643E+03  1.423162072E+03  3.051757812E-05  0.00000E+00  9.000E+00
#rwgt            1           9   1.6889422798512251E-004           1      796726           0
</event>
<event>
      6   9999  3.45752E-01  1.16996E+01 -1.00000E+00  1.80288E-01
      21    -1     0     0   501   511  0.000000000E+00  0.000000000E+00  4.098434626E+02  4.098434626E+02  0.000000000E+00  0.00000E+00  9.000E+00
      21    -1     0     0   502   503  0.000000000E+00  0.000000000E+00 -6.726922906E+02  6.726922906E+02  0.000000000E+00  0.00000E+00  9.000E+00
      25     1     1     2     0     0  1.495354828E+01 -4.346799012E+00 -6.481592784E+02  6.602861044E+02  1.249991445E+02  0.00000E+00  9.000E+00
       5     1     1     2   501     0  7.356479287E-01 -1.239839508E+00 -2.534224145E+00  5.573434480E+00  4.750000000E+00  0.00000E+00  9.000E+00
      -5     1     1     2     0   503 -6.109533738E+00 -1.129890620E+00 -1.326341931E+01  1.539752730E+01  4.750000000E+00  0.00000E+00  9.000E+00
      21     1     1     2   502   511 -9.579662467E+00  6.716529140E+00  4.011080939E+02  4.012786871E+02  5.394796609E-06  0.00000E+00  9.000E+00
#rwgt            1           9   5.1149208936482240E-004           1      799948           0
</event>
<event>
      6   9999  3.45752E-01  5.44239E+00 -1.00000E+00  2.20134E-01
      21    -1     0     0   512   502  0.000000000E+00  0.000000000E+00  3.909170999E+02  3.909170999E+02  0.000000000E+00  0.00000E+00  9.000E+00
      21    -1     0     0   502   503  0.000000000E+00  0.000000000E+00 -9.671210204E+01  9.671210204E+01  0.000000000E+00  0.00000E+00  9.000E+00
      25     1     1     2     0     0  4.191051829E+00 -2.023112356E+01 -4.759086738E+01  1.353408181E+02  1.250015325E+02  0.00000E+00  9.000E+00
       5     1     1     2   501     0 -8.493304249E-01  7.354682324E-01  1.564164349E+01  1.638553590E+01  4.750000000E+00  0.00000E+00  9.000E+00
      -5     1     1     2     0   503 -8.766777708E+00  1.992973606E+01  2.074818987E+01  3.044832761E+01  4.750000000E+00  0.00000E+00  9.000E+00
      21     1     1     2   512   501  5.425056303E+00 -4.340807397E-01  3.054060319E+02  3.054545203E+02  3.814697266E-06  0.00000E+00  9.000E+00
#rwgt            1           9   2.0353398961108784E-004           1      802772           0
</event>
<event>
      6   9999  3.45752E-01  7.24425E+00 -1.00000E+00  2.03258E-01
      21    -1     0     0   501   511  0.000000000E+00  0.000000000E+00  7.052552017E+01  7.052552017E+01  0.000000000E+00  0.00000E+00  9.000E+00
      21    -1     0     0   502   503  0.000000000E+00  0.000000000E+00 -1.610689349E+02  1.610689349E+02  0.000000000E+00  0.00000E+00  9.000E+00
      25     1     1     2     0     0  3.704873492E+00  1.451708519E-01 -1.234469757E+02  1.757191183E+02  1.249972223E+02  0.00000E+00  9.000E+00
       5     1     1     2   501     0  2.160926600E+00  4.477552705E+00  3.791863926E+01  3.853704432E+01  4.750000000E+00  0.00000E+00  9.000E+00
      -5     1     1     2     0   503 -4.521349759E-01  1.909391505E-01 -8.149109491E+00  9.445177038E+00  4.750000000E+00  0.00000E+00  9.000E+00
      21     1     1     2   502   511 -5.413665116E+00 -4.813662707E+00  3.134031213E+00  7.893115373E+00  1.192092896E-07  0.00000E+00  9.000E+00
#rwgt            1           9   1.5905104743100557E-003           1      807077           0
</event>
<event>
      6   9999  3.45752E-01  7.42286E+00 -1.00000E+00  2.01945E-01
      21    -1     0     0   501   502  0.000000000E+00  0.000000000E+00  2.091939634E+01  2.091939634E+01  0.000000000E+00  0.00000E+00  9.000E+00
      21    -1     0     0   502   512  0.000000000E+00  0.000000000E+00 -1.010429807E+03  1.010429807E+03  0.000000000E+00  0.00000E+00  9.000E+00
      25     1     1     2     0     0 -9.633790560E+00 -1.027243310E+00 -9.463774258E+02  9.546455746E+02  1.249963040E+02  0.00000E+00  9.000E+00
       5     1     1     2   501     0 -2.734832989E+00  6.144978358E-01  1.538292896E+01  1.634178455E+01  4.750000000E+00  0.00000E+00  9.000E+00
      -5     1     1     2     0   503  4.950967983E+00  1.348948407E-01 -2.020847030E+01  2.134186151E+01  4.750000000E+00  0.00000E+00  9.000E+00
      21     1     1     2   503   512  7.417655566E+00  2.778506332E-01 -3.830744384E+01  3.901998294E+01  0.000000000E+00  0.00000E+00  9.000E+00
#rwgt            1           9   3.2287250959499769E-004           1      810404           0
</event>
<event>
      6   9999  3.45752E-01  1.26442E+02 -1.00000E+00  1.16259E-01
       4    -1     0     0   501     0  0.000000000E+00  0.000000000E+00  1.138629163E+02  1.138629163E+02  0.000000000E+00  0.00000E+00  9.000E+00
      21    -1     0     0   502   503  0.000000000E+00  0.000000000E+00 -1.501687219E+03  1.501687219E+03  0.000000000E+00  0.00000E+00  9.000E+00
      25     1     1     2     0     0 -1.410127268E+02 -9.172734380E+01 -1.934685357E+02  2.852252279E+02  1.249994466E+02  0.00000E+00  9.000E+00
       5     1     1     2   501     0  1.009913742E+02 -6.943044398E+01 -3.557121081E+02  3.762625554E+02  4.750000000E+00  0.00000E+00  9.000E+00
      -5     1     1     2     0   503 -5.518217462E+01  7.794815556E+01 -8.208192903E+02  8.263702906E+02  4.750000000E+00  0.00000E+00  9.000E+00
       4     1     1     2   502     0  9.520352723E+01  8.320963221E+01 -1.782436897E+01  1.276920617E+02  1.922192037E-06  0.00000E+00  9.000E+00
#rwgt            1           9   2.7281552358015609E-003           1      814276           0
</event>
<event>
      6   9999 -3.45752E-01  6.43152E+00 -1.00000E+00  2.09941E-01
      21    -1     0     0   511   503  0.000000000E+00  0.000000000E+00  1.948022498E+01  1.948022498E+01  0.000000000E+00  0.00000E+00  9.000E+00
      21    -1     0     0   501   502  0.000000000E+00  0.000000000E+00 -7.396845380E+02  7.396845380E+02  0.000000000E+00  0.00000E+00  9.000E+00
      25     1     1     2     0     0 -9.539548921E-01 -6.988746736E+00 -7.227631727E+02  7.335265481E+02  1.249993614E+02  0.00000E+00  9.000E+00
       5     1     1     2   501     0 -4.840175398E-02 -1.415093970E-02 -7.978278307E+00  9.285363090E+00  4.750000000E+00  0.00000E+00  9.000E+00
      -5     1     1     2     0   503  3.138453796E-01  6.083385914E-01  1.085119654E+00  4.920219449E+00  4.750000000E+00  0.00000E+00  9.000E+00
      21     1     1     2   511   502  6.885112665E-01  6.394559084E+00  9.452018280E+00  1.143263238E+01  4.616955931E-07  0.00000E+00  9.000E+00
#rwgt            1           9  -2.8601637017182374E-005           1      814847           0
</event>
<event>
      6   9999  3.45752E-01  2.32952E+01 -1.00000E+00  1.55314E-01
      21    -1     0     0   502   503  0.000000000E+00  0.000000000E+00  9.049451298E+00  9.049451298E+00  0.000000000E+00  0.00000E+00  9.000E+00
      21    -1     0     0   512   502  0.000000000E+00  0.000000000E+00 -8.654979339E+02  8.654979339E+02  0.000000000E+00  0.00000E+00  9.000E+00
      25     1     1     2     0     0 -1.742339241E+01 -9.891412628E+00 -5.071352046E+02  5.226971938E+02  1.249993040E+02  0.00000E+00  9.000E+00
       5     1     1     2   501     0 -1.481385058E+00  1.705950966E+00 -1.781014755E+02  1.781791313E+02  4.750000000E+00  0.00000E+00  9.000E+00
      -5     1     1     2     0   503 -2.013125040E+00 -2.066740916E+00 -4.331339686E+01  4.366848907E+01  4.750000000E+00  0.00000E+00  9.000E+00
      21     1     1     2   512   501  2.091790251E+01  1.025220258E+01 -1.278984056E+02  1.300025710E+02  0.000000000E+00  0.00000E+00  9.000E+00
#rwgt            1           9   1.1413553216883537E-004           1      818151           0
</event>
<event>
      6   9999  3.45752E-01  7.40178E+01 -1.00000E+00  1.26262E-01
      21    -1     0     0   501   511  0.000000000E+00  0.000000000E+00  2.481046192E+02  2.481046192E+02  0.000000000E+00  0.00000E+00  9.000E+00
      21    -1     0     0   502   503  0.000000000E+00  0.000000000E+00 -1.079068454E+03  1.079068454E+03  0.000000000E+00  0.00000E+00  9.000E+00
      25     1     1     2     0     0 -5.717749385E+01  9.185381356E+01 -8.113278404E+02  8.279969908E+02  1.249790513E+02  0.00000E+00  9.000E+00
       5     1     1     2   501     0 -9.268481351E+00 -8.637750271E+00 -5.711985692E+01  5.870056244E+01  4.750000000E+00  0.00000E+00  9.000E+00
      -5     1     1     2     0   503  1.067947894E+02 -2.116274613E+01 -1.801795541E+02  2.105711830E+02  4.750000000E+00  0.00000E+00  9.000E+00
      21     1     1     2   502   511 -4.034881422E+01 -6.205331716E+01  2.176634170E+02  2.299043368E+02  4.672030912E-06  0.00000E+00  9.000E+00
#rwgt            1           9   6.9148907050442687E-002           1      819186           0
</event>
<event>
      6   9999  3.45752E-01  1.11408E+01 -1.00000E+00  1.82384E-01
      21    -1     0     0   512   502  0.000000000E+00  0.000000000E+00  6.930720105E+01  6.930720105E+01  0.000000000E+00  0.00000E+00  9.000E+00
      21    -1     0     0   502   503  0.000000000E+00  0.000000000E+00 -1.133156288E+03  1.133156288E+03  0.000000000E+00  0.00000E+00  9.000E+00
      25     1     1     2     0     0  3.807685525E+00 -4.044218126E+00 -1.060448338E+03  1.067804482E+03  1.249995194E+02  0.00000E+00  9.000E+00
       5     1     1     2   501     0  7.741286694E+00  1.366328854E+00  2.599230843E+01  2.756731709E+01  4.750000000E+00  0.00000E+00  9.000E+00
      -5     1     1     2     0   503 -2.027427202E+00 -3.106282992E+00 -6.730624778E+01  6.757553511E+01  4.750000000E+00  0.00000E+00  9.000E+00
      21     1     1     2   512   501 -9.521545016E+00  5.784172264E+00  3.791319057E+01  3.951615476E+01  9.536743164E-07  0.00000E+00  9.000E+00
#rwgt            1           9   1.1979671590470560E-003           1      819727           0
</event>
<event>
      6   9999  3.45752E-01  4.66237E+00 -1.00000E+00  2.34836E-01
      21    -1     0     0   501   502  0.000000000E+00  0.000000000E+00  2.996100780E+01  2.996100780E+01  0.000000000E+00  0.00000E+00  9.000E+00
      21    -1     0     0   511   503  0.000000000E+00  0.000000000E+00 -1.152034209E+03  1.152034209E+03  0.000000000E+00  0.00000E+00  9.000E+00
      25     1     1     2     0     0  6.019556936E+01 -4.918626275E+01 -7.009392709E+02  7.162290431E+02  1.250015426E+02  0.00000E+00  9.000E+00
       5     1     1     2   501     0  9.427367981E-01 -1.657047231E+00  1.838314927E+01  1.908238023E+01  4.750000000E+00  0.00000E+00  9.000E+00
      -5     1     1     2     0   503 -5.755740591E+01  4.785753744E+01 -4.109511912E+02  4.177399226E+02  4.750000000E+00  0.00000E+00  9.000E+00
      21     1     1     2   511   502 -3.580900251E+00  2.985772536E+00 -2.856588845E+01  2.894387098E+01  3.371747881E-07  0.00000E+00  9.000E+00
#rwgt            1           9   5.2034969160549924E-004           1      822366           0
</event>
<event>
      6   9999  3.45752E-01  9.76528E+00 -1.00000E+00  1.88287E-01
      21    -1     0     0   501   512  0.000000000E+00  0.000000000E+00  1.910779130E+02  1.910779130E+02  0.000000000E+00  0.00000E+00  9.000E+00
      21    -1     0     0   502   503  0.000000000E+00  0.000000000E+00 -5.273976316E+02  5.273976316E+02  0.000000000E+00  0.00000E+00  9.000E+00
      25     1     1     2     0     0  5.297403132E+01 -2.188368924E+02 -3.182946155E+02  4.094298206E+02  1.250019291E+02  0.00000E+00  9.000E+00
       5     1     1     2   501     0  1.940640641E+00  2.547111098E+00  5.108736752E+01  5.140754304E+01  4.750000000E+00  0.00000E+00  9.000E+00
      -5     1     1     2     0   503 -6.311597859E+01  2.215906626E+02 -7.911898640E+01  2.436563666E+02  4.750000000E+00  0.00000E+00  9.000E+00
      21     1     1     2   502   512  8.201306635E+00 -5.300881292E+00  1.000651580E+01  1.398181431E+01  2.665600750E-07  0.00000E+00  9.000E+00
#rwgt            1           9   2.1159373197271662E-003           1      828015           0
</event>
<event>
      6   9999 -3.45752E-01  2.01282E+01 -1.00000E+00  1.59999E-01
      21    -1     0     0   501   502  0.000000000E+00  0.000000000E+00  7.690186368E+01  7.690186368E+01  0.000000000E+00  0.00000E+00  9.000E+00
      21    -1     0     0   511   503  0.000000000E+00  0.000000000E+00 -1.856019861E+03  1.856019861E+03  0.000000000E+00  0.00000E+00  9.000E+00
      25     1     1     2     0     0  1.284299232E+01 -1.253295259E+01 -1.450514265E+03  1.456001392E+03  1.250056119E+02  0.00000E+00  9.000E+00
       5     1     1     2   501     0 -1.327818953E+01 -5.905955496E+00  7.151302478E+01  7.312910392E+01  4.750000000E+00  0.00000E+00  9.000E+00
      -5     1     1     2     0   503 -4.379258188E+00 -1.104990432E+00 -5.212813582E+00  8.374654117E+00  4.750000000E+00  0.00000E+00  9.000E+00
      21     1     1     2   511   502  4.814455404E+00  1.954389852E+01 -3.949039441E+02  3.954165753E+02  5.394796609E-06  0.00000E+00  9.000E+00
#rwgt            1           9  -2.9480566445475948E-004           1      832285           0
</event>
<event>
      6   9999 -3.45752E-01  1.17440E+01 -1.00000E+00  1.80128E-01
      21    -1     0     0   501   502  0.000000000E+00  0.000000000E+00  4.833294077E+00  4.833294077E+00  0.000000000E+00  0.00000E+00  9.000E+00
      21    -1     0     0   512   503  0.000000000E+00  0.000000000E+00 -2.140105565E+03  2.140105565E+03  0.000000000E+00  0.00000E+00  9.000E+00
      25     1     1     2     0     0  2.228961610E+01 -7.455508702E+00 -1.826330648E+03  1.830753866E+03  1.249946852E+02  0.00000E+00  9.000E+00
       5     1     1     2   501     0  6.941386931E-01 -2.826074966E-01 -2.289628715E+00  5.326029964E+00  4.750000000E+00  0.00000E+00  9.000E+00
      -5     1     1     2     0   503 -1.528428676E+01 -1.129778617E+00 -6.606602757E+01  6.798653043E+01  4.750000000E+00  0.00000E+00  9.000E+00
      21     1     1     2   512   502 -7.699468033E+00  8.867894816E+00 -2.405859673E+02  2.408724331E+02  4.672030912E-06  0.00000E+00  9.000E+00
#rwgt            1           9  -5.4689809020239729E-004           1      835175           0
</event>
<event>
      6   9999 -3.45752E-01  1.36158E+01 -1.00000E+00  1.74098E-01
      21    -1     0     0   501   511  0.000000000E+00  0.000000000E+00  1.588519292E+02  1.588519292E+02  0.000000000E+00  0.00000E+00  9.000E+00
      21    -1     0     0   502   503  0.000000000E+00  0.000000000E+00 -8.812138581E+02  8.812138581E+02  0.000000000E+00  0.00000E+00  9.000E+00
      25     1     1     2     0     0 -4.695009229E-01 -3.887159105E+01 -7.969022657E+02  8.075827278E+02  1.250016802E+02  0.00000E+00  9.000E+00
       5     1     1     2   501     0 -2.096110007E+00 -4.069501404E+00  3.874624028E+00  7.650472547E+00  4.750000000E+00  0.00000E+00  9.000E+00
      -5     1     1     2     0   503  1.556793196E+00  2.936276109E+01 -7.387423500E+01  7.965274911E+01  4.750000000E+00  0.00000E+00  9.000E+00
      21     1     1     2   502   511  1.008817733E+00  1.357833137E+01  1.445399479E+02  1.451798379E+02  4.672030912E-06  0.00000E+00  9.000E+00
#rwgt            1           9  -3.1705332655137058E-003           1      837046           0
</event>
<event>
      6   9999 -3.45752E-01  1.35333E+01 -1.00000E+00  1.74337E-01
      21    -1     0     0   502   503  0.000000000E+00  0.000000000E+00  7.709346340E+00  7.709346340E+00  0.000000000E+00  0.00000E+00  9.000E+00
       2    -1     0     0   501     0  0.000000000E+00  0.000000000E+00 -1.712669743E+03  1.712669743E+03  0.000000000E+00  0.00000E+00  9.000E+00
      25     1     1     2     0     0 -1.726265625E+01  1.118620603E+01 -6.734163273E+02  6.852280937E+02  1.249994402E+02  0.00000E+00  9.000E+00
       5     1     1     2   501     0  2.103379896E+00  2.564995251E+00 -1.752885918E+01  1.846149538E+01  4.750000000E+00  0.00000E+00  9.000E+00
      -5     1     1     2     0   503  1.059843821E+01 -1.009526009E+00 -2.503068443E+01  2.761238306E+01  4.750000000E+00  0.00000E+00  9.000E+00
       2     1     1     2   502     0  4.560838139E+00 -1.274167527E+01 -9.889845260E+02  9.890771175E+02  1.078959322E-05  0.00000E+00  9.000E+00
#rwgt            1           9  -2.8517954302553468E-003           1      838919           0
</event>
<event>
      6   9999  3.45752E-01  8.31650E+00 -1.00000E+00  1.96041E-01
      21    -1     0     0   511   502  0.000000000E+00  0.000000000E+00  1.835261251E+01  1.835261251E+01  0.000000000E+00  0.00000E+00  9.000E+00
      21    -1     0     0   502   503  0.000000000E+00  0.000000000E+00 -9.339785093E+02  9.339785093E+02  0.000000000E+00  0.00000E+00  9.000E+00
      25     1     1     2     0     0  2.224366671E+01 -2.217255383E+01 -6.652384061E+02  6.776096251E+02  1.250050571E+02  0.00000E+00  9.000E+00
       5     1     1     2   501     0 -7.844073432E-01  1.641055313E+00  8.282007129E+00  9.719182039E+00  4.750000000E+00  0.00000E+00  9.000E+00
      -5     1     1     2     0   503 -2.799074229E+01  1.538330019E+01 -2.527254509E+02  2.547799906E+02  4.750000000E+00  0.00000E+00  9.000E+00
      21     1     1     2   511   501  6.531482917E+00  5.148198330E+00 -5.944047001E+00  1.022232409E+01  1.460009660E-07  0.00000E+00  9.000E+00
#rwgt            1           9   1.2246974526393284E-003           1      840785           0
</event>
<event>
      6   9999  3.45752E-01  3.70639E+00 -1.00000E+00  2.54908E-01
      21    -1     0     0   512   502  0.000000000E+00  0.000000000E+00  3.243390556E+02  3.243390556E+02  0.000000000E+00  0.00000E+00  9.000E+00
      21    -1     0     0   502   503  0.000000000E+00  0.000000000E+00 -2.233397599E+02  2.233397599E+02  0.000000000E+00  0.00000E+00  9.000E+00
      25     1     1     2     0     0  7.359021613E+01  7.004217397E+00 -1.255280448E+02  1.919555538E+02  1.250002625E+02  0.00000E+00  9.000E+00
       5     1     1     2   501     0 -1.098969506E+00 -2.352649392E+00  9.431691261E+01  9.447213980E+01  4.750000000E+00  0.00000E+00  9.000E+00
      -5     1     1     2     0   503 -7.196883631E+01 -8.320952880E+00 -4.406969135E+01  8.493204256E+01  4.750000000E+00  0.00000E+00  9.000E+00
      21     1     1     2   512   501 -5.224103075E-01  3.669384875E+00  1.762801193E+02  1.763190794E+02  1.907348633E-06  0.00000E+00  9.000E+00
#rwgt            1           9   84.116127233220666                1      843735           0
</event>
<event>
      6   9999 -3.45752E-01  1.10710E+01 -1.00000E+00  1.82656E-01
      21    -1     0     0   501   502  0.000000000E+00  0.000000000E+00  1.915510703E+01  1.915510703E+01  0.000000000E+00  0.00000E+00  9.000E+00
      21    -1     0     0   502   511  0.000000000E+00  0.000000000E+00 -1.102528236E+03  1.102528236E+03  0.000000000E+00  0.00000E+00  9.000E+00
      25     1     1     2     0     0  1.901115347E+01 -9.739136819E+00 -7.324887912E+02  7.433848980E+02  1.250000103E+02  0.00000E+00  9.000E+00
       5     1     1     2   501     0 -9.116455503E-01  8.683665945E-01  1.265020765E+01  1.357112419E+01  4.750000000E+00  0.00000E+00  9.000E+00
      -5     1     1     2     0   503 -1.763552458E+01 -2.190505334E+00 -2.307772503E+02  2.315092045E+02  4.750000000E+00  0.00000E+00  9.000E+00
      21     1     1     2   503   511 -4.639833445E-01  1.106127556E+01 -1.327572955E+02  1.332181167E+02  0.000000000E+00  0.00000E+00  9.000E+00
#rwgt            1           9  -5.8410050331873252E-006           1      850509           0
</event>
<event>
      6   9999  3.45752E-01  4.85807E+01 -1.00000E+00  1.35460E-01
      21    -1     0     0   512   502  0.000000000E+00  0.000000000E+00  1.410935419E+01  1.410935419E+01  0.000000000E+00  0.00000E+00  9.000E+00
      21    -1     0     0   502   503  0.000000000E+00  0.000000000E+00 -9.161537826E+02  9.161537826E+02  0.000000000E+00  0.00000E+00  9.000E+00
      25     1     1     2     0     0  1.009073516E+01  2.617142939E+01 -5.755340022E+02  5.896202265E+02  1.250034286E+02  0.00000E+00  9.000E+00
       5     1     1     2   501     0  4.481019120E+00 -3.857791719E+00 -9.894208387E+00  1.246675374E+01  4.750000000E+00  0.00000E+00  9.000E+00
      -5     1     1     2     0   503  1.575060072E+01  1.564217399E+01 -2.074492661E+02  2.086876123E+02  4.750000000E+00  0.00000E+00  9.000E+00
      21     1     1     2   512   501 -3.032235500E+01 -3.795581166E+01 -1.091669518E+02  1.194885443E+02  1.348699152E-06  0.00000E+00  9.000E+00
#rwgt            1           9   3.3205810906333635E-002           1      853431           0
</event>
<event>
      6   9999  3.45752E-01  9.43044E+00 -1.00000E+00  1.89917E-01
       3    -1     0     0   501     0  0.000000000E+00  0.000000000E+00  4.413681760E+02  4.413681760E+02  0.000000000E+00  0.00000E+00  9.000E+00
      21    -1     0     0   502   503  0.000000000E+00  0.000000000E+00 -1.088789101E+03  1.088789101E+03  0.000000000E+00  0.00000E+00  9.000E+00
      25     1     1     2     0     0 -6.926854557E+01 -7.752612695E+01 -7.404537276E+02  7.580933525E+02  1.250015064E+02  0.00000E+00  9.000E+00
       5     1     1     2   501     0 -7.916509366E+00  1.064303759E+00  1.786539363E+01  2.013799028E+01  4.750000000E+00  0.00000E+00  9.000E+00
      -5     1     1     2     0   503  6.784785410E+01  7.778467411E+01 -3.304353192E+02  3.462135894E+02  4.750000000E+00  0.00000E+00  9.000E+00
       3     1     1     2   502     0  9.337200830E+00 -1.322850921E+00  4.056027284E+02  4.057123446E+02  5.394796609E-06  0.00000E+00  9.000E+00
#rwgt            1           9   1.1107260895364734E-004           1      854288           0
</event>
<event>
      6   9999  3.45752E-01  1.31503E+01 -1.00000E+00  1.75478E-01
      21    -1     0     0   511   503  0.000000000E+00  0.000000000E+00  2.439133523E+01  2.439133523E+01  0.000000000E+00  0.00000E+00  9.000E+00
      21    -1     0     0   501   502  0.000000000E+00  0.000000000E+00 -1.867798245E+03  1.867798245E+03  0.000000000E+00  0.00000E+00  9.000E+00
      25     1     1     2     0     0  1.416705495E+01  1.349931115E+02 -7.162065354E+02  7.395950474E+02  1.250007485E+02  0.00000E+00  9.000E+00
       5     1     1     2   501     0 -2.657726234E+01 -1.678731774E+02 -1.034427890E+03  1.048308817E+03  4.750000000E+00  0.00000E+00  9.000E+00
      -5     1     1     2     0   503  6.801015568E+00  2.098611451E+01 -8.707968632E+01  8.995612867E+01  4.750000000E+00  0.00000E+00  9.000E+00
      21     1     1     2   511   502  5.609191824E+00  1.189395146E+01 -5.692798410E+00  1.432958715E+01  2.528810911E-07  0.00000E+00  9.000E+00
#rwgt            1           9   9.7378721812669611E-004           1      857906           0
</event>
<event>
      6   9999  3.45752E-01  1.14089E+01 -1.00000E+00  1.81359E-01
      21    -1     0     0   512   502  0.000000000E+00  0.000000000E+00  5.298372353E+01  5.298372353E+01  0.000000000E+00  0.00000E+00  9.000E+00
      21    -1     0     0   502   503  0.000000000E+00  0.000000000E+00 -1.151427953E+02  1.151427953E+02  0.000000000E+00  0.00000E+00  9.000E+00
      25     1     1     2     0     0 -1.255883744E+01  6.127938391E+00 -6.639469515E+01  1.422238271E+02  1.249963417E+02  0.00000E+00  9.000E+00
       5     1     1     2   501     0 -3.635962189E-01  1.138084873E-01 -1.109303860E+00  4.892668968E+00  4.750000000E+00  0.00000E+00  9.000E+00
      -5     1     1     2     0   503  2.653447860E+00 -1.270772124E+00 -3.483435523E+00  6.584259288E+00  4.750000000E+00  0.00000E+00  9.000E+00
      21     1     1     2   512   501  1.026898580E+01 -4.970974754E+00  8.828362801E+00  1.442576338E+01  1.192092896E-07  0.00000E+00  9.000E+00
#rwgt            1           9   2.8380687403855767E-005           1      860703           0
</event>
<event>
      6   9999  3.45752E-01  6.62239E+00 -1.00000E+00  2.08256E-01
      21    -1     0     0   501   502  0.000000000E+00  0.000000000E+00  3.802806033E+00  3.802806033E+00  0.000000000E+00  0.00000E+00  9.000E+00
      21    -1     0     0   502   511  0.000000000E+00  0.000000000E+00 -2.004688408E+03  2.004688408E+03  0.000000000E+00  0.00000E+00  9.000E+00
      25     1     1     2     0     0 -1.908981017E+00  8.605045504E+00 -1.356631752E+03  1.362406928E+03  1.250009438E+02  0.00000E+00  9.000E+00
       5     1     1     2   501     0 -1.267985984E-01  1.618824753E+00 -7.071175016E+00  8.671832999E+00  4.750000000E+00  0.00000E+00  9.000E+00
      -5     1     1     2     0   503  2.417391233E+00 -3.612484321E+00 -5.219054599E+02  5.219451747E+02  4.750000000E+00  0.00000E+00  9.000E+00
      21     1     1     2   503   511 -3.816116179E-01 -6.611385937E+00 -1.152772145E+02  1.154672778E+02  2.336015456E-06  0.00000E+00  9.000E+00
#rwgt            1           9   3.4124713701155461E-002           1      862807           0
</event>
<event>
      6   9999 -3.45752E-01  2.66321E+01 -1.00000E+00  1.51263E-01
      21    -1     0     0   501   502  0.000000000E+00  0.000000000E+00  7.539678506E+01  7.539678506E+01  0.000000000E+00  0.00000E+00  9.000E+00
      21    -1     0     0   512   503  0.000000000E+00  0.000000000E+00 -1.633412179E+03  1.633412179E+03  0.000000000E+00  0.00000E+00  9.000E+00
      25     1     1     2     0     0  9.171248837E+00 -3.048271359E+01 -1.536837643E+03  1.542241249E+03  1.249992886E+02  0.00000E+00  9.000E+00
       5     1     1     2   501     0 -5.454007123E+00  8.523974541E-01  5.395389281E+01  5.444316141E+01  4.750000000E+00  0.00000E+00  9.000E+00
      -5     1     1     2     0   503 -2.346653951E+01  1.176316537E+01  5.475120109E+00  2.723214968E+01  4.750000000E+00  0.00000E+00  9.000E+00
      21     1     1     2   512   502  1.974929779E+01  1.786715076E+01 -8.060676381E+01  8.489240373E+01  0.000000000E+00  0.00000E+00  9.000E+00
#rwgt            1           9  -2.8283411347672236E-004           1      865873           0
</event>
<event>
      6   9999  3.45752E-01  2.35554E+01 -1.00000E+00  1.54969E-01
      21    -1     0     0   501   511  0.000000000E+00  0.000000000E+00  3.948282832E+01  3.948282832E+01  0.000000000E+00  0.00000E+00  9.000E+00
      21    -1     0     0   502   503  0.000000000E+00  0.000000000E+00 -1.246568958E+03  1.246568958E+03  0.000000000E+00  0.00000E+00  9.000E+00
      25     1     1     2     0     0  5.496233059E+01  9.282764330E+01 -1.089509706E+03  1.101950865E+03  1.250059178E+02  0.00000E+00  9.000E+00
       5     1     1     2   501     0 -1.575246638E+00  1.839129397E+00  1.058619754E+01  1.185301132E+01  4.750000000E+00  0.00000E+00  9.000E+00
      -5     1     1     2     0   503 -5.465685054E+01 -7.114561074E+01 -8.845403785E+01  1.260783429E+02  4.750000000E+00  0.00000E+00  9.000E+00
      21     1     1     2   502   511  1.269766588E+00 -2.352116196E+01 -3.970858357E+01  4.616956765E+01  4.768371582E-07  0.00000E+00  9.000E+00
#rwgt            1           9   2.4120070925055971E-004           1      867895           0
</event>
<event>
      6   9999  3.45752E-01  2.21570E+00 -1.00000E+00  3.16576E-01
      21    -1     0     0   501   512  0.000000000E+00  0.000000000E+00  1.819624168E+01  1.819624168E+01  0.000000000E+00  0.00000E+00  9.000E+00
      21    -1     0     0   502   503  0.000000000E+00  0.000000000E+00 -9.382049179E+02  9.382049179E+02  0.000000000E+00  0.00000E+00  9.000E+00
      25     1     1     2     0     0 -3.570317241E+00  3.581353597E+00 -8.013260977E+02  8.110319914E+02  1.249952115E+02  0.00000E+00  9.000E+00
       5     1     1     2   501     0  1.390100673E+00  2.487023583E+00  1.014626902E+01  1.155971198E+01  4.750000000E+00  0.00000E+00  9.000E+00
      -5     1     1     2     0   503  4.211021362E+00 -6.954473108E+00 -1.306208496E+02  1.309597886E+02  4.750000000E+00  0.00000E+00  9.000E+00
      21     1     1     2   502   512 -2.030804794E+00  8.860959282E-01  1.792002046E+00  2.849667601E+00  1.192092896E-07  0.00000E+00  9.000E+00
#rwgt            1           9  0.23081217577792654                1      869707           0
</event>
<event>
      6   9999  3.45752E-01  7.44411E+00 -1.00000E+00  2.01792E-01
      21    -1     0     0   502   503  0.000000000E+00  0.000000000E+00  9.358357605E+00  9.358357605E+00  0.000000000E+00  0.00000E+00  9.000E+00
       1    -1     0     0   501     0  0.000000000E+00  0.000000000E+00 -9.658485165E+02  9.658485165E+02  0.000000000E+00  0.00000E+00  9.000E+00
      25     1     1     2     0     0  2.662304677E+01 -1.488586122E+00 -4.702805970E+02  4.873402357E+02  1.250026516E+02  0.00000E+00  9.000E+00
       5     1     1     2   501     0 -2.289970388E+01 -5.272927493E+00 -2.578976619E+02  2.590095880E+02  4.750000000E+00  0.00000E+00  9.000E+00
      -5     1     1     2     0   503  1.309009314E+00  1.276061925E+00 -3.184398050E+01  3.224815396E+01  4.750000000E+00  0.00000E+00  9.000E+00
       1     1     1     2   502     0 -5.032352197E+00  5.485451690E+00 -1.964679195E+02  1.966088964E+02  0.000000000E+00  0.00000E+00  9.000E+00
#rwgt            1           9   2.9564157899123031E-003           1      877632           0
</event>
<event>
      6   9999  3.45752E-01  9.88311E+01 -1.00000E+00  1.20653E-01
      21    -1     0     0   511   502  0.000000000E+00  0.000000000E+00  8.085933320E+01  8.085933320E+01  0.000000000E+00  0.00000E+00  9.000E+00
       2    -1     0     0   501     0  0.000000000E+00  0.000000000E+00 -1.738060786E+03  1.738060786E+03  0.000000000E+00  0.00000E+00  9.000E+00
      25     1     1     2     0     0 -1.805150204E+02  1.822021262E+02 -7.482581408E+02  8.008622445E+02  1.253267811E+02  0.00000E+00  9.000E+00
       5     1     1     2   501     0  1.696631144E+02 -2.943813173E+02 -6.519822811E+02  7.352206402E+02  4.750000000E+00  0.00000E+00  9.000E+00
      -5     1     1     2     0   502  1.084857683E+01  1.334811723E+01 -2.515091600E+01  3.083820567E+01  4.750000000E+00  0.00000E+00  9.000E+00
       2     1     1     2   511     0  3.329145238E-03  9.883107384E+01 -2.318101150E+02  2.519990289E+02  2.697398305E-06  0.00000E+00  9.000E+00
#rwgt            1           3   9.3748787492777732E-003           1      880783           0
</event>
<event>
      6   9999  3.45752E-01  2.64981E+01 -1.00000E+00  1.51412E-01
      21    -1     0     0   501   512  0.000000000E+00  0.000000000E+00  3.877795945E+01  3.877795945E+01  0.000000000E+00  0.00000E+00  9.000E+00
      21    -1     0     0   502   503  0.000000000E+00  0.000000000E+00 -1.446708563E+03  1.446708563E+03  0.000000000E+00  0.00000E+00  9.000E+00
      25     1     1     2     0     0 -9.530440555E+01  6.815467509E+01 -8.186363266E+02  8.363721338E+02  1.249996858E+02  0.00000E+00  9.000E+00
       5     1     1     2   501     0  1.009841266E+00  8.580984088E-01  2.150406509E+01  2.206226252E+01  4.750000000E+00  0.00000E+00  9.000E+00
      -5     1     1     2     0   503  9.970500150E+01 -4.307294962E+01 -5.513449047E+02  5.619609709E+02  4.750000000E+00  0.00000E+00  9.000E+00
      21     1     1     2   502   512 -5.410437216E+00 -2.593982388E+01 -5.945343778E+01  6.509115576E+01  6.743495762E-07  0.00000E+00  9.000E+00
#rwgt            1           9   3.2078210911751022E-003           1      882981           0
</event>
<event>
      6   9999  3.45752E-01  7.63533E+00 -1.00000E+00  2.00445E-01
      21    -1     0     0   501   511  0.000000000E+00  0.000000000E+00  2.900682975E+02  2.900682975E+02  0.000000000E+00  0.00000E+00  9.000E+00
      21    -1     0     0   502   503  0.000000000E+00  0.000000000E+00 -2.380698474E+01  2.380698474E+01  0.000000000E+00  0.00000E+00  9.000E+00
      25     1     1     2     0     0  4.726704995E+00  5.838484318E+00  1.536308053E+02  1.982074099E+02  1.250092932E+02  0.00000E+00  9.000E+00
       5     1     1     2   501     0  1.024430772E+00  1.854226923E+00  8.169032573E+01  8.185572328E+01  4.750000000E+00  0.00000E+00  9.000E+00
      -5     1     1     2     0   503  6.356216503E-01 -3.508510174E+00  1.195387713E+01  1.334808365E+01  4.750000000E+00  0.00000E+00  9.000E+00
      21     1     1     2   502   511 -6.386757417E+00 -4.184201066E+00  1.898630460E+01  2.046406536E+01  0.000000000E+00  0.00000E+00  9.000E+00
#rwgt            1           9   5.4425860282298743E-004           1      884947           0
</event>
<event>
      6   9999  3.45752E-01  6.23619E+00 -1.00000E+00  2.11749E-01
      21    -1     0     0   501   502  0.000000000E+00  0.000000000E+00  2.033696646E+03  2.033696646E+03  0.000000000E+00  0.00000E+00  9.000E+00
      21    -1     0     0   512   503  0.000000000E+00  0.000000000E+00 -3.306098153E+01  3.306098153E+01  0.000000000E+00  0.00000E+00  9.000E+00
      25     1     1     2     0     0 -1.038103799E+02 -6.015257761E+01  2.790073138E+02  3.284297739E+02  1.250044307E+02  0.00000E+00  9.000E+00
       5     1     1     2   501     0  3.283259023E+00 -5.101437911E-01  1.300831488E+03  1.300844404E+03  4.750000000E+00  0.00000E+00  9.000E+00
      -5     1     1     2     0   503  9.453362141E+01  6.238553215E+01  4.020629889E+02  4.177388775E+02  4.750000000E+00  0.00000E+00  9.000E+00
      21     1     1     2   512   502  5.993499444E+00 -1.722810749E+00  1.873387306E+01  1.974457172E+01  4.129530925E-07  0.00000E+00  9.000E+00
#rwgt            1           9  0.41513538168910424                1      888202           0
</event>
<event>
      6   9999  3.45752E-01  7.60126E+00 -1.00000E+00  2.00681E-01
      21    -1     0     0   501   502  0.000000000E+00  0.000000000E+00  1.872460079E+02  1.872460079E+02  0.000000000E+00  0.00000E+00  9.000E+00
      21    -1     0     0   511   503  0.000000000E+00  0.000000000E+00 -7.224334096E+01  7.224334096E+01  0.000000000E+00  0.00000E+00  9.000E+00
      25     1     1     2     0     0 -1.050701592E+01 -2.894038701E+00  2.039831134E+01  1.271157311E+02  1.249941805E+02  0.00000E+00  9.000E+00
       5     1     1     2   501     0  3.026826749E+00  4.239329338E-01  1.063436349E+02  1.064935331E+02  4.750000000E+00  0.00000E+00  9.000E+00
      -5     1     1     2     0   503  8.167639387E+00  1.004021784E+01 -1.199497358E+01  1.827452322E+01  4.750000000E+00  0.00000E+00  9.000E+00
      21     1     1     2   511   502 -6.874502176E-01 -7.570112076E+00  2.556942209E-01  7.605561398E+00  1.052353300E-07  0.00000E+00  9.000E+00
#rwgt            1           9   1.4157542857111531E-003           1      894118           0
</event>
<event>
      6   9999  3.45752E-01  5.84009E+00 -1.00000E+00  2.15705E-01
      21    -1     0     0   501   502  0.000000000E+00  0.000000000E+00  4.255962354E+02  4.255962354E+02  0.000000000E+00  0.00000E+00  9.000E+00
      21    -1     0     0   512   503  0.000000000E+00  0.000000000E+00 -2.573611126E+01  2.573611126E+01  0.000000000E+00  0.00000E+00  9.000E+00
      25     1     1     2     0     0  7.058570704E+00 -5.086274883E+00  1.447422574E+02  1.914437384E+02  1.249987612E+02  0.00000E+00  9.000E+00
       5     1     1     2   501     0 -6.160309460E-01 -1.471221973E+00  2.410503763E+02  2.411024480E+02  4.750000000E+00  0.00000E+00  9.000E+00
      -5     1     1     2     0   503 -2.399411226E+00  2.343270201E+00  1.032525393E+01  1.184995604E+01  4.750000000E+00  0.00000E+00  9.000E+00
      21     1     1     2   512   502 -4.043128532E+00  4.214226655E+00  3.742236527E+00  6.936204211E+00  1.460009660E-07  0.00000E+00  9.000E+00
#rwgt            1           9  0.11930692935656670                1      897873           0
</event>
<event>
      6   9999  3.45752E-01  6.16188E+00 -1.00000E+00  2.12460E-01
      21    -1     0     0   501   511  0.000000000E+00  0.000000000E+00  1.280507989E+01  1.280507989E+01  0.000000000E+00  0.00000E+00  9.000E+00
      21    -1     0     0   502   503  0.000000000E+00  0.000000000E+00 -6.820416492E+02  6.820416492E+02  0.000000000E+00  0.00000E+00  9.000E+00
      25     1     1     2     0     0 -5.066728594E-01  1.137139383E+01 -6.406896877E+02  6.528693121E+02  1.250019900E+02  0.00000E+00  9.000E+00
       5     1     1     2   501     0 -1.946904068E-01  1.344768834E-01 -4.548007651E+00  6.580491014E+00  4.750000000E+00  0.00000E+00  9.000E+00
      -5     1     1     2     0   503 -1.963552627E+00 -5.950064662E+00 -2.729775707E+01  2.840754916E+01  4.750000000E+00  0.00000E+00  9.000E+00
      21     1     1     2   502   511  2.664915893E+00 -5.555806054E+00  3.298883118E+00  6.989376757E+00  3.009887021E-07  0.00000E+00  9.000E+00
#rwgt            1           9   2.7757543992011284E-003           1      901793           0
</event>
<event>
      6   9999  3.45752E-01  4.98039E+01 -1.00000E+00  1.34879E-01
      21    -1     0     0   512   502  0.000000000E+00  0.000000000E+00  3.179290801E+01  3.179290801E+01  0.000000000E+00  0.00000E+00  9.000E+00
      21    -1     0     0   502   503  0.000000000E+00  0.000000000E+00 -3.340505247E+03  3.340505247E+03  0.000000000E+00  0.00000E+00  9.000E+00
      25     1     1     2     0     0  7.438577750E+01 -1.754053384E+01 -1.375203429E+03  1.382986218E+03  1.250019761E+02  0.00000E+00  9.000E+00
       5     1     1     2   501     0  3.195634946E+01  5.569503248E+01 -4.899375569E+02  4.941502981E+02  4.750000000E+00  0.00000E+00  9.000E+00
      -5     1     1     2     0   503 -8.138928762E+01  4.947574571E+00 -1.443045244E+03  1.445354916E+03  4.750000000E+00  0.00000E+00  9.000E+00
      21     1     1     2   512   501 -2.495283934E+01 -4.310207320E+01 -5.261096741E-01  4.980672341E+01  1.344638876E-06  0.00000E+00  9.000E+00
#rwgt            1           9   4.9909541960047165E-003           1      904868           0
</event>
<event>
      6   9999  3.45752E-01  3.05044E+01 -1.00000E+00  1.47371E-01
      21    -1     0     0   501   502  0.000000000E+00  0.000000000E+00  2.748930885E+03  2.748930885E+03  0.000000000E+00  0.00000E+00  9.000E+00
      21    -1     0     0   511   503  0.000000000E+00  0.000000000E+00 -1.839440834E+02  1.839440834E+02  0.000000000E+00  0.00000E+00  9.000E+00
      25     1     1     2     0     0 -3.358664827E+01  2.800829862E+01 -5.757184756E+01  1.444135545E+02  1.250129168E+02  0.00000E+00  9.000E+00
       5     1     1     2   501     0  1.667114013E+01 -5.660295608E+00  2.698241160E+03  2.698302778E+03  4.750000000E+00  0.00000E+00  9.000E+00
      -5     1     1     2     0   503  1.076223310E+01  7.529338245E+00 -8.436473856E+00  1.631726653E+01  4.750000000E+00  0.00000E+00  9.000E+00
      21     1     1     2   511   502  6.153275036E+00 -2.987734126E+01 -6.724603665E+01  7.384136889E+01  1.348699152E-06  0.00000E+00  9.000E+00
#rwgt            1           9  0.27872439946066113                1      906073           0
</event>
<event>
      6   9999  3.45752E-01  1.93329E+01 -1.00000E+00  1.61343E-01
      21    -1     0     0   512   502  0.000000000E+00  0.000000000E+00  1.811761203E+01  1.811761203E+01  0.000000000E+00  0.00000E+00  9.000E+00
      21    -1     0     0   502   503  0.000000000E+00  0.000000000E+00 -7.348610777E+02  7.348610777E+02  0.000000000E+00  0.00000E+00  9.000E+00
      25     1     1     2     0     0 -1.956570634E+01  2.113572175E+01 -4.858256808E+02  5.024749931E+02  1.249999637E+02  0.00000E+00  9.000E+00
       5     1     1     2   501     0  3.067077233E+00 -1.134835138E+01 -1.617595878E+02  1.622557203E+02  4.750000000E+00  0.00000E+00  9.000E+00
      -5     1     1     2     0   503 -2.453883526E+00 -5.971262960E+00 -6.843376351E+01  6.890152403E+01  4.750000000E+00  0.00000E+00  9.000E+00
      21     1     1     2   512   501  1.895251263E+01 -3.816107413E+00 -7.244335290E-01  1.934645226E+01  3.710359215E-07  0.00000E+00  9.000E+00
#rwgt            1           9   10.262356835996496                1      909531           0
</event>
<event>
      6   9999  3.45752E-01  2.31724E+01 -1.00000E+00  1.55478E-01
      21    -1     0     0   511   502  0.000000000E+00  0.000000000E+00  1.872937877E+01  1.872937877E+01  0.000000000E+00  0.00000E+00  9.000E+00
      21    -1     0     0   502   503  0.000000000E+00  0.000000000E+00 -2.073384422E+03  2.073384422E+03  0.000000000E+00  0.00000E+00  9.000E+00
      25     1     1     2     0     0 -1.395108165E+01  3.937169683E+00 -1.970154947E+03  1.974169171E+03  1.249930664E+02  0.00000E+00  9.000E+00
       5     1     1     2   501     0 -4.226076812E+00  5.884661440E+00 -4.260545860E+00  9.654207192E+00  4.750000000E+00  0.00000E+00  9.000E+00
      -5     1     1     2     0   503 -1.693702122E+00  2.099190794E+00 -8.454510550E+01  8.472138215E+01  4.750000000E+00  0.00000E+00  9.000E+00
      21     1     1     2   511   501  1.987086058E+01 -1.192102192E+01  4.305555069E+00  2.356904046E+01  1.705776217E-06  0.00000E+00  9.000E+00
#rwgt            1           9   3.9099644590529029E-004           1      911090           0
</event>
<event>
      6   9999  3.45752E-01  1.41569E+01 -1.00000E+00  1.72578E-01
      21    -1     0     0   512   502  0.000000000E+00  0.000000000E+00  6.747685792E+01  6.747685792E+01  0.000000000E+00  0.00000E+00  9.000E+00
      21    -1     0     0   502   503  0.000000000E+00  0.000000000E+00 -1.432867557E+03  1.432867557E+03  0.000000000E+00  0.00000E+00  9.000E+00
      25     1     1     2     0     0 -9.550257166E+00  1.069504477E+01 -1.187763829E+03  1.194409065E+03  1.249980346E+02  0.00000E+00  9.000E+00
       5     1     1     2   501     0  1.564268613E+01  1.816397712E+00  5.566733136E+01  5.804659517E+01  4.750000000E+00  0.00000E+00  9.000E+00
      -5     1     1     2     0   503 -2.070338386E+00  1.062132230E+00 -2.336670422E+02  2.337268995E+02  4.750000000E+00  0.00000E+00  9.000E+00
      21     1     1     2   512   501 -4.022090581E+00 -1.357357471E+01  3.728409028E-01  1.416185558E+01  7.955043206E-08  0.00000E+00  9.000E+00
#rwgt            1           9   2.2838389499629575E-003           1      912156           0
</event>
<event>
      6   9999  3.45752E-01  3.03347E+01 -1.00000E+00  1.47527E-01
      21    -1     0     0   501   502  0.000000000E+00  0.000000000E+00  1.331235047E+01  1.331235047E+01  0.000000000E+00  0.00000E+00  9.000E+00
      21    -1     0     0   511   503  0.000000000E+00  0.000000000E+00 -1.198696135E+03  1.198696135E+03  0.000000000E+00  0.00000E+00  9.000E+00
      25     1     1     2     0     0  2.496512295E+01 -4.285797683E+00 -6.005578807E+02  6.139519412E+02  1.250023702E+02  0.00000E+00  9.000E+00
       5     1     1     2   501     0  3.347210603E+00  7.019432603E+00  5.587785556E-01  9.129676137E+00  4.750000000E+00  0.00000E+00  9.000E+00
      -5     1     1     2     0   503 -1.698491554E+01  2.540683556E+01 -2.032053938E+02  2.055455892E+02  4.750000000E+00  0.00000E+00  9.000E+00
      21     1     1     2   511   502 -1.132741801E+01 -2.814047048E+01 -3.821792881E+02  3.833812786E+02  7.629394531E-06  0.00000E+00  9.000E+00
#rwgt            1           9   1.1295344888197571E-004           1      915591           0
</event>
<event>
      6   9999 -3.45752E-01  2.65014E+01 -1.00000E+00  1.51408E-01
      21    -1     0     0   501   502  0.000000000E+00  0.000000000E+00  3.605878221E+01  3.605878221E+01  0.000000000E+00  0.00000E+00  9.000E+00
      21    -1     0     0   502   512  0.000000000E+00  0.000000000E+00 -3.518561240E+02  3.518561240E+02  0.000000000E+00  0.00000E+00  9.000E+00
      25     1     1     2     0     0 -2.528462283E+01  1.074743878E+01 -1.793930655E+02  2.203623666E+02  1.249915239E+02  0.00000E+00  9.000E+00
       5     1     1     2   501     0 -4.559086672E+00  3.509680980E-01  1.171596130E+01  1.344376060E+01  4.750000000E+00  0.00000E+00  9.000E+00
      -5     1     1     2     0   503  6.093930043E+00  6.605470785E-01 -8.879930882E+01  8.913726523E+01  4.750000000E+00  0.00000E+00  9.000E+00
      21     1     1     2   503   512  2.374977946E+01 -1.175895396E+01 -5.932092871E+01  6.497151380E+01  6.743495762E-07  0.00000E+00  9.000E+00
#rwgt            1           9  -3.9130498777950981E-002           1      916593           0
</event>
<event>
      6   9999  3.45752E-01  6.07157E+01 -1.00000E+00  1.30425E-01
      21    -1     0     0   511   502  0.000000000E+00  0.000000000E+00  3.941029967E+02  3.941029967E+02  0.000000000E+00  0.00000E+00  9.000E+00
      21    -1     0     0   502   503  0.000000000E+00  0.000000000E+00 -2.540420313E+03  2.540420313E+03  0.000000000E+00  0.00000E+00  9.000E+00
      25     1     1     2     0     0 -3.234877768E+01  1.579720091E+01 -5.350668317E+02  5.506502754E+02  1.249928657E+02  0.00000E+00  9.000E+00
       5     1     1     2   501     0 -3.850802356E+01  3.245771722E+01  3.440829713E+02  3.477815764E+02  4.750000000E+00  0.00000E+00  9.000E+00
      -5     1     1     2     0   503  1.113446713E+01 -3.731683156E+01 -1.972582899E+03  1.972972980E+03  4.750000000E+00  0.00000E+00  9.000E+00
      21     1     1     2   511   501  5.972233410E+01 -1.093808657E+01  1.724944364E+01  6.311847775E+01  1.846782373E-06  0.00000E+00  9.000E+00
#rwgt            1           9   6.7117649108964540E-004           1      917801           0
</event>
<event>
      6   9999 -3.45752E-01  1.11645E+01 -1.00000E+00  1.82291E-01
      21    -1     0     0   501   502  0.000000000E+00  0.000000000E+00  4.889090205E+01  4.889090205E+01  0.000000000E+00  0.00000E+00  9.000E+00
      21    -1     0     0   502   512  0.000000000E+00  0.000000000E+00 -3.488338525E+02  3.488338525E+02  0.000000000E+00  0.00000E+00  9.000E+00
      25     1     1     2     0     0  1.489903326E+01  1.102103387E+01 -2.678496268E+02  2.961625075E+02  1.250014556E+02  0.00000E+00  9.000E+00
       5     1     1     2   501     0 -5.389892778E-01  5.842803882E-01  2.989346128E+01  3.027892700E+01  4.750000000E+00  0.00000E+00  9.000E+00
      -5     1     1     2     0   503 -2.309340990E+01 -4.650079486E+00 -4.276441859E+01  4.905391745E+01  4.750000000E+00  0.00000E+00  9.000E+00
      21     1     1     2   503   512  8.733365914E+00 -6.955234772E+00 -1.922236635E+01  2.222940257E+01  3.371747881E-07  0.00000E+00  9.000E+00
#rwgt            1           9  -87.607408501159895                1      920648           0
</event>
<event>
      6   9999  3.45752E-01  1.11929E+01 -1.00000E+00  1.82182E-01
      21    -1     0     0   501   502  0.000000000E+00  0.000000000E+00  5.432743830E+01  5.432743830E+01  0.000000000E+00  0.00000E+00  9.000E+00
      21    -1     0     0   511   503  0.000000000E+00  0.000000000E+00 -1.306019176E+03  1.306019176E+03  0.000000000E+00  0.00000E+00  9.000E+00
      25     1     1     2     0     0  1.020896463E+01 -1.949990505E+01 -1.223531926E+03  1.230088320E+03  1.249096962E+02  0.00000E+00  9.000E+00
       5     1     1     2   501     0  4.041313972E+00 -2.002211599E-01  4.880920604E+01  4.920643658E+01  4.750000000E+00  0.00000E+00  9.000E+00
      -5     1     1     2     0   503 -6.369613403E+00  1.175178102E+01 -4.135976275E+01  4.372492204E+01  4.750000000E+00  0.00000E+00  9.000E+00
      21     1     1     2   511   502 -7.880665198E+00  7.948345192E+00 -3.560925532E+01  3.732693584E+01  8.259061849E-07  0.00000E+00  9.000E+00
#rwgt            1           9   5.0358082101451066E-005           1      924148           0
</event>
<event>
      6   9999  3.45752E-01  1.02762E+01 -1.00000E+00  1.85956E-01
      21    -1     0     0   501   502  0.000000000E+00  0.000000000E+00  2.693312122E+02  2.693312122E+02  0.000000000E+00  0.00000E+00  9.000E+00
      21    -1     0     0   512   503  0.000000000E+00  0.000000000E+00 -2.567928185E+03  2.567928185E+03  0.000000000E+00  0.00000E+00  9.000E+00
      25     1     1     2     0     0 -5.312999996E+02  1.573218540E+02 -4.003686565E+02  6.949476060E+02  1.250090343E+02  0.00000E+00  9.000E+00
       5     1     1     2   501     0 -3.704290472E-01 -5.730765245E+00  7.793725593E+01  7.829276627E+01  4.750000000E+00  0.00000E+00  9.000E+00
      -5     1     1     2     0   503  5.283477807E+02 -1.418668839E+02 -1.662835979E+03  1.750520964E+03  4.750000000E+00  0.00000E+00  9.000E+00
      21     1     1     2   512   502  3.322647879E+00 -9.724204846E+00 -3.133295932E+02  3.134980608E+02  6.607249480E-06  0.00000E+00  9.000E+00
#rwgt            1           9   1.2621649902991510E-002           1      927812           0
</event>
<event>
      6   9999  3.45752E-01  1.76834E+01 -1.00000E+00  1.64401E-01
      21    -1     0     0   502   511  0.000000000E+00  0.000000000E+00  6.092707982E+02  6.092707982E+02  0.000000000E+00  0.00000E+00  9.000E+00
      21    -1     0     0   501   502  0.000000000E+00  0.000000000E+00 -4.274940632E+01  4.274940632E+01  0.000000000E+00  0.00000E+00  9.000E+00
      25     1     1     2     0     0 -2.177596378E+01 -1.827191402E+01  4.256817471E+02  4.445811651E+02  1.250576150E+02  0.00000E+00  9.000E+00
       5     1     1     2   501     0  4.513410295E+01 -8.054646489E-01 -1.309740022E+00  4.540940367E+01  4.750000000E+00  0.00000E+00  9.000E+00
      -5     1     1     2     0   503 -1.198222676E+01  5.538850766E+00 -4.177708039E+00  1.463790867E+01  4.750000000E+00  0.00000E+00  9.000E+00
      21     1     1     2   503   511 -1.137591242E+01  1.353852790E+01  1.463270928E+02  1.473917271E+02  2.697398305E-06  0.00000E+00  9.000E+00
#rwgt            1           9  0.19157787626053346                1      933844           0
</event>
<event>
      6   9999  3.45752E-01  6.11944E+00 -1.00000E+00  2.12872E-01
      21    -1     0     0   501   512  0.000000000E+00  0.000000000E+00  1.205224230E+01  1.205224230E+01  0.000000000E+00  0.00000E+00  9.000E+00
      21    -1     0     0   502   503  0.000000000E+00  0.000000000E+00 -7.853644261E+02  7.853644261E+02  0.000000000E+00  0.00000E+00  9.000E+00
      25     1     1     2     0     0 -2.381902634E+01  3.091294295E+01 -5.466681886E+02  5.621331428E+02  1.249984229E+02  0.00000E+00  9.000E+00
       5     1     1     2   501     0 -1.342435606E+00 -1.046356686E+00 -8.864750752E+00  1.020016184E+01  4.750000000E+00  0.00000E+00  9.000E+00
      -5     1     1     2     0   503  1.980216656E+01 -2.691269087E+01 -2.161251892E+02  2.187443225E+02  4.750000000E+00  0.00000E+00  9.000E+00
      21     1     1     2   502   512  5.359295384E+00 -2.953895386E+00 -1.654055196E+00  6.339041217E+00  2.411963650E-07  0.00000E+00  9.000E+00
#rwgt            1           9   6.9234227615480976E-006           1      936028           0
</event>
<event>
      6   9999 -3.45752E-01  4.47542E+01 -1.00000E+00  1.37415E-01
      -3    -1     0     0     0   503  0.000000000E+00  0.000000000E+00  1.363086799E+03  1.363086799E+03  0.000000000E+00  0.00000E+00  9.000E+00
      21    -1     0     0   501   502  0.000000000E+00  0.000000000E+00 -3.374544500E+02  3.374544500E+02  0.000000000E+00  0.00000E+00  9.000E+00
      25     1     1     2     0     0  2.406066968E+01  1.234391563E+02 -2.167143647E+02  2.800111535E+02  1.249999563E+02  0.00000E+00  9.000E+00
       5     1     1     2   501     0 -3.163601902E+01 -4.926056832E+00  1.003630340E+01  3.388795688E+01  4.750000000E+00  0.00000E+00  9.000E+00
      -5     1     1     2     0   503 -3.053505207E+01 -9.504951713E+01 -4.424514606E+01  1.093023127E+02  4.750000000E+00  0.00000E+00  9.000E+00
      -3     1     1     2     0   502  3.811040141E+01 -2.346358233E+01  1.276555556E+03  1.277339826E+03  1.525878906E-05  0.00000E+00  9.000E+00
#rwgt            1           9  -3.4920610443064885E-003           1      939518           0
</event>
<event>
      6   9999  3.45752E-01  5.20889E+00 -1.00000E+00  2.22985E-01
      21    -1     0     0   511   503  0.000000000E+00  0.000000000E+00  3.404135926E+02  3.404135926E+02  0.000000000E+00  0.00000E+00  9.000E+00
      21    -1     0     0   501   502  0.000000000E+00  0.000000000E+00 -6.936136411E+01  6.936136411E+01  0.000000000E+00  0.00000E+00  9.000E+00
      25     1     1     2     0     0 -3.463031213E+01 -3.812196091E+01  8.305993307E+00  1.354485260E+02  1.249990850E+02  0.00000E+00  9.000E+00
       5     1     1     2   501     0 -1.632245372E+00  8.757530258E+00  6.786323314E+01  6.861005373E+01  4.750000000E+00  0.00000E+00  9.000E+00
      -5     1     1     2     0   503  3.516946455E+01  2.427152605E+01  8.090797261E+01  9.162238125E+01  4.750000000E+00  0.00000E+00  9.000E+00
      21     1     1     2   511   502  1.093092958E+00  5.092904603E+00  1.139750294E+02  1.140939957E+02  1.348699152E-06  0.00000E+00  9.000E+00
#rwgt            1           9   2.7925280873920935                1      940880           0
</event>
<event>
      6   9999  3.45752E-01  8.63885E+00 -1.00000E+00  1.94145E-01
      21    -1     0     0   501   502  0.000000000E+00  0.000000000E+00  4.494276223E+02  4.494276223E+02  0.000000000E+00  0.00000E+00  9.000E+00
      21    -1     0     0   502   512  0.000000000E+00  0.000000000E+00 -1.951566585E+01  1.951566585E+01  0.000000000E+00  0.00000E+00  9.000E+00
      25     1     1     2     0     0  1.124129861E+01 -1.673683997E+01  3.632416352E+02  3.846735571E+02  1.249910852E+02  0.00000E+00  9.000E+00
       5     1     1     2   501     0  2.049169136E-01  4.992077316E-01  3.613947105E+01  3.645428737E+01  4.750000000E+00  0.00000E+00  9.000E+00
      -5     1     1     2     0   503 -9.466413902E+00  2.464655991E+01  2.808269953E+01  3.883640586E+01  4.750000000E+00  0.00000E+00  9.000E+00
      21     1     1     2   503   512 -1.979801621E+00 -8.408927672E+00  2.448150685E+00  8.979037857E+00  1.397852826E-07  0.00000E+00  9.000E+00
#rwgt            1           9  0.23168472603919391                1      945643           0
</event>
<event>
      6   9999  3.45752E-01  1.57852E+01 -1.00000E+00  1.68473E-01
      21    -1     0     0   501   511  0.000000000E+00  0.000000000E+00  2.244777881E+02  2.244777881E+02  0.000000000E+00  0.00000E+00  9.000E+00
      21    -1     0     0   502   503  0.000000000E+00  0.000000000E+00 -1.620402765E+03  1.620402765E+03  0.000000000E+00  0.00000E+00  9.000E+00
      25     1     1     2     0     0 -3.675421670E+01  1.967392007E+01 -1.288251173E+03  1.294972179E+03  1.249956984E+02  0.00000E+00  9.000E+00
       5     1     1     2   501     0 -4.666892583E+00 -9.815621025E+00  8.666082331E+01  8.746877785E+01  4.750000000E+00  0.00000E+00  9.000E+00
      -5     1     1     2     0   503  2.857066071E+01 -1.902560639E+01 -3.270037385E+02  3.288347059E+02  4.750000000E+00  0.00000E+00  9.000E+00
      21     1     1     2   502   511  1.285044858E+01  9.167307340E+00  1.326691113E+02  1.336048900E+02  3.303624740E-06  0.00000E+00  9.000E+00
#rwgt            1           9   1.2674789500530939E-004           1      948352           0
</event>
<event>
      6   9999  3.45752E-01  3.22687E+01 -1.00000E+00  1.45819E-01
      21    -1     0     0   501   502  0.000000000E+00  0.000000000E+00  1.001688411E+02  1.001688411E+02  0.000000000E+00  0.00000E+00  9.000E+00
      21    -1     0     0   512   503  0.000000000E+00  0.000000000E+00 -1.793825833E+03  1.793825833E+03  0.000000000E+00  0.00000E+00  9.000E+00
      25     1     1     2     0     0 -2.109621702E+02  1.707627827E+01 -3.816976947E+02  4.539995871E+02  1.250034337E+02  0.00000E+00  9.000E+00
       5     1     1     2   501     0  4.647570567E+00  5.325695647E+00  5.512631715E+01  5.578024998E+01  4.750000000E+00  0.00000E+00  9.000E+00
      -5     1     1     2     0   503  1.813758469E+02 -1.924536176E+00 -1.234242880E+03  1.247509099E+03  4.750000000E+00  0.00000E+00  9.000E+00
      21     1     1     2   512   502  2.493875269E+01 -2.047743774E+01 -1.328427337E+02  1.367057378E+02  0.000000000E+00  0.00000E+00  9.000E+00
#rwgt            1           9   6.3434915526391504E-005           1      951864           0
</event>
<event>
      6   9999  3.45752E-01  3.44740E+01 -1.00000E+00  1.44036E-01
      21    -1     0     0   501   511  0.000000000E+00  0.000000000E+00  1.683285946E+02  1.683285946E+02  0.000000000E+00  0.00000E+00  9.000E+00
      21    -1     0     0   502   503  0.000000000E+00  0.000000000E+00 -8.031060828E+02  8.031060828E+02  0.000000000E+00  0.00000E+00  9.000E+00
      25     1     1     2     0     0 -1.565540481E+01 -2.055151864E+01 -7.656149274E+02  7.761829399E+02  1.250051300E+02  0.00000E+00  9.000E+00
       5     1     1     2   501     0 -1.322323871E+01  7.281977253E+00  3.057839162E+01  3.443082585E+01  4.750000000E+00  0.00000E+00  9.000E+00
      -5     1     1     2     0   503 -5.572880457E+00  1.202504262E+01 -2.620207785E+01  2.974508414E+01  4.750000000E+00  0.00000E+00  9.000E+00
      21     1     1     2   502   511  3.445152397E+01  1.244498771E+00  1.264611254E+02  1.310758274E+02  0.000000000E+00  0.00000E+00  9.000E+00
#rwgt            1           9   4.3611790315552876E-003           1      954129           0
</event>
<event>
      6   9999 -3.45752E-01  1.49475E+01 -1.00000E+00  1.70503E-01
      21    -1     0     0   512   503  0.000000000E+00  0.000000000E+00  1.685992620E+02  1.685992620E+02  0.000000000E+00  0.00000E+00  9.000E+00
      21    -1     0     0   501   502  0.000000000E+00  0.000000000E+00 -8.934197589E+02  8.934197589E+02  0.000000000E+00  0.00000E+00  9.000E+00
      25     1     1     2     0     0 -1.184418213E+01 -4.377516666E+01 -8.181369539E+02  8.288622056E+02  1.249317037E+02  0.00000E+00  9.000E+00
       5     1     1     2   501     0 -5.802063532E+00  9.620602668E+00 -6.907191043E+00  1.401755061E+01  4.750000000E+00  0.00000E+00  9.000E+00
      -5     1     1     2     0   503  3.219226435E+01  3.071333658E+01 -5.061714587E+01  6.755966907E+01  4.750000000E+00  0.00000E+00  9.000E+00
      21     1     1     2   512   502 -1.454601869E+01  3.441227408E+00  1.508407940E+02  1.515795957E+02  4.264961200E-06  0.00000E+00  9.000E+00
#rwgt            1           9  -3.5791981516726697E-003           1      955479           0
</event>
<event>
      6   9999  3.45752E-01  5.47259E+00 -1.00000E+00  2.19779E-01
      21    -1     0     0   501   502  0.000000000E+00  0.000000000E+00  9.741622184E+00  9.741622184E+00  0.000000000E+00  0.00000E+00  9.000E+00
      21    -1     0     0   511   503  0.000000000E+00  0.000000000E+00 -2.019823133E+03  2.019823133E+03  0.000000000E+00  0.00000E+00  9.000E+00
      25     1     1     2     0     0  4.729707278E+01 -7.456542908E+01 -1.410470141E+03  1.418749491E+03  1.250083238E+02  0.00000E+00  9.000E+00
       5     1     1     2   501     0 -8.108428519E-01  2.144196134E-01 -1.923536143E+00  5.192873308E+00  4.750000000E+00  0.00000E+00  9.000E+00
      -5     1     1     2     0   503 -4.471578712E+01  6.917270633E+01 -4.298973595E+02  4.377426951E+02  4.750000000E+00  0.00000E+00  9.000E+00
      21     1     1     2   511   502 -1.770442813E+00  5.178303138E+00 -1.677904738E+02  1.678796962E+02  3.303624740E-06  0.00000E+00  9.000E+00
#rwgt            1           9   1.1256698331200542E-003           1      957558           0
</event>
<event>
      6   9999  3.45752E-01  8.54498E+00 -1.00000E+00  1.94686E-01
      21    -1     0     0   501   512  0.000000000E+00  0.000000000E+00  2.239040461E+01  2.239040461E+01  0.000000000E+00  0.00000E+00  9.000E+00
      21    -1     0     0   502   503  0.000000000E+00  0.000000000E+00 -3.458424341E+02  3.458424341E+02  0.000000000E+00  0.00000E+00  9.000E+00
      25     1     1     2     0     0 -8.098682008E-01  3.509223841E+00 -2.948756756E+02  3.202968833E+02  1.250018355E+02  0.00000E+00  9.000E+00
       5     1     1     2   501     0 -4.646780866E-01  1.338642913E-01 -5.672850943E+00  7.414686992E+00  4.750000000E+00  0.00000E+00  9.000E+00
      -5     1     1     2     0   503 -6.566300510E+00 -2.463524863E-01 -2.894312410E+01  3.005734394E+01  4.750000000E+00  0.00000E+00  9.000E+00
      21     1     1     2   502   512  7.840846798E+00 -3.396735646E+00  6.039621132E+00  1.046392445E+01  5.057621821E-07  0.00000E+00  9.000E+00
#rwgt            1           9   2.9540639870452474E-003           1      961934           0
</event>
<event>
      6   9999  3.45752E-01  2.07063E+01 -1.00000E+00  1.59068E-01
      21    -1     0     0   501   511  0.000000000E+00  0.000000000E+00  4.799108680E+02  4.799108680E+02  0.000000000E+00  0.00000E+00  9.000E+00
      21    -1     0     0   502   503  0.000000000E+00  0.000000000E+00 -1.024118501E+03  1.024118501E+03  0.000000000E+00  0.00000E+00  9.000E+00
      25     1     1     2     0     0 -2.110488637E+01  2.148346912E+01 -9.863415654E+02  9.946868187E+02  1.250009115E+02  0.00000E+00  9.000E+00
       5     1     1     2   501     0 -8.896422169E-01  6.929075514E-01 -7.017513719E+00  8.548659717E+00  4.750000000E+00  0.00000E+00  9.000E+00
      -5     1     1     2     0   503  1.171098981E+01 -4.204221107E+00 -2.386209076E+01  2.732736052E+01  4.750000000E+00  0.00000E+00  9.000E+00
      21     1     1     2   502   511  1.028353877E+01 -1.797215557E+01  4.730135367E+02  4.734665304E+02  1.078959322E-05  0.00000E+00  9.000E+00
#rwgt            1           9   9.3881853065386475E-002           1      964926           0
</event>
<event>
      6   9999  3.45752E-01  2.77974E+00 -1.00000E+00  2.85870E-01
      21    -1     0     0   501   512  0.000000000E+00  0.000000000E+00  4.398120050E+01  4.398120050E+01  0.000000000E+00  0.00000E+00  9.000E+00
      21    -1     0     0   502   503  0.000000000E+00  0.000000000E+00 -8.843468935E+02  8.843468935E+02  0.000000000E+00  0.00000E+00  9.000E+00
      25     1     1     2     0     0  6.838533733E+00  5.321175951E+00 -8.140549678E+02  8.236419229E+02  1.250017847E+02  0.00000E+00  9.000E+00
       5     1     1     2   501     0 -5.896629481E+00 -3.058072172E+00  7.506505872E+00  1.109198697E+01  4.750000000E+00  0.00000E+00  9.000E+00
      -5     1     1     2     0   503 -2.640730351E+00 -6.288765936E-02 -6.352478254E+01  6.375686557E+01  4.750000000E+00  0.00000E+00  9.000E+00
      21     1     1     2   502   512  1.698826099E+00 -2.200216119E+00  2.970755147E+01  2.983731851E+01  1.617033478E-06  0.00000E+00  9.000E+00
#rwgt            1           9   8.9847373078751271                1      966498           0
</event>
<event>
      6   9999  3.45752E-01  1.13564E+01 -1.00000E+00  1.81557E-01
      21    -1     0     0   501   502  0.000000000E+00  0.000000000E+00  9.531568647E+00  9.531568647E+00  0.000000000E+00  0.00000E+00  9.000E+00
      21    -1     0     0   511   503  0.000000000E+00  0.000000000E+00 -9.617193772E+02  9.617193772E+02  0.000000000E+00  0.00000E+00  9.000E+00
      25     1     1     2     0     0 -1.736898043E+01  6.338702510E+00 -7.080091499E+02  7.191947948E+02  1.249893432E+02  0.00000E+00  9.000E+00
       5     1     1     2   501     0 -7.698291738E-01  1.533481856E+00  1.039522147E-01  5.051485883E+00  4.750000000E+00  0.00000E+00  9.000E+00
      -5     1     1     2     0   503  7.586726999E+00 -3.674430293E+00 -1.798769106E+01  2.042496987E+01  4.750000000E+00  0.00000E+00  9.000E+00
      21     1     1     2   511   502  1.055208260E+01 -4.197754073E+00 -2.262949198E+02  2.265796953E+02  3.814697266E-06  0.00000E+00  9.000E+00
#rwgt            1           9   2.8572796310384380E-004           1      973332           0
</event>
<event>
      6   9999  3.45752E-01  3.46897E+00 -1.00000E+00  2.61391E-01
      21    -1     0     0   501   512  0.000000000E+00  0.000000000E+00  2.563784250E+02  2.563784250E+02  0.000000000E+00  0.00000E+00  9.000E+00
      21    -1     0     0   502   503  0.000000000E+00  0.000000000E+00 -1.341221803E+03  1.341221803E+03  0.000000000E+00  0.00000E+00  9.000E+00
      25     1     1     2     0     0  1.028384750E+00  1.486179000E+01 -7.532322720E+02  7.636797087E+02  1.250036464E+02  0.00000E+00  9.000E+00
       5     1     1     2   501     0 -3.737662014E+00 -1.107894373E+01  5.061433426E+01  5.216403401E+01  4.750000000E+00  0.00000E+00  9.000E+00
      -5     1     1     2     0   503  1.122055771E+00 -6.982920165E-01 -5.819654595E+02  5.819863445E+02  4.750000000E+00  0.00000E+00  9.000E+00
      21     1     1     2   502   512  1.587221493E+00 -3.084554252E+00  1.997400193E+02  1.997701406E+02  5.394796609E-06  0.00000E+00  9.000E+00
#rwgt            1           9  0.29521096038752531                1      975508           0
</event>
<event>
      6   9999  3.45752E-01  7.12635E+00 -1.00000E+00  2.04153E-01
      21    -1     0     0   502   511  0.000000000E+00  0.000000000E+00  1.856040997E+00  1.856040997E+00  0.000000000E+00  0.00000E+00  9.000E+00
      21    -1     0     0   501   502  0.000000000E+00  0.000000000E+00 -3.492689226E+03  3.492689226E+03  0.000000000E+00  0.00000E+00  9.000E+00
      25     1     1     2     0     0  5.974079552E+00 -1.670556572E+00 -3.350593036E+03  3.352927762E+03  1.249495968E+02  0.00000E+00  9.000E+00
       5     1     1     2   501     0  8.827265367E-02 -3.281359408E+00 -7.406400798E+01  7.428872653E+01  4.750000000E+00  0.00000E+00  9.000E+00
      -5     1     1     2     0   503 -1.259217255E+00 -3.125616892E-01 -3.524621247E+01  3.558849978E+01  4.750000000E+00  0.00000E+00  9.000E+00
      21     1     1     2   503   511 -4.803134950E+00  5.264477669E+00 -3.092992790E+01  3.174027836E+01  9.536743164E-07  0.00000E+00  9.000E+00
#rwgt            1           9   6.8867621059188610E-004           1      984008           0
</event>
<event>
      6   9999  3.45752E-01  7.03681E+00 -1.00000E+00  2.04849E-01
      21    -1     0     0   501   502  0.000000000E+00  0.000000000E+00  1.019770233E+01  1.019770233E+01  0.000000000E+00  0.00000E+00  9.000E+00
      21    -1     0     0   502   512  0.000000000E+00  0.000000000E+00 -1.015515274E+03  1.015515274E+03  0.000000000E+00  0.00000E+00  9.000E+00
      25     1     1     2     0     0 -1.486326905E+01 -2.485785685E+01 -7.209800957E+02  7.323085879E+02  1.249989593E+02  0.00000E+00  9.000E+00
       5     1     1     2   501     0  5.559187950E+00 -1.228480843E+00 -3.543279130E+00  8.217728570E+00  4.750000000E+00  0.00000E+00  9.000E+00
      -5     1     1     2     0   503  1.070455579E+01  1.919030062E+01 -5.687666479E+01  6.115858607E+01  4.750000000E+00  0.00000E+00  9.000E+00
      21     1     1     2   503   512 -1.400474692E+00  6.896037078E+00 -2.239175319E+02  2.240280736E+02  2.697398305E-06  0.00000E+00  9.000E+00
#rwgt            1           9   9.4745602917532470E-005           1      986556           0
</event>
<event>
      6   9999  3.45752E-01  7.32122E+00 -1.00000E+00  2.02686E-01
      21    -1     0     0   501   511  0.000000000E+00  0.000000000E+00  4.717361811E+01  4.717361811E+01  0.000000000E+00  0.00000E+00  9.000E+00
      21    -1     0     0   502   503  0.000000000E+00  0.000000000E+00 -1.858270596E+03  1.858270596E+03  0.000000000E+00  0.00000E+00  9.000E+00
      25     1     1     2     0     0  1.057397127E+00 -7.552946130E-01 -1.831711008E+03  1.835971661E+03  1.250001292E+02  0.00000E+00  9.000E+00
       5     1     1     2   501     0 -1.062409702E+01 -3.334927704E+00  1.322665814E+01  1.793042570E+01  4.750000000E+00  0.00000E+00  9.000E+00
      -5     1     1     2     0   503  2.308431041E+00  3.132236002E+00 -2.117971353E+01  2.205181447E+01  4.750000000E+00  0.00000E+00  9.000E+00
      21     1     1     2   502   511  7.258268849E+00  9.579863152E-01  2.856708564E+01  2.949031343E+01  3.371747881E-07  0.00000E+00  9.000E+00
#rwgt            1           9   5.5929173373021272E-004           1      990499           0
</event>
<event>
      6   9999  3.45752E-01  8.02621E+00 -1.00000E+00  1.97847E-01
      21    -1     0     0   501   502  0.000000000E+00  0.000000000E+00  1.720509700E+02  1.720509700E+02  0.000000000E+00  0.00000E+00  9.000E+00
      21    -1     0     0   502   512  0.000000000E+00  0.000000000E+00 -2.229073673E+02  2.229073673E+02  0.000000000E+00  0.00000E+00  9.000E+00
      25     1     1     2     0     0 -3.922996732E+01  2.271714280E+01 -6.870171784E+00  1.331455427E+02  1.250019094E+02  0.00000E+00  9.000E+00
       5     1     1     2   501     0  2.360233241E+00 -2.779815713E+00  1.044767371E+02  1.046482163E+02  4.750000000E+00  0.00000E+00  9.000E+00
      -5     1     1     2     0   503  3.379135323E+01 -1.252493591E+01 -1.427691622E+02  1.473238804E+02  4.750000000E+00  0.00000E+00  9.000E+00
      21     1     1     2   503   512  3.078380850E+00 -7.412391172E+00 -5.693800461E+00  9.840697904E+00  0.000000000E+00  0.00000E+00  9.000E+00
#rwgt            1           9   4.2860873052832122                1      995293           0
</event>
<event>
      6   9999  3.45752E-01  2.87625E+01 -1.00000E+00  1.49031E-01
      21    -1     0     0   501   502  0.000000000E+00  0.000000000E+00  2.330956030E+01  2.330956030E+01  0.000000000E+00  0.00000E+00  9.000E+00
      21    -1     0     0   511   503  0.000000000E+00  0.000000000E+00 -1.110992047E+03  1.110992047E+03  0.000000000E+00  0.00000E+00  9.000E+00
      25     1     1     2     0     0  3.624689718E+01  8.219089816E+01 -5.139733680E+02  5.365292566E+02  1.250033554E+02  0.00000E+00  9.000E+00
       5     1     1     2   501     0 -1.717216413E+00  6.400476603E+00  5.962971016E+00  1.010121064E+01  4.750000000E+00  0.00000E+00  9.000E+00
      -5     1     1     2     0   503 -3.118878537E+01 -6.002357224E+01 -4.163067728E+02  4.217931497E+02  4.750000000E+00  0.00000E+00  9.000E+00
      21     1     1     2   511   502 -3.340895394E+00 -2.856780252E+01 -1.633653168E+02  1.658779902E+02  0.000000000E+00  0.00000E+00  9.000E+00
#rwgt            1           9   2.3573182682475741E-003           1      999597           0
</event>
<event>
      6   9999  3.45752E-01  8.08019E+01 -1.00000E+00  1.24505E-01
      -3    -1     0     0     0   502  0.000000000E+00  0.000000000E+00  1.696341037E+02  1.696341037E+02  0.000000000E+00  0.00000E+00  9.000E+00
      21    -1     0     0   502   503  0.000000000E+00  0.000000000E+00 -1.287351561E+03  1.287351561E+03  0.000000000E+00  0.00000E+00  9.000E+00
      25     1     1     2     0     0 -5.546747227E+01 -9.428440065E+01 -7.730919193E+02  7.907348992E+02  1.249975052E+02  0.00000E+00  9.000E+00
       5     1     1     2   501     0  9.328904269E+01  3.827518977E+01 -1.557938739E+02  1.856397837E+02  4.750000000E+00  0.00000E+00  9.000E+00
      -5     1     1     2     0   503  2.720996494E+01  1.039658948E+02 -3.138388251E+02  3.317629577E+02  4.750000000E+00  0.00000E+00  9.000E+00
      -3     1     1     2     0   501 -6.503153536E+01 -4.795668389E+01  1.250071608E+02  1.488480244E+02  2.697398305E-06  0.00000E+00  9.000E+00
#rwgt            1           9   5.7682933695315218E-004           1     1001109           0
</event>
<event>
      6   9999  3.45752E-01  2.10986E+01 -1.00000E+00  1.58458E-01
      21    -1     0     0   501   502  0.000000000E+00  0.000000000E+00  1.765136498E+02  1.765136498E+02  0.000000000E+00  0.00000E+00  9.000E+00
      21    -1     0     0   511   503  0.000000000E+00  0.000000000E+00 -9.688865002E+02  9.688865002E+02  0.000000000E+00  0.00000E+00  9.000E+00
      25     1     1     2     0     0  1.768692645E+01 -1.166797917E+02 -6.999593101E+02  7.207583596E+02  1.249903038E+02  0.00000E+00  9.000E+00
       5     1     1     2   501     0 -4.085696951E+00 -8.048701691E-01  1.522707695E+02  1.524017404E+02  4.750000000E+00  0.00000E+00  9.000E+00
      -5     1     1     2     0   503 -5.591861846E+00  9.796542233E+01 -2.000116079E+02  2.228355867E+02  4.750000000E+00  0.00000E+00  9.000E+00
      21     1     1     2   511   502 -8.009367648E+00  1.951923958E+01 -4.467270197E+01  4.940446322E+01  0.000000000E+00  0.00000E+00  9.000E+00
#rwgt            1           9   2.3471109493967898E-002           1     1001721           0
</event>
<event>
      6   9999  3.45752E-01  1.30971E+01 -1.00000E+00  1.75641E-01
      21    -1     0     0   501   502  0.000000000E+00  0.000000000E+00  1.037793333E+01  1.037793333E+01  0.000000000E+00  0.00000E+00  9.000E+00
      21    -1     0     0   502   512  0.000000000E+00  0.000000000E+00 -8.636922684E+02  8.636922684E+02  0.000000000E+00  0.00000E+00  9.000E+00
      25     1     1     2     0     0 -1.216479171E+01 -7.540168933E+00 -7.254102221E+02  7.362403197E+02  1.249999270E+02  0.00000E+00  9.000E+00
       5     1     1     2   501     0 -1.849617201E+00 -1.918822977E-01  2.612789529E+00  5.731236492E+00  4.750000000E+00  0.00000E+00  9.000E+00
      -5     1     1     2     0   503  5.157226116E+00 -1.915918073E+00 -4.908790041E+01  4.962310138E+01  4.750000000E+00  0.00000E+00  9.000E+00
      21     1     1     2   503   512  8.857182794E+00  9.647969304E+00 -8.142900208E+01  8.247554412E+01  1.348699152E-06  0.00000E+00  9.000E+00
#rwgt            1           9   2.4793234767575366E-004           1     1004816           0
</event>
<event>
      6   9999  3.45752E-01  8.01589E+00 -1.00000E+00  1.97913E-01
      21    -1     0     0   511   503  0.000000000E+00  0.000000000E+00  2.766690942E+02  2.766690942E+02  0.000000000E+00  0.00000E+00  9.000E+00
      21    -1     0     0   501   502  0.000000000E+00  0.000000000E+00 -2.706464739E+01  2.706464739E+01  0.000000000E+00  0.00000E+00  9.000E+00
      25     1     1     2     0     0  1.666891885E+01 -7.470333700E+00  2.389760845E+02  2.703117478E+02  1.250008532E+02  0.00000E+00  9.000E+00
       5     1     1     2   501     0  1.023044423E+00  8.126302435E-02 -3.901904255E+00  6.232221144E+00  4.750000000E+00  0.00000E+00  9.000E+00
      -5     1     1     2     0   503 -1.004726274E+01  4.978056728E+00  2.037927144E+00  1.234682892E+01  4.750000000E+00  0.00000E+00  9.000E+00
      21     1     1     2   511   502 -7.644700531E+00  2.411013948E+00  1.249233948E+01  1.484294378E+01  3.371747881E-07  0.00000E+00  9.000E+00
#rwgt            1           9   1.9583779775828248E-004           1     1006621           0
</event>
<event>
      6   9999  3.45752E-01  2.10818E+01 -1.00000E+00  1.58484E-01
       2    -1     0     0   501     0  0.000000000E+00  0.000000000E+00  7.056824981E+02  7.056824981E+02  0.000000000E+00  0.00000E+00  9.000E+00
      21    -1     0     0   502   503  0.000000000E+00  0.000000000E+00 -7.481338885E+02  7.481338885E+02  0.000000000E+00  0.00000E+00  9.000E+00
      25     1     1     2     0     0  5.804134463E+00 -8.632046808E+00 -6.110724685E+02  6.238120472E+02  1.249948329E+02  0.00000E+00  9.000E+00
       5     1     1     2   501     0  1.141549619E+01  5.035816110E+00 -3.485030188E+01  3.731995496E+01  4.750000000E+00  0.00000E+00  9.000E+00
      -5     1     1     2     0   503 -8.481362112E-01  1.687841528E+01 -9.363144804E+01  9.526285109E+01  4.750000000E+00  0.00000E+00  9.000E+00
       2     1     1     2   502     0 -1.637149444E+01 -1.328218458E+01  6.971028281E+02  6.974215333E+02  1.321449896E-05  0.00000E+00  9.000E+00
#rwgt            1           9   1.4315618469694919E-004           1     1009235           0
</event>
<event>
      6   9999  3.45752E-01  1.67486E+01 -1.00000E+00  1.66323E-01
      21    -1     0     0   501   502  0.000000000E+00  0.000000000E+00  3.781626729E+02  3.781626729E+02  0.000000000E+00  0.00000E+00  9.000E+00
      21    -1     0     0   502   511  0.000000000E+00  0.000000000E+00 -8.837186370E+01  8.837186370E+01  0.000000000E+00  0.00000E+00  9.000E+00
      25     1     1     2     0     0  3.866854662E+01  1.451383935E+01  7.094067596E+00  1.318365556E+02  1.249985743E+02  0.00000E+00  9.000E+00
       5     1     1     2   501     0 -3.831874717E+00 -7.033334637E+00  1.878156929E+02  1.880463987E+02  4.750000000E+00  0.00000E+00  9.000E+00
      -5     1     1     2     0   503 -3.859944601E+01 -2.380095718E+01  1.130753346E+02  1.219220923E+02  4.750000000E+00  0.00000E+00  9.000E+00
      21     1     1     2   503   511  3.762774108E+00  1.632045246E+01 -1.819428587E+01  2.472949001E+01  5.840038640E-07  0.00000E+00  9.000E+00
#rwgt            1           9   1.4272704120919160                1     1010927           0
</event>
<event>
      6   9999  3.45752E-01  1.28853E+01 -1.00000E+00  1.76297E-01
      21    -1     0     0   512   502  0.000000000E+00  0.000000000E+00  1.068950606E+01  1.068950606E+01  0.000000000E+00  0.00000E+00  9.000E+00
      21    -1     0     0   502   503  0.000000000E+00  0.000000000E+00 -1.321294669E+03  1.321294669E+03  0.000000000E+00  0.00000E+00  9.000E+00
      25     1     1     2     0     0 -9.227009165E+00  4.653511807E+01 -8.213641469E+02  8.321744041E+02  1.249980880E+02  0.00000E+00  9.000E+00
       5     1     1     2   501     0 -6.151116899E+00 -2.623270548E+00 -2.024666661E+01  2.184508632E+01  4.750000000E+00  0.00000E+00  9.000E+00
      -5     1     1     2     0   503  2.337751930E+01 -3.381038905E+01 -4.608875712E+02  4.627413604E+02  4.750000000E+00  0.00000E+00  9.000E+00
      21     1     1     2   512   501 -7.999393238E+00 -1.010145847E+01 -8.106778582E+00  1.522332468E+01  7.251217997E-07  0.00000E+00  9.000E+00
#rwgt            1           9   2.4058605243901764E-002           1     1013285           0
</event>
<event>
      6   9999  3.45752E-01  1.30094E+01 -1.00000E+00  1.75910E-01
      21    -1     0     0   502   511  0.000000000E+00  0.000000000E+00  5.481685296E+02  5.481685296E+02  0.000000000E+00  0.00000E+00  9.000E+00
      21    -1     0     0   501   502  0.000000000E+00  0.000000000E+00 -1.232923772E+03  1.232923772E+03  0.000000000E+00  0.00000E+00  9.000E+00
      25     1     1     2     0     0  5.495057243E+01 -5.922526083E+01 -1.006261299E+02  1.796589037E+02  1.249980269E+02  0.00000E+00  9.000E+00
       5     1     1     2   501     0 -6.603072002E+01  7.250694833E+01 -1.071116454E+03  1.075606961E+03  4.750000000E+00  0.00000E+00  9.000E+00
      -5     1     1     2     0   503  4.242838791E+00 -2.434949959E+01 -1.114384499E+01  2.752539904E+01  4.750000000E+00  0.00000E+00  9.000E+00
      21     1     1     2   503   511  6.837308803E+00  1.106781209E+01  4.981311867E+02  4.983010379E+02  1.078959322E-05  0.00000E+00  9.000E+00
#rwgt            1           9  0.15789262507015350                1     1015182           0
</event>
<event>
      6   9999  3.45752E-01  4.63140E+00 -1.00000E+00  2.35372E-01
      21    -1     0     0   501   502  0.000000000E+00  0.000000000E+00  1.339225015E+03  1.339225015E+03  0.000000000E+00  0.00000E+00  9.000E+00
      21    -1     0     0   502   512  0.000000000E+00  0.000000000E+00 -7.745340885E+00  7.745340885E+00  0.000000000E+00  0.00000E+00  9.000E+00
      25     1     1     2     0     0 -2.844838553E+00 -3.915508455E-01  7.937386559E+02  8.035261655E+02  1.249999935E+02  0.00000E+00  9.000E+00
       5     1     1     2   501     0  9.018272251E-01 -1.216386106E+00  5.032208117E+02  5.032455074E+02  4.750000000E+00  0.00000E+00  9.000E+00
      -5     1     1     2     0   503  6.031160870E+00 -5.685119882E-01  3.471980664E+01  3.556298048E+01  4.750000000E+00  0.00000E+00  9.000E+00
      21     1     1     2   503   512 -4.088149542E+00  2.176448940E+00 -1.996002085E-01  4.635702418E+00  1.943587878E-07  0.00000E+00  9.000E+00
#rwgt            1           9   4.5876303625662823E-004           1     1018451           0
</event>
<event>
      6   9999  3.45752E-01  1.07510E+01 -1.00000E+00  1.83941E-01
      21    -1     0     0   501   502  0.000000000E+00  0.000000000E+00  4.485812364E+01  4.485812364E+01  0.000000000E+00  0.00000E+00  9.000E+00
      21    -1     0     0   511   503  0.000000000E+00  0.000000000E+00 -1.427403525E+03  1.427403525E+03  0.000000000E+00  0.00000E+00  9.000E+00
      25     1     1     2     0     0  5.339505175E-01 -1.594938397E+01 -1.259616327E+03  1.265895201E+03  1.249107686E+02  0.00000E+00  9.000E+00
       5     1     1     2   501     0 -2.970272730E+00 -4.899646397E+00  4.001670286E+01  4.070292450E+01  4.750000000E+00  0.00000E+00  9.000E+00
      -5     1     1     2     0   503 -4.449125162E+00  1.259225592E+01 -4.386414754E+01  4.609756570E+01  4.750000000E+00  0.00000E+00  9.000E+00
      21     1     1     2   511   502  6.885447374E+00  8.256774449E+00 -1.190816300E+02  1.195659580E+02  2.336015456E-06  0.00000E+00  9.000E+00
#rwgt            1           9   5.2290119583045212E-003           1     1022904           0
</event>
<event>
      6   9999  3.45752E-01  2.87586E+02 -1.00000E+00  1.03702E-01
       1    -1     0     0   501     0  0.000000000E+00  0.000000000E+00  1.049795191E+03  1.049795191E+03  0.000000000E+00  0.00000E+00  9.000E+00
      21    -1     0     0   512   502  0.000000000E+00  0.000000000E+00 -1.474261221E+03  1.474261221E+03  0.000000000E+00  0.00000E+00  9.000E+00
      25     1     1     2     0     0  2.571434533E+02  1.524473131E+02 -1.298847087E+03  1.338653047E+03  1.250011437E+02  0.00000E+00  9.000E+00
       5     1     1     2   501     0  2.278810321E+01  2.426715639E+01 -8.392234465E+00  3.465811054E+01  4.750000000E+00  0.00000E+00  9.000E+00
      -5     1     1     2     0   502 -1.006863160E+02  4.817823018E+01 -8.548961406E+01  1.406766246E+02  4.750000000E+00  0.00000E+00  9.000E+00
       1     1     1     2   512     0 -1.792452405E+02 -2.248926996E+02  9.682629051E+02  1.010068629E+03  1.525878906E-05  0.00000E+00  9.000E+00
#rwgt            1           2   2.2727984657484262E-007           1     1026669           0
</event>
<event>
      6   9999  3.45752E-01  8.88312E+00 -1.00000E+00  1.92779E-01
      21    -1     0     0   511   502  0.000000000E+00  0.000000000E+00  1.475931499E+01  1.475931499E+01  0.000000000E+00  0.00000E+00  9.000E+00
      21    -1     0     0   502   503  0.000000000E+00  0.000000000E+00 -7.548217893E+02  7.548217893E+02  0.000000000E+00  0.00000E+00  9.000E+00
      25     1     1     2     0     0 -1.289277722E+01 -2.704640799E+01 -6.922206978E+02  7.040543489E+02  1.250011995E+02  0.00000E+00  9.000E+00
       5     1     1     2   501     0  4.420509977E-02  5.082386490E-02  8.903259093E-01  4.833189152E+00  4.750000000E+00  0.00000E+00  9.000E+00
      -5     1     1     2     0   503  5.098278928E+00  2.265476486E+01 -4.538370238E+01  5.120032970E+01  4.750000000E+00  0.00000E+00  9.000E+00
      21     1     1     2   511   501  7.750293189E+00  4.340819256E+00 -3.348400015E+00  9.493236487E+00  4.480271452E-07  0.00000E+00  9.000E+00
#rwgt            1           9   1.3737562853233026E-004           1     1027122           0
</event>
<event>
      6   9999  3.45752E-01  1.63773E+01 -1.00000E+00  1.67130E-01
      21    -1     0     0   501   502  0.000000000E+00  0.000000000E+00  5.692341846E+02  5.692341846E+02  0.000000000E+00  0.00000E+00  9.000E+00
      21    -1     0     0   512   503  0.000000000E+00  0.000000000E+00 -1.783796076E+02  1.783796076E+02  0.000000000E+00  0.00000E+00  9.000E+00
      25     1     1     2     0     0  5.698854804E+01 -5.923175449E+01 -1.012284716E+02  1.806338926E+02  1.250012174E+02  0.00000E+00  9.000E+00
       5     1     1     2   501     0 -2.755441930E+00  5.927143212E+00  4.457232032E+02  4.457964332E+02  4.750000000E+00  0.00000E+00  9.000E+00
      -5     1     1     2     0   503 -6.968082990E+01  4.786550097E+01  5.662032250E+01  1.018574870E+02  4.750000000E+00  0.00000E+00  9.000E+00
      21     1     1     2   512   502  1.544772379E+01  5.439110309E+00 -1.026047709E+01  1.932597944E+01  3.371747881E-07  0.00000E+00  9.000E+00
#rwgt            1           9   1.0921516732997740E-002           1     1030131           0
</event>
<event>
      6   9999  3.45752E-01  3.72478E+00 -1.00000E+00  2.54437E-01
      21    -1     0     0   501   502  0.000000000E+00  0.000000000E+00  1.114183818E+02  1.114183818E+02  0.000000000E+00  0.00000E+00  9.000E+00
      21    -1     0     0   511   503  0.000000000E+00  0.000000000E+00 -7.603459894E+01  7.603459894E+01  0.000000000E+00  0.00000E+00  9.000E+00
      25     1     1     2     0     0  1.954963578E+00 -1.139924473E+01  1.857727472E+01  1.268992928E+02  1.249982029E+02  0.00000E+00  9.000E+00
       5     1     1     2   501     0  8.275372171E-01  1.423086308E-01  2.587044499E+01  2.631629711E+01  4.750000000E+00  0.00000E+00  9.000E+00
      -5     1     1     2     0   503 -9.850972069E-02  8.674268300E+00  1.044007125E+01  1.438089783E+01  4.750000000E+00  0.00000E+00  9.000E+00
      21     1     1     2   511   502 -2.683991074E+00  2.582667802E+00 -1.950400810E+01  1.985649297E+01  0.000000000E+00  0.00000E+00  9.000E+00
#rwgt            1           9   5.2780395498947329E-002           1     1033246           0
</event>
<event>
      6   9999  3.45752E-01  9.26085E+00 -1.00000E+00  1.90776E-01
      21    -1     0     0   502   512  0.000000000E+00  0.000000000E+00  1.573498444E+02  1.573498444E+02  0.000000000E+00  0.00000E+00  9.000E+00
      21    -1     0     0   501   502  0.000000000E+00  0.000000000E+00 -3.991873983E+02  3.991873983E+02  0.000000000E+00  0.00000E+00  9.000E+00
      25     1     1     2     0     0 -2.833471092E+00  2.694199486E+00 -2.070437857E+02  2.418830000E+02  1.249998770E+02  0.00000E+00  9.000E+00
       5     1     1     2   501     0  2.388385972E+00  3.147262430E+00 -1.164726278E+02  1.166363802E+02  4.750000000E+00  0.00000E+00  9.000E+00
      -5     1     1     2     0   503 -8.238201013E+00 -9.060768142E+00 -5.727190896E+01  5.875882513E+01  4.750000000E+00  0.00000E+00  9.000E+00
      21     1     1     2   503   512  8.683286133E+00  3.219306226E+00  1.389507686E+02  1.392590374E+02  0.000000000E+00  0.00000E+00  9.000E+00
#rwgt            1           9   100160.37316323715                1     1037732           0
</event>
<event>
      6   9999  3.45752E-01  3.65409E+00 -1.00000E+00  2.56271E-01
      21    -1     0     0   511   502  0.000000000E+00  0.000000000E+00  2.612610476E+01  2.612610476E+01  0.000000000E+00  0.00000E+00  9.000E+00
      21    -1     0     0   502   503  0.000000000E+00  0.000000000E+00 -1.109080015E+03  1.109080015E+03  0.000000000E+00  0.00000E+00  9.000E+00
      25     1     1     2     0     0  5.150713983E+01 -2.166665086E+00 -8.397387894E+02  8.505547759E+02  1.249980502E+02  0.00000E+00  9.000E+00
       5     1     1     2   501     0  5.543120024E-01 -1.383381845E+00  1.713901961E+01  1.784739478E+01  4.750000000E+00  0.00000E+00  9.000E+00
      -5     1     1     2     0   503 -5.392198522E+01  4.050800274E-01 -2.507873477E+02  2.565630544E+02  4.750000000E+00  0.00000E+00  9.000E+00
      21     1     1     2   511   501  1.860533383E+00  3.144966904E+00 -9.566792906E+00  1.024089487E+01  1.192092896E-07  0.00000E+00  9.000E+00
#rwgt            1           9  0.14044220329986792                1     1040334           0
</event>
<event>
      6   9999  3.45752E-01  2.50935E+00 -1.00000E+00  2.98906E-01
      21    -1     0     0   501   512  0.000000000E+00  0.000000000E+00  9.682767103E+02  9.682767103E+02  0.000000000E+00  0.00000E+00  9.000E+00
      21    -1     0     0   502   503  0.000000000E+00  0.000000000E+00 -9.655999794E+00  9.655999794E+00  0.000000000E+00  0.00000E+00  9.000E+00
      25     1     1     2     0     0  1.257290661E+01  5.804109066E+00  6.773437443E+02  6.889201839E+02  1.249988251E+02  0.00000E+00  9.000E+00
       5     1     1     2   501     0 -8.261572391E-02  8.240146811E-02  2.662590888E+01  2.704653655E+01  4.750000000E+00  0.00000E+00  9.000E+00
      -5     1     1     2     0   503 -1.492849633E+01 -5.293221707E+00  1.507332537E+01  2.237511645E+01  4.750000000E+00  0.00000E+00  9.000E+00
      21     1     1     2   502   512  2.438205443E+00 -5.932888268E-01  2.395777320E+02  2.395908732E+02  4.672030912E-06  0.00000E+00  9.000E+00
#rwgt            1           9   1.5324060334527351E-002           1     1047586           0
</event>
<event>
      6   9999  3.45752E-01  9.03213E+00 -1.00000E+00  1.91974E-01
      21    -1     0     0   501   511  0.000000000E+00  0.000000000E+00  6.384468141E+02  6.384468141E+02  0.000000000E+00  0.00000E+00  9.000E+00
      21    -1     0     0   502   503  0.000000000E+00  0.000000000E+00 -3.205530744E+01  3.205530744E+01  0.000000000E+00  0.00000E+00  9.000E+00
      25     1     1     2     0     0  1.754419535E+01  1.195372017E+01  1.021608977E+02  1.628268198E+02  1.250001361E+02  0.00000E+00  9.000E+00
       5     1     1     2   501     0  2.378951738E+00 -3.009030142E-01  2.642217892E+02  2.642753609E+02  4.750000000E+00  0.00000E+00  9.000E+00
      -5     1     1     2     0   503 -1.586625466E+01 -1.972257320E+01  1.058747121E+02  1.089620810E+02  4.750000000E+00  0.00000E+00  9.000E+00
      21     1     1     2   502   511 -4.056892430E+00  8.069756041E+00  1.341341077E+02  1.344378599E+02  0.000000000E+00  0.00000E+00  9.000E+00
#rwgt            1           9   2.7703722861328679E-003           1     1053865           0
</event>
<event>
      6   9999 -3.45752E-01  4.15745E+01 -1.00000E+00  1.39220E-01
      21    -1     0     0   502   503  0.000000000E+00  0.000000000E+00  1.648778154E+01  1.648778154E+01  0.000000000E+00  0.00000E+00  9.000E+00
      21    -1     0     0   501   512  0.000000000E+00  0.000000000E+00 -1.848674044E+03  1.848674044E+03  0.000000000E+00  0.00000E+00  9.000E+00
      25     1     1     2     0     0  7.522838015E+01  2.053219794E+01 -5.215760210E+02  5.419860848E+02  1.250059604E+02  0.00000E+00  9.000E+00
       5     1     1     2   501     0  5.928474583E+00  2.276537420E+01 -1.284444127E+02  1.306672826E+02  4.750000000E+00  0.00000E+00  9.000E+00
      -5     1     1     2     0   503 -3.990623336E+01 -4.847706818E+01 -2.048704263E+02  2.143291573E+02  4.750000000E+00  0.00000E+00  9.000E+00
      21     1     1     2   502   512 -4.125062138E+01  5.179496042E+00 -9.772954021E+02  9.781793005E+02  1.078959322E-05  0.00000E+00  9.000E+00
#rwgt            1           9  -3.4775314081317185E-004           1     1057671           0
</event>
<event>
      6   9999  3.45752E-01  1.02850E+01 -1.00000E+00  1.85917E-01
      21    -1     0     0   501   511  0.000000000E+00  0.000000000E+00  3.082289002E+01  3.082289002E+01  0.000000000E+00  0.00000E+00  9.000E+00
      21    -1     0     0   502   503  0.000000000E+00  0.000000000E+00 -1.137571114E+03  1.137571114E+03  0.000000000E+00  0.00000E+00  9.000E+00
      25     1     1     2     0     0 -1.219110684E+02  6.282706022E+01 -3.485470795E+02  3.948694896E+02  1.250091961E+02  0.00000E+00  9.000E+00
       5     1     1     2   501     0  4.738923594E+00 -3.361397497E+00 -9.592464182E+00  1.217925527E+01  4.750000000E+00  0.00000E+00  9.000E+00
      -5     1     1     2     0   503  1.083736267E+02 -5.413962980E+01 -7.307318657E+02  7.407209762E+02  4.750000000E+00  0.00000E+00  9.000E+00
      21     1     1     2   502   511  8.798518054E+00 -5.326032930E+00 -1.787681429E+01  2.062428267E+01  2.384185791E-07  0.00000E+00  9.000E+00
#rwgt            1           9   1.2632507517554448E-002           1     1058512           0
</event>
<event>
      6   9999  3.45752E-01  1.02375E+02 -1.00000E+00  1.20004E-01
       2    -1     0     0   501     0  0.000000000E+00  0.000000000E+00  1.368276186E+02  1.368276186E+02  0.000000000E+00  0.00000E+00  9.000E+00
      21    -1     0     0   512   502  0.000000000E+00  0.000000000E+00 -1.361403614E+02  1.361403614E+02  0.000000000E+00  0.00000E+00  9.000E+00
      25     1     1     2     0     0 -7.081938376E+01 -6.122127874E+01  4.709127593E-01  1.561687122E+02  1.250000593E+02  0.00000E+00  9.000E+00
       5     1     1     2   501     0 -2.576677692E+00 -2.458970357E+00  8.273523526E-01  5.994398640E+00  4.750000000E+00  0.00000E+00  9.000E+00
      -5     1     1     2     0   502 -7.365007063E-01 -6.923633036E+00 -6.890396742E-02  8.428901202E+00  4.750000000E+00  0.00000E+00  9.000E+00
       2     1     1     2   512     0  7.413256216E+01  7.060388213E+01 -5.421039484E-01  1.023759680E+02  4.868029423E-07  0.00000E+00  9.000E+00
#rwgt            1           4   7.3264662697718139E-007           1     1061787           0
</event>
<event>
      6   9999  3.45752E-01  3.18790E+01 -1.00000E+00  1.46151E-01
      21    -1     0     0   501   502  0.000000000E+00  0.000000000E+00  9.952191878E+01  9.952191878E+01  0.000000000E+00  0.00000E+00  9.000E+00
      21    -1     0     0   502   511  0.000000000E+00  0.000000000E+00 -1.800506505E+03  1.800506505E+03  0.000000000E+00  0.00000E+00  9.000E+00
      25     1     1     2     0     0 -1.463132826E+01  4.658842665E+01 -4.887711785E+02  5.068614668E+02  1.250068971E+02  0.00000E+00  9.000E+00
       5     1     1     2   501     0  9.128134905E-01  1.504860155E+00  8.854613717E+01  8.869091690E+01  4.750000000E+00  0.00000E+00  9.000E+00
      -5     1     1     2     0   503 -8.791398466E-01 -1.975290944E+01 -1.158910890E+03  1.159089282E+03  4.750000000E+00  0.00000E+00  9.000E+00
      21     1     1     2   503   511  1.459765462E+01 -2.834037737E+01 -1.418486542E+02  1.453867573E+02  0.000000000E+00  0.00000E+00  9.000E+00
#rwgt            1           9   2.1284370590398793E-003           1     1061896           0
</event>
<event>
      6   9999  3.45752E-01  5.77157E+00 -1.00000E+00  2.16433E-01
      21    -1     0     0   501   502  0.000000000E+00  0.000000000E+00  8.277644437E+01  8.277644437E+01  0.000000000E+00  0.00000E+00  9.000E+00
      21    -1     0     0   512   503  0.000000000E+00  0.000000000E+00 -5.511426659E+02  5.511426659E+02  0.000000000E+00  0.00000E+00  9.000E+00
      25     1     1     2     0     0  1.684842094E+01  4.776896379E+01 -4.894400356E+02  5.076509499E+02  1.248687122E+02  0.00000E+00  9.000E+00
       5     1     1     2   501     0 -2.090068577E+00  1.995028652E+00  5.200124067E+01  5.229761043E+01  4.750000000E+00  0.00000E+00  9.000E+00
      -5     1     1     2     0   503 -1.252133577E+01 -5.508440534E+01 -1.745737498E+01  5.931608553E+01  4.750000000E+00  0.00000E+00  9.000E+00
      21     1     1     2   512   502 -2.237016602E+00  5.320412900E+00 -1.347005160E+01  1.465446440E+01  1.685873940E-07  0.00000E+00  9.000E+00
#rwgt            1           9   5.0119790525719222E-002           1     1064169           0
</event>
<event>
      6   9999  3.45752E-01  4.51100E+00 -1.00000E+00  2.37517E-01
      21    -1     0     0   501   502  0.000000000E+00  0.000000000E+00  2.414476663E+01  2.414476663E+01  0.000000000E+00  0.00000E+00  9.000E+00
      21    -1     0     0   502   511  0.000000000E+00  0.000000000E+00 -1.101795057E+03  1.101795057E+03  0.000000000E+00  0.00000E+00  9.000E+00
      25     1     1     2     0     0  6.304532052E-01  9.540731290E+00 -9.995255674E+02  1.007356766E+03  1.249994829E+02  0.00000E+00  9.000E+00
       5     1     1     2   501     0 -9.345806944E-01 -1.880394613E+00  1.956573292E+01  2.024326381E+01  4.750000000E+00  0.00000E+00  9.000E+00
      -5     1     1     2     0   503  2.604444448E+00 -3.779917245E+00 -4.952941261E+01  4.996795091E+01  4.750000000E+00  0.00000E+00  9.000E+00
      21     1     1     2   503   511 -2.300316959E+00 -3.880419432E+00 -4.816104284E+01  4.837184264E+01  9.536743164E-07  0.00000E+00  9.000E+00
#rwgt            1           9   3.8526002836780601E-003           1     1069587           0
</event>
<event>
      6   9999  3.45752E-01  5.65479E+00 -1.00000E+00  2.17706E-01
      21    -1     0     0   512   503  0.000000000E+00  0.000000000E+00  6.793349763E+01  6.793349763E+01  0.000000000E+00  0.00000E+00  9.000E+00
      21    -1     0     0   501   502  0.000000000E+00  0.000000000E+00 -7.197725895E+02  7.197725895E+02  0.000000000E+00  0.00000E+00  9.000E+00
      25     1     1     2     0     0 -1.971422580E+00 -1.363887743E+01 -6.349584276E+02  6.472926956E+02  1.250028938E+02  0.00000E+00  9.000E+00
       5     1     1     2   501     0  5.891486632E+00  8.059384446E+00 -4.991877556E+01  5.112836733E+01  4.750000000E+00  0.00000E+00  9.000E+00
      -5     1     1     2     0   503 -1.525773336E+00  4.565983018E-01 -2.776811006E+01  2.821642966E+01  4.750000000E+00  0.00000E+00  9.000E+00
      21     1     1     2   512   502 -2.394290717E+00  5.122894683E+00  6.080622140E+01  6.106859453E+01  1.348699152E-06  0.00000E+00  9.000E+00
#rwgt            1           9   2.8985403724010299E-003           1     1075129           0
</event>
<event>
      6   9999  3.45752E-01  7.36586E+00 -1.00000E+00  2.02359E-01
      21    -1     0     0   501   502  0.000000000E+00  0.000000000E+00  7.302074405E+00  7.302074405E+00  0.000000000E+00  0.00000E+00  9.000E+00
      21    -1     0     0   502   511  0.000000000E+00  0.000000000E+00 -1.233458006E+03  1.233458006E+03  0.000000000E+00  0.00000E+00  9.000E+00
      25     1     1     2     0     0 -5.598566884E+00  3.804643778E-01 -8.300486443E+02  8.394265904E+02  1.249990401E+02  0.00000E+00  9.000E+00
       5     1     1     2   501     0 -9.050022129E-01 -1.323352871E+01 -4.208223509E+01  4.437817393E+01  4.750000000E+00  0.00000E+00  9.000E+00
      -5     1     1     2     0   503  6.631719100E+00  5.488321798E+00 -1.553273609E+01  1.838286606E+01  4.750000000E+00  0.00000E+00  9.000E+00
      21     1     1     2   503   511 -1.281500038E-01  7.364742537E+00 -3.384923161E+02  3.385724500E+02  3.814697266E-06  0.00000E+00  9.000E+00
#rwgt            1           9   14935.514458951990                1     1078380           0
</event>
<event>
      6   9999  3.45752E-01  1.11664E+01 -1.00000E+00  1.82284E-01
      21    -1     0     0   512   502  0.000000000E+00  0.000000000E+00  6.988338014E+00  6.988338014E+00  0.000000000E+00  0.00000E+00  9.000E+00
      21    -1     0     0   502   503  0.000000000E+00  0.000000000E+00 -5.368152007E+03  5.368152007E+03  0.000000000E+00  0.00000E+00  9.000E+00
      25     1     1     2     0     0 -2.385578739E+01 -4.830291444E+01 -2.862808900E+03  2.866043158E+03  1.250052728E+02  0.00000E+00  9.000E+00
       5     1     1     2   501     0  1.354545320E+01  2.304525312E+01 -5.144856447E+01  5.817284830E+01  4.750000000E+00  0.00000E+00  9.000E+00
      -5     1     1     2     0   503  5.855087967E+00  1.501853250E+01 -2.433143105E+03  2.433201136E+03  4.750000000E+00  0.00000E+00  9.000E+00
      21     1     1     2   512   501  4.455246227E+00  1.023912882E+01 -1.376310002E+01  1.772320231E+01  1.572478528E-06  0.00000E+00  9.000E+00
#rwgt            1           9  0.68893515089016966                1     1081355           0
</event>
<event>
      6   9999  3.45752E-01  2.03086E+01 -1.00000E+00  1.59704E-01
      21    -1     0     0   501   502  0.000000000E+00  0.000000000E+00  3.161069157E+03  3.161069157E+03  0.000000000E+00  0.00000E+00  9.000E+00
      21    -1     0     0   502   511  0.000000000E+00  0.000000000E+00 -1.087355483E+01  1.087355483E+01  0.000000000E+00  0.00000E+00  9.000E+00
      25     1     1     2     0     0 -4.699820696E+01  1.842730741E+01  4.710639034E+02  4.899745671E+02  1.250019129E+02  0.00000E+00  9.000E+00
       5     1     1     2   501     0  8.947426740E-01  4.957805257E-01  1.254921578E+03  1.254930985E+03  4.750000000E+00  0.00000E+00  9.000E+00
      -5     1     1     2     0   503  5.937898923E+01 -3.554234711E+00  1.281566608E+03  1.282955195E+03  4.750000000E+00  0.00000E+00  9.000E+00
      21     1     1     2   503   511 -1.327552494E+01 -1.536885322E+01  1.426435119E+02  1.440819652E+02  1.907348633E-06  0.00000E+00  9.000E+00
#rwgt            1           9   8.5438699568829157E-003           1     1084350           0
</event>
<event>
      6   9999  3.45752E-01  2.62926E+01 -1.00000E+00  1.51642E-01
       2    -1     0     0   502     0  0.000000000E+00  0.000000000E+00  7.735673580E+02  7.735673580E+02  0.000000000E+00  0.00000E+00  9.000E+00
      21    -1     0     0   501   502  0.000000000E+00  0.000000000E+00 -8.694191363E+02  8.694191363E+02  0.000000000E+00  0.00000E+00  9.000E+00
      25     1     1     2     0     0  1.413491980E+00  2.242108207E+01 -3.516150528E+02  3.738483691E+02  1.249990195E+02  0.00000E+00  9.000E+00
       5     1     1     2   501     0 -8.315205913E+00 -5.218288062E+00 -4.874701888E+02  4.875921663E+02  4.750000000E+00  0.00000E+00  9.000E+00
      -5     1     1     2     0   503  2.138963539E+01  4.738055583E+00 -1.229005166E+01  2.556508445E+01  4.750000000E+00  0.00000E+00  9.000E+00
       2     1     1     2   503     0 -1.448792146E+01 -2.194084959E+01  7.555235150E+02  7.559808744E+02  1.078959322E-05  0.00000E+00  9.000E+00
#rwgt            1           9   6.3891003041514710E-002           1     1086403           0
</event>
<event>
      6   9999  3.45752E-01  6.08739E+01 -1.00000E+00  1.30368E-01
       1    -1     0     0   502     0  0.000000000E+00  0.000000000E+00  5.698800349E+02  5.698800349E+02  0.000000000E+00  0.00000E+00  9.000E+00
      21    -1     0     0   501   502  0.000000000E+00  0.000000000E+00 -9.918108555E+02  9.918108555E+02  0.000000000E+00  0.00000E+00  9.000E+00
      25     1     1     2     0     0  7.049308314E+01  6.152356519E+00 -7.321185634E+02  7.460761785E+02  1.249997881E+02  0.00000E+00  9.000E+00
       5     1     1     2   501     0 -1.829216437E-01  7.703511159E+00 -6.783708893E+01  6.843837140E+01  4.750000000E+00  0.00000E+00  9.000E+00
      -5     1     1     2     0   503 -5.770734325E+01 -7.341092075E+01 -1.709439675E+02  1.948427655E+02  4.750000000E+00  0.00000E+00  9.000E+00
       1     1     1     2   503     0 -1.260281825E+01  5.955505307E+01  5.489687993E+02  5.523335750E+02  7.629394531E-06  0.00000E+00  9.000E+00
#rwgt            1           9   5.4191078513867674E-002           1     1087525           0
</event>
<event>
      6   9999  3.45752E-01  5.25708E+00 -1.00000E+00  2.22380E-01
      21    -1     0     0   501   511  0.000000000E+00  0.000000000E+00  1.380541929E+02  1.380541929E+02  0.000000000E+00  0.00000E+00  9.000E+00
      21    -1     0     0   502   503  0.000000000E+00  0.000000000E+00 -8.427768100E+02  8.427768100E+02  0.000000000E+00  0.00000E+00  9.000E+00
      25     1     1     2     0     0 -1.457427914E+01  1.474337311E+01 -4.649741420E+02  4.819300369E+02  1.250033241E+02  0.00000E+00  9.000E+00
       5     1     1     2   501     0 -8.920600586E-01  3.677049503E-01  1.644412518E+00  5.118356241E+00  4.750000000E+00  0.00000E+00  9.000E+00
      -5     1     1     2     0   503  1.248715970E+01 -1.944251462E+01 -3.671542939E+02  3.679113733E+02  4.750000000E+00  0.00000E+00  9.000E+00
      21     1     1     2   502   511  2.979179502E+00  4.331436562E+00  1.257614063E+02  1.258712365E+02  5.394796609E-06  0.00000E+00  9.000E+00
#rwgt            1           9   1.4925930283240735E-003           1     1088836           0
</event>
<event>
      6   9999  3.45752E-01  1.09929E+01 -1.00000E+00  1.82965E-01
      21    -1     0     0   501   502  0.000000000E+00  0.000000000E+00  1.102139576E+01  1.102139576E+01  0.000000000E+00  0.00000E+00  9.000E+00
      21    -1     0     0   512   503  0.000000000E+00  0.000000000E+00 -9.618926895E+02  9.618926895E+02  0.000000000E+00  0.00000E+00  9.000E+00
      25     1     1     2     0     0 -2.067642986E+01  3.021275176E+01 -5.400934693E+02  5.555765765E+02  1.249962066E+02  0.00000E+00  9.000E+00
       5     1     1     2   501     0 -7.014256819E-03  1.080291391E+00 -1.262188240E-01  4.872936474E+00  4.750000000E+00  0.00000E+00  9.000E+00
      -5     1     1     2     0   503  1.577876243E+01 -2.145492372E+01 -2.568898039E+02  2.583103114E+02  4.750000000E+00  0.00000E+00  9.000E+00
      21     1     1     2   512   502  4.904681680E+00 -9.838119433E+00 -1.537618017E+02  1.541542609E+02  1.907348633E-06  0.00000E+00  9.000E+00
#rwgt            1           9   3.0827459149109378E-003           1     1093020           0
</event>
<event>
      6   9999 -3.45752E-01  5.51643E+00 -1.00000E+00  2.19271E-01
      21    -1     0     0   501   511  0.000000000E+00  0.000000000E+00  2.536574181E+01  2.536574181E+01  0.000000000E+00  0.00000E+00  9.000E+00
      21    -1     0     0   502   503  0.000000000E+00  0.000000000E+00 -8.923913582E+02  8.923913582E+02  0.000000000E+00  0.00000E+00  9.000E+00
      25     1     1     2     0     0 -5.208378186E+00 -6.464723859E+00 -8.626138298E+02  8.716628677E+02  1.249984628E+02  0.00000E+00  9.000E+00
       5     1     1     2   501     0  7.277497842E-01  2.111029604E+00  7.716779667E+00  9.332590967E+00  4.750000000E+00  0.00000E+00  9.000E+00
      -5     1     1     2     0   503  6.907174924E+00  9.307768693E+00 -2.207875491E+01  2.538459260E+01  4.750000000E+00  0.00000E+00  9.000E+00
      21     1     1     2   502   511 -2.426546523E+00 -4.954074439E+00  9.950188705E+00  1.137704869E+01  7.996802250E-07  0.00000E+00  9.000E+00
#rwgt            1           9  -9.6451673713972980E-003           1     1095270           0
</event>
<event>
      6   9999  3.45752E-01  4.02498E+01 -1.00000E+00  1.40029E-01
      21    -1     0     0   512   503  0.000000000E+00  0.000000000E+00  4.531761487E+01  4.531761487E+01  0.000000000E+00  0.00000E+00  9.000E+00
      21    -1     0     0   501   502  0.000000000E+00  0.000000000E+00 -9.278645295E+02  9.278645295E+02  0.000000000E+00  0.00000E+00  9.000E+00
      25     1     1     2     0     0  2.349394419E+01  3.529130770E+01 -7.714985784E+02  7.827074029E+02  1.249935208E+02  0.00000E+00  9.000E+00
       5     1     1     2   501     0 -6.679708810E-01 -2.499374085E+00 -5.367463643E+01  5.394647488E+01  4.750000000E+00  0.00000E+00  9.000E+00
      -5     1     1     2     0   503 -6.213617276E+01 -2.414608259E+01 -6.753777620E+01  9.501500399E+01  4.750000000E+00  0.00000E+00  9.000E+00
      21     1     1     2   512   502  3.931019944E+01 -8.645851022E+00  1.016407644E+01  4.151326258E+01  1.685873940E-07  0.00000E+00  9.000E+00
#rwgt            1           9   1.0575601804183363                1     1099895           0
</event>
<event>
      6   9999 -3.45752E-01  1.10613E+01 -1.00000E+00  1.82694E-01
      21    -1     0     0   501   502  0.000000000E+00  0.000000000E+00  7.403510107E+00  7.403510107E+00  0.000000000E+00  0.00000E+00  9.000E+00
      21    -1     0     0   502   511  0.000000000E+00  0.000000000E+00 -1.167051437E+03  1.167051437E+03  0.000000000E+00  0.00000E+00  9.000E+00
      25     1     1     2     0     0  5.784261473E+00  7.177371517E+00 -1.012185055E+03  1.019917049E+03  1.250089139E+02  0.00000E+00  9.000E+00
       5     1     1     2   501     0 -7.178328446E-01  1.796193917E+00  9.885872337E-01  5.223160087E+00  4.750000000E+00  0.00000E+00  9.000E+00
      -5     1     1     2     0   503  4.585436719E-01  6.090902044E-01 -5.529249830E+01  5.550138847E+01  4.750000000E+00  0.00000E+00  9.000E+00
      21     1     1     2   503   511 -5.524972301E+00 -9.582655638E+00 -9.315896063E+01  9.381334955E+01  1.348699152E-06  0.00000E+00  9.000E+00
#rwgt            1           9  -1.0032022644221851E-004           1     1101861           0
</event>
<event>
      6   9999  3.45752E-01  4.33629E+00 -1.00000E+00  2.40810E-01
      21    -1     0     0   502   512  0.000000000E+00  0.000000000E+00  1.055897161E+02  1.055897161E+02  0.000000000E+00  0.00000E+00  9.000E+00
      21    -1     0     0   501   502  0.000000000E+00  0.000000000E+00 -5.427805401E+01  5.427805401E+01  0.000000000E+00  0.00000E+00  9.000E+00
      25     1     1     2     0     0  2.127821362E+00 -1.247922157E+00  5.386323826E+01  1.361285910E+02  1.249946396E+02  0.00000E+00  9.000E+00
       5     1     1     2   501     0 -2.525563517E+00  6.380001731E+00 -9.191460285E+00  1.241484335E+01  4.750000000E+00  0.00000E+00  9.000E+00
      -5     1     1     2     0   503 -1.765327081E-01 -8.339837785E-01  3.216488735E+00  5.799568305E+00  4.750000000E+00  0.00000E+00  9.000E+00
      21     1     1     2   503   512  5.742748630E-01 -4.298095796E+00  3.423395400E+00  5.524767430E+00  7.300048300E-08  0.00000E+00  9.000E+00
#rwgt            1           9  0.28444869534066386                1     1104101           0
</event>
<event>
      6   9999  3.45752E-01  2.43457E+00 -1.00000E+00  3.03006E-01
      21    -1     0     0   511   502  0.000000000E+00  0.000000000E+00  2.230785538E+02  2.230785538E+02  0.000000000E+00  0.00000E+00  9.000E+00
      21    -1     0     0   502   503  0.000000000E+00  0.000000000E+00 -3.467578121E+02  3.467578121E+02  0.000000000E+00  0.00000E+00  9.000E+00
      25     1     1     2     0     0  9.135928703E+00  1.389768164E+01 -3.217392137E+02  3.455682173E+02  1.249986415E+02  0.00000E+00  9.000E+00
       5     1     1     2   501     0 -6.872360269E-01 -1.314374517E+00  8.786309654E+00  1.009760422E+01  4.750000000E+00  0.00000E+00  9.000E+00
      -5     1     1     2     0   503 -9.101764987E+00 -1.023796092E+01 -8.216579969E+00  1.666531296E+01  4.750000000E+00  0.00000E+00  9.000E+00
      21     1     1     2   511   501  6.530723104E-01 -2.345346208E+00  1.974902257E+02  1.975052314E+02  3.814697266E-06  0.00000E+00  9.000E+00
#rwgt            1           9   1.2896461396809134E-004           1     1108243           0
</event>
<event>
      6   9999  3.45752E-01  2.59782E+01 -1.00000E+00  1.51999E-01
      21    -1     0     0   502   503  0.000000000E+00  0.000000000E+00  3.684286832E+01  3.684286832E+01  0.000000000E+00  0.00000E+00  9.000E+00
      21    -1     0     0   512   502  0.000000000E+00  0.000000000E+00 -1.455240592E+03  1.455240592E+03  0.000000000E+00  0.00000E+00  9.000E+00
      25     1     1     2     0     0 -1.010741308E+02  4.535366251E+01 -1.905543436E+02  2.534008821E+02  1.250124577E+02  0.00000E+00  9.000E+00
       5     1     1     2   501     0  1.222938384E+02 -3.169192065E+01 -9.544818334E+02  9.628178922E+02  4.750000000E+00  0.00000E+00  9.000E+00
      -5     1     1     2     0   503 -2.348807936E+00  4.191986940E+00 -1.873079028E+01  1.991217360E+01  4.750000000E+00  0.00000E+00  9.000E+00
      21     1     1     2   512   501 -1.887089963E+01 -1.785372881E+01 -2.546307568E+02  2.559525128E+02  4.672030912E-06  0.00000E+00  9.000E+00
#rwgt            1           9   2.4741894101179053E-004           1     1114750           0
</event>
<event>
      6   9999  3.45752E-01  4.10926E+00 -1.00000E+00  2.45452E-01
      21    -1     0     0   501   502  0.000000000E+00  0.000000000E+00  2.059196235E+01  2.059196235E+01  0.000000000E+00  0.00000E+00  9.000E+00
      21    -1     0     0   511   503  0.000000000E+00  0.000000000E+00 -1.022095280E+03  1.022095280E+03  0.000000000E+00  0.00000E+00  9.000E+00
      25     1     1     2     0     0  1.833287701E+00 -7.820899276E+00 -9.418189301E+02  9.501119230E+02  1.250009664E+02  0.00000E+00  9.000E+00
       5     1     1     2   501     0 -3.109042702E+00  3.514555275E+00  1.542510922E+01  1.680817479E+01  4.750000000E+00  0.00000E+00  9.000E+00
      -5     1     1     2     0   503  2.625805806E-01  3.239450558E-01 -2.262369621E+01  2.312072704E+01  4.750000000E+00  0.00000E+00  9.000E+00
      21     1     1     2   511   502  1.013174420E+00  3.982398945E+00 -5.248580031E+01  5.264641733E+01  0.000000000E+00  0.00000E+00  9.000E+00
#rwgt            1           9   1.3628571659655018E-004           1     1116806           0
</event>
<event>
      6   9999  3.45752E-01  7.38205E+00 -1.00000E+00  2.02241E-01
      21    -1     0     0   501   512  0.000000000E+00  0.000000000E+00  1.957668572E+01  1.957668572E+01  0.000000000E+00  0.00000E+00  9.000E+00
      21    -1     0     0   502   503  0.000000000E+00  0.000000000E+00 -8.076140851E+02  8.076140851E+02  0.000000000E+00  0.00000E+00  9.000E+00
      25     1     1     2     0     0  1.789476922E+00  7.027283021E-02 -4.576177402E+02  4.743894029E+02  1.250124083E+02  0.00000E+00  9.000E+00
       5     1     1     2   501     0  8.577498291E-01 -4.422496956E-01 -1.647600085E+00  5.119414576E+00  4.750000000E+00  0.00000E+00  9.000E+00
      -5     1     1     2     0   503  4.469708684E+00  2.332566782E+00 -3.367450358E+02  3.368162716E+02  4.750000000E+00  0.00000E+00  9.000E+00
      21     1     1     2   502   512 -7.116935435E+00 -1.960589917E+00  7.972976738E+00  1.086568180E+01  6.583548198E-07  0.00000E+00  9.000E+00
#rwgt            1           9   3.2099196098812070E-003           1     1122082           0
</event>
<event>
      6   9999  3.45752E-01  2.54769E+01 -1.00000E+00  1.52581E-01
      21    -1     0     0   501   502  0.000000000E+00  0.000000000E+00  3.945699526E+01  3.945699526E+01  0.000000000E+00  0.00000E+00  9.000E+00
      21    -1     0     0   511   503  0.000000000E+00  0.000000000E+00 -1.595993330E+03  1.595993330E+03  0.000000000E+00  0.00000E+00  9.000E+00
      25     1     1     2     0     0 -7.382619835E+01 -4.974957141E+01 -1.935653454E+02  2.470193206E+02  1.250026976E+02  0.00000E+00  9.000E+00
       5     1     1     2   501     0  4.162306178E+00 -2.175648387E+00  8.427731995E+00  1.075394835E+01  4.750000000E+00  0.00000E+00  9.000E+00
      -5     1     1     2     0   503  9.405570703E+01  4.456908131E+01 -1.002502309E+03  1.007901940E+03  4.750000000E+00  0.00000E+00  9.000E+00
      21     1     1     2   511   502 -2.439181486E+01  7.356138487E+00 -3.688964130E+02  3.697751167E+02  0.000000000E+00  0.00000E+00  9.000E+00
#rwgt            1           9   8.8738857346949717E-004           1     1125022           0
</event>
<event>
      6   9999  3.45752E-01  9.13471E+00 -1.00000E+00  1.91431E-01
      21    -1     0     0   501   502  0.000000000E+00  0.000000000E+00  7.608727623E+02  7.608727623E+02  0.000000000E+00  0.00000E+00  9.000E+00
      21    -1     0     0   512   503  0.000000000E+00  0.000000000E+00 -1.864992691E+01  1.864992691E+01  0.000000000E+00  0.00000E+00  9.000E+00
      25     1     1     2     0     0  1.560568863E-01  2.569044781E+00  6.026226908E+02  6.154558533E+02  1.250007025E+02  0.00000E+00  9.000E+00
       5     1     1     2   501     0  2.956253977E-01 -8.241358477E-01  8.430205182E+01  8.444030457E+01  4.750000000E+00  0.00000E+00  9.000E+00
      -5     1     1     2     0   503  4.910777479E+00 -9.139976774E+00  6.517884061E+01  6.617022498E+01  4.750000000E+00  0.00000E+00  9.000E+00
      21     1     1     2   512   502 -5.362459762E+00  7.395067840E+00 -9.880747810E+00  1.345630634E+01  5.717076687E-07  0.00000E+00  9.000E+00
#rwgt            1           9   6.6691779093075955E-003           1     1126676           0
</event>
<event>
      6   9999  3.45752E-01  5.30310E+00 -1.00000E+00  2.21810E-01
      21    -1     0     0   501   511  0.000000000E+00  0.000000000E+00  2.646480494E+00  2.646480494E+00  0.000000000E+00  0.00000E+00  9.000E+00
      21    -1     0     0   502   503  0.000000000E+00  0.000000000E+00 -5.319977370E+03  5.319977370E+03  0.000000000E+00  0.00000E+00  9.000E+00
      25     1     1     2     0     0  4.762486987E+01  2.625903942E+01 -3.873883683E+03  3.876281411E+03  1.250005034E+02  0.00000E+00  9.000E+00
       5     1     1     2   501     0 -6.916151591E-01  2.116669059E+00 -7.197755598E+00  8.906671942E+00  4.750000000E+00  0.00000E+00  9.000E+00
      -5     1     1     2     0   503 -4.684423031E+01 -2.307335507E+01 -1.354488838E+03  1.355503351E+03  4.750000000E+00  0.00000E+00  9.000E+00
      21     1     1     2   502   511 -8.902439448E-02 -5.302353415E+00 -8.176061298E+01  8.193241551E+01  9.536743164E-07  0.00000E+00  9.000E+00
#rwgt            1           9   5.7934455215381115E-004           1     1128805           0
</event>
<event>
      6   9999  3.45752E-01  2.16971E+01 -1.00000E+00  1.57557E-01
      21    -1     0     0   501   502  0.000000000E+00  0.000000000E+00  2.529627673E+01  2.529627673E+01  0.000000000E+00  0.00000E+00  9.000E+00
      21    -1     0     0   502   512  0.000000000E+00  0.000000000E+00 -2.573314718E+03  2.573314718E+03  0.000000000E+00  0.00000E+00  9.000E+00
      25     1     1     2     0     0 -4.299824400E+01  5.921089388E+00 -1.689867931E+03  1.695044430E+03  1.250523414E+02  0.00000E+00  9.000E+00
       5     1     1     2   501     0  1.523016048E+00 -2.694569210E+00  2.174084870E+01  2.246791675E+01  4.750000000E+00  0.00000E+00  9.000E+00
      -5     1     1     2     0   503  2.093964011E+01 -1.023040678E+01 -3.872342658E+02  3.879640046E+02  4.750000000E+00  0.00000E+00  9.000E+00
      21     1     1     2   503   512  2.053558784E+01  7.003886606E+00 -4.926570935E+02  4.931346435E+02  7.629394531E-06  0.00000E+00  9.000E+00
#rwgt            1           9   1.9125030282466375                1     1132705           0
</event>
<event>
      6   9999  3.45752E-01  1.38760E+01 -1.00000E+00  1.73356E-01
      21    -1     0     0   501   502  0.000000000E+00  0.000000000E+00  3.663547632E+02  3.663547632E+02  0.000000000E+00  0.00000E+00  9.000E+00
      21    -1     0     0   502   511  0.000000000E+00  0.000000000E+00 -5.651633845E+01  5.651633845E+01  0.000000000E+00  0.00000E+00  9.000E+00
      25     1     1     2     0     0 -2.121508747E+01  2.035137167E+01  2.351176812E+02  2.678983181E+02  1.249997063E+02  0.00000E+00  9.000E+00
       5     1     1     2   501     0 -6.401767202E-01 -3.234258653E-01  2.240692961E+01  2.291609533E+01  4.750000000E+00  0.00000E+00  9.000E+00
      -5     1     1     2     0   503  8.980985051E+00 -2.520434448E+01  8.888246686E+01  9.294392120E+01  4.750000000E+00  0.00000E+00  9.000E+00
      21     1     1     2   503   511  1.287427914E+01  5.176398675E+00 -3.656865291E+01  3.911276700E+01  4.768371582E-07  0.00000E+00  9.000E+00
#rwgt            1           9   1.9085912925877768E-004           1     1135185           0
</event>
<event>
      6   9999 -3.45752E-01  7.00710E+00 -1.00000E+00  2.05082E-01
      21    -1     0     0   501   502  0.000000000E+00  0.000000000E+00  1.907985520E+02  1.907985520E+02  0.000000000E+00  0.00000E+00  9.000E+00
      21    -1     0     0   512   503  0.000000000E+00  0.000000000E+00 -2.018666460E+02  2.018666460E+02  0.000000000E+00  0.00000E+00  9.000E+00
      25     1     1     2     0     0  1.835631249E+01  2.387093478E+01 -1.669183221E+02  2.106962774E+02  1.249976773E+02  0.00000E+00  9.000E+00
       5     1     1     2   501     0 -7.091057951E+00  1.486856205E+00  9.189973135E+01  9.230718806E+01  4.750000000E+00  0.00000E+00  9.000E+00
      -5     1     1     2     0   503 -1.811050743E+01 -2.386046105E+01  7.251137425E+01  7.859881664E+01  4.750000000E+00  0.00000E+00  9.000E+00
      21     1     1     2   512   502  6.845252886E+00 -1.497329932E+00 -8.560877547E+00  1.106291591E+01  1.192092896E-07  0.00000E+00  9.000E+00
#rwgt            1           9  -1.3307870512696529E-002           1     1136917           0
</event>
<event>
      6   9999  3.45752E-01  8.83519E+00 -1.00000E+00  1.93043E-01
      21    -1     0     0   511   502  0.000000000E+00  0.000000000E+00  1.790096232E+03  1.790096232E+03  0.000000000E+00  0.00000E+00  9.000E+00
      21    -1     0     0   502   503  0.000000000E+00  0.000000000E+00 -3.023082394E+01  3.023082394E+01  0.000000000E+00  0.00000E+00  9.000E+00
      25     1     1     2     0     0  1.198826187E+01  2.655736647E+01  8.263627923E+02  8.362719763E+02  1.250053670E+02  0.00000E+00  9.000E+00
       5     1     1     2   501     0 -1.377446567E+00  8.931944233E-01  9.115742511E+02  9.115881049E+02  4.750000000E+00  0.00000E+00  9.000E+00
      -5     1     1     2     0   503 -1.855631234E+00 -2.626428421E+01 -1.755973247E+01  3.200254203E+01  4.750000000E+00  0.00000E+00  9.000E+00
      21     1     1     2   511   501 -8.755184066E+00 -1.186276683E+00  3.948809753E+01  4.046443311E+01  4.768371582E-07  0.00000E+00  9.000E+00
#rwgt            1           9   2.8215697084747259E-002           1     1141587           0
</event>
<event>
      6   9999  3.45752E-01  6.45285E+00 -1.00000E+00  2.09749E-01
      21    -1     0     0   512   502  0.000000000E+00  0.000000000E+00  1.980309910E+01  1.980309910E+01  0.000000000E+00  0.00000E+00  9.000E+00
      21    -1     0     0   502   503  0.000000000E+00  0.000000000E+00 -9.563276711E+02  9.563276711E+02  0.000000000E+00  0.00000E+00  9.000E+00
      25     1     1     2     0     0 -7.608517532E+00  3.108994175E+00 -8.920071876E+02  9.007608009E+02  1.250025692E+02  0.00000E+00  9.000E+00
       5     1     1     2   501     0  1.457167108E+00  3.399540566E+00  1.264959037E+01  1.400909878E+01  4.750000000E+00  0.00000E+00  9.000E+00
      -5     1     1     2     0   503  6.649522759E-01 -3.111676275E+00 -5.376129278E+01  5.406444110E+01  4.750000000E+00  0.00000E+00  9.000E+00
      21     1     1     2   512   501  5.486398148E+00 -3.396858466E+00 -3.405681943E+00  7.296429372E+00  1.931411236E-07  0.00000E+00  9.000E+00
#rwgt            1           9   7.2609175187705074E-004           1     1146006           0
</event>
<event>
      6   9999  3.45752E-01  2.12224E+01 -1.00000E+00  1.58268E-01
      21    -1     0     0   501   511  0.000000000E+00  0.000000000E+00  3.792981006E+01  3.792981006E+01  0.000000000E+00  0.00000E+00  9.000E+00
      21    -1     0     0   502   503  0.000000000E+00  0.000000000E+00 -9.380124990E+02  9.380124990E+02  0.000000000E+00  0.00000E+00  9.000E+00
      25     1     1     2     0     0 -9.457985150E+01 -2.370285008E+01 -1.811981850E+02  2.407561789E+02  1.249943279E+02  0.00000E+00  9.000E+00
       5     1     1     2   501     0 -2.375092742E-01 -1.883279191E-02 -1.727023892E+00  5.059829726E+00  4.750000000E+00  0.00000E+00  9.000E+00
      -5     1     1     2     0   503  7.795042296E+01  3.660184913E+01 -6.913705084E+02  6.967292919E+02  4.750000000E+00  0.00000E+00  9.000E+00
      21     1     1     2   502   511  1.686693781E+01 -1.288016627E+01 -2.578697172E+01  3.339700862E+01  4.768371582E-07  0.00000E+00  9.000E+00
#rwgt            1           9   1.0295908836862083E-004           1     1149747           0
</event>
<event>
      6   9999 -3.45752E-01  7.56216E+00 -1.00000E+00  2.00954E-01
       1    -1     0     0   501     0  0.000000000E+00  0.000000000E+00  6.982141787E+02  6.982141787E+02  0.000000000E+00  0.00000E+00  9.000E+00
      21    -1     0     0   502   503  0.000000000E+00  0.000000000E+00 -8.439325432E+02  8.439325432E+02  0.000000000E+00  0.00000E+00  9.000E+00
      25     1     1     2     0     0 -3.957660264E+00  9.483045112E-01 -8.168980220E+02  8.264157053E+02  1.249959089E+02  0.00000E+00  9.000E+00
       5     1     1     2   501     0 -4.817441969E+00 -5.788418456E-01  3.204963144E+00  7.508468137E+00  4.750000000E+00  0.00000E+00  9.000E+00
      -5     1     1     2     0   503  1.230469897E+00 -8.839648898E-01 -1.979401072E+01  2.041227107E+01  4.750000000E+00  0.00000E+00  9.000E+00
       1     1     1     2   502     0  7.544632336E+00  5.145022242E-01  6.877687050E+02  6.878102774E+02  1.321449896E-05  0.00000E+00  9.000E+00
#rwgt            1           9 -0.14902675813584293                1     1151447           0
</event>
<event>
      6   9999  3.45752E-01  3.61011E+00 -1.00000E+00  2.57444E-01
      21    -1     0     0   511   502  0.000000000E+00  0.000000000E+00  3.005862195E+01  3.005862195E+01  0.000000000E+00  0.00000E+00  9.000E+00
      21    -1     0     0   502   503  0.000000000E+00  0.000000000E+00 -1.135840273E+03  1.135840273E+03  0.000000000E+00  0.00000E+00  9.000E+00
      25     1     1     2     0     0  4.465237406E+01 -4.341847629E+01 -4.290465312E+02  4.512069925E+02  1.250113015E+02  0.00000E+00  9.000E+00
       5     1     1     2   501     0  2.220751859E+00  3.922978001E+00  1.675807884E+01  1.799214277E+01  4.750000000E+00  0.00000E+00  9.000E+00
      -5     1     1     2     0   503 -4.740640549E+01  3.592499328E+01 -6.830260627E+02  6.856275500E+02  4.750000000E+00  0.00000E+00  9.000E+00
      21     1     1     2   511   501  5.332795659E-01  3.570505005E+00 -1.046713546E+01  1.107220926E+01  1.192092896E-07  0.00000E+00  9.000E+00
#rwgt            1           9   3.2317861087760233E-004           1     1154456           0
</event>
<event>
      6   9999  3.45752E-01  3.92921E+00 -1.00000E+00  2.49466E-01
      21    -1     0     0   512   502  0.000000000E+00  0.000000000E+00  7.248430446E+01  7.248430446E+01  0.000000000E+00  0.00000E+00  9.000E+00
      21    -1     0     0   502   503  0.000000000E+00  0.000000000E+00 -1.037662766E+03  1.037662766E+03  0.000000000E+00  0.00000E+00  9.000E+00
      25     1     1     2     0     0 -6.827900918E+01  5.166532027E+01 -3.139603788E+02  3.486086528E+02  1.250021799E+02  0.00000E+00  9.000E+00
       5     1     1     2   501     0  3.316248615E+00  2.428533890E-01  8.296905177E+00  1.012213506E+01  4.750000000E+00  0.00000E+00  9.000E+00
      -5     1     1     2     0   503  6.741057258E+01 -5.498176058E+01 -7.026864546E+02  7.080663777E+02  4.750000000E+00  0.00000E+00  9.000E+00
      21     1     1     2   512   501 -2.447812011E+00  3.073586920E+00  4.317146662E+01  4.334990485E+01  2.523185073E-06  0.00000E+00  9.000E+00
#rwgt            1           9   2.6654430413596622E-003           1     1160819           0
</event>
<event>
      6   9999  3.45752E-01  4.75439E+00 -1.00000E+00  2.33278E-01
      21    -1     0     0   501   511  0.000000000E+00  0.000000000E+00  3.519322478E+01  3.519322478E+01  0.000000000E+00  0.00000E+00  9.000E+00
      21    -1     0     0   502   503  0.000000000E+00  0.000000000E+00 -9.604967396E+02  9.604967396E+02  0.000000000E+00  0.00000E+00  9.000E+00
      25     1     1     2     0     0  4.687052247E+01 -1.938237795E+01 -5.243582000E+02  5.414385809E+02  1.250267676E+02  0.00000E+00  9.000E+00
       5     1     1     2   501     0 -1.649547783E+00 -2.947103975E-01  7.762693911E+00  9.253635980E+00  4.750000000E+00  0.00000E+00  9.000E+00
      -5     1     1     2     0   503 -4.451700562E+01  1.497510557E+01 -4.252110110E+02  4.278235430E+02  4.750000000E+00  0.00000E+00  9.000E+00
      21     1     1     2   502   511 -7.039690654E-01  4.701982779E+00  1.650300225E+01  1.717420443E+01  9.233911863E-07  0.00000E+00  9.000E+00
#rwgt            1           9   1.2097556798322054E-003           1     1167374           0
</event>
<event>
      6   9999  3.45752E-01  4.62509E+00 -1.00000E+00  2.35482E-01
      21    -1     0     0   512   502  0.000000000E+00  0.000000000E+00  2.023973113E+01  2.023973113E+01  0.000000000E+00  0.00000E+00  9.000E+00
      21    -1     0     0   502   503  0.000000000E+00  0.000000000E+00 -1.050211023E+03  1.050211023E+03  0.000000000E+00  0.00000E+00  9.000E+00
      25     1     1     2     0     0  7.230719376E-01  1.666515693E-02 -4.278492712E+02  4.457461752E+02  1.250365176E+02  0.00000E+00  9.000E+00
       5     1     1     2   501     0 -8.613157509E-01 -3.950472856E+00  9.881690341E+00  1.168582066E+01  4.750000000E+00  0.00000E+00  9.000E+00
      -5     1     1     2     0   503  4.395889418E+00  2.127186188E+00 -6.015385133E+02  6.015770892E+02  4.750000000E+00  0.00000E+00  9.000E+00
      21     1     1     2   512   501 -4.257645605E+00  1.806621512E+00 -1.046519744E+01  1.144166880E+01  0.000000000E+00  0.00000E+00  9.000E+00
#rwgt            1           9   6.5828809050383515E-004           1     1173241           0
</event>
<event>
      6   9999  3.45752E-01  8.02058E+00 -1.00000E+00  1.97883E-01
      21    -1     0     0   511   502  0.000000000E+00  0.000000000E+00  4.541495316E+01  4.541495316E+01  0.000000000E+00  0.00000E+00  9.000E+00
      21    -1     0     0   502   503  0.000000000E+00  0.000000000E+00 -1.260456786E+03  1.260456786E+03  0.000000000E+00  0.00000E+00  9.000E+00
      25     1     1     2     0     0 -6.833702835E+01  3.462911787E+01 -8.605530053E+02  8.729531315E+02  1.250062784E+02  0.00000E+00  9.000E+00
       5     1     1     2   501     0 -7.551978760E+00 -2.069959600E-01  3.215964234E+01  3.337484571E+01  4.750000000E+00  0.00000E+00  9.000E+00
      -5     1     1     2     0   503  7.821299006E+01 -4.209862743E+01 -3.749724564E+02  3.853783489E+02  4.750000000E+00  0.00000E+00  9.000E+00
      21     1     1     2   511   501 -2.323982953E+00  7.676505519E+00 -1.167601312E+01  1.416541267E+01  0.000000000E+00  0.00000E+00  9.000E+00
#rwgt            1           9   1.0174720333660720E-003           1     1178429           0
</event>
<event>
      6   9999  3.45752E-01  4.38003E+00 -1.00000E+00  2.39964E-01
      21    -1     0     0   501   502  0.000000000E+00  0.000000000E+00  2.778631326E+03  2.778631326E+03  0.000000000E+00  0.00000E+00  9.000E+00
      21    -1     0     0   502   512  0.000000000E+00  0.000000000E+00 -6.689051692E+00  6.689051692E+00  0.000000000E+00  0.00000E+00  9.000E+00
      25     1     1     2     0     0  5.916876376E+00 -5.569454392E+00  1.046718406E+03  1.054187635E+03  1.250044829E+02  0.00000E+00  9.000E+00
       5     1     1     2   501     0 -2.503399543E+00  6.501421162E-01  1.692930101E+03  1.692938740E+03  4.750000000E+00  0.00000E+00  9.000E+00
      -5     1     1     2     0   503 -2.819009595E+00  5.798088918E-01  3.325012815E+01  3.371077744E+01  4.750000000E+00  0.00000E+00  9.000E+00
      21     1     1     2   503   512 -5.944672372E-01  4.339503384E+00 -9.563603304E-01  4.483224955E+00  3.729757968E-07  0.00000E+00  9.000E+00
#rwgt            1           9  0.11344269222559859                1     1182577           0
</event>
<event>
      6   9999  3.45752E-01  3.67299E+00 -1.00000E+00  2.55774E-01
      21    -1     0     0   501   502  0.000000000E+00  0.000000000E+00  5.633626646E+01  5.633626646E+01  0.000000000E+00  0.00000E+00  9.000E+00
       1    -1     0     0   502     0  0.000000000E+00  0.000000000E+00 -2.146165382E+03  2.146165382E+03  0.000000000E+00  0.00000E+00  9.000E+00
      25     1     1     2     0     0  7.527639655E+01  9.139915310E+00 -9.589171543E+01  1.748435908E+02  1.249999449E+02  0.00000E+00  9.000E+00
       5     1     1     2   501     0 -4.164448713E-01  2.308429481E+00  1.553240954E+01  1.641098776E+01  4.750000000E+00  0.00000E+00  9.000E+00
      -5     1     1     2     0   503 -7.188130219E+01 -1.359741812E+01 -1.522989892E+03  1.524753287E+03  4.750000000E+00  0.00000E+00  9.000E+00
       1     1     1     2   503     0 -2.978649490E+00  2.149073334E+00 -4.864799179E+02  4.864937835E+02  7.629394531E-06  0.00000E+00  9.000E+00
#rwgt            1           9   7.8673691963676866E-005           1     1187395           0
</event>
<event>
      6   9999  3.45752E-01  9.65491E+00 -1.00000E+00  1.88815E-01
      21    -1     0     0   501   502  0.000000000E+00  0.000000000E+00  7.801620078E+01  7.801620078E+01  0.000000000E+00  0.00000E+00  9.000E+00
      21    -1     0     0   511   503  0.000000000E+00  0.000000000E+00 -1.915713272E+03  1.915713272E+03  0.000000000E+00  0.00000E+00  9.000E+00
      25     1     1     2     0     0 -4.877199097E+00  6.146809620E+00 -9.979436406E+01  1.601391800E+02  1.249962860E+02  0.00000E+00  9.000E+00
       5     1     1     2   501     0  1.513384884E+00  5.187258435E+00  4.497831548E+01  4.555007516E+01  4.750000000E+00  0.00000E+00  9.000E+00
      -5     1     1     2     0   503  1.913264218E+00 -1.788740402E+00 -2.994794894E-01  5.432527971E+00  4.750000000E+00  0.00000E+00  9.000E+00
      21     1     1     2   511   502  1.450549995E+00 -9.545327654E+00 -1.782581543E+03  1.782607690E+03  3.737624730E-05  0.00000E+00  9.000E+00
#rwgt            1           9   3.2827352071044164E-004           1     1195512           0
</event>
<event>
      6   9999 -3.45752E-01  4.83601E+01 -1.00000E+00  1.35567E-01
      21    -1     0     0   512   502  0.000000000E+00  0.000000000E+00  2.474640525E+01  2.474640525E+01  0.000000000E+00  0.00000E+00  9.000E+00
      21    -1     0     0   502   503  0.000000000E+00  0.000000000E+00 -9.915711018E+02  9.915711018E+02  0.000000000E+00  0.00000E+00  9.000E+00
      25     1     1     2     0     0  1.257454448E+01  5.766580140E+01 -7.863995421E+02  7.984564666E+02  1.250001012E+02  0.00000E+00  9.000E+00
       5     1     1     2   501     0 -2.570712555E+01 -2.381734790E+01 -3.906734371E+01  5.269670018E+01  4.750000000E+00  0.00000E+00  9.000E+00
      -5     1     1     2     0   503 -3.201056447E+01 -1.650488629E+01 -5.009432641E+01  6.187965374E+01  4.750000000E+00  0.00000E+00  9.000E+00
      21     1     1     2   512   501  4.514314554E+01 -1.734356721E+01 -9.126348426E+01  1.032846865E+02  0.000000000E+00  0.00000E+00  9.000E+00
#rwgt            1           9  -8.0458732225740679                1     1198055           0
</event>
<event>
      6   9999  3.45752E-01  1.93363E+01 -1.00000E+00  1.61337E-01
      21    -1     0     0   501   502  0.000000000E+00  0.000000000E+00  2.182084470E+02  2.182084470E+02  0.000000000E+00  0.00000E+00  9.000E+00
       3    -1     0     0   502     0  0.000000000E+00  0.000000000E+00 -4.333380850E+02  4.333380850E+02  0.000000000E+00  0.00000E+00  9.000E+00
      25     1     1     2     0     0 -2.176086575E+01 -3.984783461E+01 -2.489968679E+02  2.822823611E+02  1.249900235E+02  0.00000E+00  9.000E+00
       5     1     1     2   501     0 -1.305579164E+00  4.267423614E+00  1.966569829E+02  1.967649533E+02  4.750000000E+00  0.00000E+00  9.000E+00
      -5     1     1     2     0   503  3.197593873E+01  1.841904243E+01 -9.568162925E+01  1.026608906E+02  4.750000000E+00  0.00000E+00  9.000E+00
       3     1     1     2   503     0 -8.909493817E+00  1.716136857E+01 -6.710812371E+01  6.983832701E+01  1.348699152E-06  0.00000E+00  9.000E+00
#rwgt            1           9  0.63603952492241500                1     1199141           0
</event>
<event>
      6   9999  3.45752E-01  6.75109E+00 -1.00000E+00  2.07163E-01
      21    -1     0     0   501   502  0.000000000E+00  0.000000000E+00  6.098113571E+01  6.098113571E+01  0.000000000E+00  0.00000E+00  9.000E+00
      21    -1     0     0   502   511  0.000000000E+00  0.000000000E+00 -1.847714985E+02  1.847714985E+02  0.000000000E+00  0.00000E+00  9.000E+00
      25     1     1     2     0     0  2.621754751E+01  2.130683338E+01 -4.873355906E+01  1.383761880E+02  1.250266718E+02  0.00000E+00  9.000E+00
       5     1     1     2   501     0 -2.128460294E+01 -1.733029491E+01 -3.177175125E-02  2.785564491E+01  4.750000000E+00  0.00000E+00  9.000E+00
      -5     1     1     2     0   503  4.420958210E-01  1.083388195E-01 -6.220192171E-01  4.812129874E+00  4.750000000E+00  0.00000E+00  9.000E+00
      21     1     1     2   503   511 -5.375040390E+00 -4.084877289E+00 -7.440301281E+01  7.470867150E+01  9.536743164E-07  0.00000E+00  9.000E+00
#rwgt            1           9   1.4687718582910114E-003           1     1202885           0
</event>
<event>
      6   9999  3.45752E-01  5.96001E+01 -1.00000E+00  1.30829E-01
      21    -1     0     0   501   502  0.000000000E+00  0.000000000E+00  3.428799119E+02  3.428799119E+02  0.000000000E+00  0.00000E+00  9.000E+00
      21    -1     0     0   512   503  0.000000000E+00  0.000000000E+00 -1.001832062E+03  1.001832062E+03  0.000000000E+00  0.00000E+00  9.000E+00
      25     1     1     2     0     0 -1.808196059E+01  2.207801918E+02 -3.566242258E+01  2.568420412E+02  1.250007013E+02  0.00000E+00  9.000E+00
       5     1     1     2   501     0  1.085292506E+00  7.174663386E+00  1.434789855E+02  1.437408621E+02  4.750000000E+00  0.00000E+00  9.000E+00
      -5     1     1     2     0   503  8.551648833E+00 -1.689560875E+02  5.728651603E+00  1.693359683E+02  4.750000000E+00  0.00000E+00  9.000E+00
      21     1     1     2   512   502  8.445019253E+00 -5.899876773E+01 -7.724973646E+02  7.747931022E+02  1.525878906E-05  0.00000E+00  9.000E+00
#rwgt            1           9   3.8541431972628179E-004           1     1205912           0
</event>
<event>
      6   9999  3.45752E-01  7.31809E+00 -1.00000E+00  2.02709E-01
      21    -1     0     0   501   502  0.000000000E+00  0.000000000E+00  2.049073916E+01  2.049073916E+01  0.000000000E+00  0.00000E+00  9.000E+00
      21    -1     0     0   511   503  0.000000000E+00  0.000000000E+00 -1.086397273E+03  1.086397273E+03  0.000000000E+00  0.00000E+00  9.000E+00
      25     1     1     2     0     0 -2.972258502E+00 -2.246928890E+00 -9.672801660E+02  9.753310957E+02  1.250037750E+02  0.00000E+00  9.000E+00
       5     1     1     2   501     0  3.595571794E+00  6.900466782E+00  1.457667050E+01  1.719262636E+01  4.750000000E+00  0.00000E+00  9.000E+00
      -5     1     1     2     0   503  5.946110599E+00 -1.429089434E+00 -3.646548330E+01  3.727857965E+01  4.750000000E+00  0.00000E+00  9.000E+00
      21     1     1     2   511   502 -6.569423891E+00 -3.224448458E+00 -7.673755503E+01  7.708571041E+01  9.536743164E-07  0.00000E+00  9.000E+00
#rwgt            1           9   1.6048471879760819E-003           1     1207632           0
</event>
<event>
      6   9999  3.45752E-01  5.67964E+00 -1.00000E+00  2.17432E-01
      21    -1     0     0   501   512  0.000000000E+00  0.000000000E+00  1.578777352E+02  1.578777352E+02  0.000000000E+00  0.00000E+00  9.000E+00
      21    -1     0     0   502   503  0.000000000E+00  0.000000000E+00 -7.264984019E+02  7.264984019E+02  0.000000000E+00  0.00000E+00  9.000E+00
      25     1     1     2     0     0  1.129917612E+01  2.407012614E+00 -6.644027382E+02  6.761569419E+02  1.249949854E+02  0.00000E+00  9.000E+00
       5     1     1     2   501     0  5.390414159E-02 -3.828077839E-01 -3.043681282E+00  5.654727509E+00  4.750000000E+00  0.00000E+00  9.000E+00
      -5     1     1     2     0   503 -5.746855068E+00 -1.113982630E+00 -5.154155240E+01  5.208993592E+01  4.750000000E+00  0.00000E+00  9.000E+00
      21     1     1     2   502   512 -5.606225191E+00 -9.102221994E-01  1.503673052E+02  1.504745318E+02  6.325959759E-06  0.00000E+00  9.000E+00
#rwgt            1           9   7.4285068375615199E-005           1     1211965           0
</event>
<event>
      6   9999  3.45752E-01  1.04255E+01 -1.00000E+00  1.85307E-01
      21    -1     0     0   501   502  0.000000000E+00  0.000000000E+00  7.942429268E+00  7.942429268E+00  0.000000000E+00  0.00000E+00  9.000E+00
      21    -1     0     0   502   511  0.000000000E+00  0.000000000E+00 -9.544463078E+02  9.544463078E+02  0.000000000E+00  0.00000E+00  9.000E+00
      25     1     1     2     0     0 -2.009202274E+01 -1.146554436E+01 -7.227218664E+02  7.338179047E+02  1.250066920E+02  0.00000E+00  9.000E+00
       5     1     1     2   501     0  3.449141414E+00 -1.903648945E+00 -8.817108815E+00  1.076217281E+01  4.750000000E+00  0.00000E+00  9.000E+00
      -5     1     1     2     0   503  9.435306484E+00  5.836432749E+00 -2.723160843E+01  2.978610336E+01  4.750000000E+00  0.00000E+00  9.000E+00
      21     1     1     2   503   511  7.207574841E+00  7.532760556E+00 -1.877332949E+02  1.880225562E+02  2.697398305E-06  0.00000E+00  9.000E+00
#rwgt            1           9   1.2431100286492325E-004           1     1215589           0
</event>
<event>
      6   9999  3.45752E-01  7.76297E+01 -1.00000E+00  1.25301E-01
      21    -1     0     0   512   503  0.000000000E+00  0.000000000E+00  3.298932914E+01  3.298932914E+01  0.000000000E+00  0.00000E+00  9.000E+00
      21    -1     0     0   501   502  0.000000000E+00  0.000000000E+00 -1.340597130E+03  1.340597130E+03  0.000000000E+00  0.00000E+00  9.000E+00
      25     1     1     2     0     0 -2.773658014E+01 -7.875665110E+01 -2.321909431E+02  2.766036139E+02  1.249999888E+02  0.00000E+00  9.000E+00
       5     1     1     2   501     0  1.022923283E+02  5.395875444E+01 -8.257162916E+02  8.337896763E+02  4.750000000E+00  0.00000E+00  9.000E+00
      -5     1     1     2     0   503 -1.735811580E+00 -2.102425675E+00 -1.956908579E+01  2.032104462E+01  4.750000000E+00  0.00000E+00  9.000E+00
      21     1     1     2   512   502 -7.281993660E+01  2.690032234E+01 -2.301314808E+02  2.428721247E+02  2.697398305E-06  0.00000E+00  9.000E+00
#rwgt            1           9   2.7038746574030361E-004           1     1217560           0
</event>
<event>
      6   9999  3.45752E-01  9.83679E+00 -1.00000E+00  1.87950E-01
      21    -1     0     0   501   502  0.000000000E+00  0.000000000E+00  5.276898619E+01  5.276898619E+01  0.000000000E+00  0.00000E+00  9.000E+00
      21    -1     0     0   511   503  0.000000000E+00  0.000000000E+00 -1.455466450E+03  1.455466450E+03  0.000000000E+00  0.00000E+00  9.000E+00
      25     1     1     2     0     0 -7.731643299E+01  4.335488801E+01 -4.101586139E+02  4.378493772E+02  1.249980458E+02  0.00000E+00  9.000E+00
       5     1     1     2   501     0  1.376695016E+00 -7.326119888E+00  3.667228066E+01  3.772248654E+01  4.750000000E+00  0.00000E+00  9.000E+00
      -5     1     1     2     0   503  6.730412590E+01 -3.131828403E+01 -9.273447340E+02  9.303233300E+02  4.750000000E+00  0.00000E+00  9.000E+00
      21     1     1     2   511   502  8.635612077E+00 -4.710484096E+00 -1.018663964E+02  1.023402422E+02  0.000000000E+00  0.00000E+00  9.000E+00
#rwgt            1           9   3.2091608687457066E-004           1     1218151           0
</event>
<event>
      6   9999  3.45752E-01  7.68901E+00 -1.00000E+00  2.00076E-01
      21    -1     0     0   501   502  0.000000000E+00  0.000000000E+00  1.073024748E+02  1.073024748E+02  0.000000000E+00  0.00000E+00  9.000E+00
       1    -1     0     0   502     0  0.000000000E+00  0.000000000E+00 -6.186471147E+02  6.186471147E+02  0.000000000E+00  0.00000E+00  9.000E+00
      25     1     1     2     0     0 -5.427353530E+00  1.149659540E+00 -1.006812097E+02  1.605989332E+02  1.249981338E+02  0.00000E+00  9.000E+00
       5     1     1     2   501     0 -4.408086292E-01  1.445353969E+00  7.517629565E+01  7.534136505E+01  4.750000000E+00  0.00000E+00  9.000E+00
      -5     1     1     2     0   503 -1.682728786E+00 -1.144173676E+00 -1.195404672E+00  5.303979817E+00  4.750000000E+00  0.00000E+00  9.000E+00
       1     1     1     2   503     0  7.550890946E+00 -1.450839833E+00 -4.846443212E+02  4.847053115E+02  0.000000000E+00  0.00000E+00  9.000E+00
#rwgt            1           9   1.8116528014915954E-004           1     1222195           0
</event>
<event>
      6   9999  3.45752E-01  4.18663E+00 -1.00000E+00  2.43821E-01
      21    -1     0     0   501   502  0.000000000E+00  0.000000000E+00  1.622507246E+02  1.622507246E+02  0.000000000E+00  0.00000E+00  9.000E+00
      21    -1     0     0   511   503  0.000000000E+00  0.000000000E+00 -2.053035613E+02  2.053035613E+02  0.000000000E+00  0.00000E+00  9.000E+00
      25     1     1     2     0     0  4.458281020E+00 -5.214318814E+00 -1.278162167E+02  1.788945529E+02  1.249768394E+02  0.00000E+00  9.000E+00
       5     1     1     2   501     0  2.897180611E+00  5.563693422E+00  1.359435736E+02  1.361710910E+02  4.750000000E+00  0.00000E+00  9.000E+00
      -5     1     1     2     0   503 -4.720151215E+00  2.903778812E+00 -3.652608838E+01  3.724821326E+01  4.750000000E+00  0.00000E+00  9.000E+00
      21     1     1     2   511   502 -2.635310417E+00 -3.253153421E+00 -1.465410518E+01  1.524042869E+01  0.000000000E+00  0.00000E+00  9.000E+00
#rwgt            1           9  0.70119711553605502                1     1225358           0
</event>
<event>
      6   9999 -3.45752E-01  1.65374E+01 -1.00000E+00  1.66779E-01
       4    -1     0     0   501     0  0.000000000E+00  0.000000000E+00  3.973105882E+02  3.973105882E+02  0.000000000E+00  0.00000E+00  9.000E+00
      21    -1     0     0   502   503  0.000000000E+00  0.000000000E+00 -7.827376035E+02  7.827376035E+02  0.000000000E+00  0.00000E+00  9.000E+00
      25     1     1     2     0     0  2.664462259E+01  1.189215559E+01 -6.252818578E+02  6.383211489E+02  1.250005125E+02  0.00000E+00  9.000E+00
       5     1     1     2   501     0 -3.696984483E+01  1.975143510E+00 -1.174539999E+02  1.232423434E+02  4.750000000E+00  0.00000E+00  9.000E+00
      -5     1     1     2     0   503  4.164136541E+00  1.479533571E+00 -3.006549346E+01  3.075752672E+01  4.750000000E+00  0.00000E+00  9.000E+00
       4     1     1     2   502     0  6.161085700E+00 -1.534683267E+01  3.873743359E+02  3.877271726E+02  9.344061824E-06  0.00000E+00  9.000E+00
#rwgt            1           9  -1.5409375234651774E-004           1     1231715           0
</event>
<event>
      6   9999  3.45752E-01  2.71430E+01 -1.00000E+00  1.50706E-01
       1    -1     0     0   501     0  0.000000000E+00  0.000000000E+00  2.510862691E+03  2.510862691E+03  0.000000000E+00  0.00000E+00  9.000E+00
      21    -1     0     0   502   503  0.000000000E+00  0.000000000E+00 -1.633555504E+03  1.633555504E+03  0.000000000E+00  0.00000E+00  9.000E+00
      25     1     1     2     0     0 -5.298512158E+01  3.008718738E+01 -2.432408868E+02  2.801854087E+02  1.250002891E+02  0.00000E+00  9.000E+00
       5     1     1     2   501     0  5.005180302E+00  3.325670588E+00  8.307507525E+01  8.342746875E+01  4.750000000E+00  0.00000E+00  9.000E+00
      -5     1     1     2     0   503  2.325531193E+01 -4.461270743E+01 -1.371124235E+03  1.372055149E+03  4.750000000E+00  0.00000E+00  9.000E+00
       1     1     1     2   502     0  2.472462935E+01  1.119984946E+01  2.408597233E+03  2.408750169E+03  0.000000000E+00  0.00000E+00  9.000E+00
#rwgt            1           9   1.5774341450330597E-003           1     1233238           0
</event>
<event>
      6   9999  3.45752E-01  1.80783E+01 -1.00000E+00  1.63633E-01
      21    -1     0     0   501   502  0.000000000E+00  0.000000000E+00  4.857248070E+01  4.857248070E+01  0.000000000E+00  0.00000E+00  9.000E+00
      21    -1     0     0   502   511  0.000000000E+00  0.000000000E+00 -3.819578141E+02  3.819578141E+02  0.000000000E+00  0.00000E+00  9.000E+00
      25     1     1     2     0     0 -1.665906435E+01  4.113449552E+00 -2.645795683E+02  2.931227685E+02  1.249966582E+02  0.00000E+00  9.000E+00
       5     1     1     2   501     0 -2.990267730E+00 -2.586745209E+00  3.269305229E+01  3.327207718E+01  4.750000000E+00  0.00000E+00  9.000E+00
      -5     1     1     2     0   503  1.589607743E+00 -7.074585577E-01 -2.741020871E+01  2.787309441E+01  4.750000000E+00  0.00000E+00  9.000E+00
      21     1     1     2   503   511  1.805972434E+01 -8.192457846E-01 -7.408860876E+01  7.626235476E+01  0.000000000E+00  0.00000E+00  9.000E+00
#rwgt            1           9   2.5194133489601036                1     1235987           0
</event>
<event>
      6   9999  3.45752E-01  6.41518E+00 -1.00000E+00  2.10089E-01
      21    -1     0     0   501   502  0.000000000E+00  0.000000000E+00  1.855372945E+01  1.855372945E+01  0.000000000E+00  0.00000E+00  9.000E+00
      21    -1     0     0   502   512  0.000000000E+00  0.000000000E+00 -9.303786568E+02  9.303786568E+02  0.000000000E+00  0.00000E+00  9.000E+00
      25     1     1     2     0     0 -2.343105156E+01  6.234900748E+01 -5.499053395E+02  5.678529384E+02  1.249986570E+02  0.00000E+00  9.000E+00
       5     1     1     2   501     0 -2.049149557E+00  1.942253586E-01  5.345135068E+00  7.441082333E+00  4.750000000E+00  0.00000E+00  9.000E+00
      -5     1     1     2     0   503  2.514129700E+01 -5.613700934E+01 -3.152727533E+02  3.212521129E+02  4.750000000E+00  0.00000E+00  9.000E+00
      21     1     1     2   503   512  3.389041186E-01 -6.406223494E+00 -5.199196962E+01  5.238625259E+01  0.000000000E+00  0.00000E+00  9.000E+00
#rwgt            1           9   4.6356221082252909E-002           1     1237561           0
</event>
<event>
      6   9999 -3.45752E-01  1.72047E+01 -1.00000E+00  1.65367E-01
      21    -1     0     0   511   502  0.000000000E+00  0.000000000E+00  9.451206489E+01  9.451206489E+01  0.000000000E+00  0.00000E+00  9.000E+00
      21    -1     0     0   502   503  0.000000000E+00  0.000000000E+00 -1.638890141E+03  1.638890141E+03  0.000000000E+00  0.00000E+00  9.000E+00
      25     1     1     2     0     0  1.565066641E+02 -1.612266448E+02 -9.385807880E+02  9.731630573E+02  1.249962945E+02  0.00000E+00  9.000E+00
       5     1     1     2   501     0  1.171463513E+01 -1.249785302E+01  5.402980523E+01  5.687891841E+01  4.750000000E+00  0.00000E+00  9.000E+00
      -5     1     1     2     0   503 -1.556910994E+02  1.619347937E+02 -6.307426064E+02  6.695680651E+02  4.750000000E+00  0.00000E+00  9.000E+00
      21     1     1     2   511   501 -1.253019981E+01  1.178970415E+01 -2.908448649E+01  3.379216456E+01  3.371747881E-07  0.00000E+00  9.000E+00
#rwgt            1           9  -4.0811708756249010E-003           1     1241656           0
</event>
<event>
      6   9999 -3.45752E-01  7.68447E+00 -1.00000E+00  2.00107E-01
      21    -1     0     0   501   502  0.000000000E+00  0.000000000E+00  1.015386784E+01  1.015386784E+01  0.000000000E+00  0.00000E+00  9.000E+00
      21    -1     0     0   512   503  0.000000000E+00  0.000000000E+00 -8.554376754E+02  8.554376754E+02  0.000000000E+00  0.00000E+00  9.000E+00
      25     1     1     2     0     0  6.940863657E+00 -5.479761318E+00 -6.749631648E+02  6.864981273E+02  1.250048059E+02  0.00000E+00  9.000E+00
       5     1     1     2   501     0 -2.872980503E-01  8.103766754E-03  2.654141918E+00  5.448814106E+00  4.750000000E+00  0.00000E+00  9.000E+00
      -5     1     1     2     0   503 -1.482362993E+00 -2.125096242E-01 -2.622378221E+01  2.669254229E+01  4.750000000E+00  0.00000E+00  9.000E+00
      21     1     1     2   512   502 -5.171202614E+00  5.684167176E+00 -1.467510024E+02  1.469520596E+02  2.697398305E-06  0.00000E+00  9.000E+00
#rwgt            1           9  -8.3110714451454962E-004           1     1245099           0
</event>
<event>
      6   9999  3.45752E-01  4.69947E+02 -1.00000E+00  9.74331E-02
       2    -1     0     0   501     0  0.000000000E+00  0.000000000E+00  1.248020863E+03  1.248020863E+03  0.000000000E+00  0.00000E+00  9.000E+00
      21    -1     0     0   511   502  0.000000000E+00  0.000000000E+00 -7.571744259E+02  7.571744259E+02  0.000000000E+00  0.00000E+00  9.000E+00
      25     1     1     2     0     0  1.529611818E+02  2.509059215E+02  5.530030537E+00  3.193839918E+02  1.249985936E+02  0.00000E+00  9.000E+00
       5     1     1     2   501     0 -1.040821624E+01  1.450841460E+02  6.566940998E+02  6.726272695E+02  4.750000000E+00  0.00000E+00  9.000E+00
      -5     1     1     2     0   502 -1.352831066E+02  7.390104157E+01  3.063956316E+02  3.430214693E+02  4.750000000E+00  0.00000E+00  9.000E+00
       2     1     1     2   511     0 -7.269859016E+00 -4.698911091E+02 -4.777733245E+02  6.701625586E+02  5.394796609E-06  0.00000E+00  9.000E+00
#rwgt            1           4   6.2887494204297864E-007           1     1247737           0
</event>
<event>
      6   9999 -3.45752E-01  3.06169E+00 -1.00000E+00  2.74620E-01
      21    -1     0     0   501   512  0.000000000E+00  0.000000000E+00  7.729748731E+02  7.729748731E+02  0.000000000E+00  0.00000E+00  9.000E+00
      21    -1     0     0   502   503  0.000000000E+00  0.000000000E+00 -1.400727406E+03  1.400727406E+03  0.000000000E+00  0.00000E+00  9.000E+00
      25     1     1     2     0     0  2.963471629E+00 -7.410634316E+00 -1.396970665E+03  1.402574512E+03  1.249980826E+02  0.00000E+00  9.000E+00
       5     1     1     2   501     0  1.347878942E+00 -5.647683795E-01  3.314505031E+01  3.351555760E+01  4.750000000E+00  0.00000E+00  9.000E+00
      -5     1     1     2     0   503 -1.577630338E+00  6.596743538E+00  2.160415530E+01  2.313672339E+01  4.750000000E+00  0.00000E+00  9.000E+00
      21     1     1     2   502   512 -2.733720233E+00  1.378659158E+00  7.144689267E+02  7.144754867E+02  1.078959322E-05  0.00000E+00  9.000E+00
#rwgt            1           9  -1.6657835279096679E-004           1     1247918           0
</event>
<event>
      6   9999  3.45752E-01  3.49335E+01 -1.00000E+00  1.43684E-01
      21    -1     0     0   502   503  0.000000000E+00  0.000000000E+00  4.182141610E+02  4.182141610E+02  0.000000000E+00  0.00000E+00  9.000E+00
      21    -1     0     0   501   511  0.000000000E+00  0.000000000E+00 -1.563556857E+02  1.563556857E+02  0.000000000E+00  0.00000E+00  9.000E+00
      25     1     1     2     0     0  1.133211008E+02 -1.249703778E+02  3.123787750E+02  3.763818840E+02  1.249942252E+02  0.00000E+00  9.000E+00
       5     1     1     2   501     0 -8.231602308E+01  1.161169415E+02 -3.339516109E+01  1.462766935E+02  4.750000000E+00  0.00000E+00  9.000E+00
      -5     1     1     2     0   503  1.687527442E+00 -3.456980433E+00  7.123606359E+00  9.386518532E+00  4.750000000E+00  0.00000E+00  9.000E+00
      21     1     1     2   502   511 -3.269260515E+01  1.231041672E+01 -2.424874495E+01  4.252475071E+01  9.536743164E-07  0.00000E+00  9.000E+00
#rwgt            1           9   3.9244690295779178E-002           1     1257496           0
</event>
<event>
      6   9999  3.45752E-01  4.77767E+00 -1.00000E+00  2.32892E-01
      21    -1     0     0   501   502  0.000000000E+00  0.000000000E+00  7.590663365E+02  7.590663365E+02  0.000000000E+00  0.00000E+00  9.000E+00
      21    -1     0     0   512   503  0.000000000E+00  0.000000000E+00 -1.677970795E+01  1.677970795E+01  0.000000000E+00  0.00000E+00  9.000E+00
      25     1     1     2     0     0 -1.148263147E+01 -9.908012866E+00  3.667854923E+02  3.877977094E+02  1.250017860E+02  0.00000E+00  9.000E+00
       5     1     1     2   501     0 -6.346620209E-01 -2.713371382E+00  2.973214229E+02  2.973724200E+02  4.750000000E+00  0.00000E+00  9.000E+00
      -5     1     1     2     0   503  1.084557566E+01  8.016079115E+00  8.280244859E+01  8.402792410E+01  4.750000000E+00  0.00000E+00  9.000E+00
      21     1     1     2   512   502  1.271717832E+00  4.605305133E+00 -4.622735274E+00  6.647990902E+00  2.598106231E-07  0.00000E+00  9.000E+00
#rwgt            1           9  0.75253933223900782                1     1259097           0
</event>
<event>
      6   9999 -3.45752E-01  5.54956E+00 -1.00000E+00  2.18890E-01
      21    -1     0     0   501   511  0.000000000E+00  0.000000000E+00  1.094752878E+03  1.094752878E+03  0.000000000E+00  0.00000E+00  9.000E+00
      21    -1     0     0   502   503  0.000000000E+00  0.000000000E+00 -2.276735818E+03  2.276735818E+03  0.000000000E+00  0.00000E+00  9.000E+00
      25     1     1     2     0     0  4.951011452E+00  2.714045099E+00 -2.273384197E+03  2.276824975E+03  1.249975324E+02  0.00000E+00  9.000E+00
       5     1     1     2   501     0 -4.467896135E-01 -3.709409547E+00  7.920560941E+00  9.962787048E+00  4.750000000E+00  0.00000E+00  9.000E+00
      -5     1     1     2     0   503  3.862676495E-01  3.618477302E+00  1.424367103E+01  1.544950630E+01  4.750000000E+00  0.00000E+00  9.000E+00
      21     1     1     2   502   511 -4.890489488E+00 -2.623112854E+00  1.069237026E+03  1.069251427E+03  1.525878906E-05  0.00000E+00  9.000E+00
#rwgt            1           9  -3.6661420637408284E-003           1     1263260           0
</event>
<event>
      6   9999 -3.45752E-01  1.26737E+01 -1.00000E+00  1.76968E-01
      -3    -1     0     0     0   502  0.000000000E+00  0.000000000E+00  5.318947403E+01  5.318947403E+01  0.000000000E+00  0.00000E+00  9.000E+00
      21    -1     0     0   502   503  0.000000000E+00  0.000000000E+00 -1.048203382E+03  1.048203382E+03  0.000000000E+00  0.00000E+00  9.000E+00
      25     1     1     2     0     0 -1.069499367E+01  1.965691505E+01 -9.942026613E+02  1.002279424E+03  1.249973414E+02  0.00000E+00  9.000E+00
       5     1     1     2   501     0 -5.431082416E-01  3.375912362E+00  1.668653110E+01  1.768317197E+01  4.750000000E+00  0.00000E+00  9.000E+00
      -5     1     1     2     0   503  8.926089675E+00 -1.057175598E+01 -4.705177786E+01  4.927341475E+01  4.750000000E+00  0.00000E+00  9.000E+00
      -3     1     1     2     0   501  2.312012233E+00 -1.246107143E+01  2.955400058E+01  3.215684456E+01  1.348699152E-06  0.00000E+00  9.000E+00
#rwgt            1           9  -6.6466719451084413E-002           1     1268810           0
</event>
<event>
      6   9999  3.45752E-01  4.51267E+00 -1.00000E+00  2.37486E-01
      21    -1     0     0   501   502  0.000000000E+00  0.000000000E+00  4.312098011E+01  4.312098011E+01  0.000000000E+00  0.00000E+00  9.000E+00
       2    -1     0     0   502     0  0.000000000E+00  0.000000000E+00 -3.043179301E+03  3.043179301E+03  0.000000000E+00  0.00000E+00  9.000E+00
      25     1     1     2     0     0 -3.116176404E+00 -8.924198443E+00 -9.134820139E+02  9.220458028E+02  1.250188815E+02  0.00000E+00  9.000E+00
       5     1     1     2   501     0  1.020518701E+00  9.207301245E+00  3.805471194E+01  3.945300313E+01  4.750000000E+00  0.00000E+00  9.000E+00
      -5     1     1     2     0   503 -2.357188083E+00  4.492484377E-01 -8.549731934E+01  8.566278232E+01  4.750000000E+00  0.00000E+00  9.000E+00
       2     1     1     2   503     0  4.452845786E+00 -7.323512398E-01 -2.039133700E+03  2.039138693E+03  3.737624730E-05  0.00000E+00  9.000E+00
#rwgt            1           9   6.7293455690521533E-004           1     1271187           0
</event>
<event>
      6   9999  3.45752E-01  5.43196E+00 -1.00000E+00  2.20257E-01
      21    -1     0     0   511   502  0.000000000E+00  0.000000000E+00  7.653259625E+02  7.653259625E+02  0.000000000E+00  0.00000E+00  9.000E+00
      21    -1     0     0   502   503  0.000000000E+00  0.000000000E+00 -7.872399238E+02  7.872399238E+02  0.000000000E+00  0.00000E+00  9.000E+00
      25     1     1     2     0     0  3.659420759E+00  7.308767187E+00 -7.430802245E+02  7.535607961E+02  1.249753736E+02  0.00000E+00  9.000E+00
       5     1     1     2   501     0  1.076815153E+00 -1.119634208E+00  3.151672084E+00  5.908354133E+00  4.750000000E+00  0.00000E+00  9.000E+00
      -5     1     1     2     0   503 -8.978751731E-01 -2.345539848E+00 -3.733899924E+01  3.772361464E+01  4.750000000E+00  0.00000E+00  9.000E+00
      21     1     1     2   511   501 -3.838360739E+00 -3.843593131E+00  7.553535903E+02  7.553731215E+02  1.078959322E-05  0.00000E+00  9.000E+00
#rwgt            1           9   2.1396072906149742E-004           1     1277782           0
</event>
<event>
      6   9999  3.45752E-01  3.51580E+00 -1.00000E+00  2.60050E-01
      21    -1     0     0   501   502  0.000000000E+00  0.000000000E+00  6.004644311E+01  6.004644311E+01  0.000000000E+00  0.00000E+00  9.000E+00
       1    -1     0     0   502     0  0.000000000E+00  0.000000000E+00 -1.530875568E+03  1.530875568E+03  0.000000000E+00  0.00000E+00  9.000E+00
      25     1     1     2     0     0 -2.591134259E+00  1.433899681E+00 -1.315369444E+02  1.814805312E+02  1.249977816E+02  0.00000E+00  9.000E+00
       5     1     1     2   501     0  2.308482918E+00  5.922252011E-01  3.286724198E+01  3.329411238E+01  4.750000000E+00  0.00000E+00  9.000E+00
      -5     1     1     2     0   503  6.889765213E-01  1.466113819E+00 -1.169706806E+00  5.153143932E+00  4.750000000E+00  0.00000E+00  9.000E+00
       1     1     1     2   503     0 -4.063251804E-01 -3.492238701E+00 -1.370989715E+03  1.370994223E+03  2.157918644E-05  0.00000E+00  9.000E+00
#rwgt            1           9   4.5442855402451354E-004           1     1281655           0
</event>
<event>
      6   9999 -3.45752E-01  4.42769E+01 -1.00000E+00  1.37674E-01
      21    -1     0     0   501   511  0.000000000E+00  0.000000000E+00  4.466362360E+01  4.466362360E+01  0.000000000E+00  0.00000E+00  9.000E+00
      21    -1     0     0   502   503  0.000000000E+00  0.000000000E+00 -1.122554074E+03  1.122554074E+03  0.000000000E+00  0.00000E+00  9.000E+00
      25     1     1     2     0     0  1.230136864E+02 -1.131484088E+01 -6.483184490E+02  6.717151858E+02  1.249963474E+02  0.00000E+00  9.000E+00
       5     1     1     2   501     0 -8.794669564E+01  7.479181673E+01 -2.638368004E+02  2.880292639E+02  4.750000000E+00  0.00000E+00  9.000E+00
      -5     1     1     2     0   503 -3.523542653E+00 -3.240522650E+01 -1.593729954E+02  1.627415995E+02  4.750000000E+00  0.00000E+00  9.000E+00
      21     1     1     2   502   511 -3.154344808E+01 -3.107174935E+01 -6.362205873E+00  4.473164862E+01  7.102713160E-07  0.00000E+00  9.000E+00
#rwgt            1           9  -7.7048256775218775E-005           1     1287365           0
</event>
<event>
      6   9999  3.45752E-01  3.39162E+01 -1.00000E+00  1.44472E-01
      21    -1     0     0   501   502  0.000000000E+00  0.000000000E+00  1.510349432E+02  1.510349432E+02  0.000000000E+00  0.00000E+00  9.000E+00
      21    -1     0     0   512   503  0.000000000E+00  0.000000000E+00 -8.165103828E+02  8.165103828E+02  0.000000000E+00  0.00000E+00  9.000E+00
      25     1     1     2     0     0 -2.453450343E+01  2.114056703E+02 -2.942532823E+02  3.840628749E+02  1.249999936E+02  0.00000E+00  9.000E+00
       5     1     1     2   501     0 -2.504248201E+00  4.856000127E-01  8.160980018E+01  8.178770722E+01  4.750000000E+00  0.00000E+00  9.000E+00
      -5     1     1     2     0   503  2.699948775E+01 -1.779751134E+02 -3.533300048E+02  3.965712648E+02  4.750000000E+00  0.00000E+00  9.000E+00
      21     1     1     2   512   502  3.926387551E-02 -3.391615698E+01 -9.950195270E+01  1.051234790E+02  0.000000000E+00  0.00000E+00  9.000E+00
#rwgt            1           9   2.2837872844211154E-002           1     1289240           0
</event>
<event>
      6   9999  3.45752E-01  1.09051E+01 -1.00000E+00  1.83315E-01
      21    -1     0     0   501   502  0.000000000E+00  0.000000000E+00  1.450631758E+01  1.450631758E+01  0.000000000E+00  0.00000E+00  9.000E+00
      21    -1     0     0   502   511  0.000000000E+00  0.000000000E+00 -1.804474959E+03  1.804474959E+03  0.000000000E+00  0.00000E+00  9.000E+00
      25     1     1     2     0     0 -2.048406180E+01  6.988426044E+01 -1.004245259E+03  1.014613555E+03  1.250148746E+02  0.00000E+00  9.000E+00
       5     1     1     2   501     0 -5.640888045E-01 -8.008313966E-01 -9.265696256E-01  4.937667301E+00  4.750000000E+00  0.00000E+00  9.000E+00
      -5     1     1     2     0   503  1.083141007E+01 -7.289655637E+01 -1.803430015E+02  1.948778799E+02  4.750000000E+00  0.00000E+00  9.000E+00
      21     1     1     2   503   511  1.021674053E+01  3.813127326E+00 -6.044538106E+02  6.045521738E+02  0.000000000E+00  0.00000E+00  9.000E+00
#rwgt            1           9   2.0633397417926078E-004           1     1291954           0
</event>
<event>
      6   9999  3.45752E-01  1.49829E+01 -1.00000E+00  1.70414E-01
      21    -1     0     0   501   502  0.000000000E+00  0.000000000E+00  8.905213776E+01  8.905213776E+01  0.000000000E+00  0.00000E+00  9.000E+00
      21    -1     0     0   512   503  0.000000000E+00  0.000000000E+00 -1.629317668E+03  1.629317668E+03  0.000000000E+00  0.00000E+00  9.000E+00
      25     1     1     2     0     0 -2.967166162E+01 -1.443440070E+01 -1.494101045E+03  1.499682970E+03  1.249892665E+02  0.00000E+00  9.000E+00
       5     1     1     2   501     0  3.548507486E+00  2.366836789E+00  8.357812020E+01  8.382158730E+01  4.750000000E+00  0.00000E+00  9.000E+00
      -5     1     1     2     0   503  1.822161275E+01 -6.623986395E-01 -9.759955964E+01  9.940172275E+01  4.750000000E+00  0.00000E+00  9.000E+00
      21     1     1     2   512   502  7.901541385E+00  1.272996255E+01 -3.214304587E+01  3.546352634E+01  0.000000000E+00  0.00000E+00  9.000E+00
#rwgt            1           9   5.7893380093150248E-005           1     1294618           0
</event>
<event>
      6   9999  3.45752E-01  5.30334E+00 -1.00000E+00  2.21807E-01
      21    -1     0     0   501   511  0.000000000E+00  0.000000000E+00  3.309388678E+02  3.309388678E+02  0.000000000E+00  0.00000E+00  9.000E+00
      21    -1     0     0   502   503  0.000000000E+00  0.000000000E+00 -3.636908575E+02  3.636908575E+02  0.000000000E+00  0.00000E+00  9.000E+00
      25     1     1     2     0     0  6.615212754E+00 -2.957629168E+01 -3.096878442E+02  3.353369919E+02  1.250032768E+02  0.00000E+00  9.000E+00
       5     1     1     2   501     0  7.693487083E-01 -1.898555229E+00  3.097161356E+02  3.097593317E+02  4.750000000E+00  0.00000E+00  9.000E+00
      -5     1     1     2     0   503 -5.481036571E+00  2.652489638E+01 -3.435143640E+01  4.400222236E+01  4.750000000E+00  0.00000E+00  9.000E+00
      21     1     1     2   502   511 -1.903524891E+00  4.949950525E+00  1.571155194E+00  5.531179427E+00  8.940696716E-08  0.00000E+00  9.000E+00
#rwgt            1           9   7.3559478903900368                1     1298220           0
</event>
<event>
      6   9999  3.45752E-01  3.30038E+00 -1.00000E+00  2.66503E-01
      21    -1     0     0   501   512  0.000000000E+00  0.000000000E+00  1.026977542E+01  1.026977542E+01  0.000000000E+00  0.00000E+00  9.000E+00
      21    -1     0     0   502   503  0.000000000E+00  0.000000000E+00 -7.146658930E+02  7.146658930E+02  0.000000000E+00  0.00000E+00  9.000E+00
      25     1     1     2     0     0  5.554227445E-01  1.270608854E+00 -6.739361857E+02  6.854163615E+02  1.249147040E+02  0.00000E+00  9.000E+00
       5     1     1     2   501     0 -9.252330834E-01  6.962708824E-01  2.325865728E+00  5.414148205E+00  4.750000000E+00  0.00000E+00  9.000E+00
      -5     1     1     2     0   503  8.705388794E-01  1.295295426E+00 -2.686812239E+01  2.732936386E+01  4.750000000E+00  0.00000E+00  9.000E+00
      21     1     1     2   502   512 -5.007285405E-01 -3.262175162E+00 -5.917675236E+00  6.775794866E+00  1.884864366E-07  0.00000E+00  9.000E+00
#rwgt            1           9   6.2689783273601476E-004           1     1305134           0
</event>
<event>
      6   9999  3.45752E-01  2.57402E+01 -1.00000E+00  1.52273E-01
      21    -1     0     0   511   502  0.000000000E+00  0.000000000E+00  3.633463714E+01  3.633463714E+01  0.000000000E+00  0.00000E+00  9.000E+00
      21    -1     0     0   502   503  0.000000000E+00  0.000000000E+00 -1.100940874E+03  1.100940874E+03  0.000000000E+00  0.00000E+00  9.000E+00
      25     1     1     2     0     0  1.014308395E+01  1.026386208E+02 -4.394844692E+02  4.684121576E+02  1.250031283E+02  0.00000E+00  9.000E+00
       5     1     1     2   501     0  2.381244341E+00 -1.516194652E+00  5.108322436E+00  7.525066707E+00  4.750000000E+00  0.00000E+00  9.000E+00
      -5     1     1     2     0   503  4.509661276E+00 -1.204200948E+02 -6.230517189E+02  6.346159021E+02  4.750000000E+00  0.00000E+00  9.000E+00
      21     1     1     2   511   501 -1.703398957E+01  1.929766866E+01 -7.178370782E+00  2.672238432E+01  6.583548198E-07  0.00000E+00  9.000E+00
#rwgt            1           9   2.5313423160618011E-004           1     1310118           0
</event>
<event>
      6   9999  3.45752E-01  7.01549E+00 -1.00000E+00  2.05016E-01
      21    -1     0     0   501   512  0.000000000E+00  0.000000000E+00  6.719746154E+00  6.719746154E+00  0.000000000E+00  0.00000E+00  9.000E+00
      21    -1     0     0   502   503  0.000000000E+00  0.000000000E+00 -1.817449872E+03  1.817449872E+03  0.000000000E+00  0.00000E+00  9.000E+00
      25     1     1     2     0     0 -2.496277851E+01 -2.419609783E+01 -1.487071018E+03  1.492738311E+03  1.252152669E+02  0.00000E+00  9.000E+00
       5     1     1     2   501     0  2.474537028E+00 -9.563916693E-01 -2.613374798E+00  6.035747374E+00  4.750000000E+00  0.00000E+00  9.000E+00
      -5     1     1     2     0   503  2.950294682E+01  2.504766953E+01 -3.090418392E+02  3.114919429E+02  4.750000000E+00  0.00000E+00  9.000E+00
      21     1     1     2   502   512 -7.014705340E+00  1.048199662E-01 -1.200389438E+01  1.390361674E+01  6.951036328E-07  0.00000E+00  9.000E+00
#rwgt            1           9   1.3733115217363441E-003           1     1311812           0
</event>
<event>
      6   9999  3.45752E-01  2.42219E+00 -1.00000E+00  3.03709E-01
      21    -1     0     0   501   502  0.000000000E+00  0.000000000E+00  2.497778642E+00  2.497778642E+00  0.000000000E+00  0.00000E+00  9.000E+00
      21    -1     0     0   502   511  0.000000000E+00  0.000000000E+00 -3.085505139E+03  3.085505139E+03  0.000000000E+00  0.00000E+00  9.000E+00
      25     1     1     2     0     0 -1.690315125E+01 -3.339462325E+00 -2.906468216E+03  2.909205992E+03  1.250005855E+02  0.00000E+00  9.000E+00
       5     1     1     2   501     0 -1.310351461E+00  4.013575562E+00 -2.182453324E+01  2.273100440E+01  4.750000000E+00  0.00000E+00  9.000E+00
      -5     1     1     2     0   503  1.596276149E+01  2.209759913E-01 -1.068806985E+02  1.081707206E+02  4.750000000E+00  0.00000E+00  9.000E+00
      21     1     1     2   503   511  2.250741224E+00 -8.950892281E-01 -4.783391236E+01  4.789520010E+01  9.536743164E-07  0.00000E+00  9.000E+00
#rwgt            1           9   45.486303878181097                1     1315361           0
</event>
<event>
      6   9999  3.45752E-01  8.46240E+00 -1.00000E+00  1.95169E-01
      21    -1     0     0   501   502  0.000000000E+00  0.000000000E+00  2.591407190E+01  2.591407190E+01  0.000000000E+00  0.00000E+00  9.000E+00
      21    -1     0     0   512   503  0.000000000E+00  0.000000000E+00 -3.734806853E+03  3.734806853E+03  0.000000000E+00  0.00000E+00  9.000E+00
      25     1     1     2     0     0  2.195647370E+01 -1.010755975E+01 -2.577601800E+02  2.874873775E+02  1.249977293E+02  0.00000E+00  9.000E+00
       5     1     1     2   501     0  7.322963259E-01  5.005728242E-01  2.056229882E+00  5.251420035E+00  4.750000000E+00  0.00000E+00  9.000E+00
      -5     1     1     2     0   503 -1.431061771E+01  8.415881358E+00 -2.693941363E+00  1.747686066E+01  4.750000000E+00  0.00000E+00  9.000E+00
      21     1     1     2   512   502 -8.378152312E+00  1.191105565E+00 -3.450494890E+03  3.450505267E+03  0.000000000E+00  0.00000E+00  9.000E+00
#rwgt            1           9   1.5968756771803491E-005           1     1322534           0
</event>
<event>
      6   9999  3.45752E-01  1.59219E+01 -1.00000E+00  1.68157E-01
      21    -1     0     0   501   502  0.000000000E+00  0.000000000E+00  3.587349559E+01  3.587349559E+01  0.000000000E+00  0.00000E+00  9.000E+00
      21    -1     0     0   502   511  0.000000000E+00  0.000000000E+00 -1.805280545E+02  1.805280545E+02  0.000000000E+00  0.00000E+00  9.000E+00
      25     1     1     2     0     0  1.749091991E+00  1.324796336E+01 -1.032897964E+02  1.626949925E+02  1.249892423E+02  0.00000E+00  9.000E+00
       5     1     1     2   501     0  1.303320138E-01  1.179184238E+00  1.603484749E+00  5.151807958E+00  4.750000000E+00  0.00000E+00  9.000E+00
      -5     1     1     2     0   503  7.845793143E-01  1.270280049E+00 -3.767243131E+00  6.243700579E+00  4.750000000E+00  0.00000E+00  9.000E+00
      21     1     1     2   503   511 -2.664003319E+00 -1.569742765E+01 -3.920100417E+01  4.231104910E+01  0.000000000E+00  0.00000E+00  9.000E+00
#rwgt            1           9   2.2081745951492457E-003           1     1325235           0
</event>
<event>
      6   9999  3.45752E-01  1.09233E+01 -1.00000E+00  1.83242E-01
      21    -1     0     0   501   502  0.000000000E+00  0.000000000E+00  1.266400435E+01  1.266400435E+01  0.000000000E+00  0.00000E+00  9.000E+00
       2    -1     0     0   502     0  0.000000000E+00  0.000000000E+00 -2.160899544E+03  2.160899544E+03  0.000000000E+00  0.00000E+00  9.000E+00
      25     1     1     2     0     0 -3.098521096E-01 -2.101804371E+01 -6.478336787E+02  6.601178746E+02  1.250011156E+02  0.00000E+00  9.000E+00
       5     1     1     2   501     0  4.681653571E+00 -2.176807982E-01  3.586305884E+00  7.575576214E+00  4.750000000E+00  0.00000E+00  9.000E+00
      -5     1     1     2     0   503  5.586651580E+00  2.572437823E+01 -1.938976073E+02  1.957340004E+02  4.750000000E+00  0.00000E+00  9.000E+00
       2     1     1     2   503     0 -9.958453041E+00 -4.488653713E+00 -1.310090560E+03  1.310136097E+03  3.051757812E-05  0.00000E+00  9.000E+00
#rwgt            1           9   1.1034112551574601E-004           1     1327256           0
</event>
<event>
      6   9999  3.45752E-01  5.69346E+00 -1.00000E+00  2.17280E-01
      21    -1     0     0   501   502  0.000000000E+00  0.000000000E+00  2.420133320E+02  2.420133320E+02  0.000000000E+00  0.00000E+00  9.000E+00
      21    -1     0     0   511   503  0.000000000E+00  0.000000000E+00 -2.534582318E+02  2.534582318E+02  0.000000000E+00  0.00000E+00  9.000E+00
      25     1     1     2     0     0  4.582547153E+00 -1.017586529E+01 -2.224768603E+02  2.554307683E+02  1.249975043E+02  0.00000E+00  9.000E+00
       5     1     1     2   501     0  5.700383537E+00  4.724817672E+00  2.221227950E+02  2.222969115E+02  4.750000000E+00  0.00000E+00  9.000E+00
      -5     1     1     2     0   503 -4.640152257E+00  4.693084117E+00 -5.986851021E+00  1.009757083E+01  4.750000000E+00  0.00000E+00  9.000E+00
      21     1     1     2   511   502 -5.642778432E+00  7.579634980E-01 -5.103983540E+00  7.646313169E+00  5.960464478E-08  0.00000E+00  9.000E+00
#rwgt            1           9   8.3657978142910583E-005           1     1329375           0
</event>
<event>
      6   9999  3.45752E-01  9.77323E+00 -1.00000E+00  1.88249E-01
      21    -1     0     0   501   502  0.000000000E+00  0.000000000E+00  2.963640496E+01  2.963640496E+01  0.000000000E+00  0.00000E+00  9.000E+00
      21    -1     0     0   502   512  0.000000000E+00  0.000000000E+00 -9.806995089E+02  9.806995089E+02  0.000000000E+00  0.00000E+00  9.000E+00
      25     1     1     2     0     0  1.596792419E+00  8.515224602E+00 -4.161414764E+02  4.345948461E+02  1.249955724E+02  0.00000E+00  9.000E+00
       5     1     1     2   501     0 -3.846427652E+00  5.076305644E+00  1.949604814E+01  2.105284489E+01  4.750000000E+00  0.00000E+00  9.000E+00
      -5     1     1     2     0   503  3.907617186E+00 -3.959959713E+00 -1.934432294E+02  1.935814977E+02  4.750000000E+00  0.00000E+00  9.000E+00
      21     1     1     2   503   512 -1.657981954E+00 -9.631570533E+00 -3.609744463E+02  3.611067251E+02  5.394796609E-06  0.00000E+00  9.000E+00
#rwgt            1           9   2.8597367603640742                1     1334668           0
</event>
<event>
      6   9999  3.45752E-01  2.33219E+01 -1.00000E+00  1.55278E-01
      21    -1     0     0   501   502  0.000000000E+00  0.000000000E+00  2.477039539E+01  2.477039539E+01  0.000000000E+00  0.00000E+00  9.000E+00
      21    -1     0     0   502   511  0.000000000E+00  0.000000000E+00 -1.585512979E+03  1.585512979E+03  0.000000000E+00  0.00000E+00  9.000E+00
      25     1     1     2     0     0 -7.100455246E+01 -7.620997797E+01 -6.421347525E+02  6.624307897E+02  1.250116134E+02  0.00000E+00  9.000E+00
       5     1     1     2   501     0 -1.053596099E+00  2.652743860E+00  7.659541184E+00  9.454003695E+00  4.750000000E+00  0.00000E+00  9.000E+00
      -5     1     1     2     0   503  5.058193282E+01  8.265022056E+01 -3.993530364E+02  4.109683699E+02  4.750000000E+00  0.00000E+00  9.000E+00
      21     1     1     2   503   511  2.147621574E+01 -9.092986456E+00 -5.269143361E+02  5.274302113E+02  1.078959322E-05  0.00000E+00  9.000E+00
#rwgt            1           9   2.0582120366118175E-006           1     1337847           0
</event>
<event>
      6   9999  3.45752E-01  5.89586E+00 -1.00000E+00  2.15123E-01
      21    -1     0     0   502   512  0.000000000E+00  0.000000000E+00  2.678419350E+01  2.678419350E+01  0.000000000E+00  0.00000E+00  9.000E+00
      21    -1     0     0   501   502  0.000000000E+00  0.000000000E+00 -7.270662508E+02  7.270662508E+02  0.000000000E+00  0.00000E+00  9.000E+00
      25     1     1     2     0     0 -4.679304792E-02  6.083236370E+00 -7.109269200E+02  7.218575633E+02  1.249969923E+02  0.00000E+00  9.000E+00
       5     1     1     2   501     0 -7.642244565E-01  2.075553186E-01 -2.889327869E+00  5.615855568E+00  4.750000000E+00  0.00000E+00  9.000E+00
      -5     1     1     2     0   503 -5.176768314E-01 -5.465961193E-01 -4.994110707E+00  6.933281934E+00  4.750000000E+00  0.00000E+00  9.000E+00
      21     1     1     2   503   512  1.328694336E+00 -5.744195569E+00  1.852830133E+01  1.944374350E+01  1.545128989E-06  0.00000E+00  9.000E+00
#rwgt            1           9   2.4845555009036502E-005           1     1339643           0
</event>
<event>
      6   9999  3.45752E-01  1.85474E+01 -1.00000E+00  1.62751E-01
      21    -1     0     0   501   511  0.000000000E+00  0.000000000E+00  7.413203758E+01  7.413203758E+01  0.000000000E+00  0.00000E+00  9.000E+00
      21    -1     0     0   502   503  0.000000000E+00  0.000000000E+00 -5.202280437E+02  5.202280437E+02  0.000000000E+00  0.00000E+00  9.000E+00
      25     1     1     2     0     0  1.034517864E+01  2.132068681E+00 -4.566036461E+02  4.735222473E+02  1.249994423E+02  0.00000E+00  9.000E+00
       5     1     1     2   501     0  1.356771204E+01 -5.093255018E+00  5.528091348E+01  5.734601950E+01  4.750000000E+00  0.00000E+00  9.000E+00
      -5     1     1     2     0   503 -5.601928601E+00  5.913356949E+00 -4.392427213E+01  4.492497721E+01  4.750000000E+00  0.00000E+00  9.000E+00
      21     1     1     2   502   511 -1.831096208E+01 -2.952170613E+00 -8.490013363E-01  1.856683729E+01  1.490116119E-07  0.00000E+00  9.000E+00
#rwgt            1           9   576.78759669999022                1     1342670           0
</event>
<event>
      6   9999  3.45752E-01  1.03240E+01 -1.00000E+00  1.85747E-01
      21    -1     0     0   512   502  0.000000000E+00  0.000000000E+00  1.395332743E+02  1.395332743E+02  0.000000000E+00  0.00000E+00  9.000E+00
      21    -1     0     0   502   503  0.000000000E+00  0.000000000E+00 -1.193902440E+03  1.193902440E+03  0.000000000E+00  0.00000E+00  9.000E+00
      25     1     1     2     0     0  2.193463259E+01 -3.184382733E+01 -1.128530677E+03  1.136086222E+03  1.249610284E+02  0.00000E+00  9.000E+00
       5     1     1     2   501     0  1.668764302E+00 -2.421514756E+00  4.181190600E-01  5.602305914E+00  4.750000000E+00  0.00000E+00  9.000E+00
      -5     1     1     2     0   503 -1.608997196E+01  2.718483806E+01 -5.445525415E+01  6.313350792E+01  4.750000000E+00  0.00000E+00  9.000E+00
      21     1     1     2   512   501 -7.513424927E+00  7.080504023E+00  1.281986466E+02  1.286136777E+02  4.264961200E-06  0.00000E+00  9.000E+00
#rwgt            1           9   1.4931517401764859E-003           1     1344895           0
</event>
<event>
      6   9999  3.45752E-01  4.39096E+01 -1.00000E+00  1.37877E-01
      21    -1     0     0   511   502  0.000000000E+00  0.000000000E+00  2.429453704E+01  2.429453704E+01  0.000000000E+00  0.00000E+00  9.000E+00
      21    -1     0     0   502   503  0.000000000E+00  0.000000000E+00 -9.107384969E+02  9.107384969E+02  0.000000000E+00  0.00000E+00  9.000E+00
      25     1     1     2     0     0  4.628457463E+01  2.193613601E+01 -5.903211480E+02  6.055788011E+02  1.249926821E+02  0.00000E+00  9.000E+00
       5     1     1     2   501     0  1.741136471E+01 -9.014087248E+00 -1.191130372E+02  1.208093023E+02  4.750000000E+00  0.00000E+00  9.000E+00
      -5     1     1     2     0   503 -3.058011295E+01 -4.175596082E+01 -1.457644509E+02  1.547531622E+02  4.750000000E+00  0.00000E+00  9.000E+00
      21     1     1     2   511   501 -3.311582639E+01  2.883391206E+01 -3.124532378E+01  5.389176839E+01  8.920806376E-07  0.00000E+00  9.000E+00
#rwgt            1           9  0.35483667677092745                1     1348038           0
</event>
<event>
      6   9999  3.45752E-01  3.98727E+02 -1.00000E+00  9.94433E-02
      21    -1     0     0   512   502  0.000000000E+00  0.000000000E+00  1.903512033E+02  1.903512033E+02  0.000000000E+00  0.00000E+00  9.000E+00
       1    -1     0     0   501     0  0.000000000E+00  0.000000000E+00 -1.891878150E+03  1.891878150E+03  0.000000000E+00  0.00000E+00  9.000E+00
      25     1     1     2     0     0 -2.546525861E+01 -3.368529046E+02 -7.595990884E+02  8.406714076E+02  1.249771249E+02  0.00000E+00  9.000E+00
       5     1     1     2   501     0 -1.561318308E+01 -7.209172126E+01 -5.369256839E+01  9.135886470E+01  4.750000000E+00  0.00000E+00  9.000E+00
      -5     1     1     2     0   502 -4.857175249E+01  2.042707118E+01 -7.125024426E+02  7.144639764E+02  4.750000000E+00  0.00000E+00  9.000E+00
       1     1     1     2   512     0  8.965019417E+01  3.885175547E+02 -1.757328470E+02  4.357351043E+02  2.697398305E-06  0.00000E+00  9.000E+00
#rwgt            1           1   2.0628673629215702E-005           1     1349698           0
</event>
<event>
      6   9999  3.45752E-01  5.50495E+00 -1.00000E+00  2.19403E-01
      21    -1     0     0   501   511  0.000000000E+00  0.000000000E+00  3.539343491E+02  3.539343491E+02  0.000000000E+00  0.00000E+00  9.000E+00
      21    -1     0     0   502   503  0.000000000E+00  0.000000000E+00 -7.667378745E+02  7.667378745E+02  0.000000000E+00  0.00000E+00  9.000E+00
      25     1     1     2     0     0 -1.274802858E+01 -1.985877598E+01 -5.215836238E+02  5.368718182E+02  1.249999575E+02  0.00000E+00  9.000E+00
       5     1     1     2   501     0 -2.240927291E-01 -2.510632224E-01 -1.054813152E+01  1.157319441E+01  4.750000000E+00  0.00000E+00  9.000E+00
      -5     1     1     2     0   503  9.921417327E+00  1.552751357E+01 -2.260277572E+02  2.268273522E+02  4.750000000E+00  0.00000E+00  9.000E+00
      21     1     1     2   502   511  3.050703984E+00  4.582325633E+00  3.453559872E+02  3.453998587E+02  3.814697266E-06  0.00000E+00  9.000E+00
#rwgt            1           9   1.4045182872890298E-003           1     1349755           0
</event>
<event>
      6   9999  3.45752E-01  1.33329E+01 -1.00000E+00  1.74928E-01
      21    -1     0     0   501   512  0.000000000E+00  0.000000000E+00  5.352661957E+01  5.352661957E+01  0.000000000E+00  0.00000E+00  9.000E+00
      21    -1     0     0   502   503  0.000000000E+00  0.000000000E+00 -8.678745083E+02  8.678745083E+02  0.000000000E+00  0.00000E+00  9.000E+00
      25     1     1     2     0     0 -3.000138010E+01 -2.713086781E+01 -6.698914404E+02  6.826517589E+02  1.249908607E+02  0.00000E+00  9.000E+00
       5     1     1     2   501     0 -7.454512660E-01  9.448087041E-01  4.625117862E+00  6.738143388E+00  4.750000000E+00  0.00000E+00  9.000E+00
      -5     1     1     2     0   503  1.748025485E+01  2.485758882E+01 -1.881928950E+02  1.906897671E+02  4.750000000E+00  0.00000E+00  9.000E+00
      21     1     1     2   502   512  1.326657651E+01  1.328470290E+00  3.911132884E+01  4.132145846E+01  9.536743164E-07  0.00000E+00  9.000E+00
#rwgt            1           9   1.8892644523232109E-003           1     1353849           0
</event>
<event>
      6   9999 -3.45752E-01  5.31833E+00 -1.00000E+00  2.21623E-01
      21    -1     0     0   501   502  0.000000000E+00  0.000000000E+00  3.861658259E+01  3.861658259E+01  0.000000000E+00  0.00000E+00  9.000E+00
      21    -1     0     0   502   511  0.000000000E+00  0.000000000E+00 -1.262439382E+03  1.262439382E+03  0.000000000E+00  0.00000E+00  9.000E+00
      25     1     1     2     0     0 -6.927496591E+01  5.910618057E+01 -8.693875509E+02  8.830349361E+02  1.249936928E+02  0.00000E+00  9.000E+00
       5     1     1     2   501     0 -8.644303071E+00 -3.312379131E+00  2.438669451E+01  2.651356634E+01  4.750000000E+00  0.00000E+00  9.000E+00
      -5     1     1     2     0   503  7.313477624E+01 -5.811615279E+01 -3.581561680E+02  3.701683210E+02  4.750000000E+00  0.00000E+00  9.000E+00
      21     1     1     2   503   511  4.784492744E+00  2.322351349E+00 -2.066577502E+01  2.133914112E+01  2.384185791E-07  0.00000E+00  9.000E+00
#rwgt            1           9  -1.4843944227420842E-003           1     1356190           0
</event>
<event>
      6   9999  3.45752E-01  1.10589E+01 -1.00000E+00  1.82704E-01
      21    -1     0     0   501   512  0.000000000E+00  0.000000000E+00  2.858304299E+01  2.858304299E+01  0.000000000E+00  0.00000E+00  9.000E+00
      21    -1     0     0   502   503  0.000000000E+00  0.000000000E+00 -1.076084620E+03  1.076084620E+03  0.000000000E+00  0.00000E+00  9.000E+00
      25     1     1     2     0     0  3.644281848E+01  2.958575114E+01 -2.916103251E+02  3.207267423E+02  1.250026632E+02  0.00000E+00  9.000E+00
       5     1     1     2   501     0 -7.831237503E-01 -4.595079188E+00  8.809496294E+00  1.104073188E+01  4.750000000E+00  0.00000E+00  9.000E+00
      -5     1     1     2     0   503 -4.424886173E+01 -3.195665411E+01 -7.579836781E+02  7.599611887E+02  4.750000000E+00  0.00000E+00  9.000E+00
      21     1     1     2   502   512  8.589166995E+00  6.965982157E+00 -6.717070273E+00  1.293900035E+01  2.528810911E-07  0.00000E+00  9.000E+00
#rwgt            1           9   3.5938823558396027E-005           1     1361446           0
</event>
<event>
      6   9999 -3.45752E-01  6.14858E+00 -1.00000E+00  2.12589E-01
      21    -1     0     0   501   511  0.000000000E+00  0.000000000E+00  4.608264630E+01  4.608264630E+01  0.000000000E+00  0.00000E+00  9.000E+00
      21    -1     0     0   502   503  0.000000000E+00  0.000000000E+00 -8.394782812E+02  8.394782812E+02  0.000000000E+00  0.00000E+00  9.000E+00
      25     1     1     2     0     0 -5.589880951E+00 -1.761634138E+01 -7.693675361E+02  7.796749158E+02  1.249999458E+02  0.00000E+00  9.000E+00
       5     1     1     2   501     0  1.350925329E+00 -1.281926759E-01  5.211770235E+00  7.180980545E+00  4.750000000E+00  0.00000E+00  9.000E+00
      -5     1     1     2     0   503  1.932983580E-02  1.327241428E+01 -6.291410571E+01  6.447406108E+01  4.750000000E+00  0.00000E+00  9.000E+00
      21     1     1     2   502   511  4.219625786E+00  4.472119771E+00  3.367423668E+01  3.423097008E+01  1.907348633E-06  0.00000E+00  9.000E+00
#rwgt            1           9  -1.1685117270604701E-005           1     1364034           0
</event>
<event>
      6   9999  3.45752E-01  9.36465E+00 -1.00000E+00  1.90247E-01
      21    -1     0     0   512   502  0.000000000E+00  0.000000000E+00  9.435535392E+00  9.435535392E+00  0.000000000E+00  0.00000E+00  9.000E+00
      21    -1     0     0   502   503  0.000000000E+00  0.000000000E+00 -8.186612662E+02  8.186612662E+02  0.000000000E+00  0.00000E+00  9.000E+00
      25     1     1     2     0     0 -3.176360358E+01 -1.016761595E+01 -6.390321513E+02  6.519978219E+02  1.250070494E+02  0.00000E+00  9.000E+00
       5     1     1     2   501     0 -6.118411255E-01 -8.833448014E-02 -5.235225625E+00  7.095931221E+00  4.750000000E+00  0.00000E+00  9.000E+00
      -5     1     1     2     0   503  2.640600334E+01  3.040515812E+00 -1.323679887E+02  1.350939254E+02  4.750000000E+00  0.00000E+00  9.000E+00
      21     1     1     2   512   501  5.969441370E+00  7.215434620E+00 -3.259036521E+01  3.390912313E+01  6.743495762E-07  0.00000E+00  9.000E+00
#rwgt            1           9   1.1613840638370608E-003           1     1368273           0
</event>
<event>
      6   9999  3.45752E-01  8.64611E+00 -1.00000E+00  1.94104E-01
      21    -1     0     0   501   511  0.000000000E+00  0.000000000E+00  2.275254524E+02  2.275254524E+02  0.000000000E+00  0.00000E+00  9.000E+00
      21    -1     0     0   502   503  0.000000000E+00  0.000000000E+00 -1.377444691E+03  1.377444691E+03  0.000000000E+00  0.00000E+00  9.000E+00
      25     1     1     2     0     0  9.990449976E+00 -2.254762983E+01 -1.323949084E+03  1.330065555E+03  1.249999964E+02  0.00000E+00  9.000E+00
       5     1     1     2   501     0  3.381896768E+00  3.955914306E+00  5.101391765E+01  5.149824053E+01  4.750000000E+00  0.00000E+00  9.000E+00
      -5     1     1     2     0   503 -1.229014952E+01  1.001360178E+01 -4.871940678E+01  5.145350419E+01  4.750000000E+00  0.00000E+00  9.000E+00
      21     1     1     2   502   511 -1.082197225E+00  8.578113746E+00  1.717353347E+02  1.719528435E+02  0.000000000E+00  0.00000E+00  9.000E+00
#rwgt            1           9   2.2229866557417000E-005           1     1370740           0
</event>
<event>
      6   9999  3.45752E-01  2.30601E+01 -1.00000E+00  1.55630E-01
      21    -1     0     0   501   502  0.000000000E+00  0.000000000E+00  3.460598729E+01  3.460598729E+01  0.000000000E+00  0.00000E+00  9.000E+00
      21    -1     0     0   502   512  0.000000000E+00  0.000000000E+00 -1.084915602E+03  1.084915602E+03  0.000000000E+00  0.00000E+00  9.000E+00
      25     1     1     2     0     0  1.230028158E+01 -6.191045785E+00 -1.507647285E+02  1.963281444E+02  1.250004438E+02  0.00000E+00  9.000E+00
       5     1     1     2   501     0  1.657998543E+00 -2.921230184E+00  6.544287484E+00  8.756297370E+00  4.750000000E+00  0.00000E+00  9.000E+00
      -5     1     1     2     0   503  1.454336036E+00 -8.040519598E+00 -1.518434627E+00  9.572522782E+00  4.750000000E+00  0.00000E+00  9.000E+00
      21     1     1     2   503   512 -1.541261616E+01  1.715279557E+01 -9.045707394E+02  9.048646251E+02  1.078959322E-05  0.00000E+00  9.000E+00
#rwgt            1           9   8.8799364933042678E-004           1     1375103           0
</event>
<event>
      6   9999  3.45752E-01  3.53761E+01 -1.00000E+00  1.43352E-01
      21    -1     0     0   501   502  0.000000000E+00  0.000000000E+00  1.671096067E+02  1.671096067E+02  0.000000000E+00  0.00000E+00  9.000E+00
      21    -1     0     0   502   511  0.000000000E+00  0.000000000E+00 -2.050828859E+03  2.050828859E+03  0.000000000E+00  0.00000E+00  9.000E+00
      25     1     1     2     0     0 -1.228329617E+01  1.885404738E+01 -1.485352175E+03  1.490772404E+03  1.249996906E+02  0.00000E+00  9.000E+00
       5     1     1     2   501     0  1.113898091E+01  1.526842580E+00  1.609714732E+02  1.614335338E+02  4.750000000E+00  0.00000E+00  9.000E+00
      -5     1     1     2     0   503 -3.415041972E+01 -1.798281543E+01 -4.263319724E+02  4.281017940E+02  4.750000000E+00  0.00000E+00  9.000E+00
      21     1     1     2   503   511  3.529473498E+01 -2.398074534E+00 -1.330065782E+02  1.376307339E+02  1.907348633E-06  0.00000E+00  9.000E+00
#rwgt            1           9   2.1838469400948022E-004           1     1376248           0
</event>
<event>
      6   9999  3.45752E-01  3.91826E+00 -1.00000E+00  2.49721E-01
       1    -1     0     0   501     0  0.000000000E+00  0.000000000E+00  4.947512153E+02  4.947512153E+02  0.000000000E+00  0.00000E+00  9.000E+00
      21    -1     0     0   502   503  0.000000000E+00  0.000000000E+00 -3.473265825E+01  3.473265825E+01  0.000000000E+00  0.00000E+00  9.000E+00
      25     1     1     2     0     0  3.582785746E+00 -6.823186907E+00  9.559158272E+01  1.575490910E+02  1.249982926E+02  0.00000E+00  9.000E+00
       5     1     1     2   501     0 -1.766105410E+00  3.648850566E-01  7.893310920E+01  7.909646324E+01  4.750000000E+00  0.00000E+00  9.000E+00
      -5     1     1     2     0   503 -2.782096499E+00  1.025576736E+01  5.599567765E+00  1.291659724E+01  4.750000000E+00  0.00000E+00  9.000E+00
       1     1     1     2   502     0  9.654161636E-01 -3.797465508E+00  2.798942974E+02  2.799217221E+02  3.814697266E-06  0.00000E+00  9.000E+00
#rwgt            1           9  0.33006122708108271                1     1378763           0
</event>
<event>
      6   9999  3.45752E-01  1.02966E+01 -1.00000E+00  1.85867E-01
      21    -1     0     0   501   511  0.000000000E+00  0.000000000E+00  8.400131550E+00  8.400131550E+00  0.000000000E+00  0.00000E+00  9.000E+00
      21    -1     0     0   502   503  0.000000000E+00  0.000000000E+00 -2.102228595E+03  2.102228595E+03  0.000000000E+00  0.00000E+00  9.000E+00
      25     1     1     2     0     0  1.549135790E+00 -7.047595748E+00 -1.948080620E+03  1.952099899E+03  1.249953740E+02  0.00000E+00  9.000E+00
       5     1     1     2   501     0  2.348971348E+00 -5.695785384E-01 -4.205678537E+00  6.789132350E+00  4.750000000E+00  0.00000E+00  9.000E+00
      -5     1     1     2     0   503  1.849302910E+00 -9.260615117E-01 -1.413463392E+02  1.414412514E+02  4.750000000E+00  0.00000E+00  9.000E+00
      21     1     1     2   502   511 -5.747410048E+00  8.543235798E+00 -1.958254876E-01  1.029844395E+01  3.846260756E-07  0.00000E+00  9.000E+00
#rwgt            1           9   2.5542169400838009E-002           1     1383587           0
</event>
<event>
      6   9999  3.45752E-01  2.80929E+01 -1.00000E+00  1.49707E-01
      21    -1     0     0   501   502  0.000000000E+00  0.000000000E+00  3.481895676E+01  3.481895676E+01  0.000000000E+00  0.00000E+00  9.000E+00
       2    -1     0     0   502     0  0.000000000E+00  0.000000000E+00 -1.880692481E+03  1.880692481E+03  0.000000000E+00  0.00000E+00  9.000E+00
      25     1     1     2     0     0  4.362158320E+01  1.193207330E+01 -1.137587103E+03  1.145325577E+03  1.249841782E+02  0.00000E+00  9.000E+00
       5     1     1     2   501     0  1.118699161E+00 -3.757120720E+00  2.574850437E+01  2.647480730E+01  4.750000000E+00  0.00000E+00  9.000E+00
      -5     1     1     2     0   503 -2.336893101E+01 -2.640884441E+01 -6.512614017E+01  7.421260427E+01  4.750000000E+00  0.00000E+00  9.000E+00
       2     1     1     2   503     0 -2.137135136E+01  1.823389183E+01 -6.689087863E+02  6.694984494E+02  7.629394531E-06  0.00000E+00  9.000E+00
#rwgt            1           9   5.0250914524938330E-003           1     1385617           0
</event>
<event>
      6   9999  3.45752E-01  1.92696E+01 -1.00000E+00  1.61453E-01
      21    -1     0     0   511   502  0.000000000E+00  0.000000000E+00  1.608009525E+01  1.608009525E+01  0.000000000E+00  0.00000E+00  9.000E+00
      21    -1     0     0   502   503  0.000000000E+00  0.000000000E+00 -7.559381828E+02  7.559381828E+02  0.000000000E+00  0.00000E+00  9.000E+00
      25     1     1     2     0     0  1.960205818E+01  9.023051653E+00 -7.269747672E+02  7.379586851E+02  1.250002102E+02  0.00000E+00  9.000E+00
       5     1     1     2   501     0  6.296760601E-01  7.680004036E-01 -5.616755483E+00  7.422719092E+00  4.750000000E+00  0.00000E+00  9.000E+00
      -5     1     1     2     0   503 -3.653536241E+00  3.148996408E-02 -3.691525442E+00  7.038407403E+00  4.750000000E+00  0.00000E+00  9.000E+00
      21     1     1     2   511   501 -1.657819800E+01 -9.822542020E+00 -3.575039371E+00  1.959846645E+01  6.179941104E-07  0.00000E+00  9.000E+00
#rwgt            1           9   6.6633665230439728E-005           1     1387572           0
</event>
<event>
      6   9999  3.45752E-01  2.66853E+01 -1.00000E+00  1.51204E-01
      21    -1     0     0   501   512  0.000000000E+00  0.000000000E+00  1.018169101E+02  1.018169101E+02  0.000000000E+00  0.00000E+00  9.000E+00
      21    -1     0     0   502   503  0.000000000E+00  0.000000000E+00 -1.186641005E+02  1.186641005E+02  0.000000000E+00  0.00000E+00  9.000E+00
      25     1     1     2     0     0  1.840634513E+01  1.499363636E+01  1.098524622E+01  1.277287980E+02  1.250214683E+02  0.00000E+00  9.000E+00
       5     1     1     2   501     0 -9.402994977E-01 -5.294303995E-01  3.694450322E+00  6.113585108E+00  4.750000000E+00  0.00000E+00  9.000E+00
      -5     1     1     2     0   503 -3.873075805E+01 -3.058621513E+01 -3.356925320E+01  5.987524894E+01  4.750000000E+00  0.00000E+00  9.000E+00
      21     1     1     2   502   512  2.126471242E+01  1.612200917E+01  2.042366255E+00  2.676337859E+01  3.816559456E-07  0.00000E+00  9.000E+00
#rwgt            1           9   7.0001015134055350E-002           1     1388804           0
</event>
<event>
      6   9999  3.45752E-01  8.33217E+00 -1.00000E+00  1.95946E-01
      21    -1     0     0   502   503  0.000000000E+00  0.000000000E+00  8.591063066E+01  8.591063066E+01  0.000000000E+00  0.00000E+00  9.000E+00
       1    -1     0     0   501     0  0.000000000E+00  0.000000000E+00 -3.354600485E+03  3.354600485E+03  0.000000000E+00  0.00000E+00  9.000E+00
      25     1     1     2     0     0  3.581940521E+01 -1.338196211E+02 -5.014956839E+01  1.932113398E+02  1.249996874E+02  0.00000E+00  9.000E+00
       5     1     1     2   501     0 -5.089496785E+01  1.545887523E+02 -1.454459229E+03  1.463544394E+03  4.750000000E+00  0.00000E+00  9.000E+00
      -5     1     1     2     0   503  1.022186035E+01 -1.399663588E+01  1.611606034E+00  1.804306014E+01  4.750000000E+00  0.00000E+00  9.000E+00
       1     1     1     2   502     0  4.853702283E+00 -6.772495381E+00 -1.765692663E+03  1.765712322E+03  3.737624730E-05  0.00000E+00  9.000E+00
#rwgt            1           9   2.1618610702942719E-003           1     1389868           0
</event>
<event>
      6   9999  3.45752E-01  3.78267E+00 -1.00000E+00  2.52981E-01
      21    -1     0     0   501   511  0.000000000E+00  0.000000000E+00  3.406301319E+01  3.406301319E+01  0.000000000E+00  0.00000E+00  9.000E+00
      21    -1     0     0   502   503  0.000000000E+00  0.000000000E+00 -1.047669478E+03  1.047669478E+03  0.000000000E+00  0.00000E+00  9.000E+00
      25     1     1     2     0     0  3.800412142E+01 -2.457387845E+01 -7.483247929E+02  7.600435956E+02  1.250123306E+02  0.00000E+00  9.000E+00
       5     1     1     2   501     0 -1.361863348E-01  5.659341807E+00  1.560618574E+01  1.726737472E+01  4.750000000E+00  0.00000E+00  9.000E+00
      -5     1     1     2     0   503 -3.789505138E+01  2.269710495E+01 -2.906116421E+02  2.939878952E+02  4.750000000E+00  0.00000E+00  9.000E+00
      21     1     1     2   502   511  2.711629642E-02 -3.782568304E+00  9.723784517E+00  1.043362562E+01  5.462855929E-07  0.00000E+00  9.000E+00
#rwgt            1           9   3.1031973829524044E-003           1     1395720           0
</event>
<event>
      6   9999 -3.45752E-01  5.46267E+01 -1.00000E+00  1.32763E-01
      21    -1     0     0   502   503  0.000000000E+00  0.000000000E+00  2.909360388E+01  2.909360388E+01  0.000000000E+00  0.00000E+00  9.000E+00
      21    -1     0     0   512   502  0.000000000E+00  0.000000000E+00 -1.544560310E+03  1.544560310E+03  0.000000000E+00  0.00000E+00  9.000E+00
      25     1     1     2     0     0 -2.202744097E+01 -4.322236680E+01 -1.055914937E+03  1.064391066E+03  1.249744225E+02  0.00000E+00  9.000E+00
       5     1     1     2   501     0 -5.680302426E+00 -4.572196641E+00  5.362588619E+00  1.022206801E+01  4.750000000E+00  0.00000E+00  9.000E+00
      -5     1     1     2     0   503 -1.643211612E+00  1.722898027E+00  1.505898835E+01  1.596884943E+01  4.750000000E+00  0.00000E+00  9.000E+00
      21     1     1     2   512   501  2.935095501E+01  4.607166542E+01 -4.799733456E+02  4.830719298E+02  5.394796609E-06  0.00000E+00  9.000E+00
#rwgt            1           9  -9.3439482867528993E-006           1     1401672           0
</event>
<event>
      6   9999  3.45752E-01  1.38568E+01 -1.00000E+00  1.73410E-01
      21    -1     0     0   501   502  0.000000000E+00  0.000000000E+00  1.803222622E+01  1.803222622E+01  0.000000000E+00  0.00000E+00  9.000E+00
       2    -1     0     0   502     0  0.000000000E+00  0.000000000E+00 -1.768644303E+03  1.768644303E+03  0.000000000E+00  0.00000E+00  9.000E+00
      25     1     1     2     0     0 -5.655282068E+01 -6.373454655E+01 -5.966396251E+02  6.155202982E+02  1.250043250E+02  0.00000E+00  9.000E+00
       5     1     1     2   501     0 -1.388189579E+00 -8.309292334E-01  2.239589732E+00  5.495068322E+00  4.750000000E+00  0.00000E+00  9.000E+00
      -5     1     1     2     0   503  4.541985559E+01  5.862996333E+01 -2.910528828E+02  3.003910434E+02  4.750000000E+00  0.00000E+00  9.000E+00
       2     1     1     2   503     0  1.252115466E+01  5.935512453E+00 -8.651591586E+02  8.652701192E+02  1.078959322E-05  0.00000E+00  9.000E+00
#rwgt            1           9  0.62908825326416373                1     1402645           0
</event>
<event>
      6   9999  3.45752E-01  1.11939E+01 -1.00000E+00  1.82178E-01
      21    -1     0     0   501   511  0.000000000E+00  0.000000000E+00  7.040275376E+00  7.040275376E+00  0.000000000E+00  0.00000E+00  9.000E+00
      21    -1     0     0   502   503  0.000000000E+00  0.000000000E+00 -1.196442383E+03  1.196442383E+03  0.000000000E+00  0.00000E+00  9.000E+00
      25     1     1     2     0     0 -1.659559478E+01  1.587318921E+01 -1.060100975E+03  1.067692023E+03  1.249992321E+02  0.00000E+00  9.000E+00
       5     1     1     2   501     0 -9.745749031E-01  9.870634238E-02 -6.457670546E+00  8.076109711E+00  4.750000000E+00  0.00000E+00  9.000E+00
      -5     1     1     2     0   503  9.400568194E+00 -8.319404970E+00 -1.094025052E+02  1.102227464E+02  4.750000000E+00  0.00000E+00  9.000E+00
      21     1     1     2   502   511  8.169601490E+00 -7.652490583E+00 -1.344095685E+01  1.749177869E+01  8.920806376E-07  0.00000E+00  9.000E+00
#rwgt            1           9   1.0725181948488382E-004           1     1404824           0
</event>
<event>
      6   9999  3.45752E-01  1.77169E+01 -1.00000E+00  1.64335E-01
      21    -1     0     0   501   502  0.000000000E+00  0.000000000E+00  2.203901876E+02  2.203901876E+02  0.000000000E+00  0.00000E+00  9.000E+00
       2    -1     0     0   502     0  0.000000000E+00  0.000000000E+00 -6.445496293E+02  6.445496293E+02  0.000000000E+00  0.00000E+00  9.000E+00
      25     1     1     2     0     0  4.269240917E+01 -7.806002388E+00  1.611775239E+02  2.085341355E+02  1.249988640E+02  0.00000E+00  9.000E+00
       5     1     1     2   501     0 -4.572725046E+00  8.877858914E+00  4.476846829E+00  1.193024940E+01  4.750000000E+00  0.00000E+00  9.000E+00
      -5     1     1     2     0   503 -4.113623225E+01  1.638634157E+01  8.971110978E+00  4.542846163E+01  4.750000000E+00  0.00000E+00  9.000E+00
       2     1     1     2   503     0  3.016548122E+00 -1.745819810E+01 -5.987849234E+02  5.990469704E+02  1.078959322E-05  0.00000E+00  9.000E+00
#rwgt            1           9  0.20041490490298300                1     1406741           0
</event>
<event>
      6   9999  3.45752E-01  1.61011E+01 -1.00000E+00  1.67748E-01
      21    -1     0     0   501   511  0.000000000E+00  0.000000000E+00  1.085753481E+01  1.085753481E+01  0.000000000E+00  0.00000E+00  9.000E+00
      21    -1     0     0   502   503  0.000000000E+00  0.000000000E+00 -7.651685570E+02  7.651685570E+02  0.000000000E+00  0.00000E+00  9.000E+00
      25     1     1     2     0     0  1.291513615E+01  7.467950480E+00 -6.859765577E+02  6.974319273E+02  1.249995380E+02  0.00000E+00  9.000E+00
       5     1     1     2   501     0  1.774686803E+00  4.648206770E-01  1.566130608E+00  5.327366759E+00  4.750000000E+00  0.00000E+00  9.000E+00
      -5     1     1     2     0   503  1.823545028E-01 -1.763156217E+00 -2.639097240E+01  2.687355387E+01  4.750000000E+00  0.00000E+00  9.000E+00
      21     1     1     2   502   511 -1.487217745E+01 -6.169614940E+00 -4.350962271E+01  4.639324390E+01  6.743495762E-07  0.00000E+00  9.000E+00
#rwgt            1           9   8.6079228326313498E-003           1     1409796           0
</event>
<event>
      6   9999  3.45752E-01  8.14511E+00 -1.00000E+00  1.97095E-01
      21    -1     0     0   501   502  0.000000000E+00  0.000000000E+00  1.657597951E+01  1.657597951E+01  0.000000000E+00  0.00000E+00  9.000E+00
      21    -1     0     0   512   503  0.000000000E+00  0.000000000E+00 -6.161284690E+02  6.161284690E+02  0.000000000E+00  0.00000E+00  9.000E+00
      25     1     1     2     0     0 -9.515408424E+00  1.847868250E+01 -2.918591340E+02  3.181796040E+02  1.249980064E+02  0.00000E+00  9.000E+00
       5     1     1     2   501     0 -4.657797321E-02  8.212538880E-02  6.427170696E-02  4.751372953E+00  4.750000000E+00  0.00000E+00  9.000E+00
      -5     1     1     2     0   503  1.753562449E+01 -1.689831295E+01 -1.730314167E+02  1.748012722E+02  4.750000000E+00  0.00000E+00  9.000E+00
      21     1     1     2   512   502 -7.973638089E+00 -1.662494938E+00 -1.347262105E+02  1.349721994E+02  1.907348633E-06  0.00000E+00  9.000E+00
#rwgt            1           9  0.23748717955749493                1     1411621           0
</event>
<event>
      6   9999  3.45752E-01  2.35043E+01 -1.00000E+00  1.55036E-01
      21    -1     0     0   511   502  0.000000000E+00  0.000000000E+00  1.410137277E+02  1.410137277E+02  0.000000000E+00  0.00000E+00  9.000E+00
      21    -1     0     0   502   503  0.000000000E+00  0.000000000E+00 -1.447990559E+03  1.447990559E+03  0.000000000E+00  0.00000E+00  9.000E+00
      25     1     1     2     0     0 -1.147406104E+01 -1.897939898E+01 -1.182087162E+03  1.188884863E+03  1.250011432E+02  0.00000E+00  9.000E+00
       5     1     1     2   501     0 -1.119602893E+01  8.887833068E+00  6.433801686E+01  6.607789006E+01  4.750000000E+00  0.00000E+00  9.000E+00
      -5     1     1     2     0   503  3.725460697E+00 -3.820855442E+00 -2.596767214E+02  2.597749798E+02  4.750000000E+00  0.00000E+00  9.000E+00
      21     1     1     2   511   501  1.894462927E+01  1.391242135E+01  7.044903554E+01  7.426655408E+01  9.536743164E-07  0.00000E+00  9.000E+00
#rwgt            1           9   4.0596566012060493E-004           1     1414253           0
</event>
<event>
      6   9999  3.45752E-01  9.32430E+00 -1.00000E+00  1.90452E-01
      21    -1     0     0   512   502  0.000000000E+00  0.000000000E+00  4.573879974E+01  4.573879974E+01  0.000000000E+00  0.00000E+00  9.000E+00
      21    -1     0     0   502   503  0.000000000E+00  0.000000000E+00 -1.182924621E+03  1.182924621E+03  0.000000000E+00  0.00000E+00  9.000E+00
      25     1     1     2     0     0 -2.799687124E+01  2.749220457E+01 -7.267742515E+02  7.384855884E+02  1.249820211E+02  0.00000E+00  9.000E+00
       5     1     1     2   501     0 -9.007040987E+00 -8.236465103E+00  3.452233504E+01  3.692316700E+01  4.750000000E+00  0.00000E+00  9.000E+00
      -5     1     1     2     0   503  2.768311652E+01 -1.900015097E+01 -4.422550048E+02  4.435531675E+02  4.750000000E+00  0.00000E+00  9.000E+00
      21     1     1     2   512   501  9.320795703E+00 -2.555884956E-01 -2.678900348E+00  9.701498085E+00  2.648888355E-07  0.00000E+00  9.000E+00
#rwgt            1           9   8.1662639195729542E-003           1     1416812           0
</event>
<event>
      6   9999  3.45752E-01  1.63046E+01 -1.00000E+00  1.67291E-01
      21    -1     0     0   501   511  0.000000000E+00  0.000000000E+00  3.413953277E+01  3.413953277E+01  0.000000000E+00  0.00000E+00  9.000E+00
      21    -1     0     0   502   503  0.000000000E+00  0.000000000E+00 -1.190006804E+03  1.190006804E+03  0.000000000E+00  0.00000E+00  9.000E+00
      25     1     1     2     0     0 -4.472053918E+01  5.506786829E+00 -4.220786489E+02  4.424995645E+02  1.250009097E+02  0.00000E+00  9.000E+00
       5     1     1     2   501     0 -9.077940769E-01  1.886298006E+00  2.007089245E+01  2.073126706E+01  4.750000000E+00  0.00000E+00  9.000E+00
      -5     1     1     2     0   503  3.548471635E+01 -2.015818406E+01 -7.343128211E+02  7.354613512E+02  4.750000000E+00  0.00000E+00  9.000E+00
      21     1     1     2   502   511  1.014361691E+01  1.276509922E+01 -1.954669414E+01  2.545415435E+01  4.129530925E-07  0.00000E+00  9.000E+00
#rwgt            1           9   2.8773157037480381E-002           1     1420721           0
</event>
<event>
      6   9999  3.45752E-01  9.10698E+00 -1.00000E+00  1.91577E-01
      21    -1     0     0   501   502  0.000000000E+00  0.000000000E+00  9.304870910E+01  9.304870910E+01  0.000000000E+00  0.00000E+00  9.000E+00
      21    -1     0     0   512   503  0.000000000E+00  0.000000000E+00 -4.209903527E+02  4.209903527E+02  0.000000000E+00  0.00000E+00  9.000E+00
      25     1     1     2     0     0 -4.308291547E+01 -3.405802095E+01 -1.767507303E+01  1.377150961E+02  1.250478032E+02  0.00000E+00  9.000E+00
       5     1     1     2   501     0  1.496824082E+00 -9.421261827E-01  2.962754230E+01  3.005797476E+01  4.750000000E+00  0.00000E+00  9.000E+00
      -5     1     1     2     0   503  3.505719644E+01  4.134920793E+01 -3.168229274E+02  3.214624299E+02  4.750000000E+00  0.00000E+00  9.000E+00
      21     1     1     2   512   502  6.528894948E+00 -6.349060796E+00 -2.307118548E+01  2.480356106E+01  3.371747881E-07  0.00000E+00  9.000E+00
#rwgt            1           9   2.9513819273798862E-004           1     1423244           0
</event>
<event>
      6   9999  3.45752E-01  8.48753E+00 -1.00000E+00  1.95021E-01
      21    -1     0     0   511   503  0.000000000E+00  0.000000000E+00  1.366417906E+01  1.366417906E+01  0.000000000E+00  0.00000E+00  9.000E+00
      21    -1     0     0   501   502  0.000000000E+00  0.000000000E+00 -6.996814289E+02  6.996814289E+02  0.000000000E+00  0.00000E+00  9.000E+00
      25     1     1     2     0     0  1.302356296E+00  9.138984278E+00 -6.329584245E+02  6.452500351E+02  1.250040939E+02  0.00000E+00  9.000E+00
       5     1     1     2   501     0 -3.250792596E+00  2.453042018E-01 -4.520254598E+01  4.556819603E+01  4.750000000E+00  0.00000E+00  9.000E+00
      -5     1     1     2     0   503  9.520578656E-01 -9.554405302E-01 -1.207763320E+01  1.304802684E+01  4.750000000E+00  0.00000E+00  9.000E+00
      21     1     1     2   511   502  9.963784348E-01 -8.428847950E+00  4.221353839E+00  9.479349977E+00  2.149076030E-07  0.00000E+00  9.000E+00
#rwgt            1           9  0.46594640136562082                1     1426966           0
</event>
<event>
      6   9999 -3.45752E-01  7.14999E+00 -1.00000E+00  2.03972E-01
      21    -1     0     0   501   512  0.000000000E+00  0.000000000E+00  4.822429709E+00  4.822429709E+00  0.000000000E+00  0.00000E+00  9.000E+00
      21    -1     0     0   502   503  0.000000000E+00  0.000000000E+00 -2.485759808E+03  2.485759808E+03  0.000000000E+00  0.00000E+00  9.000E+00
      25     1     1     2     0     0  4.397552318E+00  8.000770395E+00 -2.331608756E+03  2.334975012E+03  1.250022597E+02  0.00000E+00  9.000E+00
       5     1     1     2   501     0 -7.727946742E-01 -1.364618348E+00  6.392436512E-01  5.042868954E+00  4.750000000E+00  0.00000E+00  9.000E+00
      -5     1     1     2     0   503  1.666404886E+00 -1.827213084E+00 -9.225118741E+01  9.240649160E+01  4.750000000E+00  0.00000E+00  9.000E+00
      21     1     1     2   502   512 -5.291162530E+00 -4.808938963E+00 -5.771667862E+01  5.815786521E+01  1.507891493E-06  0.00000E+00  9.000E+00
#rwgt            1           9  -7.8163108181254412E-004           1     1429061           0
</event>
<event>
      6   9999  3.45752E-01  8.37747E+01 -1.00000E+00  1.23796E-01
      21    -1     0     0   511   502  0.000000000E+00  0.000000000E+00  3.631416015E+02  3.631416015E+02  0.000000000E+00  0.00000E+00  9.000E+00
      21    -1     0     0   502   503  0.000000000E+00  0.000000000E+00 -2.016595928E+03  2.016595928E+03  0.000000000E+00  0.00000E+00  9.000E+00
      25     1     1     2     0     0  3.499235148E+01  5.107217697E+01 -9.953476748E+02  1.005074078E+03  1.249963104E+02  0.00000E+00  9.000E+00
       5     1     1     2   501     0 -1.056450661E+01  4.501873351E+01  5.960796481E+01  7.559078737E+01  4.750000000E+00  0.00000E+00  9.000E+00
      -5     1     1     2     0   503 -6.682077457E+00 -1.421732597E+01 -1.002289031E+03  1.002423387E+03  4.750000000E+00  0.00000E+00  9.000E+00
      21     1     1     2   511   501 -1.774576741E+01 -8.187358451E+01  2.845744144E+02  2.966492768E+02  8.529922400E-06  0.00000E+00  9.000E+00
#rwgt            1           9   1.6848836378132302E-002           1     1432344           0
</event>
<event>
      6   9999  3.45752E-01  4.18540E+00 -1.00000E+00  2.43846E-01
      21    -1     0     0   501   502  0.000000000E+00  0.000000000E+00  1.011677173E+01  1.011677173E+01  0.000000000E+00  0.00000E+00  9.000E+00
      21    -1     0     0   502   512  0.000000000E+00  0.000000000E+00 -7.537522140E+02  7.537522140E+02  0.000000000E+00  0.00000E+00  9.000E+00
      25     1     1     2     0     0 -1.534270938E+01  2.724231061E+01 -5.760801231E+02  5.903072077E+02  1.249669916E+02  0.00000E+00  9.000E+00
       5     1     1     2   501     0 -2.696131938E-01 -3.152800732E-01 -2.479666335E+00  5.374322091E+00  4.750000000E+00  0.00000E+00  9.000E+00
      -5     1     1     2     0   503  1.324897401E+01 -2.347273260E+01 -1.291046894E+02  1.319738149E+02  4.750000000E+00  0.00000E+00  9.000E+00
      21     1     1     2   503   512  2.363348571E+00 -3.454297931E+00 -3.597096335E+01  3.621364100E+01  4.768371582E-07  0.00000E+00  9.000E+00
#rwgt            1           9   2.1871807168057384E-002           1     1433342           0
</event>
<event>
      6   9999  3.45752E-01  1.73164E+01 -1.00000E+00  1.65138E-01
      21    -1     0     0   501   502  0.000000000E+00  0.000000000E+00  2.080175840E+02  2.080175840E+02  0.000000000E+00  0.00000E+00  9.000E+00
      21    -1     0     0   511   503  0.000000000E+00  0.000000000E+00 -2.535649595E+02  2.535649595E+02  0.000000000E+00  0.00000E+00  9.000E+00
      25     1     1     2     0     0 -8.607013144E+01 -2.466153216E+01  4.737427556E+01  1.608845140E+02  1.249929844E+02  0.00000E+00  9.000E+00
       5     1     1     2   501     0  4.245829609E+00 -4.624637200E+00  8.667525800E+01  8.703204691E+01  4.750000000E+00  0.00000E+00  9.000E+00
      -5     1     1     2     0   503  9.598080518E+01  1.931361810E+01 -1.457133163E+02  1.756139626E+02  4.750000000E+00  0.00000E+00  9.000E+00
      21     1     1     2   511   502 -1.415650334E+01  9.972551255E+00 -3.388359278E+01  3.805201999E+01  4.768371582E-07  0.00000E+00  9.000E+00
#rwgt            1           9   7.1639733330613109E-004           1     1437472           0
</event>
<event>
      6   9999  3.45752E-01  8.97567E+00 -1.00000E+00  1.92277E-01
      21    -1     0     0   501   512  0.000000000E+00  0.000000000E+00  1.034720368E+01  1.034720368E+01  0.000000000E+00  0.00000E+00  9.000E+00
      21    -1     0     0   502   503  0.000000000E+00  0.000000000E+00 -1.394393327E+03  1.394393327E+03  0.000000000E+00  0.00000E+00  9.000E+00
      25     1     1     2     0     0  1.369585521E+01  4.221160216E+01 -1.082135763E+03  1.090234155E+03  1.249932336E+02  0.00000E+00  9.000E+00
       5     1     1     2   501     0 -2.874771996E+01 -2.663138339E+01 -1.123541208E+02  1.190868295E+02  4.750000000E+00  0.00000E+00  9.000E+00
      -5     1     1     2     0   503  1.373485855E+01 -6.701693554E+00 -1.843497711E+02  1.850431292E+02  4.750000000E+00  0.00000E+00  9.000E+00
      21     1     1     2   502   512  1.317006210E+00 -8.878525214E+00 -5.206469085E+00  1.037641728E+01  4.805480092E-07  0.00000E+00  9.000E+00
#rwgt            1           9   4.0913296816960230E-002           1     1439875           0
</event>
<event>
      6   9999  3.45752E-01  2.33420E+00 -1.00000E+00  3.08915E-01
      21    -1     0     0   501   502  0.000000000E+00  0.000000000E+00  1.140617454E+02  1.140617454E+02  0.000000000E+00  0.00000E+00  9.000E+00
      21    -1     0     0   511   503  0.000000000E+00  0.000000000E+00 -1.619211657E+02  1.619211657E+02  0.000000000E+00  0.00000E+00  9.000E+00
      25     1     1     2     0     0 -4.713184196E+00  5.575272713E+00 -3.855955139E+01  1.310159736E+02  1.250001943E+02  0.00000E+00  9.000E+00
       5     1     1     2   501     0 -7.985536106E-01 -2.650586807E+00  6.530227811E+01  6.553329935E+01  4.750000000E+00  0.00000E+00  9.000E+00
      -5     1     1     2     0   503  3.396402462E+00 -1.937857175E+00 -1.550715076E+00  6.344923747E+00  4.750000000E+00  0.00000E+00  9.000E+00
      21     1     1     2   511   502  2.115335345E+00 -9.868287315E-01 -7.305143192E+01  7.308871445E+01  1.651812370E-06  0.00000E+00  9.000E+00
#rwgt            1           9  0.24163027686740415                1     1442379           0
</event>
<event>
      6   9999  3.45752E-01  4.33836E+01 -1.00000E+00  1.38171E-01
      21    -1     0     0   501   502  0.000000000E+00  0.000000000E+00  8.237049329E+01  8.237049329E+01  0.000000000E+00  0.00000E+00  9.000E+00
      21    -1     0     0   502   512  0.000000000E+00  0.000000000E+00 -1.747012328E+03  1.747012328E+03  0.000000000E+00  0.00000E+00  9.000E+00
      25     1     1     2     0     0  1.174613239E+02  1.529113756E+02 -7.173368839E+02  7.532325471E+02  1.249320358E+02  0.00000E+00  9.000E+00
       5     1     1     2   501     0  2.111475118E+00  6.974736806E-01  5.378465932E+01  5.403977123E+01  4.750000000E+00  0.00000E+00  9.000E+00
      -5     1     1     2     0   503 -1.178895154E+02 -1.102578810E+02 -7.372985715E+02  7.547757840E+02  4.750000000E+00  0.00000E+00  9.000E+00
      21     1     1     2   503   512 -1.683283609E+00 -4.335096829E+01 -2.637910391E+02  2.673347194E+02  6.607249480E-06  0.00000E+00  9.000E+00
#rwgt            1           9   4.1006793902588844E-002           1     1450106           0
</event>
<event>
      6   9999  3.45752E-01  1.65645E+01 -1.00000E+00  1.66720E-01
      21    -1     0     0   501   502  0.000000000E+00  0.000000000E+00  7.538495504E+01  7.538495504E+01  0.000000000E+00  0.00000E+00  9.000E+00
      21    -1     0     0   502   511  0.000000000E+00  0.000000000E+00 -1.647581327E+03  1.647581327E+03  0.000000000E+00  0.00000E+00  9.000E+00
      25     1     1     2     0     0  1.344521390E+01  5.567396280E+00 -1.395227157E+03  1.400890941E+03  1.249993570E+02  0.00000E+00  9.000E+00
       5     1     1     2   501     0 -1.191597897E+00  4.498105145E+00  7.145613930E+01  7.176486047E+01  4.750000000E+00  0.00000E+00  9.000E+00
      -5     1     1     2     0   503  4.115355911E+00 -1.260326595E+01 -1.179985392E+02  1.188360055E+02  4.750000000E+00  0.00000E+00  9.000E+00
      21     1     1     2   503   511 -1.636897191E+01  2.537764524E+00 -1.304268143E+02  1.314744743E+02  0.000000000E+00  0.00000E+00  9.000E+00
#rwgt            1           9   1.9201067227606706E-004           1     1452362           0
</event>
<event>
      6   9999  3.45752E-01  9.43255E+00 -1.00000E+00  1.89906E-01
      21    -1     0     0   512   502  0.000000000E+00  0.000000000E+00  5.722541353E+01  5.722541353E+01  0.000000000E+00  0.00000E+00  9.000E+00
      21    -1     0     0   502   503  0.000000000E+00  0.000000000E+00 -1.366179510E+03  1.366179510E+03  0.000000000E+00  0.00000E+00  9.000E+00
      25     1     1     2     0     0  1.788705630E+01 -7.874960306E+00 -2.137673007E+02  2.484061781E+02  1.250088343E+02  0.00000E+00  9.000E+00
       5     1     1     2   501     0  1.051510068E-01 -7.547715304E+00  3.540777923E+01  3.651372882E+01  4.750000000E+00  0.00000E+00  9.000E+00
      -5     1     1     2     0   503 -2.652806289E+01  1.943668341E+01 -1.128284548E+03  1.128773718E+03  4.750000000E+00  0.00000E+00  9.000E+00
      21     1     1     2   512   501  8.535855580E+00 -4.014007798E+00 -2.310026509E+00  9.711298140E+00  1.576990671E-07  0.00000E+00  9.000E+00
#rwgt            1           9   2.5980356175305517E-004           1     1455525           0
</event>
<event>
      6   9999  3.45752E-01  1.86100E+01 -1.00000E+00  1.62635E-01
      21    -1     0     0   501   502  0.000000000E+00  0.000000000E+00  4.091586983E+01  4.091586983E+01  0.000000000E+00  0.00000E+00  9.000E+00
      21    -1     0     0   511   503  0.000000000E+00  0.000000000E+00 -1.802546543E+03  1.802546543E+03  0.000000000E+00  0.00000E+00  9.000E+00
      25     1     1     2     0     0 -1.021794929E+00  4.979253792E+01 -4.804052757E+02  4.988939611E+02  1.250024586E+02  0.00000E+00  9.000E+00
       5     1     1     2   501     0 -4.938445570E+00 -4.489100587E-02  3.079533685E+01  3.154846322E+01  4.750000000E+00  0.00000E+00  9.000E+00
      -5     1     1     2     0   503  6.801536928E+00 -3.115663493E+01 -7.540863961E+02  7.547753653E+02  4.750000000E+00  0.00000E+00  9.000E+00
      21     1     1     2   511   502 -8.412964279E-01 -1.859101198E+01 -5.579343386E+02  5.582446235E+02  7.629394531E-06  0.00000E+00  9.000E+00
#rwgt            1           9   7.6513783510379912E-005           1     1459565           0
</event>
<event>
      6   9999 -3.45752E-01  1.76439E+01 -1.00000E+00  1.64480E-01
      21    -1     0     0   502   503  0.000000000E+00  0.000000000E+00  4.957349067E+01  4.957349067E+01  0.000000000E+00  0.00000E+00  9.000E+00
       1    -1     0     0   501     0  0.000000000E+00  0.000000000E+00 -2.059524402E+03  2.059524402E+03  0.000000000E+00  0.00000E+00  9.000E+00
      25     1     1     2     0     0 -6.616997701E+01  4.680775503E+01 -2.362498412E+02  2.792995893E+02  1.249993654E+02  0.00000E+00  9.000E+00
       5     1     1     2   501     0  1.028707754E+02 -4.998840137E+01 -1.089624085E+03  1.095620575E+03  4.750000000E+00  0.00000E+00  9.000E+00
      -5     1     1     2     0   503 -1.932942195E+01  6.269809412E+00  2.057445812E+01  2.930542424E+01  4.750000000E+00  0.00000E+00  9.000E+00
       1     1     1     2   502     0 -1.737137644E+01 -3.089163073E+00 -7.046514433E+02  7.048723035E+02  1.525878906E-05  0.00000E+00  9.000E+00
#rwgt            1           9  -66.822666197286651                1     1461968           0
</event>
<event>
      6   9999  3.45752E-01  2.02606E+01 -1.00000E+00  1.59782E-01
      21    -1     0     0   501   511  0.000000000E+00  0.000000000E+00  2.364674485E+01  2.364674485E+01  0.000000000E+00  0.00000E+00  9.000E+00
      21    -1     0     0   502   503  0.000000000E+00  0.000000000E+00 -1.012175978E+03  1.012175978E+03  0.000000000E+00  0.00000E+00  9.000E+00
      25     1     1     2     0     0 -7.489690603E+01  2.576186472E+01 -3.048170959E+02  3.388369154E+02  1.249950923E+02  0.00000E+00  9.000E+00
       5     1     1     2   501     0 -1.256556354E+00  3.306737954E-01 -2.663103392E+00  5.598472891E+00  4.750000000E+00  0.00000E+00  9.000E+00
      -5     1     1     2     0   503  5.623791567E+01 -2.236938488E+01 -6.576060386E+02  6.604024205E+02  4.750000000E+00  0.00000E+00  9.000E+00
      21     1     1     2   502   511  1.991554671E+01 -3.723153635E+00 -2.344299562E+01  3.098491436E+01  3.371747881E-07  0.00000E+00  9.000E+00
#rwgt            1           9   2.7171072388391686E-005           1     1465099           0
</event>
<event>
      6   9999 -3.45752E-01  1.96412E+01 -1.00000E+00  1.60813E-01
      21    -1     0     0   501   502  0.000000000E+00  0.000000000E+00  1.277102770E+02  1.277102770E+02  0.000000000E+00  0.00000E+00  9.000E+00
       1    -1     0     0   502     0  0.000000000E+00  0.000000000E+00 -2.057603533E+03  2.057603533E+03  0.000000000E+00  0.00000E+00  9.000E+00
      25     1     1     2     0     0 -6.928808895E+01  1.288977058E+02 -1.158783196E+03  1.174656810E+03  1.249986753E+02  0.00000E+00  9.000E+00
       5     1     1     2   501     0 -1.344440757E+01 -7.765267058E+00  1.119015323E+02  1.130732811E+02  4.750000000E+00  0.00000E+00  9.000E+00
      -5     1     1     2     0   503  7.263123081E+01 -1.042877940E+02 -5.726812171E+02  5.866324049E+02  4.750000000E+00  0.00000E+00  9.000E+00
       1     1     1     2   503     0  1.010126570E+01 -1.684464480E+01 -3.103303756E+02  3.109513140E+02  5.394796609E-06  0.00000E+00  9.000E+00
#rwgt            1           9  -1.6474017243434547                1     1467053           0
</event>
<event>
      6   9999  3.45752E-01  2.04233E+01 -1.00000E+00  1.59519E-01
      21    -1     0     0   501   502  0.000000000E+00  0.000000000E+00  2.707921269E+02  2.707921269E+02  0.000000000E+00  0.00000E+00  9.000E+00
       2    -1     0     0   502     0  0.000000000E+00  0.000000000E+00 -7.221295986E+02  7.221295986E+02  0.000000000E+00  0.00000E+00  9.000E+00
      25     1     1     2     0     0 -5.540951866E+01  1.141468308E+01 -1.107296944E+02  1.763127885E+02  1.249984976E+02  0.00000E+00  9.000E+00
       5     1     1     2   501     0  4.207485267E+00 -9.794524432E-01  2.242159659E+02  2.243078779E+02  4.750000000E+00  0.00000E+00  9.000E+00
      -5     1     1     2     0   503  5.350376961E+01  9.857998149E+00 -4.152912616E+01  6.860804843E+01  4.750000000E+00  0.00000E+00  9.000E+00
       2     1     1     2   503     0 -2.301736211E+00 -2.029322879E+01 -5.232946171E+02  5.236930106E+02  7.629394531E-06  0.00000E+00  9.000E+00
#rwgt            1           9   1.0425095117824917E-002           1     1470411           0
</event>
<event>
      6   9999  3.45752E-01  4.57551E+01 -1.00000E+00  1.36882E-01
      21    -1     0     0   511   503  0.000000000E+00  0.000000000E+00  9.646049399E+01  9.646049399E+01  0.000000000E+00  0.00000E+00  9.000E+00
      21    -1     0     0   501   502  0.000000000E+00  0.000000000E+00 -1.602068089E+03  1.602068089E+03  0.000000000E+00  0.00000E+00  9.000E+00
      25     1     1     2     0     0  3.717006595E+01  2.272131967E+02 -2.445264219E+02  3.583650669E+02  1.249995984E+02  0.00000E+00  9.000E+00
       5     1     1     2   501     0 -1.246114248E+02 -2.681520443E+02 -9.765974415E+02  1.020391421E+03  4.750000000E+00  0.00000E+00  9.000E+00
      -5     1     1     2     0   503  6.138072684E+01  7.854694064E+01 -2.066348063E+02  2.294727025E+02  4.750000000E+00  0.00000E+00  9.000E+00
      21     1     1     2   511   502  2.606063202E+01 -3.760809306E+01 -7.784892540E+01  9.029939308E+01  0.000000000E+00  0.00000E+00  9.000E+00
#rwgt            1           9  0.30090771318216436                1     1472532           0
</event>
<event>
      6   9999  3.45752E-01  7.11144E+00 -1.00000E+00  2.04268E-01
      21    -1     0     0   501   502  0.000000000E+00  0.000000000E+00  6.025676848E+01  6.025676848E+01  0.000000000E+00  0.00000E+00  9.000E+00
      21    -1     0     0   502   512  0.000000000E+00  0.000000000E+00 -3.213615361E+02  3.213615361E+02  0.000000000E+00  0.00000E+00  9.000E+00
      25     1     1     2     0     0  2.540191817E+00 -3.493835927E+01 -1.074847867E+02  1.685375682E+02  1.249991641E+02  0.00000E+00  9.000E+00
       5     1     1     2   501     0 -8.383159696E+00  2.945370164E+01  1.982372390E+01  3.678777563E+01  4.750000000E+00  0.00000E+00  9.000E+00
      -5     1     1     2     0   503  8.133242856E-01  4.572084678E-01 -2.987395609E+00  5.688371340E+00  4.750000000E+00  0.00000E+00  9.000E+00
      21     1     1     2   503   512  5.029643593E+00  5.027449161E+00 -1.704563092E+02  1.706045893E+02  2.697398305E-06  0.00000E+00  9.000E+00
#rwgt            1           9   1.6812506784085405E-003           1     1474089           0
</event>
<event>
      6   9999  3.45752E-01  8.16414E+00 -1.00000E+00  1.96977E-01
      21    -1     0     0   501   502  0.000000000E+00  0.000000000E+00  8.660352955E+00  8.660352955E+00  0.000000000E+00  0.00000E+00  9.000E+00
      21    -1     0     0   511   503  0.000000000E+00  0.000000000E+00 -2.754894106E+03  2.754894106E+03  0.000000000E+00  0.00000E+00  9.000E+00
      25     1     1     2     0     0  8.155742904E+00 -4.582285432E+00 -5.936759427E+02  6.067646278E+02  1.249987008E+02  0.00000E+00  9.000E+00
       5     1     1     2   501     0  1.643787338E-01  2.168877362E-01 -1.180420331E+00  4.902035579E+00  4.750000000E+00  0.00000E+00  9.000E+00
      -5     1     1     2     0   503 -3.164404341E+00  1.069562179E+01 -1.485811223E+02  1.490748878E+02  4.750000000E+00  0.00000E+00  9.000E+00
      21     1     1     2   511   502 -5.155717297E+00 -6.330224095E+00 -2.002796268E+03  2.002812908E+03  3.051757812E-05  0.00000E+00  9.000E+00
#rwgt            1           9   4.4884646855436407E-004           1     1477654           0
</event>
<event>
      6   9999  3.45752E-01  1.25289E+01 -1.00000E+00  1.77437E-01
      21    -1     0     0   512   503  0.000000000E+00  0.000000000E+00  2.262850438E+01  2.262850438E+01  0.000000000E+00  0.00000E+00  9.000E+00
      21    -1     0     0   501   502  0.000000000E+00  0.000000000E+00 -9.276724179E+02  9.276724179E+02  0.000000000E+00  0.00000E+00  9.000E+00
      25     1     1     2     0     0 -1.313700242E+01 -6.373712975E+01 -5.622050548E+02  5.796010071E+02  1.250112047E+02  0.00000E+00  9.000E+00
       5     1     1     2   501     0  2.466084140E+01  5.547652084E+01 -2.417202635E+02  2.492730426E+02  4.750000000E+00  0.00000E+00  9.000E+00
      -5     1     1     2     0   503 -2.000480319E+01 -9.614662739E-01 -1.060004704E+02  1.079804556E+02  4.750000000E+00  0.00000E+00  9.000E+00
      21     1     1     2   512   502  8.480964206E+00  9.222075183E+00  4.881875163E+00  1.344641698E+01  3.424026159E-07  0.00000E+00  9.000E+00
#rwgt            1           9   2.8048297609434797E-003           1     1480598           0
</event>
<event>
      6   9999  3.45752E-01  5.97184E+00 -1.00000E+00  2.14343E-01
      21    -1     0     0   501   502  0.000000000E+00  0.000000000E+00  8.723895537E+00  8.723895537E+00  0.000000000E+00  0.00000E+00  9.000E+00
      21    -1     0     0   511   503  0.000000000E+00  0.000000000E+00 -9.540860629E+02  9.540860629E+02  0.000000000E+00  0.00000E+00  9.000E+00
      25     1     1     2     0     0 -8.536899968E+00  3.861723017E+00 -6.557270679E+02  6.676006088E+02  1.249991750E+02  0.00000E+00  9.000E+00
       5     1     1     2   501     0 -7.908074308E-03  1.525495887E+00 -4.949157270E-01  5.013446102E+00  4.750000000E+00  0.00000E+00  9.000E+00
      -5     1     1     2     0   503  4.786053439E+00 -7.466823535E-01 -2.277983421E+01  2.376861772E+01  4.750000000E+00  0.00000E+00  9.000E+00
      21     1     1     2   511   502  3.758754603E+00 -4.640536550E+00 -2.663603495E+02  2.664272858E+02  5.394796609E-06  0.00000E+00  9.000E+00
#rwgt            1           9   1.3400138234951421E-004           1     1483255           0
</event>
<event>
      6   9999  3.45752E-01  5.99687E+01 -1.00000E+00  1.30694E-01
      21    -1     0     0   501   502  0.000000000E+00  0.000000000E+00  1.072394980E+02  1.072394980E+02  0.000000000E+00  0.00000E+00  9.000E+00
      21    -1     0     0   502   512  0.000000000E+00  0.000000000E+00 -1.937017242E+03  1.937017242E+03  0.000000000E+00  0.00000E+00  9.000E+00
      25     1     1     2     0     0  1.534094730E+01 -2.082876593E+02 -6.208314350E+01  2.511929739E+02  1.249979990E+02  0.00000E+00  9.000E+00
       5     1     1     2   501     0 -7.779915940E+00 -3.511673484E+00 -8.917536986E+02  8.918071991E+02  4.750000000E+00  0.00000E+00  9.000E+00
      -5     1     1     2     0   503 -8.305386859E+00  1.518352696E+02 -6.312148845E+02  6.492901674E+02  4.750000000E+00  0.00000E+00  9.000E+00
      21     1     1     2   503   512  7.443554987E-01  5.996406323E+01 -2.447260173E+02  2.519663995E+02  0.000000000E+00  0.00000E+00  9.000E+00
#rwgt            1           9   4.3855796070197046E-004           1     1486661           0
</event>
<event>
      6   9999  3.45752E-01  2.90885E+01 -1.00000E+00  1.48710E-01
      21    -1     0     0   501   511  0.000000000E+00  0.000000000E+00  1.258873444E+01  1.258873444E+01  0.000000000E+00  0.00000E+00  9.000E+00
      21    -1     0     0   502   503  0.000000000E+00  0.000000000E+00 -9.222853223E+02  9.222853223E+02  0.000000000E+00  0.00000E+00  9.000E+00
      25     1     1     2     0     0 -4.807789834E+01 -4.642926302E+01 -5.626602519E+02  5.802393580E+02  1.249959706E+02  0.00000E+00  9.000E+00
       5     1     1     2   501     0  2.467052624E+01  2.579693831E+01 -1.813887934E+02  1.849285639E+02  4.750000000E+00  0.00000E+00  9.000E+00
      -5     1     1     2     0   503  1.834001565E+00  1.120066596E+00 -5.680154938E+01  5.704030701E+01  4.750000000E+00  0.00000E+00  9.000E+00
      21     1     1     2   502   511  2.157337053E+01  1.951225812E+01 -1.088459931E+02  1.126658278E+02  2.336015456E-06  0.00000E+00  9.000E+00
#rwgt            1           9   4.4443974357566474E-005           1     1488261           0
</event>
<event>
      6   9999 -3.45752E-01  4.90294E+00 -1.00000E+00  2.30870E-01
      21    -1     0     0   501   502  0.000000000E+00  0.000000000E+00  2.200991442E+01  2.200991442E+01  0.000000000E+00  0.00000E+00  9.000E+00
      21    -1     0     0   512   503  0.000000000E+00  0.000000000E+00 -1.028559935E+03  1.028559935E+03  0.000000000E+00  0.00000E+00  9.000E+00
      25     1     1     2     0     0  7.259063173E+01  4.361986406E+01 -3.688291498E+02  3.985351752E+02  1.249930070E+02  0.00000E+00  9.000E+00
       5     1     1     2   501     0 -8.967731771E-01  1.466097720E+00  2.684854765E+00  5.720541038E+00  4.750000000E+00  0.00000E+00  9.000E+00
      -5     1     1     2     0   503 -6.974567244E+01 -4.058669433E+01 -6.232927258E+02  6.285126276E+02  4.750000000E+00  0.00000E+00  9.000E+00
      21     1     1     2   512   502 -1.948186107E+00 -4.499267452E+00 -1.711299933E+01  1.780150507E+01  4.768371582E-07  0.00000E+00  9.000E+00
#rwgt            1           9  -4.9070047804039274E-005           1     1490141           0
</event>
<event>
      6   9999  3.45752E-01  6.96438E+00 -1.00000E+00  2.05421E-01
      21    -1     0     0   501   511  0.000000000E+00  0.000000000E+00  2.630318872E+01  2.630318872E+01  0.000000000E+00  0.00000E+00  9.000E+00
      21    -1     0     0   502   503  0.000000000E+00  0.000000000E+00 -7.356825674E+02  7.356825674E+02  0.000000000E+00  0.00000E+00  9.000E+00
      25     1     1     2     0     0 -6.431186402E+00 -9.389454269E+00 -6.416832716E+02  6.538440477E+02  1.250003822E+02  0.00000E+00  9.000E+00
       5     1     1     2   501     0 -2.127095849E-01 -5.456981838E-01 -4.420478177E+00  6.515071695E+00  4.750000000E+00  0.00000E+00  9.000E+00
      -5     1     1     2     0   503  8.506179717E+00  3.224376440E+00 -8.148615384E+01  8.212982080E+01  4.750000000E+00  0.00000E+00  9.000E+00
      21     1     1     2   502   511 -1.862283730E+00  6.710776013E+00  1.821052494E+01  1.949681600E+01  5.331201500E-07  0.00000E+00  9.000E+00
#rwgt            1           9   1.1015365250027901E-003           1     1495406           0
</event>
<event>
      6   9999  3.45752E-01  6.77330E+00 -1.00000E+00  2.06978E-01
      21    -1     0     0   501   502  0.000000000E+00  0.000000000E+00  1.832590222E+01  1.832590222E+01  0.000000000E+00  0.00000E+00  9.000E+00
      21    -1     0     0   502   512  0.000000000E+00  0.000000000E+00 -1.868529195E+03  1.868529195E+03  0.000000000E+00  0.00000E+00  9.000E+00
      25     1     1     2     0     0  8.451913056E+00  7.033728776E+00 -6.075420869E+02  6.203651360E+02  1.249984256E+02  0.00000E+00  9.000E+00
       5     1     1     2   501     0  1.745920001E+00 -3.511475183E+00  1.087821381E+01  1.250106916E+01  4.750000000E+00  0.00000E+00  9.000E+00
      -5     1     1     2     0   503 -1.338892342E+01 -9.496739603E+00 -3.439374116E+02  3.443616659E+02  4.750000000E+00  0.00000E+00  9.000E+00
      21     1     1     2   503   512  3.191090359E+00  5.974486010E+00 -9.096020077E+02  9.096272258E+02  1.078959322E-05  0.00000E+00  9.000E+00
#rwgt            1           9   6.1890631288895770E-002           1     1498106           0
</event>
<event>
      6   9999 -3.45752E-01  3.81545E+00 -1.00000E+00  2.52174E-01
      21    -1     0     0   502   503  0.000000000E+00  0.000000000E+00  2.230754925E+01  2.230754925E+01  0.000000000E+00  0.00000E+00  9.000E+00
      21    -1     0     0   501   511  0.000000000E+00  0.000000000E+00 -1.073543761E+03  1.073543761E+03  0.000000000E+00  0.00000E+00  9.000E+00
      25     1     1     2     0     0  4.120780582E+01  7.076694909E+01 -5.886729302E+02  6.073431449E+02  1.249953304E+02  0.00000E+00  9.000E+00
       5     1     1     2   501     0 -1.337493636E+00 -1.178162945E+00 -3.088147088E+02  3.088563806E+02  4.750000000E+00  0.00000E+00  9.000E+00
      -5     1     1     2     0   503 -3.985045063E+01 -6.577338692E+01 -1.023431295E+02  1.281049394E+02  4.750000000E+00  0.00000E+00  9.000E+00
      21     1     1     2   502   511 -1.986154970E-02 -3.815399221E+00 -5.140544337E+01  5.154684543E+01  9.536743164E-07  0.00000E+00  9.000E+00
#rwgt            1           9  -4.5926188718377281                1     1501612           0
</event>
<event>
      6   9999  3.45752E-01  6.56537E+00 -1.00000E+00  2.08752E-01
      21    -1     0     0   501   502  0.000000000E+00  0.000000000E+00  2.474881412E+03  2.474881412E+03  0.000000000E+00  0.00000E+00  9.000E+00
      21    -1     0     0   502   512  0.000000000E+00  0.000000000E+00 -9.636162312E+00  9.636162312E+00  0.000000000E+00  0.00000E+00  9.000E+00
      25     1     1     2     0     0 -3.942371687E+00  4.274523076E+01  1.572490001E+03  1.578034415E+03  1.250004639E+02  0.00000E+00  9.000E+00
       5     1     1     2   501     0 -5.328324864E-01 -7.653011124E-01  8.039654187E+02  8.039799914E+02  4.750000000E+00  0.00000E+00  9.000E+00
      -5     1     1     2     0   503  1.099720308E+01 -4.273335523E+01  8.055520658E+01  9.197163657E+01  4.750000000E+00  0.00000E+00  9.000E+00
      21     1     1     2   503   512 -6.521998905E+00  7.534255877E-01  8.234623136E+00  1.053153066E+01  6.419616708E-07  0.00000E+00  9.000E+00
#rwgt            1           9   1.1777409900706453E-003           1     1507334           0
</event>
<event>
      6   9999  3.45752E-01  8.71702E+00 -1.00000E+00  1.93702E-01
      21    -1     0     0   501   511  0.000000000E+00  0.000000000E+00  2.309745881E+02  2.309745881E+02  0.000000000E+00  0.00000E+00  9.000E+00
      21    -1     0     0   502   503  0.000000000E+00  0.000000000E+00 -7.901137020E+02  7.901137020E+02  0.000000000E+00  0.00000E+00  9.000E+00
      25     1     1     2     0     0 -6.267091830E+00 -1.651434185E+01 -7.387872434E+02  7.494957328E+02  1.250010500E+02  0.00000E+00  9.000E+00
       5     1     1     2   501     0 -3.711187660E-01  3.069083318E-01  7.138242285E-01  4.827418243E+00  4.750000000E+00  0.00000E+00  9.000E+00
      -5     1     1     2     0   503 -4.044168689E-01  1.107052520E+01 -4.300118101E+01  4.465852829E+01  4.750000000E+00  0.00000E+00  9.000E+00
      21     1     1     2   502   511  7.042627465E+00  5.136908323E+00  2.219354864E+02  2.221066107E+02  3.814697266E-06  0.00000E+00  9.000E+00
#rwgt            1           9   7.9709791347833715E-003           1     1511955           0
</event>
<event>
      6   9999  3.45752E-01  2.14180E+01 -1.00000E+00  1.57972E-01
      21    -1     0     0   502   503  0.000000000E+00  0.000000000E+00  1.946366278E+01  1.946366278E+01  0.000000000E+00  0.00000E+00  9.000E+00
       2    -1     0     0   501     0  0.000000000E+00  0.000000000E+00 -2.633183700E+03  2.633183700E+03  0.000000000E+00  0.00000E+00  9.000E+00
      25     1     1     2     0     0  3.004421852E+01 -7.522668791E+01 -3.405713157E+02  3.717191111E+02  1.249982671E+02  0.00000E+00  9.000E+00
       5     1     1     2   501     0 -2.957774682E+01  6.565015032E+01 -5.933723637E+02  5.977441842E+02  4.750000000E+00  0.00000E+00  9.000E+00
      -5     1     1     2     0   503  7.229124719E+00 -1.041114901E+01 -2.638863959E+01  2.965763085E+01  4.750000000E+00  0.00000E+00  9.000E+00
       2     1     1     2   502     0 -7.695596421E+00  1.998768660E+01 -1.653387718E+03  1.653526437E+03  0.000000000E+00  0.00000E+00  9.000E+00
#rwgt            1           9   5.5963545042004507E-002           1     1514317           0
</event>
<event>
      6   9999  3.45752E-01  2.28908E+01 -1.00000E+00  1.55860E-01
      21    -1     0     0   501   502  0.000000000E+00  0.000000000E+00  6.731109949E+01  6.731109949E+01  0.000000000E+00  0.00000E+00  9.000E+00
      21    -1     0     0   511   503  0.000000000E+00  0.000000000E+00 -1.426693085E+03  1.426693085E+03  0.000000000E+00  0.00000E+00  9.000E+00
      25     1     1     2     0     0  1.400439242E+02  7.063101525E+01 -3.398487555E+02  3.946176116E+02  1.249993671E+02  0.00000E+00  9.000E+00
       5     1     1     2   501     0 -5.018952881E+00 -1.463126247E+00  3.177670012E+01  3.255229327E+01  4.750000000E+00  0.00000E+00  9.000E+00
      -5     1     1     2     0   503 -1.423389697E+02 -4.747705564E+01 -9.913690700E+02  1.002671256E+03  4.750000000E+00  0.00000E+00  9.000E+00
      21     1     1     2   511   502  7.313998342E+00 -2.169083337E+01 -5.994086028E+01  6.416302327E+01  9.536743164E-07  0.00000E+00  9.000E+00
#rwgt            1           9   3.6718192518852507E-003           1     1515799           0
</event>
<event>
      6   9999  3.45752E-01  5.39819E+00 -1.00000E+00  2.20658E-01
      21    -1     0     0   501   502  0.000000000E+00  0.000000000E+00  4.519457362E+01  4.519457362E+01  0.000000000E+00  0.00000E+00  9.000E+00
      21    -1     0     0   512   503  0.000000000E+00  0.000000000E+00 -1.396876769E+03  1.396876769E+03  0.000000000E+00  0.00000E+00  9.000E+00
      25     1     1     2     0     0 -5.719854120E+01 -3.413277366E+01 -5.813776621E+02  5.983829708E+02  1.250018976E+02  0.00000E+00  9.000E+00
       5     1     1     2   501     0 -6.336615151E+00  2.231855979E+00  3.451483308E+01  3.548196831E+01  4.750000000E+00  0.00000E+00  9.000E+00
      -5     1     1     2     0   503  5.832245082E+01  3.330383290E+01 -6.947824226E+02  6.980371271E+02  4.750000000E+00  0.00000E+00  9.000E+00
      21     1     1     2   512   502  5.212705535E+00 -1.402915211E+00 -1.100369434E+02  1.101692760E+02  1.348699152E-06  0.00000E+00  9.000E+00
#rwgt            1           9   6.9160093592771921E-003           1     1518455           0
</event>
<event>
      6   9999  3.45752E-01  1.00805E+02 -1.00000E+00  1.20287E-01
      21    -1     0     0   502   511  0.000000000E+00  0.000000000E+00  2.419629732E+01  2.419629732E+01  0.000000000E+00  0.00000E+00  9.000E+00
      21    -1     0     0   501   502  0.000000000E+00  0.000000000E+00 -1.201798825E+03  1.201798825E+03  0.000000000E+00  0.00000E+00  9.000E+00
      25     1     1     2     0     0 -1.120685397E+02 -7.379379365E+01 -6.376533223E+02  6.634997075E+02  1.250008831E+02  0.00000E+00  9.000E+00
       5     1     1     2   501     0  2.375499793E+01  1.645755378E+01 -2.084100834E+02  2.104577781E+02  4.750000000E+00  0.00000E+00  9.000E+00
      -5     1     1     2     0   503  7.142950454E+00 -2.438258095E+00 -8.813643872E+01  8.858646157E+01  4.750000000E+00  0.00000E+00  9.000E+00
      21     1     1     2   503   511  8.117059134E+01  5.977449796E+01 -2.434026837E+02  2.634511756E+02  7.136645101E-06  0.00000E+00  9.000E+00
#rwgt            1           9  0.50384797493998723                1     1525410           0
</event>
<event>
      6   9999  3.45752E-01  1.79083E+01 -1.00000E+00  1.63961E-01
      21    -1     0     0   501   502  0.000000000E+00  0.000000000E+00  6.189894648E+02  6.189894648E+02  0.000000000E+00  0.00000E+00  9.000E+00
      21    -1     0     0   502   512  0.000000000E+00  0.000000000E+00 -5.757848040E+01  5.757848040E+01  0.000000000E+00  0.00000E+00  9.000E+00
      25     1     1     2     0     0  3.448236009E+00  2.872995351E+01  2.601633249E+01  1.309156372E+02  1.249990158E+02  0.00000E+00  9.000E+00
       5     1     1     2   501     0  1.961038735E+00 -1.601348843E+00  4.800040017E+02  4.800341802E+02  4.750000000E+00  0.00000E+00  9.000E+00
      -5     1     1     2     0   503  7.274774519E+00 -1.448652336E+01  3.170687364E+01  3.592589650E+01  4.750000000E+00  0.00000E+00  9.000E+00
      21     1     1     2   503   512 -1.268404926E+01 -1.264208130E+01  2.368377657E+01  2.969223127E+01  3.371747881E-07  0.00000E+00  9.000E+00
#rwgt            1           9  0.21330540970894149                1     1525861           0
</event>
<event>
      6   9999  3.45752E-01  9.26497E+00 -1.00000E+00  1.90755E-01
      21    -1     0     0   501   502  0.000000000E+00  0.000000000E+00  3.138792298E+01  3.138792298E+01  0.000000000E+00  0.00000E+00  9.000E+00
      21    -1     0     0   502   511  0.000000000E+00  0.000000000E+00 -1.279108686E+03  1.279108686E+03  0.000000000E+00  0.00000E+00  9.000E+00
      25     1     1     2     0     0  4.217598900E+00  1.884479194E+01 -8.270581083E+02  8.366746663E+02  1.250058734E+02  0.00000E+00  9.000E+00
       5     1     1     2   501     0  1.094584123E+00 -1.203460894E+01  2.455921405E+01  2.778034236E+01  4.750000000E+00  0.00000E+00  9.000E+00
      -5     1     1     2     0   503 -5.632076605E+00 -1.606963002E+01 -3.086176447E+02  3.091235456E+02  4.750000000E+00  0.00000E+00  9.000E+00
      21     1     1     2   503   511  3.198935808E-01  9.259447019E+00 -1.366042243E+02  1.369180550E+02  1.907348633E-06  0.00000E+00  9.000E+00
#rwgt            1           9   2.2773890102429739E-004           1     1528214           0
</event>
<event>
      6   9999  3.45752E-01  1.49823E+01 -1.00000E+00  1.70416E-01
      21    -1     0     0   512   502  0.000000000E+00  0.000000000E+00  8.123988114E+02  8.123988114E+02  0.000000000E+00  0.00000E+00  9.000E+00
      21    -1     0     0   502   503  0.000000000E+00  0.000000000E+00 -1.857938028E+02  1.857938028E+02  0.000000000E+00  0.00000E+00  9.000E+00
      25     1     1     2     0     0  2.260662098E+00 -1.861328694E+01  4.386083613E+01  1.337852664E+02  1.249926379E+02  0.00000E+00  9.000E+00
       5     1     1     2   501     0  1.335465150E+01 -1.659331149E+00  3.253227399E+02  3.256356057E+02  4.750000000E+00  0.00000E+00  9.000E+00
      -5     1     1     2     0   503 -8.675281344E+00  6.994639655E+00 -1.402730444E+02  1.407951525E+02  4.750000000E+00  0.00000E+00  9.000E+00
      21     1     1     2   512   501 -6.940032255E+00  1.327797843E+01  3.976944770E+02  3.979765895E+02  5.394796609E-06  0.00000E+00  9.000E+00
#rwgt            1           9   2.7812075125150344E-002           1     1532111           0
</event>
<event>
      6   9999  3.45752E-01  2.96013E+00 -1.00000E+00  2.78440E-01
      21    -1     0     0   501   511  0.000000000E+00  0.000000000E+00  2.928466405E+00  2.928466405E+00  0.000000000E+00  0.00000E+00  9.000E+00
      21    -1     0     0   502   503  0.000000000E+00  0.000000000E+00 -3.978231843E+03  3.978231843E+03  0.000000000E+00  0.00000E+00  9.000E+00
      25     1     1     2     0     0  5.268394393E+00  7.634505700E+00 -3.600982947E+03  3.603163867E+03  1.250024990E+02  0.00000E+00  9.000E+00
       5     1     1     2   501     0  6.360891990E-01 -2.216836170E-01 -1.007140023E+01  1.115568714E+01  4.750000000E+00  0.00000E+00  9.000E+00
      -5     1     1     2     0   503 -5.759164074E+00 -4.456256797E+00 -3.637318973E+02  3.638357896E+02  4.750000000E+00  0.00000E+00  9.000E+00
      21     1     1     2   502   511 -1.453195183E-01 -2.956565286E+00 -5.171324509E-01  3.004966227E+00  6.811477094E-07  0.00000E+00  9.000E+00
#rwgt            1           9   3.3598262619641355E-003           1     1535470           0
</event>
<event>
      6   9999 -3.45752E-01  4.28270E+01 -1.00000E+00  1.38487E-01
       1    -1     0     0   501     0  0.000000000E+00  0.000000000E+00  1.502540471E+02  1.502540471E+02  0.000000000E+00  0.00000E+00  9.000E+00
      21    -1     0     0   502   503  0.000000000E+00  0.000000000E+00 -6.630503442E+02  6.630503442E+02  0.000000000E+00  0.00000E+00  9.000E+00
      25     1     1     2     0     0  1.266500067E+02 -7.356573785E+00 -3.302551532E+02  3.752187045E+02  1.250050664E+02  0.00000E+00  9.000E+00
       5     1     1     2   501     0 -3.233171211E+00 -2.536936811E+00 -2.418939276E+01  2.499157192E+01  4.750000000E+00  0.00000E+00  9.000E+00
      -5     1     1     2     0   503 -1.052630255E+02 -2.889551264E+01 -2.712056234E+02  2.923872566E+02  4.750000000E+00  0.00000E+00  9.000E+00
       1     1     1     2   502     0 -1.815381000E+01  3.878902323E+01  1.128538723E+02  1.207068583E+02  1.348699152E-06  0.00000E+00  9.000E+00
#rwgt            1           9  -2.1706162943741239E-002           1     1540719           0
</event>
<event>
      6   9999  3.45752E-01  1.79866E+01 -1.00000E+00  1.63809E-01
      21    -1     0     0   511   502  0.000000000E+00  0.000000000E+00  9.602079822E+01  9.602079822E+01  0.000000000E+00  0.00000E+00  9.000E+00
      21    -1     0     0   502   503  0.000000000E+00  0.000000000E+00 -9.974883069E+02  9.974883069E+02  0.000000000E+00  0.00000E+00  9.000E+00
      25     1     1     2     0     0 -4.810993033E+01 -5.716610634E+00 -6.037458729E+02  6.184522111E+02  1.250072532E+02  0.00000E+00  9.000E+00
       5     1     1     2   501     0 -6.563817330E+00  4.983919440E+00  1.027864094E+01  1.400486025E+01  4.750000000E+00  0.00000E+00  9.000E+00
      -5     1     1     2     0   503  3.847467575E+01  8.549887096E+00 -3.824274027E+02  3.844823560E+02  4.750000000E+00  0.00000E+00  9.000E+00
      21     1     1     2   511   501  1.619907191E+01 -7.817195902E+00  7.442712594E+01  7.656967779E+01  2.336015456E-06  0.00000E+00  9.000E+00
#rwgt            1           9   1.5532830399561223E-003           1     1541707           0
</event>
<event>
      6   9999  3.45752E-01  3.39113E+00 -1.00000E+00  2.63694E-01
       1    -1     0     0   501     0  0.000000000E+00  0.000000000E+00  1.979080794E+01  1.979080794E+01  0.000000000E+00  0.00000E+00  9.000E+00
      21    -1     0     0   502   503  0.000000000E+00  0.000000000E+00 -7.875305624E+02  7.875305624E+02  0.000000000E+00  0.00000E+00  9.000E+00
      25     1     1     2     0     0 -1.126181407E+01 -9.509210784E+00 -6.536146528E+02  6.656265885E+02  1.250175486E+02  0.00000E+00  9.000E+00
       5     1     1     2   501     0  7.840762266E-01  3.943761851E-01  9.360432740E-01  4.920262708E+00  4.750000000E+00  0.00000E+00  9.000E+00
      -5     1     1     2     0   503  7.109669664E+00  8.720017717E+00 -1.253488173E+02  1.259423463E+02  4.750000000E+00  0.00000E+00  9.000E+00
       1     1     1     2   502     0  3.368068182E+00  3.948168816E-01  1.028767236E+01  1.083217274E+01  8.596304120E-07  0.00000E+00  9.000E+00
#rwgt            1           9   2.8938148377033083E-004           1     1544194           0
</event>
<event>
      6   9999  3.45752E-01  8.46839E+00 -1.00000E+00  1.95134E-01
      21    -1     0     0   501   502  0.000000000E+00  0.000000000E+00  5.907351797E+01  5.907351797E+01  0.000000000E+00  0.00000E+00  9.000E+00
      21    -1     0     0   511   503  0.000000000E+00  0.000000000E+00 -1.155314515E+02  1.155314515E+02  0.000000000E+00  0.00000E+00  9.000E+00
      25     1     1     2     0     0 -7.528488394E+00  9.704351752E+00 -5.737940084E+01  1.380889953E+02  1.250012897E+02  0.00000E+00  9.000E+00
       5     1     1     2   501     0  4.998801081E-01  1.514299621E-01  4.720257390E+00  6.716854992E+00  4.750000000E+00  0.00000E+00  9.000E+00
      -5     1     1     2     0   503  1.142950890E+01 -2.620751265E+00  8.226651708E+00  1.509113346E+01  4.750000000E+00  0.00000E+00  9.000E+00
      21     1     1     2   511   502 -4.400900615E+00 -7.235030449E+00 -1.202544178E+01  1.470798565E+01  1.685873940E-07  0.00000E+00  9.000E+00
#rwgt            1           9   1.1411115660006166E-003           1     1549464           0
</event>
<event>
      6   9999  3.45752E-01  1.17866E+01 -1.00000E+00  1.79975E-01
      21    -1     0     0   501   502  0.000000000E+00  0.000000000E+00  2.437412146E+02  2.437412146E+02  0.000000000E+00  0.00000E+00  9.000E+00
      21    -1     0     0   512   503  0.000000000E+00  0.000000000E+00 -5.186667334E+02  5.186667334E+02  0.000000000E+00  0.00000E+00  9.000E+00
      25     1     1     2     0     0 -4.841363599E-02  7.508145143E+00 -1.059034420E+02  1.640036759E+02  1.250011683E+02  0.00000E+00  9.000E+00
       5     1     1     2   501     0 -6.230847418E+00 -7.100783054E+00  2.135701610E+02  2.138317581E+02  4.750000000E+00  0.00000E+00  9.000E+00
      -5     1     1     2     0   503 -4.988219614E+00  3.052207825E+00 -1.494701209E+01  1.673839831E+01  4.750000000E+00  0.00000E+00  9.000E+00
      21     1     1     2   512   502  1.126748067E+01 -3.459569914E+00 -3.676452257E+02  3.678341158E+02  5.394796609E-06  0.00000E+00  9.000E+00
#rwgt            1           9   17.190435218578919                1     1552674           0
</event>
<event>
      6   9999  3.45752E-01  7.37343E+00 -1.00000E+00  2.02303E-01
      21    -1     0     0   501   511  0.000000000E+00  0.000000000E+00  1.232273857E+01  1.232273857E+01  0.000000000E+00  0.00000E+00  9.000E+00
      21    -1     0     0   502   503  0.000000000E+00  0.000000000E+00 -8.683970909E+02  8.683970909E+02  0.000000000E+00  0.00000E+00  9.000E+00
      25     1     1     2     0     0  6.948519367E+00 -1.575339118E+01 -6.794044690E+02  6.910209967E+02  1.249925361E+02  0.00000E+00  9.000E+00
       5     1     1     2   501     0  6.299332909E-01 -3.825247598E+00  3.879205532E+00  7.255347731E+00  4.750000000E+00  0.00000E+00  9.000E+00
      -5     1     1     2     0   503 -9.724874585E+00  1.252453934E+01 -1.540795704E+02  1.549661698E+02  4.750000000E+00  0.00000E+00  9.000E+00
      21     1     1     2   502   511  2.146421927E+00  7.054099445E+00 -2.646951850E+01  2.747731529E+01  3.371747881E-07  0.00000E+00  9.000E+00
#rwgt            1           9   1.5265035151294578E-003           1     1556257           0
</event>
<event>
      6   9999  3.45752E-01  4.50402E+01 -1.00000E+00  1.37261E-01
      21    -1     0     0   501   502  0.000000000E+00  0.000000000E+00  4.878777359E+02  4.878777359E+02  0.000000000E+00  0.00000E+00  9.000E+00
      21    -1     0     0   502   512  0.000000000E+00  0.000000000E+00 -1.411799382E+02  1.411799382E+02  0.000000000E+00  0.00000E+00  9.000E+00
      25     1     1     2     0     0  2.963104676E+01  3.292473649E+00  3.652343056E+02  3.871822483E+02  1.250006244E+02  0.00000E+00  9.000E+00
       5     1     1     2   501     0  1.665755346E+01  3.092356114E+01  4.238354501E+01  5.525095572E+01  4.750000000E+00  0.00000E+00  9.000E+00
      -5     1     1     2     0   503 -1.856682387E+01  1.282148344E+00  5.713083221E+01  6.027325561E+01  4.750000000E+00  0.00000E+00  9.000E+00
      21     1     1     2   503   512 -2.772177634E+01 -3.549818313E+01 -1.180508852E+02  1.263512144E+02  1.348699152E-06  0.00000E+00  9.000E+00
#rwgt            1           9   3.7733629420727981                1     1559391           0
</event>
<event>
      6   9999  3.45752E-01  2.90153E+01 -1.00000E+00  1.48782E-01
      21    -1     0     0   501   502  0.000000000E+00  0.000000000E+00  4.678670941E+01  4.678670941E+01  0.000000000E+00  0.00000E+00  9.000E+00
      21    -1     0     0   511   503  0.000000000E+00  0.000000000E+00 -1.499889925E+03  1.499889925E+03  0.000000000E+00  0.00000E+00  9.000E+00
      25     1     1     2     0     0 -7.745730990E+01 -1.743898606E+02 -7.340614612E+02  7.686895036E+02  1.250034634E+02  0.00000E+00  9.000E+00
       5     1     1     2   501     0  7.802064943E+01  1.981468733E+02 -4.007431736E+02  4.538359383E+02  4.750000000E+00  0.00000E+00  9.000E+00
      -5     1     1     2     0   503 -2.658506702E+01 -1.092132679E+01 -1.079739124E+02  1.118345628E+02  4.750000000E+00  0.00000E+00  9.000E+00
      21     1     1     2   511   502  2.602172750E+01 -1.283568591E+01 -2.103246680E+02  2.123166293E+02  2.697398305E-06  0.00000E+00  9.000E+00
#rwgt            1           9   1.1048347661735436E-002           1     1559988           0
</event>
<event>
      6   9999  3.45752E-01  1.60527E+01 -1.00000E+00  1.67858E-01
      21    -1     0     0   501   502  0.000000000E+00  0.000000000E+00  3.105997594E+01  3.105997594E+01  0.000000000E+00  0.00000E+00  9.000E+00
       2    -1     0     0   502     0  0.000000000E+00  0.000000000E+00 -2.174051435E+03  2.174051435E+03  0.000000000E+00  0.00000E+00  9.000E+00
      25     1     1     2     0     0 -8.453250818E+00 -8.017485552E+00 -4.029520842E+02  4.220677371E+02  1.250402136E+02  0.00000E+00  9.000E+00
       5     1     1     2   501     0 -3.696442845E+00  4.125927742E-01  2.085592293E+01  2.171096367E+01  4.750000000E+00  0.00000E+00  9.000E+00
      -5     1     1     2     0   503  2.723211804E+00  2.059832743E+01 -7.255816971E+02  7.258946677E+02  4.750000000E+00  0.00000E+00  9.000E+00
       2     1     1     2   503     0  9.426481859E+00 -1.299343465E+01 -1.035313601E+03  1.035438043E+03  1.525878906E-05  0.00000E+00  9.000E+00
#rwgt            1           9   2.7160867250697534E-002           1     1561941           0
</event>
<event>
      6   9999  3.45752E-01  1.59061E+01 -1.00000E+00  1.68193E-01
      21    -1     0     0   501   502  0.000000000E+00  0.000000000E+00  8.687649462E+00  8.687649462E+00  0.000000000E+00  0.00000E+00  9.000E+00
       2    -1     0     0   502     0  0.000000000E+00  0.000000000E+00 -2.348122277E+03  2.348122277E+03  0.000000000E+00  0.00000E+00  9.000E+00
      25     1     1     2     0     0  2.338552400E+01  1.365627856E+01 -1.446983372E+03  1.452624628E+03  1.249962118E+02  0.00000E+00  9.000E+00
       5     1     1     2   501     0  9.500956337E-01  5.305385139E-01  2.742016567E+00  5.591538937E+00  4.750000000E+00  0.00000E+00  9.000E+00
      -5     1     1     2     0   503 -1.968760051E+01  1.025039703E+00 -6.166409323E+01  6.491282781E+01  4.750000000E+00  0.00000E+00  9.000E+00
       2     1     1     2   503     0 -4.648019123E+00 -1.521185677E+01 -8.335291791E+02  8.336809324E+02  1.078959322E-05  0.00000E+00  9.000E+00
#rwgt            1           9   4.8636788995705690E-005           1     1564656           0
</event>
<event>
      6   9999  3.45752E-01  1.01926E+01 -1.00000E+00  1.86325E-01
      21    -1     0     0   501   502  0.000000000E+00  0.000000000E+00  4.093044354E+01  4.093044354E+01  0.000000000E+00  0.00000E+00  9.000E+00
      21    -1     0     0   511   503  0.000000000E+00  0.000000000E+00 -1.099442941E+03  1.099442941E+03  0.000000000E+00  0.00000E+00  9.000E+00
      25     1     1     2     0     0  3.948053335E+01 -2.664513705E+01 -2.584608809E+02  2.910280146E+02  1.250064098E+02  0.00000E+00  9.000E+00
       5     1     1     2   501     0  1.614996622E+00  3.362969146E+00  2.349104837E+01  2.425509491E+01  4.750000000E+00  0.00000E+00  9.000E+00
      -5     1     1     2     0   503 -3.660294519E+01  1.413311892E+01 -7.064990643E+02  7.076037104E+02  4.750000000E+00  0.00000E+00  9.000E+00
      21     1     1     2   511   502 -4.492584775E+00  9.149048984E+00 -1.170436005E+02  1.174865645E+02  1.348699152E-06  0.00000E+00  9.000E+00
#rwgt            1           9   1.2414022785470995                1     1566446           0
</event>
<event>
      6   9999  3.45752E-01  5.11538E+00 -1.00000E+00  2.24185E-01
      21    -1     0     0   501   502  0.000000000E+00  0.000000000E+00  5.275313083E+03  5.275313083E+03  0.000000000E+00  0.00000E+00  9.000E+00
      -1    -1     0     0     0   503  0.000000000E+00  0.000000000E+00 -6.138422784E+01  6.138422784E+01  0.000000000E+00  0.00000E+00  9.000E+00
      25     1     1     2     0     0  1.960176709E+00  2.901996967E+00  1.735187578E+03  1.739687465E+03  1.249971241E+02  0.00000E+00  9.000E+00
       5     1     1     2   501     0  6.175011878E-01 -3.463984694E+00  3.500402993E+03  3.500407984E+03  4.750000001E+00  0.00000E+00  9.000E+00
      -5     1     1     2     0   503  2.290187584E+00 -1.009952270E+00  3.716617260E+01  3.755198861E+01  4.750000000E+00  0.00000E+00  9.000E+00
      -1     1     1     2     0   502 -4.867865480E+00  1.571939997E+00 -5.882788815E+01  5.904987327E+01  1.507891493E-06  0.00000E+00  9.000E+00
#rwgt            1           9   5.1794031626703940E-004           1     1569757           0
</event>
<event>
      6   9999  3.45752E-01  8.18944E+00 -1.00000E+00  1.96819E-01
      21    -1     0     0   501   502  0.000000000E+00  0.000000000E+00  6.331994334E+01  6.331994334E+01  0.000000000E+00  0.00000E+00  9.000E+00
      21    -1     0     0   502   511  0.000000000E+00  0.000000000E+00 -1.249996521E+02  1.249996521E+02  0.000000000E+00  0.00000E+00  9.000E+00
      25     1     1     2     0     0  7.461146815E+00 -3.809818456E-01 -3.420391810E+01  1.298110478E+02  1.250007450E+02  0.00000E+00  9.000E+00
       5     1     1     2   501     0 -7.067571068E-01  2.200741978E-02  7.485677609E+00  8.893697723E+00  4.750000000E+00  0.00000E+00  9.000E+00
      -5     1     1     2     0   503 -1.295365033E+01 -4.992300576E+00 -1.029470822E+00  1.470858362E+01  4.750000000E+00  0.00000E+00  9.000E+00
      21     1     1     2   503   511  6.199260626E+00  5.351275002E+00 -3.393199748E+01  3.490626633E+01  4.768371582E-07  0.00000E+00  9.000E+00
#rwgt            1           9   7.5093377134575609E-003           1     1573323           0
</event>
<event>
      6   9999  3.45752E-01  6.46239E+00 -1.00000E+00  2.09663E-01
      21    -1     0     0   501   502  0.000000000E+00  0.000000000E+00  1.448000185E+03  1.448000185E+03  0.000000000E+00  0.00000E+00  9.000E+00
      21    -1     0     0   512   503  0.000000000E+00  0.000000000E+00 -1.392531287E+01  1.392531287E+01  0.000000000E+00  0.00000E+00  9.000E+00
      25     1     1     2     0     0  7.485242570E+00 -4.380747734E+00  1.137212265E+03  1.144094652E+03  1.250024678E+02  0.00000E+00  9.000E+00
       5     1     1     2   501     0 -1.448972084E-01 -3.445041385E-01  1.864971282E+02  1.865579830E+02  4.750000000E+00  0.00000E+00  9.000E+00
      -5     1     1     2     0   503 -1.379028784E+01  5.126213939E+00  1.192714688E+02  1.202692640E+02  4.750000000E+00  0.00000E+00  9.000E+00
      21     1     1     2   512   502  6.449942480E+00 -4.009620664E-01 -8.905990031E+00  1.100359882E+01  1.192092896E-06  0.00000E+00  9.000E+00
#rwgt            1           9   7.8493671547833592E-003           1     1576122           0
</event>
<event>
      6   9999  3.45752E-01  9.70190E+00 -1.00000E+00  1.88589E-01
      21    -1     0     0   501   502  0.000000000E+00  0.000000000E+00  3.224112777E+01  3.224112777E+01  0.000000000E+00  0.00000E+00  9.000E+00
      21    -1     0     0   502   511  0.000000000E+00  0.000000000E+00 -1.129178890E+03  1.129178890E+03  0.000000000E+00  0.00000E+00  9.000E+00
      25     1     1     2     0     0  8.281771142E+01  3.317640457E+01 -5.032757304E+02  5.261855840E+02  1.250014433E+02  0.00000E+00  9.000E+00
       5     1     1     2   501     0 -6.093880134E-01  3.842461015E+00  1.679402819E+01  1.788121202E+01  4.750000000E+00  0.00000E+00  9.000E+00
      -5     1     1     2     0   503 -7.254278626E+01 -3.785806432E+01 -5.271625851E+02  5.334966190E+02  4.750000000E+00  0.00000E+00  9.000E+00
      21     1     1     2   503   511 -9.665537146E+00  8.391987271E-01 -8.329347533E+01  8.385660317E+01  9.536743164E-07  0.00000E+00  9.000E+00
#rwgt            1           9   7.1077813944522158E-005           1     1579545           0
</event>
<event>
      6   9999  3.45752E-01  1.05825E+01 -1.00000E+00  1.84640E-01
      21    -1     0     0   512   502  0.000000000E+00  0.000000000E+00  3.213307217E+00  3.213307217E+00  0.000000000E+00  0.00000E+00  9.000E+00
      21    -1     0     0   502   503  0.000000000E+00  0.000000000E+00 -4.593824709E+03  4.593824709E+03  0.000000000E+00  0.00000E+00  9.000E+00
      25     1     1     2     0     0 -1.123581175E+01 -8.439614469E+00 -3.428917302E+03  3.431223693E+03  1.249987797E+02  0.00000E+00  9.000E+00
       5     1     1     2   501     0  9.055356623E-01 -4.136670453E+00 -4.031335753E+00  7.533007714E+00  4.750000000E+00  0.00000E+00  9.000E+00
      -5     1     1     2     0   503  1.150111468E+01  2.058772437E+00 -1.054842522E+03  1.054917922E+03  4.750000000E+00  0.00000E+00  9.000E+00
      21     1     1     2   512   501 -1.170838588E+00  1.051751249E+01 -1.028202423E+02  1.033633937E+02  1.907348633E-06  0.00000E+00  9.000E+00
#rwgt            1           9   3.5074468767629666E-004           1     1583193           0
</event>
<event>
      6   9999  3.45752E-01  7.50226E+00 -1.00000E+00  2.01377E-01
      21    -1     0     0   501   511  0.000000000E+00  0.000000000E+00  8.798872830E+01  8.798872830E+01  0.000000000E+00  0.00000E+00  9.000E+00
      21    -1     0     0   502   503  0.000000000E+00  0.000000000E+00 -2.505270817E+02  2.505270817E+02  0.000000000E+00  0.00000E+00  9.000E+00
      25     1     1     2     0     0 -2.643865097E+01 -2.336123338E+00 -2.121363718E+02  2.476526375E+02  1.250021155E+02  0.00000E+00  9.000E+00
       5     1     1     2   501     0  1.820751632E+00 -1.546039545E+00  2.882361789E+01  2.930987586E+01  4.750000000E+00  0.00000E+00  9.000E+00
      -5     1     1     2     0   503  1.949567207E+01 -1.599320364E+00 -1.493455070E+01  2.506476331E+01  4.750000000E+00  0.00000E+00  9.000E+00
      21     1     1     2   502   511  5.122227271E+00  5.481483248E+00  3.570895120E+01  3.648853335E+01  4.768371582E-07  0.00000E+00  9.000E+00
#rwgt            1           9   1.4737211812819186                1     1586600           0
</event>
<event>
      6   9999 -3.45752E-01  1.18822E+01 -1.00000E+00  1.79635E-01
      21    -1     0     0   501   502  0.000000000E+00  0.000000000E+00  2.838716944E+01  2.838716944E+01  0.000000000E+00  0.00000E+00  9.000E+00
      21    -1     0     0   512   503  0.000000000E+00  0.000000000E+00 -1.549844391E+03  1.549844391E+03  0.000000000E+00  0.00000E+00  9.000E+00
      25     1     1     2     0     0 -1.907082399E+01  5.884727250E+01 -2.670645073E+02  3.012852047E+02  1.249905024E+02  0.00000E+00  9.000E+00
       5     1     1     2   501     0 -2.613398365E+00  3.217193557E+00  9.332857541E+00  1.126254480E+01  4.750000000E+00  0.00000E+00  9.000E+00
      -5     1     1     2     0   503  2.003304551E+01 -5.029753692E+01 -8.199480496E+02  8.217472432E+02  4.750000000E+00  0.00000E+00  9.000E+00
      21     1     1     2   512   502  1.651176850E+00 -1.176692914E+01 -4.437775221E+02  4.439365676E+02  5.394796609E-06  0.00000E+00  9.000E+00
#rwgt            1           9  -1.4677526157279423E-003           1     1589818           0
</event>
<event>
      6   9999  3.45752E-01  1.34613E+01 -1.00000E+00  1.74548E-01
      21    -1     0     0   501   502  0.000000000E+00  0.000000000E+00  9.337818842E+00  9.337818842E+00  0.000000000E+00  0.00000E+00  9.000E+00
      21    -1     0     0   511   503  0.000000000E+00  0.000000000E+00 -1.280923525E+03  1.280923525E+03  0.000000000E+00  0.00000E+00  9.000E+00
      25     1     1     2     0     0  8.770333997E+00  7.813729118E+00 -6.730286484E+02  6.846384113E+02  1.249968784E+02  0.00000E+00  9.000E+00
       5     1     1     2   501     0  1.126792370E-01  1.604677863E+00  1.192965532E+00  5.154934957E+00  4.750000000E+00  0.00000E+00  9.000E+00
      -5     1     1     2     0   503 -2.547335776E-01  9.139905407E-01 -2.061024221E+01  2.117179378E+01  4.750000000E+00  0.00000E+00  9.000E+00
      21     1     1     2   511   502 -8.628279657E+00 -1.033239752E+01 -5.791397811E+02  5.792962038E+02  7.629394531E-06  0.00000E+00  9.000E+00
#rwgt            1           9   2.8822303786747876E-005           1     1592917           0
</event>
<event>
      6   9999  3.45752E-01  9.74115E+00 -1.00000E+00  1.88401E-01
      21    -1     0     0   501   502  0.000000000E+00  0.000000000E+00  8.587330202E+00  8.587330202E+00  0.000000000E+00  0.00000E+00  9.000E+00
      21    -1     0     0   502   512  0.000000000E+00  0.000000000E+00 -8.891950814E+02  8.891950814E+02  0.000000000E+00  0.00000E+00  9.000E+00
      25     1     1     2     0     0 -9.354308283E-01 -1.791632367E+01 -5.781947703E+02  5.918249430E+02  1.250028043E+02  0.00000E+00  9.000E+00
       5     1     1     2   501     0 -6.381209605E-02 -1.375993871E+00 -3.274180120E+00  5.931288779E+00  4.750000000E+00  0.00000E+00  9.000E+00
      -5     1     1     2     0   503  1.267397230E+00  9.554859286E+00 -8.657552059E+01  8.723981257E+01  4.750000000E+00  0.00000E+00  9.000E+00
      21     1     1     2   503   512 -2.681543057E-01  9.737458259E+00 -2.125632802E+02  2.127863673E+02  0.000000000E+00  0.00000E+00  9.000E+00
#rwgt            1           9   1.6740254400647272E-004           1     1594634           0
</event>
<event>
      6   9999  3.45752E-01  1.56314E+01 -1.00000E+00  1.68834E-01
      21    -1     0     0   501   502  0.000000000E+00  0.000000000E+00  9.375876847E+01  9.375876847E+01  0.000000000E+00  0.00000E+00  9.000E+00
       2    -1     0     0   502     0  0.000000000E+00  0.000000000E+00 -4.469866202E+02  4.469866202E+02  0.000000000E+00  0.00000E+00  9.000E+00
      25     1     1     2     0     0  3.209121245E+00 -1.150471628E+01  1.745267084E+01  1.267695019E+02  1.249930155E+02  0.00000E+00  9.000E+00
       5     1     1     2   501     0  5.773798249E-01 -1.966212408E+00  1.607771513E+01  1.688948734E+01  4.750000000E+00  0.00000E+00  9.000E+00
      -5     1     1     2     0   503  2.081873064E+00 -1.017115716E+00  3.613239860E+00  6.402087325E+00  4.750000000E+00  0.00000E+00  9.000E+00
       2     1     1     2   503     0 -5.868374134E+00  1.448804441E+01 -3.903714776E+02  3.906843121E+02  0.000000000E+00  0.00000E+00  9.000E+00
#rwgt            1           9   1.4763343382218755E-004           1     1596899           0
</event>
<event>
      6   9999  3.45752E-01  1.46488E+01 -1.00000E+00  1.71268E-01
      21    -1     0     0   501   502  0.000000000E+00  0.000000000E+00  9.643862677E+02  9.643862677E+02  0.000000000E+00  0.00000E+00  9.000E+00
      21    -1     0     0   502   511  0.000000000E+00  0.000000000E+00 -2.235712073E+01  2.235712073E+01  0.000000000E+00  0.00000E+00  9.000E+00
      25     1     1     2     0     0 -5.369101337E+01  2.303418416E+01  3.363048461E+02  3.635113503E+02  1.250050148E+02  0.00000E+00  9.000E+00
       5     1     1     2   501     0 -3.788250087E+00 -1.832249782E+00  5.048931471E+02  5.049330257E+02  4.750000000E+00  0.00000E+00  9.000E+00
      -5     1     1     2     0   503  4.487844377E+01 -1.373164503E+01  7.887850404E+01  9.190763674E+01  4.750000000E+00  0.00000E+00  9.000E+00
      21     1     1     2   503   511  1.260081968E+01 -7.470289342E+00  2.195264973E+01  2.639137567E+01  2.384185791E-07  0.00000E+00  9.000E+00
#rwgt            1           9   8.5811410511689931E-003           1     1598813           0
</event>
<event>
      6   9999 -3.45752E-01  1.44863E+01 -1.00000E+00  1.71693E-01
      21    -1     0     0   501   502  0.000000000E+00  0.000000000E+00  3.803825524E+01  3.803825524E+01  0.000000000E+00  0.00000E+00  9.000E+00
      21    -1     0     0   512   503  0.000000000E+00  0.000000000E+00 -1.403118635E+03  1.403118635E+03  0.000000000E+00  0.00000E+00  9.000E+00
      25     1     1     2     0     0  5.908105126E+01  1.586314136E+00 -9.951249385E+02  1.004684987E+03  1.250007723E+02  0.00000E+00  9.000E+00
       5     1     1     2   501     0 -4.753013459E+00 -1.777716122E+00  2.746221969E+01  2.832820894E+01  4.750000000E+00  0.00000E+00  9.000E+00
      -5     1     1     2     0   503 -6.539817452E+01 -9.152374496E+00 -2.105120076E+02  2.206774910E+02  4.750000000E+00  0.00000E+00  9.000E+00
      21     1     1     2   512   502  1.107013672E+01  9.343776482E+00 -1.869056536E+02  1.874662035E+02  2.697398305E-06  0.00000E+00  9.000E+00
#rwgt            1           9  -6.6933309164769421E-006           1     1601495           0
</event>
<event>
      6   9999  3.45752E-01  3.50359E+01 -1.00000E+00  1.43607E-01
      21    -1     0     0   501   502  0.000000000E+00  0.000000000E+00  1.974570715E+03  1.974570715E+03  0.000000000E+00  0.00000E+00  9.000E+00
      21    -1     0     0   511   503  0.000000000E+00  0.000000000E+00 -1.152831176E+01  1.152831176E+01  0.000000000E+00  0.00000E+00  9.000E+00
      25     1     1     2     0     0 -2.429589211E+01 -1.636246870E+01  1.619478635E+03  1.624560067E+03  1.250053690E+02  0.00000E+00  9.000E+00
       5     1     1     2   501     0 -9.424800732E-01 -7.347558763E-01  9.238985004E+01  9.251959266E+01  4.750000000E+00  0.00000E+00  9.000E+00
      -5     1     1     2     0   503 -1.428980993E+00 -5.626548034E+00  2.253990788E+02  2.255238507E+02  4.750000000E+00  0.00000E+00  9.000E+00
      21     1     1     2   511   502  2.666735317E+01  2.272377261E+01  2.577483929E+01  4.349551595E+01  2.384185791E-06  0.00000E+00  9.000E+00
#rwgt            1           9   3.1444763580887759E-004           1     1604100           0
</event>
<event>
      6   9999  3.45752E-01  9.53875E+00 -1.00000E+00  1.89380E-01
      21    -1     0     0   512   502  0.000000000E+00  0.000000000E+00  9.499195647E+01  9.499195647E+01  0.000000000E+00  0.00000E+00  9.000E+00
      21    -1     0     0   502   503  0.000000000E+00  0.000000000E+00 -8.238685886E+02  8.238685886E+02  0.000000000E+00  0.00000E+00  9.000E+00
      25     1     1     2     0     0  6.445905246E+00 -1.475824277E+00 -6.285780915E+02  6.409209465E+02  1.250020588E+02  0.00000E+00  9.000E+00
       5     1     1     2   501     0  6.021849808E-01 -2.170763439E+00  3.515729673E+00  6.324373154E+00  4.750000000E+00  0.00000E+00  9.000E+00
      -5     1     1     2     0   503 -1.367672004E+01 -3.212637731E+00 -1.871493407E+02  1.877360166E+02  4.750000000E+00  0.00000E+00  9.000E+00
      21     1     1     2   512   501  6.628629808E+00  6.859225448E+00  8.333507044E+01  8.387920882E+01  2.523185073E-06  0.00000E+00  9.000E+00
#rwgt            1           9   8.4412493351449284E-004           1     1605321           0
</event>
<event>
      6   9999  3.45752E-01  1.95365E+01 -1.00000E+00  1.60992E-01
      21    -1     0     0   511   503  0.000000000E+00  0.000000000E+00  1.556024613E+01  1.556024613E+01  0.000000000E+00  0.00000E+00  9.000E+00
      21    -1     0     0   501   502  0.000000000E+00  0.000000000E+00 -1.273225029E+03  1.273225029E+03  0.000000000E+00  0.00000E+00  9.000E+00
      25     1     1     2     0     0  2.132488127E+01 -5.518706988E-01 -1.246159109E+03  1.252594480E+03  1.250014023E+02  0.00000E+00  9.000E+00
       5     1     1     2   501     0  1.552297452E+00  2.624785585E-01 -4.276919996E+00  6.582785659E+00  4.750000000E+00  0.00000E+00  9.000E+00
      -5     1     1     2     0   503 -3.923319534E+00 -4.446168183E+00  2.207784311E+00  7.911868252E+00  4.750000000E+00  0.00000E+00  9.000E+00
      21     1     1     2   511   502 -1.895385919E+01  4.735560323E+00 -9.436538490E+00  2.169614179E+01  7.152557373E-07  0.00000E+00  9.000E+00
#rwgt            1           9   8.9405457408741791E-003           1     1608568           0
</event>
<event>
      6   9999  3.45752E-01  9.69544E+00 -1.00000E+00  1.88620E-01
      21    -1     0     0   501   502  0.000000000E+00  0.000000000E+00  5.296474405E+01  5.296474405E+01  0.000000000E+00  0.00000E+00  9.000E+00
      21    -1     0     0   512   503  0.000000000E+00  0.000000000E+00 -4.106533420E+02  4.106533420E+02  0.000000000E+00  0.00000E+00  9.000E+00
      25     1     1     2     0     0  7.729536354E+01 -6.150724624E+01 -1.817502740E+02  2.416923167E+02  1.249971972E+02  0.00000E+00  9.000E+00
       5     1     1     2   501     0 -2.786058941E-01  4.382145091E-01  9.946643032E+00  1.103484757E+01  4.750000000E+00  0.00000E+00  9.000E+00
      -5     1     1     2     0   503 -6.774235037E+01  5.824290485E+01 -1.610520722E+02  1.842324468E+02  4.750000000E+00  0.00000E+00  9.000E+00
      21     1     1     2   512   502 -9.274407273E+00  2.826126883E+00 -2.483289491E+01  2.665847507E+01  3.371747881E-07  0.00000E+00  9.000E+00
#rwgt            1           9   1.6655431049481622E-002           1     1610375           0
</event>
<event>
      6   9999  3.45752E-01  2.12256E+01 -1.00000E+00  1.58263E-01
      21    -1     0     0   502   503  0.000000000E+00  0.000000000E+00  8.490084382E+00  8.490084382E+00  0.000000000E+00  0.00000E+00  9.000E+00
      21    -1     0     0   511   502  0.000000000E+00  0.000000000E+00 -1.107366204E+03  1.107366204E+03  0.000000000E+00  0.00000E+00  9.000E+00
      25     1     1     2     0     0 -1.236435241E+01 -2.119071397E+01 -5.218489854E+02  5.371704419E+02  1.249951856E+02  0.00000E+00  9.000E+00
       5     1     1     2   501     0  4.943504743E+00 -2.561364378E+00 -1.843395888E+02  1.844848105E+02  4.750000000E+00  0.00000E+00  9.000E+00
      -5     1     1     2     0   503 -2.321886889E+00  4.894527638E+00 -2.853904167E+01  2.943445191E+01  4.750000000E+00  0.00000E+00  9.000E+00
      21     1     1     2   511   501  9.742734559E+00  1.885755071E+01 -3.641485037E+02  3.647665840E+02  5.394796609E-06  0.00000E+00  9.000E+00
#rwgt            1           9   9.3326352770060923E-003           1     1613650           0
</event>
<event>
      6   9999  3.45752E-01  1.27277E+01 -1.00000E+00  1.76795E-01
      21    -1     0     0   512   503  0.000000000E+00  0.000000000E+00  7.564103246E+01  7.564103246E+01  0.000000000E+00  0.00000E+00  9.000E+00
      21    -1     0     0   501   502  0.000000000E+00  0.000000000E+00 -1.091104572E+02  1.091104572E+02  0.000000000E+00  0.00000E+00  9.000E+00
      25     1     1     2     0     0  2.960788489E+01 -8.668298993E+00 -4.493027667E+01  1.363649104E+02  1.249995711E+02  0.00000E+00  9.000E+00
       5     1     1     2   501     0 -3.748032132E-01  3.847253119E+00  2.009537545E+00  6.445352989E+00  4.750000000E+00  0.00000E+00  9.000E+00
      -5     1     1     2     0   503 -2.252223315E+01  1.563579046E+01  4.067983934E+00  2.812187624E+01  4.750000000E+00  0.00000E+00  9.000E+00
      21     1     1     2   512   502 -6.710848526E+00 -1.081474459E+01  5.383330463E+00  1.381935003E+01  1.032382731E-07  0.00000E+00  9.000E+00
#rwgt            1           9  0.74693123753600466                1     1614830           0
</event>
<event>
      6   9999  3.45752E-01  1.77815E+01 -1.00000E+00  1.64208E-01
      21    -1     0     0   501   511  0.000000000E+00  0.000000000E+00  1.319347684E+01  1.319347684E+01  0.000000000E+00  0.00000E+00  9.000E+00
      21    -1     0     0   502   503  0.000000000E+00  0.000000000E+00 -8.976605769E+02  8.976605769E+02  0.000000000E+00  0.00000E+00  9.000E+00
      25     1     1     2     0     0 -6.728143626E-01  1.578803607E+01 -7.769506417E+02  7.870972146E+02  1.249800415E+02  0.00000E+00  9.000E+00
       5     1     1     2   501     0 -3.738847383E+00  2.668597533E+00  5.117877419E+00  8.357963976E+00  4.750000000E+00  0.00000E+00  9.000E+00
      -5     1     1     2     0   503 -7.728412768E-01 -1.447718660E+00 -5.111057980E+01  5.135705443E+01  4.750000000E+00  0.00000E+00  9.000E+00
      21     1     1     2   502   511  5.184503022E+00 -1.700891494E+01 -6.152375600E+01  6.404182080E+01  9.536743164E-07  0.00000E+00  9.000E+00
#rwgt            1           9   2.2551696625376181E-003           1     1616713           0
</event>
<event>
      6   9999 -3.45752E-01  9.07159E+00 -1.00000E+00  1.91764E-01
      21    -1     0     0   501   502  0.000000000E+00  0.000000000E+00  1.672372565E+03  1.672372565E+03  0.000000000E+00  0.00000E+00  9.000E+00
      21    -1     0     0   502   512  0.000000000E+00  0.000000000E+00 -4.216955479E+00  4.216955479E+00  0.000000000E+00  0.00000E+00  9.000E+00
      25     1     1     2     0     0  1.442546709E+01 -7.085956775E+00  1.056563824E+03  1.064053564E+03  1.249982729E+02  0.00000E+00  9.000E+00
       5     1     1     2   501     0  7.401119655E-01 -5.320073102E-01  3.557571250E+02  3.557900017E+02  4.750000000E+00  0.00000E+00  9.000E+00
      -5     1     1     2     0   503 -8.518019489E+00  1.445150643E+00  1.938955084E+02  1.941460167E+02  4.750000000E+00  0.00000E+00  9.000E+00
      21     1     1     2   503   512 -6.647559566E+00  6.172813442E+00  6.193915240E+01  6.259993829E+01  0.000000000E+00  0.00000E+00  9.000E+00
#rwgt            1           9  -1.0207760618963053E-003           1     1618481           0
</event>
<event>
      6   9999  3.45752E-01  1.10881E+01 -1.00000E+00  1.82589E-01
      21    -1     0     0   501   502  0.000000000E+00  0.000000000E+00  1.729486439E+02  1.729486439E+02  0.000000000E+00  0.00000E+00  9.000E+00
      21    -1     0     0   502   511  0.000000000E+00  0.000000000E+00 -5.507639754E+02  5.507639754E+02  0.000000000E+00  0.00000E+00  9.000E+00
      25     1     1     2     0     0 -9.612882889E-01 -1.098166573E+01 -2.452331858E+01  1.278561413E+02  1.249971146E+02  0.00000E+00  9.000E+00
       5     1     1     2   501     0 -3.241135571E+00  8.304654874E-01  1.198510080E+02  1.199917550E+02  4.750000000E+00  0.00000E+00  9.000E+00
      -5     1     1     2     0   503 -1.612172794E+00  7.099344465E-01 -3.657863584E+00  6.248645776E+00  4.750000000E+00  0.00000E+00  9.000E+00
      21     1     1     2   503   511  5.814596654E+00  9.441265801E+00 -4.694851573E+02  4.696160772E+02  0.000000000E+00  0.00000E+00  9.000E+00
#rwgt            1           9   3.8765340462578929E-002           1     1620778           0
</event>
<event>
      6   9999  3.45752E-01  1.59121E+01 -1.00000E+00  1.68179E-01
      21    -1     0     0   501   502  0.000000000E+00  0.000000000E+00  6.214999072E+01  6.214999072E+01  0.000000000E+00  0.00000E+00  9.000E+00
      21    -1     0     0   502   512  0.000000000E+00  0.000000000E+00 -2.895532695E+02  2.895532695E+02  0.000000000E+00  0.00000E+00  9.000E+00
      25     1     1     2     0     0 -6.622185973E+00  1.221328582E+01 -2.325954965E+02  2.644208821E+02  1.249988809E+02  0.00000E+00  9.000E+00
       5     1     1     2   501     0 -3.350098910E+00  1.046956631E+00  4.322249329E+01  4.362414134E+01  4.750000000E+00  0.00000E+00  9.000E+00
      -5     1     1     2     0   503  1.065819196E+00 -7.431209220E-02 -4.913832155E+00  6.917350598E+00  4.750000000E+00  0.00000E+00  9.000E+00
      21     1     1     2   503   512  8.906465687E+00 -1.318593036E+01 -3.311644345E+01  3.674088618E+01  4.768371582E-07  0.00000E+00  9.000E+00
#rwgt            1           9   5.5264084287994289E-004           1     1623293           0
</event>
<event>
      6   9999 -3.45752E-01  9.46033E+01 -1.00000E+00  1.21468E-01
      21    -1     0     0   501   511  0.000000000E+00  0.000000000E+00  6.782271992E+01  6.782271992E+01  0.000000000E+00  0.00000E+00  9.000E+00
      21    -1     0     0   502   503  0.000000000E+00  0.000000000E+00 -1.419197822E+03  1.419197822E+03  0.000000000E+00  0.00000E+00  9.000E+00
      25     1     1     2     0     0 -1.120612194E+01 -4.357313713E+01 -1.286803554E+03  1.293642656E+03  1.249949610E+02  0.00000E+00  9.000E+00
       5     1     1     2   501     0 -1.938912804E+01 -4.530084511E+01  2.802650480E+01  5.688718946E+01  4.750000000E+00  0.00000E+00  9.000E+00
      -5     1     1     2     0   503 -2.532009664E-01 -5.584388983E-01 -9.215872080E+00  1.038608506E+01  4.750000000E+00  0.00000E+00  9.000E+00
      21     1     1     2   502   511  3.084845094E+01  8.943242113E+01 -8.338218105E+01  1.261046113E+02  2.132480600E-06  0.00000E+00  9.000E+00
#rwgt            1           9  -6.7544132712556564E-005           1     1625212           0
</event>
<event>
      6   9999  3.45752E-01  2.46336E+01 -1.00000E+00  1.53597E-01
      21    -1     0     0   501   502  0.000000000E+00  0.000000000E+00  8.545820014E+00  8.545820014E+00  0.000000000E+00  0.00000E+00  9.000E+00
      21    -1     0     0   502   512  0.000000000E+00  0.000000000E+00 -2.713768910E+03  2.713768910E+03  0.000000000E+00  0.00000E+00  9.000E+00
      25     1     1     2     0     0  3.070306481E+01  2.454674064E+01 -6.986728456E+02  7.108539740E+02  1.249976260E+02  0.00000E+00  9.000E+00
       5     1     1     2   501     0 -1.438537268E+01 -6.050688737E+00 -3.634108754E+01  3.983449416E+01  4.750000000E+00  0.00000E+00  9.000E+00
      -5     1     1     2     0   503  3.792985597E-02 -7.576589505E-02 -8.307526138E+00  9.569987967E+00  4.750000000E+00  0.00000E+00  9.000E+00
      21     1     1     2   503   512 -1.635562198E+01 -1.842028601E+01 -1.961901631E+03  1.962056274E+03  0.000000000E+00  0.00000E+00  9.000E+00
#rwgt            1           9   8.0235779008963697E-006           1     1625907           0
</event>
<event>
      6   9999 -3.45752E-01  7.56163E+01 -1.00000E+00  1.25829E-01
      21    -1     0     0   511   502  0.000000000E+00  0.000000000E+00  7.284064873E+01  7.284064873E+01  0.000000000E+00  0.00000E+00  9.000E+00
      21    -1     0     0   502   503  0.000000000E+00  0.000000000E+00 -5.641875012E+02  5.641875012E+02  0.000000000E+00  0.00000E+00  9.000E+00
      25     1     1     2     0     0 -2.572319559E+00 -3.832875952E+00 -4.270588386E+02  4.449940039E+02  1.249764140E+02  0.00000E+00  9.000E+00
       5     1     1     2   501     0 -1.714643856E+01  7.637993145E+00  2.486043842E+01  3.151100114E+01  4.750000000E+00  0.00000E+00  9.000E+00
      -5     1     1     2     0   503 -4.524278418E+01  3.489656508E+01 -3.133944013E+01  6.534066714E+01  4.750000000E+00  0.00000E+00  9.000E+00
      21     1     1     2   511   501  6.496154230E+01 -3.870168227E+01 -5.780901211E+01  9.518247774E+01  1.168007728E-06  0.00000E+00  9.000E+00
#rwgt            1           9  -1.3049695455849379E-004           1     1627063           0
</event>
<event>
      6   9999  3.45752E-01  4.44593E+01 -1.00000E+00  1.37575E-01
      21    -1     0     0   512   502  0.000000000E+00  0.000000000E+00  8.429952555E+00  8.429952555E+00  0.000000000E+00  0.00000E+00  9.000E+00
      21    -1     0     0   502   503  0.000000000E+00  0.000000000E+00 -1.370438293E+03  1.370438293E+03  0.000000000E+00  0.00000E+00  9.000E+00
      25     1     1     2     0     0 -3.448472985E+01 -4.296654908E+01 -9.808300929E+02  9.902975034E+02  1.250046127E+02  0.00000E+00  9.000E+00
       5     1     1     2   501     0 -2.728129758E+00 -1.267758830E+00 -8.421781344E+00  1.012614465E+01  4.750000000E+00  0.00000E+00  9.000E+00
      -5     1     1     2     0   503  5.372219987E-01  1.910418117E+01 -1.506864403E+02  1.519678392E+02  4.750000000E+00  0.00000E+00  9.000E+00
      21     1     1     2   512   501  3.667563761E+01  2.513012674E+01 -2.220700259E+02  2.264767583E+02  4.672030912E-06  0.00000E+00  9.000E+00
#rwgt            1           9   2.8277602889218486E-002           1     1627919           0
</event>
<event>
      6   9999  3.45752E-01  1.33714E+01 -1.00000E+00  1.74814E-01
      21    -1     0     0   501   511  0.000000000E+00  0.000000000E+00  9.354952394E+01  9.354952394E+01  0.000000000E+00  0.00000E+00  9.000E+00
      21    -1     0     0   502   503  0.000000000E+00  0.000000000E+00 -2.409393044E+02  2.409393044E+02  0.000000000E+00  0.00000E+00  9.000E+00
      25     1     1     2     0     0  6.211727438E+01 -3.763254861E+01 -1.267407866E+02  1.922555049E+02  1.249967507E+02  0.00000E+00  9.000E+00
       5     1     1     2   501     0 -1.345616614E+00  7.297520156E-01  2.096216115E+01  2.154803755E+01  4.750000000E+00  0.00000E+00  9.000E+00
      -5     1     1     2     0   503 -5.924282042E+01  5.018646141E+01 -5.979513123E+01  9.811428489E+01  4.750000000E+00  0.00000E+00  9.000E+00
      21     1     1     2   502   511 -1.528837343E+00 -1.328366482E+01  1.818397622E+01  2.257100099E+01  4.129530925E-07  0.00000E+00  9.000E+00
#rwgt            1           9  0.28805666134005181                1     1629008           0
</event>
<event>
      6   9999  3.45752E-01  3.10663E+01 -1.00000E+00  1.46864E-01
      21    -1     0     0   501   502  0.000000000E+00  0.000000000E+00  8.333780764E+01  8.333780764E+01  0.000000000E+00  0.00000E+00  9.000E+00
      21    -1     0     0   502   512  0.000000000E+00  0.000000000E+00 -2.133282863E+03  2.133282863E+03  0.000000000E+00  0.00000E+00  9.000E+00
      25     1     1     2     0     0 -3.428630825E+01  1.880371200E+01 -6.915976883E+02  7.038910333E+02  1.250043753E+02  0.00000E+00  9.000E+00
       5     1     1     2   501     0 -3.010004193E+00  1.552520992E+00  7.638090852E+01  7.660336894E+01  4.750000000E+00  0.00000E+00  9.000E+00
      -5     1     1     2     0   503  2.899659441E+01  9.580812533E+00 -8.646334239E+02  8.651855955E+02  4.750000000E+00  0.00000E+00  9.000E+00
      21     1     1     2   503   512  8.299718029E+00 -2.993704553E+01 -5.700948520E+02  5.709406732E+02  7.629394531E-06  0.00000E+00  9.000E+00
#rwgt            1           9   8.6149460943165735E-004           1     1631481           0
</event>
<event>
      6   9999 -3.45752E-01  1.79956E+01 -1.00000E+00  1.63792E-01
      21    -1     0     0   511   502  0.000000000E+00  0.000000000E+00  2.169176779E+01  2.169176779E+01  0.000000000E+00  0.00000E+00  9.000E+00
      21    -1     0     0   502   503  0.000000000E+00  0.000000000E+00 -1.455707688E+03  1.455707688E+03  0.000000000E+00  0.00000E+00  9.000E+00
      25     1     1     2     0     0  1.607415676E+01  1.008732984E+01 -1.347529668E+03  1.353448189E+03  1.250026465E+02  0.00000E+00  9.000E+00
       5     1     1     2   501     0 -2.127162940E-01 -1.885821350E+00  9.396926611E+00  1.069889247E+01  4.750000000E+00  0.00000E+00  9.000E+00
      -5     1     1     2     0   503 -3.371669417E+01 -1.044496971E+01 -3.566610739E+01  5.040383492E+01  4.750000000E+00  0.00000E+00  9.000E+00
      21     1     1     2   511   501  1.785525370E+01  2.243461222E+00 -6.021707129E+01  6.284853918E+01  1.168007728E-06  0.00000E+00  9.000E+00
#rwgt            1           9  -5.7902586695495410E-002           1     1633723           0
</event>
<event>
      6   9999  3.45752E-01  2.28584E+01 -1.00000E+00  1.55905E-01
      21    -1     0     0   512   502  0.000000000E+00  0.000000000E+00  1.281969507E+01  1.281969507E+01  0.000000000E+00  0.00000E+00  9.000E+00
      21    -1     0     0   502   503  0.000000000E+00  0.000000000E+00 -8.640951110E+02  8.640951110E+02  0.000000000E+00  0.00000E+00  9.000E+00
      25     1     1     2     0     0  1.164797665E+01 -9.750961110E+00 -7.888278649E+02  7.988151864E+02  1.250021796E+02  0.00000E+00  9.000E+00
       5     1     1     2   501     0  1.590161320E+00 -3.430458040E+00  6.759389756E-01  6.108686347E+00  4.750000000E+00  0.00000E+00  9.000E+00
      -5     1     1     2     0   503 -3.235315385E+00 -7.372211613E+00 -7.955245113E+00  1.227457513E+01  4.750000000E+00  0.00000E+00  9.000E+00
      21     1     1     2   512   501 -1.000282259E+01  2.055363076E+01 -5.516824487E+01  5.971635822E+01  1.168007728E-06  0.00000E+00  9.000E+00
#rwgt            1           9   2.7367045897290320E-004           1     1636116           0
</event>
<event>
      6   9999  3.45752E-01  5.71450E+00 -1.00000E+00  2.17050E-01
      21    -1     0     0   511   502  0.000000000E+00  0.000000000E+00  3.102447629E+01  3.102447629E+01  0.000000000E+00  0.00000E+00  9.000E+00
      21    -1     0     0   502   503  0.000000000E+00  0.000000000E+00 -1.114087185E+03  1.114087185E+03  0.000000000E+00  0.00000E+00  9.000E+00
      25     1     1     2     0     0  9.971812929E-01 -6.896363266E+00 -8.143580667E+02  8.239246983E+02  1.249971736E+02  0.00000E+00  9.000E+00
       5     1     1     2   501     0 -8.051678344E+00 -4.429192418E+00  2.250995581E+01  2.477312818E+01  4.750000000E+00  0.00000E+00  9.000E+00
      -5     1     1     2     0   503  1.577805783E+00  1.295693926E+01 -2.902934446E+02  2.906255636E+02  4.750000000E+00  0.00000E+00  9.000E+00
      21     1     1     2   511   501  5.476691268E+00 -1.631383575E+00 -9.211531063E-01  5.788271128E+00  1.526914651E-07  0.00000E+00  9.000E+00
#rwgt            1           9   2.0975452841277167E-004           1     1637335           0
</event>
<event>
      6   9999  3.45752E-01  9.48366E+00 -1.00000E+00  1.89652E-01
      21    -1     0     0   512   502  0.000000000E+00  0.000000000E+00  1.429772055E+03  1.429772055E+03  0.000000000E+00  0.00000E+00  9.000E+00
      21    -1     0     0   502   503  0.000000000E+00  0.000000000E+00 -9.426845206E+02  9.426845206E+02  0.000000000E+00  0.00000E+00  9.000E+00
      25     1     1     2     0     0  1.300104869E+01 -7.052669195E+00 -5.051449712E+02  5.205908991E+02  1.249986997E+02  0.00000E+00  9.000E+00
       5     1     1     2   501     0  1.766738058E+00  9.413380714E-01  8.857201689E+00  1.024792674E+01  4.750000000E+00  0.00000E+00  9.000E+00
      -5     1     1     2     0   503 -8.149861113E+00  1.290418213E+01 -4.289564461E+02  4.292541593E+02  4.750000000E+00  0.00000E+00  9.000E+00
      21     1     1     2   512   501 -6.617925637E+00 -6.792851003E+00  1.412331750E+03  1.412363591E+03  1.525878906E-05  0.00000E+00  9.000E+00
#rwgt            1           9   4.2736720475417045E-002           1     1642168           0
</event>
<event>
      6   9999  3.45752E-01  1.02751E+01 -1.00000E+00  1.85961E-01
      21    -1     0     0   501   511  0.000000000E+00  0.000000000E+00  1.616408431E+01  1.616408431E+01  0.000000000E+00  0.00000E+00  9.000E+00
      21    -1     0     0   502   503  0.000000000E+00  0.000000000E+00 -8.501941804E+02  8.501941804E+02  0.000000000E+00  0.00000E+00  9.000E+00
      25     1     1     2     0     0  1.678489213E+01  9.554374849E+00 -7.574207518E+02  7.679086799E+02  1.249981068E+02  0.00000E+00  9.000E+00
       5     1     1     2   501     0 -1.260537694E+00  3.217450770E-01  3.004206656E+00  5.768902218E+00  4.750000000E+00  0.00000E+00  9.000E+00
      -5     1     1     2     0   503 -2.541455203E+01 -1.266205651E+01 -7.681319376E+01  8.203082571E+01  4.750000000E+00  0.00000E+00  9.000E+00
      21     1     1     2   502   511  9.890197595E+00  2.785936587E+00 -2.800357156E+00  1.064985687E+01  5.161913656E-07  0.00000E+00  9.000E+00
#rwgt            1           9   1.7248912423039640E-004           1     1645580           0
</event>
<event>
      6   9999  3.45752E-01  1.20650E+02 -1.00000E+00  1.17070E-01
      21    -1     0     0   512   502  0.000000000E+00  0.000000000E+00  5.306969533E+01  5.306969533E+01  0.000000000E+00  0.00000E+00  9.000E+00
       1    -1     0     0   501     0  0.000000000E+00  0.000000000E+00 -1.320570501E+03  1.320570501E+03  0.000000000E+00  0.00000E+00  9.000E+00
      25     1     1     2     0     0  3.247485804E+01 -1.562363850E+02 -9.117082114E+02  9.339708537E+02  1.250010737E+02  0.00000E+00  9.000E+00
       5     1     1     2   501     0 -4.025862288E+00  9.646621878E+00 -3.681278651E+00  1.205732944E+01  4.750000000E+00  0.00000E+00  9.000E+00
      -5     1     1     2     0   502 -1.081917915E+02  5.604979629E+01 -1.731199102E+02  2.117548329E+02  4.750000000E+00  0.00000E+00  9.000E+00
       1     1     1     2   512     0  7.974279578E+01  9.053996683E+01 -1.789914051E+02  2.158571800E+02  4.672030912E-06  0.00000E+00  9.000E+00
#rwgt            1           1   4.4744684661885646E-006           1     1647961           0
</event>
<event>
      6   9999  3.45752E-01  6.44860E+00 -1.00000E+00  2.09787E-01
      21    -1     0     0   501   502  0.000000000E+00  0.000000000E+00  6.920886947E+01  6.920886947E+01  0.000000000E+00  0.00000E+00  9.000E+00
      21    -1     0     0   502   511  0.000000000E+00  0.000000000E+00 -2.938544986E+02  2.938544986E+02  0.000000000E+00  0.00000E+00  9.000E+00
      25     1     1     2     0     0  3.276588161E-01 -4.040487364E+00 -1.216955816E+02  1.744954831E+02  1.249897042E+02  0.00000E+00  9.000E+00
       5     1     1     2   501     0  3.437834076E+00 -1.324245814E+00  4.172319784E+01  4.215400418E+01  4.750000000E+00  0.00000E+00  9.000E+00
      -5     1     1     2     0   503  2.240611707E+00  3.017143598E+00 -1.077694354E+01  1.236238279E+01  4.750000000E+00  0.00000E+00  9.000E+00
      21     1     1     2   503   511 -6.006104599E+00  2.347589580E+00 -1.338963018E+02  1.340514980E+02  1.907348633E-06  0.00000E+00  9.000E+00
#rwgt            1           9   4.1533559849700467E-002           1     1648276           0
</event>
<event>
      6   9999  3.45752E-01  1.48160E+01 -1.00000E+00  1.70837E-01
      21    -1     0     0   512   502  0.000000000E+00  0.000000000E+00  8.543719895E+01  8.543719895E+01  0.000000000E+00  0.00000E+00  9.000E+00
      21    -1     0     0   502   503  0.000000000E+00  0.000000000E+00 -1.301914451E+03  1.301914451E+03  0.000000000E+00  0.00000E+00  9.000E+00
      25     1     1     2     0     0  4.685693427E+01 -8.136928889E+00 -1.503105742E+02  2.011984687E+02  1.250030927E+02  0.00000E+00  9.000E+00
       5     1     1     2   501     0 -4.973752691E+00  8.276947697E+00  5.099210960E+01  5.211529354E+01  4.750000000E+00  0.00000E+00  9.000E+00
      -5     1     1     2     0   503 -5.468759744E+01 -7.593833629E+00 -1.117833789E+03  1.119206568E+03  4.750000000E+00  0.00000E+00  9.000E+00
      21     1     1     2   512   501  1.280441586E+01  7.453814821E+00  6.750013877E-01  1.483131983E+01  2.476687750E-07  0.00000E+00  9.000E+00
#rwgt            1           9   2.0124133115459173E-003           1     1652394           0
</event>
<event>
      6   9999  3.45752E-01  3.67992E+00 -1.00000E+00  2.55593E-01
      21    -1     0     0   511   502  0.000000000E+00  0.000000000E+00  1.129366270E+02  1.129366270E+02  0.000000000E+00  0.00000E+00  9.000E+00
      21    -1     0     0   502   503  0.000000000E+00  0.000000000E+00 -7.580476459E+01  7.580476459E+01  0.000000000E+00  0.00000E+00  9.000E+00
      25     1     1     2     0     0 -2.148388745E+00  2.492386925E-01 -1.971189210E+01  1.265273435E+02  1.249637238E+02  0.00000E+00  9.000E+00
       5     1     1     2   501     0 -1.337450581E+00  3.958499326E-01  4.217846128E+01  4.246799462E+01  4.750000000E+00  0.00000E+00  9.000E+00
      -5     1     1     2     0   503  6.200534478E-02  7.036908314E-01  1.853480546E-01  4.805817241E+00  4.750000000E+00  0.00000E+00  9.000E+00
      21     1     1     2   511   501  3.423833980E+00 -1.348779457E+00  1.447994515E+01  1.494023617E+01  1.685873940E-07  0.00000E+00  9.000E+00
#rwgt            1           9   1.9891270952537752E-003           1     1655976           0
</event>
<event>
      6   9999 -3.45752E-01  2.99545E+00 -1.00000E+00  2.77084E-01
      21    -1     0     0   512   502  0.000000000E+00  0.000000000E+00  6.596509137E+01  6.596509137E+01  0.000000000E+00  0.00000E+00  9.000E+00
      21    -1     0     0   502   503  0.000000000E+00  0.000000000E+00 -1.196469316E+03  1.196469316E+03  0.000000000E+00  0.00000E+00  9.000E+00
      25     1     1     2     0     0 -4.029760817E+00 -8.918469436E+00 -8.196486275E+02  8.291824407E+02  1.249954771E+02  0.00000E+00  9.000E+00
       5     1     1     2   501     0  2.461797911E+00 -1.118866089E-01  3.577917114E-01  5.363159747E+00  4.750000000E+00  0.00000E+00  9.000E+00
      -5     1     1     2     0   503  3.971116986E+00  1.081853789E+01 -3.694074562E+02  3.696176967E+02  4.750000000E+00  0.00000E+00  9.000E+00
      21     1     1     2   512   501 -2.403154080E+00 -1.788181849E+00  5.819406765E+01  5.827110994E+01  9.536743164E-07  0.00000E+00  9.000E+00
#rwgt            1           9  -1.9400938535447089E-002           1     1660381           0
</event>
<event>
      6   9999  3.45752E-01  1.04415E+01 -1.00000E+00  1.85239E-01
      21    -1     0     0   501   502  0.000000000E+00  0.000000000E+00  1.494168302E+01  1.494168302E+01  0.000000000E+00  0.00000E+00  9.000E+00
      21    -1     0     0   502   511  0.000000000E+00  0.000000000E+00 -1.684251947E+03  1.684251947E+03  0.000000000E+00  0.00000E+00  9.000E+00
      25     1     1     2     0     0 -1.578871951E+01  1.347090982E+01 -4.145540165E+02  4.334862899E+02  1.249983274E+02  0.00000E+00  9.000E+00
       5     1     1     2   501     0 -1.811086242E+00 -3.325977327E+00  3.303605363E+00  6.915089801E+00  4.750000000E+00  0.00000E+00  9.000E+00
      -5     1     1     2     0   503  1.424796495E+01 -2.003381959E+01 -4.724511903E+02  4.731142020E+02  4.750000000E+00  0.00000E+00  9.000E+00
      21     1     1     2   503   511  3.351840802E+00  9.888887095E+00 -7.856086624E+02  7.856780482E+02  0.000000000E+00  0.00000E+00  9.000E+00
#rwgt            1           9   8.4430674621460071E-005           1     1665879           0
</event>
<event>
      6   9999 -3.45752E-01  1.30183E+01 -1.00000E+00  1.75883E-01
      21    -1     0     0   501   512  0.000000000E+00  0.000000000E+00  8.554675201E+01  8.554675201E+01  0.000000000E+00  0.00000E+00  9.000E+00
      21    -1     0     0   502   503  0.000000000E+00  0.000000000E+00 -1.501582418E+03  1.501582418E+03  0.000000000E+00  0.00000E+00  9.000E+00
      25     1     1     2     0     0  3.252497576E+01  4.376353821E-01 -1.302327076E+03  1.308716451E+03  1.249994822E+02  0.00000E+00  9.000E+00
       5     1     1     2   501     0 -1.121298001E+01  1.242753841E+01  6.617749802E+01  6.842659115E+01  4.750000000E+00  0.00000E+00  9.000E+00
      -5     1     1     2     0   503 -3.346188495E+01 -8.190053635E+00 -1.902151465E+02  1.933678856E+02  4.750000000E+00  0.00000E+00  9.000E+00
      21     1     1     2   502   512  1.214988921E+01 -4.675120155E+00  1.032905797E+01  1.661824283E+01  1.192092896E-07  0.00000E+00  9.000E+00
#rwgt            1           9  -5.1597031178469800E-005           1     1668334           0
</event>
<event>
      6   9999  3.45752E-01  6.72198E+01 -1.00000E+00  1.28252E-01
       1    -1     0     0   502     0  0.000000000E+00  0.000000000E+00  1.369829287E+02  1.369829287E+02  0.000000000E+00  0.00000E+00  9.000E+00
      21    -1     0     0   501   502  0.000000000E+00  0.000000000E+00 -1.177318131E+03  1.177318131E+03  0.000000000E+00  0.00000E+00  9.000E+00
      25     1     1     2     0     0 -1.209693571E+02  7.735835572E+01 -6.247465345E+02  6.531087676E+02  1.249997175E+02  0.00000E+00  9.000E+00
       5     1     1     2   501     0  3.350885130E+01 -2.475456405E+01 -1.718365166E+02  1.768784399E+02  4.750000000E+00  0.00000E+00  9.000E+00
      -5     1     1     2     0   503  8.758650823E+01 -1.198234818E+02 -3.376345425E+02  3.688478142E+02  4.750000000E+00  0.00000E+00  9.000E+00
       1     1     1     2   503     0 -1.260024193E-01  6.721969012E+01  9.388239111E+01  1.154660382E+02  1.907348633E-06  0.00000E+00  9.000E+00
#rwgt            1           9   7.0867929914215466E-004           1     1673474           0
</event>
<event>
      6   9999 -3.45752E-01  1.45918E+01 -1.00000E+00  1.71416E-01
      21    -1     0     0   501   511  0.000000000E+00  0.000000000E+00  1.000473894E+02  1.000473894E+02  0.000000000E+00  0.00000E+00  9.000E+00
      21    -1     0     0   502   503  0.000000000E+00  0.000000000E+00 -1.644360276E+02  1.644360276E+02  0.000000000E+00  0.00000E+00  9.000E+00
      25     1     1     2     0     0 -2.308224410E+01  3.219160311E+01 -1.122709350E+02  1.726255458E+02  1.250029077E+02  0.00000E+00  9.000E+00
       5     1     1     2   501     0 -4.473756443E-01 -1.712855826E+00  2.626013238E+01  2.674492611E+01  4.750000000E+00  0.00000E+00  9.000E+00
      -5     1     1     2     0   503  1.026727234E+01 -3.656412362E+01 -8.909439055E-01  3.828456998E+01  4.750000000E+00  0.00000E+00  9.000E+00
      21     1     1     2   502   511  1.326234741E+01  6.085376342E+00  2.251310834E+01  2.682837511E+01  3.371747881E-07  0.00000E+00  9.000E+00
#rwgt            1           9  -2.2984282881444405E-003           1     1674268           0
</event>
<event>
      6   9999  3.45752E-01  1.80483E+01 -1.00000E+00  1.63690E-01
      21    -1     0     0   502   512  0.000000000E+00  0.000000000E+00  2.080684539E+01  2.080684539E+01  0.000000000E+00  0.00000E+00  9.000E+00
      21    -1     0     0   501   502  0.000000000E+00  0.000000000E+00 -9.197865487E+02  9.197865487E+02  0.000000000E+00  0.00000E+00  9.000E+00
      25     1     1     2     0     0  3.929919759E+01 -2.090070102E+01 -2.849554354E+02  3.143340891E+02  1.250002126E+02  0.00000E+00  9.000E+00
       5     1     1     2   501     0 -2.716095590E+01  4.069272623E+01 -4.392847033E+02  4.420262758E+02  4.750000000E+00  0.00000E+00  9.000E+00
      -5     1     1     2     0   503 -2.211252684E+01 -4.750264279E+00 -1.577905951E+02  1.594740206E+02  4.750000000E+00  0.00000E+00  9.000E+00
      21     1     1     2   503   512  9.974285161E+00 -1.504176093E+01 -1.694896954E+01  2.475900856E+01  2.384185791E-07  0.00000E+00  9.000E+00
#rwgt            1           9   4.1997233885599519E-004           1     1676489           0
</event>
<event>
      6   9999  3.45752E-01  3.10849E+01 -1.00000E+00  1.46847E-01
      21    -1     0     0   501   502  0.000000000E+00  0.000000000E+00  3.685450481E+01  3.685450481E+01  0.000000000E+00  0.00000E+00  9.000E+00
      21    -1     0     0   502   511  0.000000000E+00  0.000000000E+00 -1.480122081E+03  1.480122081E+03  0.000000000E+00  0.00000E+00  9.000E+00
      25     1     1     2     0     0  8.309245480E+01 -2.310307205E+00 -5.753405287E+02  5.946017040E+02  1.249990753E+02  0.00000E+00  9.000E+00
       5     1     1     2   501     0  1.594508905E+01  3.442873705E+00  2.139702332E+01  2.732204881E+01  4.750000000E+00  0.00000E+00  9.000E+00
      -5     1     1     2     0   503 -6.804622194E+01 -3.542541115E+00 -5.292210899E+02  5.336106843E+02  4.750000000E+00  0.00000E+00  9.000E+00
      21     1     1     2   503   511 -3.099132190E+01  2.409974615E+00 -3.601029810E+02  3.614421488E+02  5.394796609E-06  0.00000E+00  9.000E+00
#rwgt            1           9   2.4590828917649176E-004           1     1679516           0
</event>
<event>
      6   9999  3.45752E-01  1.58847E+01 -1.00000E+00  1.68242E-01
      21    -1     0     0   501   502  0.000000000E+00  0.000000000E+00  3.167912355E+03  3.167912355E+03  0.000000000E+00  0.00000E+00  9.000E+00
      21    -1     0     0   512   503  0.000000000E+00  0.000000000E+00 -2.091268231E+01  2.091268231E+01  0.000000000E+00  0.00000E+00  9.000E+00
      25     1     1     2     0     0 -7.526495496E+00 -1.676664380E+01  2.467513723E+02  2.772116035E+02  1.249890592E+02  0.00000E+00  9.000E+00
       5     1     1     2   501     0  6.108674953E+00  1.904506762E+00  2.871611686E+03  2.871622744E+03  4.750000000E+00  0.00000E+00  9.000E+00
      -5     1     1     2     0   503  2.745871514E+00 -9.669406044E-01  2.213772635E+01  2.282796996E+01  4.750000000E+00  0.00000E+00  9.000E+00
      21     1     1     2   512   502 -1.328050971E+00  1.582907764E+01  6.498887783E+00  1.716272009E+01  1.076189881E-06  0.00000E+00  9.000E+00
#rwgt            1           9   3.0277998886926581E-004           1     1681297           0
</event>
<event>
      6   9999  3.45752E-01  9.18314E+00 -1.00000E+00  1.91178E-01
      21    -1     0     0   511   502  0.000000000E+00  0.000000000E+00  1.268168781E+01  1.268168781E+01  0.000000000E+00  0.00000E+00  9.000E+00
      21    -1     0     0   502   503  0.000000000E+00  0.000000000E+00 -8.089743142E+02  8.089743142E+02  0.000000000E+00  0.00000E+00  9.000E+00
      25     1     1     2     0     0  6.460596740E+00 -6.641749119E+00 -6.806714821E+02  6.921151969E+02  1.249957085E+02  0.00000E+00  9.000E+00
       5     1     1     2   501     0  2.819867452E+00 -5.828620830E-01  3.048542866E+00  6.336205036E+00  4.750000000E+00  0.00000E+00  9.000E+00
      -5     1     1     2     0   503 -4.564513301E+00 -6.550997623E-01 -1.111184413E+02  1.113154726E+02  4.750000000E+00  0.00000E+00  9.000E+00
      21     1     1     2   511   501 -4.715950891E+00  7.879710964E+00 -7.551245818E+00  1.188912743E+01  1.192092896E-07  0.00000E+00  9.000E+00
#rwgt            1           9   4.1293748282315027E-004           1     1684213           0
</event>
<event>
      6   9999  3.45752E-01  7.00217E+00 -1.00000E+00  2.05121E-01
      21    -1     0     0   501   502  0.000000000E+00  0.000000000E+00  1.849365298E+03  1.849365298E+03  0.000000000E+00  0.00000E+00  9.000E+00
      21    -1     0     0   512   503  0.000000000E+00  0.000000000E+00 -5.346349693E+00  5.346349693E+00  0.000000000E+00  0.00000E+00  9.000E+00
      25     1     1     2     0     0  5.361418003E-01 -5.789190790E+00  1.053807712E+03  1.061210525E+03  1.249931291E+02  0.00000E+00  9.000E+00
       5     1     1     2   501     0  1.276455028E-01 -1.605944335E+00  7.259899460E+02  7.260072724E+02  4.750000000E+00  0.00000E+00  9.000E+00
      -5     1     1     2     0   503 -4.652553978E+00  1.640121139E+00  5.709102905E+01  5.750029873E+01  4.750000000E+00  0.00000E+00  9.000E+00
      21     1     1     2   512   502  3.988766674E+00  5.755013986E+00  7.130260885E+00  9.993551213E+00  0.000000000E+00  0.00000E+00  9.000E+00
#rwgt            1           9  0.30721492244456039                1     1686651           0
</event>
<event>
      6   9999  3.45752E-01  4.16835E+00 -1.00000E+00  2.44202E-01
      21    -1     0     0   501   511  0.000000000E+00  0.000000000E+00  1.752207777E+01  1.752207777E+01  0.000000000E+00  0.00000E+00  9.000E+00
      21    -1     0     0   502   503  0.000000000E+00  0.000000000E+00 -6.996269093E+02  6.996269093E+02  0.000000000E+00  0.00000E+00  9.000E+00
      25     1     1     2     0     0  9.908376184E+00  1.127501163E+01 -6.017943104E+02  6.148274897E+02  1.250245906E+02  0.00000E+00  9.000E+00
       5     1     1     2   501     0 -2.284473162E+00  1.496310635E+00  9.410351891E+00  1.088921420E+01  4.750000000E+00  0.00000E+00  9.000E+00
      -5     1     1     2     0   503 -4.436489923E+00 -1.008514164E+01 -7.940069075E+01  8.030208413E+01  4.750000000E+00  0.00000E+00  9.000E+00
      21     1     1     2   502   511 -3.187413100E+00 -2.686180624E+00 -1.032018222E+01  1.113019900E+01  0.000000000E+00  0.00000E+00  9.000E+00
#rwgt            1           9   9.5662496226232637E-005           1     1689659           0
</event>
<event>
      6   9999  3.45752E-01  6.38820E+00 -1.00000E+00  2.10334E-01
      21    -1     0     0   512   502  0.000000000E+00  0.000000000E+00  5.170524496E+01  5.170524496E+01  0.000000000E+00  0.00000E+00  9.000E+00
      21    -1     0     0   502   503  0.000000000E+00  0.000000000E+00 -2.614605101E+03  2.614605101E+03  0.000000000E+00  0.00000E+00  9.000E+00
      25     1     1     2     0     0 -3.004416511E+02 -2.616863709E+01 -1.245840971E+03  1.287903924E+03  1.250072361E+02  0.00000E+00  9.000E+00
       5     1     1     2   501     0 -3.532293302E-01  1.769714990E-01  3.448508585E+00  5.883094537E+00  4.750000000E+00  0.00000E+00  9.000E+00
      -5     1     1     2     0   503  2.956371358E+02  2.222248489E+01 -1.329124544E+03  1.361796523E+03  4.750000000E+00  0.00000E+00  9.000E+00
      21     1     1     2   512   501  5.157744575E+00  3.769180703E+00  8.617150240E+00  1.072680430E+01  6.637292341E-07  0.00000E+00  9.000E+00
#rwgt            1           9   7.8834234254023583E-002           1     1694553           0
</event>
<event>
      6   9999  3.45752E-01  1.47555E+01 -1.00000E+00  1.70992E-01
      21    -1     0     0   511   502  0.000000000E+00  0.000000000E+00  1.750353744E+02  1.750353744E+02  0.000000000E+00  0.00000E+00  9.000E+00
      21    -1     0     0   502   503  0.000000000E+00  0.000000000E+00 -1.304425429E+03  1.304425429E+03  0.000000000E+00  0.00000E+00  9.000E+00
      25     1     1     2     0     0  5.868010282E+00 -1.086093041E+01 -1.245003026E+03  1.251323858E+03  1.250058724E+02  0.00000E+00  9.000E+00
       5     1     1     2   501     0  1.248987737E+01  9.031158762E+00  3.209711903E+01  3.592139217E+01  4.750000000E+00  0.00000E+00  9.000E+00
      -5     1     1     2     0   503 -4.104966872E+00  5.647903683E+00 -5.362366072E+01  5.428451951E+01  4.750000000E+00  0.00000E+00  9.000E+00
      21     1     1     2   511   501 -1.425292078E+01 -3.818132035E+00  1.371395136E+02  1.379310338E+02  2.697398305E-06  0.00000E+00  9.000E+00
#rwgt            1           9   2.1438300570833253E-003           1     1700137           0
</event>
<event>
      6   9999  3.45752E-01  1.13518E+01 -1.00000E+00  1.81574E-01
       1    -1     0     0   501     0  0.000000000E+00  0.000000000E+00  3.419415540E+02  3.419415540E+02  0.000000000E+00  0.00000E+00  9.000E+00
      21    -1     0     0   502   503  0.000000000E+00  0.000000000E+00 -1.292273465E+03  1.292273465E+03  0.000000000E+00  0.00000E+00  9.000E+00
      25     1     1     2     0     0  6.123198915E+01 -8.116308905E+01 -8.894039213E+02  9.038807963E+02  1.249974205E+02  0.00000E+00  9.000E+00
       5     1     1     2   501     0  6.248985107E+00 -1.137651506E+01  3.555549427E+01  3.814748462E+01  4.750000000E+00  0.00000E+00  9.000E+00
      -5     1     1     2     0   503 -5.806615813E+01  8.619725522E+01 -3.873601556E+02  4.010886413E+02  4.750000000E+00  0.00000E+00  9.000E+00
       1     1     1     2   502     0 -9.414816133E+00  6.342348887E+00  2.908766714E+02  2.910980970E+02  6.607249480E-06  0.00000E+00  9.000E+00
#rwgt            1           9   2.0277534910096638E-004           1     1702602           0
</event>
<event>
      6   9999  3.45752E-01  5.52841E+00 -1.00000E+00  2.19133E-01
      21    -1     0     0   501   502  0.000000000E+00  0.000000000E+00  3.216808436E+01  3.216808436E+01  0.000000000E+00  0.00000E+00  9.000E+00
       1    -1     0     0   502     0  0.000000000E+00  0.000000000E+00 -2.575829327E+03  2.575829327E+03  0.000000000E+00  0.00000E+00  9.000E+00
      25     1     1     2     0     0 -1.621252748E+01  5.122613126E+00 -1.021714865E+03  1.029474017E+03  1.250055935E+02  0.00000E+00  9.000E+00
       5     1     1     2   501     0  7.731168773E+00 -5.409340167E+00  2.713508104E+01  2.911884363E+01  4.750000000E+00  0.00000E+00  9.000E+00
      -5     1     1     2     0   503  3.994849473E+00  3.516977586E+00 -8.122109557E+01  8.153377716E+01  4.750000000E+00  0.00000E+00  9.000E+00
       1     1     1     2   503     0  4.486509237E+00 -3.230250545E+00 -1.467860363E+03  1.467870773E+03  2.157918644E-05  0.00000E+00  9.000E+00
#rwgt            1           9   4.4119463696847685                1     1706238           0
</event>
<event>
      6   9999  3.45752E-01  1.30903E+01 -1.00000E+00  1.75661E-01
      21    -1     0     0   501   502  0.000000000E+00  0.000000000E+00  1.810958616E+02  1.810958616E+02  0.000000000E+00  0.00000E+00  9.000E+00
      21    -1     0     0   502   511  0.000000000E+00  0.000000000E+00 -3.314751655E+01  3.314751655E+01  0.000000000E+00  0.00000E+00  9.000E+00
      25     1     1     2     0     0 -1.424856342E+01 -6.963937055E+00  1.180312520E+02  1.726493092E+02  1.249995582E+02  0.00000E+00  9.000E+00
       5     1     1     2   501     0 -6.189856231E-01 -5.149931334E-02  1.385043200E+01  1.465546867E+01  4.750000000E+00  0.00000E+00  9.000E+00
      -5     1     1     2     0   503  2.649815064E+00  2.316079302E+00  1.175265361E+01  1.315572538E+01  4.750000000E+00  0.00000E+00  9.000E+00
      21     1     1     2   503   511  1.221773398E+01  4.699357066E+00  4.314007461E+00  1.378287491E+01  2.528810911E-07  0.00000E+00  9.000E+00
#rwgt            1           9   6.4140202446506577E-003           1     1710974           0
</event>
<event>
      6   9999  3.45752E-01  3.19462E+00 -1.00000E+00  2.69962E-01
      21    -1     0     0   501   502  0.000000000E+00  0.000000000E+00  2.586800528E+01  2.586800528E+01  0.000000000E+00  0.00000E+00  9.000E+00
      21    -1     0     0   502   512  0.000000000E+00  0.000000000E+00 -1.111797236E+03  1.111797236E+03  0.000000000E+00  0.00000E+00  9.000E+00
      25     1     1     2     0     0 -2.899603431E+01 -7.028480054E+00 -9.208654169E+02  9.297895143E+02  1.250010212E+02  0.00000E+00  9.000E+00
       5     1     1     2   501     0 -3.122110363E+00  4.135115777E+00  1.891396398E+01  2.017789110E+01  4.750000000E+00  0.00000E+00  9.000E+00
      -5     1     1     2     0   503  3.365000223E+01  8.996938647E-02 -1.672223088E+02  1.706405397E+02  4.750000000E+00  0.00000E+00  9.000E+00
      21     1     1     2   503   512 -1.531857552E+00  2.803394890E+00 -1.675546879E+01  1.705729594E+01  0.000000000E+00  0.00000E+00  9.000E+00
#rwgt            1           9   7.1937527042673912E-004           1     1712785           0
</event>
<event>
      6   9999  3.45752E-01  7.43041E+00 -1.00000E+00  2.01890E-01
      21    -1     0     0   511   502  0.000000000E+00  0.000000000E+00  2.939157231E+02  2.939157231E+02  0.000000000E+00  0.00000E+00  9.000E+00
      21    -1     0     0   502   503  0.000000000E+00  0.000000000E+00 -2.334972208E+02  2.334972208E+02  0.000000000E+00  0.00000E+00  9.000E+00
      25     1     1     2     0     0 -7.312558207E+00  4.563698966E+00 -2.093614563E+02  2.439898494E+02  1.249981056E+02  0.00000E+00  9.000E+00
       5     1     1     2   501     0 -6.348383822E-01  4.342298315E-01  9.079402714E-01  4.896777599E+00  4.750000000E+00  0.00000E+00  9.000E+00
      -5     1     1     2     0   503  5.170304630E-01 -5.022222982E+00 -2.261070292E+00  7.291432167E+00  4.750000000E+00  0.00000E+00  9.000E+00
      21     1     1     2   511   501  7.430366126E+00  2.429418398E-02  2.711330886E+02  2.712348847E+02  3.814697266E-06  0.00000E+00  9.000E+00
#rwgt            1           9   6.5216661364121274E-004           1     1719569           0
</event>
<event>
      6   9999  3.45752E-01  3.64459E+00 -1.00000E+00  2.56522E-01
      21    -1     0     0   512   502  0.000000000E+00  0.000000000E+00  1.896690512E+02  1.896690512E+02  0.000000000E+00  0.00000E+00  9.000E+00
      21    -1     0     0   502   503  0.000000000E+00  0.000000000E+00 -9.045295129E+02  9.045295129E+02  0.000000000E+00  0.00000E+00  9.000E+00
      25     1     1     2     0     0 -2.349868021E+01 -3.457670929E+01 -4.109117713E+02  4.315333287E+02  1.249991728E+02  0.00000E+00  9.000E+00
       5     1     1     2   501     0 -9.380534931E-01 -1.242731532E+00  3.400964306E+00  6.045939483E+00  4.750000000E+00  0.00000E+00  9.000E+00
      -5     1     1     2     0   503  2.645654826E+01  3.278573285E+01 -4.810330212E+02  4.828976944E+02  4.750000000E+00  0.00000E+00  9.000E+00
      21     1     1     2   512   501 -2.019814552E+00  3.033707975E+00  1.736833665E+02  1.737216015E+02  3.303624740E-06  0.00000E+00  9.000E+00
#rwgt            1           9   2.6907008786462581                1     1722620           0
</event>
<event>
      6   9999  3.45752E-01  7.05995E+00 -1.00000E+00  2.04668E-01
      21    -1     0     0   501   502  0.000000000E+00  0.000000000E+00  1.607214482E+03  1.607214482E+03  0.000000000E+00  0.00000E+00  9.000E+00
      21    -1     0     0   502   511  0.000000000E+00  0.000000000E+00 -1.202914974E+02  1.202914974E+02  0.000000000E+00  0.00000E+00  9.000E+00
      25     1     1     2     0     0  9.915028961E+00 -1.132221556E+01  2.323286364E+02  2.642498245E+02  1.249994964E+02  0.00000E+00  9.000E+00
       5     1     1     2   501     0 -4.956861661E+00 -1.713860349E+00  1.305863976E+03  1.305883147E+03  4.750000000E+00  0.00000E+00  9.000E+00
      -5     1     1     2     0   503 -3.486107752E-02  7.976035327E+00  5.252473843E+01  5.333881328E+01  4.750000000E+00  0.00000E+00  9.000E+00
      21     1     1     2   503   511 -4.923306223E+00  5.060040577E+00 -1.037943667E+02  1.040341939E+02  2.697398305E-06  0.00000E+00  9.000E+00
#rwgt            1           9   3.1637558410479787E-004           1     1728104           0
</event>
<event>
      6   9999  3.45752E-01  9.89357E+00 -1.00000E+00  1.87684E-01
      21    -1     0     0   502   512  0.000000000E+00  0.000000000E+00  1.576072475E+01  1.576072475E+01  0.000000000E+00  0.00000E+00  9.000E+00
      21    -1     0     0   501   502  0.000000000E+00  0.000000000E+00 -8.418274516E+02  8.418274516E+02  0.000000000E+00  0.00000E+00  9.000E+00
      25     1     1     2     0     0  1.912092769E+01 -1.356836171E+01 -3.515221703E+02  3.738210190E+02  1.249984308E+02  0.00000E+00  9.000E+00
       5     1     1     2   501     0 -1.153687195E+01  3.870212974E+00 -3.123612218E+02  3.126342486E+02  4.750000000E+00  0.00000E+00  9.000E+00
      -5     1     1     2     0   503 -7.645986748E+00  1.959152381E+01 -1.594052194E+02  1.608566921E+02  4.750000000E+00  0.00000E+00  9.000E+00
      21     1     1     2   503   512  6.193100430E-02 -9.893375065E+00 -2.778115321E+00  1.027621673E+01  4.193558478E-07  0.00000E+00  9.000E+00
#rwgt            1           9   4.0131482847361750E-003           1     1732304           0
</event>
<event>
      6   9999  3.45752E-01  1.69101E+01 -1.00000E+00  1.65980E-01
      21    -1     0     0   501   502  0.000000000E+00  0.000000000E+00  4.266559332E+00  4.266559332E+00  0.000000000E+00  0.00000E+00  9.000E+00
       2    -1     0     0   502     0  0.000000000E+00  0.000000000E+00 -2.527693721E+03  2.527693721E+03  0.000000000E+00  0.00000E+00  9.000E+00
      25     1     1     2     0     0  3.524221539E+00  9.204029169E+00 -1.210143764E+03  1.216622343E+03  1.249994434E+02  0.00000E+00  9.000E+00
       5     1     1     2   501     0 -1.285274345E-01  9.591572458E-01 -6.425679680E+00  8.049121770E+00  4.750000000E+00  0.00000E+00  9.000E+00
      -5     1     1     2     0   503 -9.327897422E+00  5.672224821E+00 -2.382306593E+02  2.385279718E+02  4.750000000E+00  0.00000E+00  9.000E+00
       2     1     1     2   503     0  5.932203318E+00 -1.583541124E+01 -1.068627059E+03  1.068760844E+03  1.525878906E-05  0.00000E+00  9.000E+00
#rwgt            1           9  0.27009081802263607                1     1734801           0
</event>
<event>
      6   9999  3.45752E-01  5.42326E+00 -1.00000E+00  2.20360E-01
      21    -1     0     0   501   511  0.000000000E+00  0.000000000E+00  7.198989507E+01  7.198989507E+01  0.000000000E+00  0.00000E+00  9.000E+00
      21    -1     0     0   502   503  0.000000000E+00  0.000000000E+00 -9.611850934E+02  9.611850934E+02  0.000000000E+00  0.00000E+00  9.000E+00
      25     1     1     2     0     0  3.373527207E+01 -1.063417714E+01 -3.467929210E+02  3.703256757E+02  1.249984869E+02  0.00000E+00  9.000E+00
       5     1     1     2   501     0  2.128508654E+00 -1.897252766E+00  1.043311377E+01  1.181281000E+01  4.750000000E+00  0.00000E+00  9.000E+00
      -5     1     1     2     0   503 -3.756550143E+01  7.382072563E+00 -6.011660297E+02  6.024025396E+02  4.750000000E+00  0.00000E+00  9.000E+00
      21     1     1     2   502   511  1.701720707E+00  5.149357342E+00  4.833063868E+01  4.863396313E+01  1.507891493E-06  0.00000E+00  9.000E+00
#rwgt            1           9  0.13114005800875073                1     1736295           0
</event>
<event>
      6   9999  3.45752E-01  2.09436E+01 -1.00000E+00  1.58697E-01
      21    -1     0     0   501   502  0.000000000E+00  0.000000000E+00  4.035024281E+02  4.035024281E+02  0.000000000E+00  0.00000E+00  9.000E+00
      21    -1     0     0   512   503  0.000000000E+00  0.000000000E+00 -2.230196101E+02  2.230196101E+02  0.000000000E+00  0.00000E+00  9.000E+00
      25     1     1     2     0     0  3.442031671E+01 -7.953955941E+01  1.636589106E+01  1.529837604E+02  1.249995553E+02  0.00000E+00  9.000E+00
       5     1     1     2   501     0 -5.833805144E-01  9.317827426E-01  1.892988638E+02  1.893616404E+02  4.750000000E+00  0.00000E+00  9.000E+00
      -5     1     1     2     0   503 -2.230623995E+01  9.609136235E+01  1.097413452E+02  1.476375413E+02  4.750000000E+00  0.00000E+00  9.000E+00
      21     1     1     2   512   502 -1.153069625E+01 -1.748358567E+01 -1.349232821E+02  1.365390961E+02  1.907348633E-06  0.00000E+00  9.000E+00
#rwgt            1           9   4.3821324315413447E-002           1     1741161           0
</event>
<event>
      6   9999  3.45752E-01  1.04222E+01 -1.00000E+00  1.85322E-01
      21    -1     0     0   511   502  0.000000000E+00  0.000000000E+00  2.259012283E+03  2.259012283E+03  0.000000000E+00  0.00000E+00  9.000E+00
      21    -1     0     0   502   503  0.000000000E+00  0.000000000E+00 -3.884483381E+00  3.884483381E+00  0.000000000E+00  0.00000E+00  9.000E+00
      25     1     1     2     0     0 -8.494729974E+00  8.771833565E+00  1.098856259E+03  1.106011683E+03  1.250106398E+02  0.00000E+00  9.000E+00
       5     1     1     2   501     0 -6.771313664E-01 -7.263268539E-01  4.112863767E+02  4.113150036E+02  4.750000000E+00  0.00000E+00  9.000E+00
      -5     1     1     2     0   503 -1.238594042E+00 -7.550704899E+00  8.034142195E+01  8.084462778E+01  4.750000000E+00  0.00000E+00  9.000E+00
      21     1     1     2   511   501  1.041045538E+01 -4.948018120E-01  6.646437422E+02  6.647254519E+02  1.525878906E-05  0.00000E+00  9.000E+00
#rwgt            1           9  0.49968138956006114                1     1743320           0
</event>
<event>
      6   9999  3.45752E-01  3.83341E+00 -1.00000E+00  2.51737E-01
      21    -1     0     0   501   502  0.000000000E+00  0.000000000E+00  4.488585960E+01  4.488585960E+01  0.000000000E+00  0.00000E+00  9.000E+00
      21    -1     0     0   502   512  0.000000000E+00  0.000000000E+00 -2.085520655E+02  2.085520655E+02  0.000000000E+00  0.00000E+00  9.000E+00
      25     1     1     2     0     0 -1.736677933E+01  7.265610933E-01 -1.723814473E+02  2.136402419E+02  1.249986267E+02  0.00000E+00  9.000E+00
       5     1     1     2   501     0  1.564163570E+00  7.954213659E-01  1.533734131E+01  1.615165135E+01  4.750000000E+00  0.00000E+00  9.000E+00
      -5     1     1     2     0   503  1.484251158E+01  2.189248189E+00  2.926361612E-01  1.573979332E+01  4.750000000E+00  0.00000E+00  9.000E+00
      21     1     1     2   503   512  9.601041790E-01 -3.711230648E+00 -6.914736030E+00  7.906238507E+00  8.429369702E-08  0.00000E+00  9.000E+00
#rwgt            1           9   9.0369464489925468E-004           1     1745198           0
</event>
<event>
      6   9999  3.45752E-01  1.07619E+01 -1.00000E+00  1.83896E-01
      -1    -1     0     0     0   502  0.000000000E+00  0.000000000E+00  6.620752487E+02  6.620752487E+02  0.000000000E+00  0.00000E+00  9.000E+00
      21    -1     0     0   502   503  0.000000000E+00  0.000000000E+00 -1.166607463E+03  1.166607463E+03  0.000000000E+00  0.00000E+00  9.000E+00
      25     1     1     2     0     0  3.290419178E+01  3.038161902E+01 -3.184762032E+02  3.450466109E+02  1.249973723E+02  0.00000E+00  9.000E+00
       5     1     1     2   501     0 -6.160386101E+00  5.798484444E+00  1.847440487E+01  2.086717312E+01  4.750000000E+00  0.00000E+00  9.000E+00
      -5     1     1     2     0   503 -2.947973111E+01 -2.577177834E+01 -8.331370245E+02  8.340702028E+02  4.750000000E+00  0.00000E+00  9.000E+00
      -1     1     1     2     0   501  2.735925428E+00 -1.040832512E+01  6.286066084E+02  6.286987249E+02  1.078959322E-05  0.00000E+00  9.000E+00
#rwgt            1           9   6.3648905457038067E-005           1     1750223           0
</event>
<event>
      6   9999  3.45752E-01  7.99436E+01 -1.00000E+00  1.24716E-01
       2    -1     0     0   501     0  0.000000000E+00  0.000000000E+00  7.635225981E+02  7.635225981E+02  0.000000000E+00  0.00000E+00  9.000E+00
      21    -1     0     0   511   502  0.000000000E+00  0.000000000E+00 -8.549196471E+01  8.549196471E+01  0.000000000E+00  0.00000E+00  9.000E+00
      25     1     1     2     0     0 -4.880404523E+01 -1.336559741E+02  4.227798540E+02  4.632629729E+02  1.249960914E+02  0.00000E+00  9.000E+00
       5     1     1     2   501     0 -1.699535842E+01  6.683393597E+01  2.248236576E+02  2.352102394E+02  4.750000000E+00  0.00000E+00  9.000E+00
      -5     1     1     2     0   502 -3.342092057E+00  2.669182141E+01  5.950363257E+01  6.547417582E+01  4.750000000E+00  0.00000E+00  9.000E+00
       2     1     1     2   511     0  6.914149571E+01  4.013021675E+01 -2.907651080E+01  8.506717466E+01  1.936921693E-06  0.00000E+00  9.000E+00
#rwgt            1           4   59.606949670750510                1     1753530           0
</event>
<event>
      6   9999  3.45752E-01  5.48228E+00 -1.00000E+00  2.19666E-01
      21    -1     0     0   512   502  0.000000000E+00  0.000000000E+00  3.363486570E+03  3.363486570E+03  0.000000000E+00  0.00000E+00  9.000E+00
      21    -1     0     0   502   503  0.000000000E+00  0.000000000E+00 -1.817641569E+00  1.817641569E+00  0.000000000E+00  0.00000E+00  9.000E+00
      25     1     1     2     0     0 -3.276785092E+00 -1.692672074E+01  2.372814001E+03  2.376166933E+03  1.250030400E+02  0.00000E+00  9.000E+00
       5     1     1     2   501     0 -3.104962100E+00  6.546504350E+00  4.944783799E+02  4.945542722E+02  4.750000000E+00  0.00000E+00  9.000E+00
      -5     1     1     2     0   503  4.054895499E+00  5.416234301E+00  3.595891197E+02  3.596841327E+02  4.750000000E+00  0.00000E+00  9.000E+00
      21     1     1     2   512   501  2.326851692E+00  4.963982086E+00  1.347874280E+02  1.348988736E+02  1.907348633E-06  0.00000E+00  9.000E+00
#rwgt            1           9   17.815472931941429                1     1753733           0
</event>
<event>
      6   9999  3.45752E-01  3.76008E+00 -1.00000E+00  2.53544E-01
      21    -1     0     0   501   511  0.000000000E+00  0.000000000E+00  9.526905203E+01  9.526905203E+01  0.000000000E+00  0.00000E+00  9.000E+00
      21    -1     0     0   502   503  0.000000000E+00  0.000000000E+00 -1.300472021E+02  1.300472021E+02  0.000000000E+00  0.00000E+00  9.000E+00
      25     1     1     2     0     0 -2.104715383E+01 -3.403448194E+01 -3.772413805E+01  1.365658077E+02  1.250031224E+02  0.00000E+00  9.000E+00
       5     1     1     2   501     0 -1.894767860E-01 -8.642191765E-02  2.506139556E+01  2.550841857E+01  4.750000000E+00  0.00000E+00  9.000E+00
      -5     1     1     2     0   503  1.747698628E+01  3.417787171E+01 -3.355135913E+01  5.120379052E+01  4.750000000E+00  0.00000E+00  9.000E+00
      21     1     1     2   502   511  3.759644335E+00 -5.696785254E-02  1.143595153E+01  1.203823734E+01  0.000000000E+00  0.00000E+00  9.000E+00
#rwgt            1           9   5.9022615111151830E-003           1     1756856           0
</event>
<event>
      6   9999 -3.45752E-01  4.06532E+00 -1.00000E+00  2.46403E-01
      21    -1     0     0   512   502  0.000000000E+00  0.000000000E+00  2.305188150E+01  2.305188150E+01  0.000000000E+00  0.00000E+00  9.000E+00
      21    -1     0     0   502   503  0.000000000E+00  0.000000000E+00 -1.636798766E+03  1.636798766E+03  0.000000000E+00  0.00000E+00  9.000E+00
      25     1     1     2     0     0 -2.251071360E+01  4.450768810E+01 -1.514639253E+03  1.520606836E+03  1.250016580E+02  0.00000E+00  9.000E+00
       5     1     1     2   501     0 -3.028836970E+00  5.073746999E+00  1.235747568E+01  1.449780904E+01  4.750000000E+00  0.00000E+00  9.000E+00
      -5     1     1     2     0   503  2.401848022E+01 -4.581139731E+01 -1.035555423E+02  1.158528564E+02  4.750000000E+00  0.00000E+00  9.000E+00
      21     1     1     2   512   501  1.521070344E+00 -3.770037794E+00 -7.909564856E+00  8.893146584E+00  8.429369702E-08  0.00000E+00  9.000E+00
#rwgt            1           9  -1.3791746143721750E-004           1     1762220           0
</event>
<event>
      6   9999  3.45752E-01  2.92563E+01 -1.00000E+00  1.48547E-01
      21    -1     0     0   501   511  0.000000000E+00  0.000000000E+00  3.787576445E+01  3.787576445E+01  0.000000000E+00  0.00000E+00  9.000E+00
      21    -1     0     0   502   503  0.000000000E+00  0.000000000E+00 -1.143361172E+03  1.143361172E+03  0.000000000E+00  0.00000E+00  9.000E+00
      25     1     1     2     0     0  7.146657398E+00 -1.395657729E+01 -4.790841251E+02  4.953709494E+02  1.249996713E+02  0.00000E+00  9.000E+00
       5     1     1     2   501     0 -3.302302386E+01  2.389599754E+01  1.194347864E+00  4.105517957E+01  4.750000000E+00  0.00000E+00  9.000E+00
      -5     1     1     2     0   503 -1.217556694E+00  1.099217239E+00 -6.113032150E+02  6.113238698E+02  4.750000000E+00  0.00000E+00  9.000E+00
      21     1     1     2   502   511  2.709392315E+01 -1.103863749E+01 -1.629241526E+01  3.348693752E+01  1.011524364E-06  0.00000E+00  9.000E+00
#rwgt            1           9   40.702127897378723                1     1767978           0
</event>
<event>
      6   9999 -3.45752E-01  1.46087E+01 -1.00000E+00  1.71372E-01
      21    -1     0     0   501   502  0.000000000E+00  0.000000000E+00  4.846384605E+01  4.846384605E+01  0.000000000E+00  0.00000E+00  9.000E+00
       2    -1     0     0   502     0  0.000000000E+00  0.000000000E+00 -1.882666058E+03  1.882666058E+03  0.000000000E+00  0.00000E+00  9.000E+00
      25     1     1     2     0     0  4.180117275E+00 -1.583888564E+01 -1.201072901E+03  1.207670313E+03  1.249925057E+02  0.00000E+00  9.000E+00
       5     1     1     2   501     0  3.681136428E+00  3.353787721E+01  3.747492295E+01  5.064851749E+01  4.750000000E+00  0.00000E+00  9.000E+00
      -5     1     1     2     0   503  6.690724304E+00 -1.898453151E+01 -1.049603789E+02  1.069786048E+02  4.750000000E+00  0.00000E+00  9.000E+00
       2     1     1     2   503     0 -1.455197801E+01  1.285539938E+00 -5.656438552E+02  5.658324696E+02  0.000000000E+00  0.00000E+00  9.000E+00
#rwgt            1           9  -2.3422094481040209E-002           1     1769607           0
</event>
<event>
      6   9999 -3.45752E-01  7.61390E+00 -1.00000E+00  2.00593E-01
      21    -1     0     0   502   503  0.000000000E+00  0.000000000E+00  2.165867425E+01  2.165867425E+01  0.000000000E+00  0.00000E+00  9.000E+00
       2    -1     0     0   501     0  0.000000000E+00  0.000000000E+00 -2.072560434E+03  2.072560434E+03  0.000000000E+00  0.00000E+00  9.000E+00
      25     1     1     2     0     0 -1.601938854E+01 -1.098316056E+01 -3.345250698E+02  3.576443006E+02  1.250006913E+02  0.00000E+00  9.000E+00
       5     1     1     2   501     0 -2.300935362E+01 -3.155236601E+01 -5.716250435E+02  5.729770807E+02  4.750000000E+00  0.00000E+00  9.000E+00
      -5     1     1     2     0   503  3.485975775E+01  4.890663546E+01 -8.702741447E+01  1.058460914E+02  4.750000000E+00  0.00000E+00  9.000E+00
       2     1     1     2   502     0  4.168984417E+00 -6.371108885E+00 -1.057724232E+03  1.057751636E+03  0.000000000E+00  0.00000E+00  9.000E+00
#rwgt            1           9 -0.23010821151534280                1     1772444           0
</event>
<event>
      6   9999  3.45752E-01  1.20542E+02 -1.00000E+00  1.17085E-01
      21    -1     0     0   511   503  0.000000000E+00  0.000000000E+00  1.273374398E+03  1.273374398E+03  0.000000000E+00  0.00000E+00  9.000E+00
      21    -1     0     0   501   502  0.000000000E+00  0.000000000E+00 -1.418570680E+02  1.418570680E+02  0.000000000E+00  0.00000E+00  9.000E+00
      25     1     1     2     0     0  1.396995720E+02 -8.795017404E+01  2.789303981E+02  3.473887371E+02  1.250022564E+02  0.00000E+00  9.000E+00
       5     1     1     2   501     0  1.494360028E+01 -6.324986704E+01 -6.230383748E+01  9.015646142E+01  4.750000000E+00  0.00000E+00  9.000E+00
      -5     1     1     2     0   503 -5.400180024E+01  2.175445039E+02  5.940195723E+02  6.349201685E+02  4.750000000E+00  0.00000E+00  9.000E+00
      21     1     1     2   511   502 -1.006413721E+02 -6.634446278E+01  3.208711967E+02  3.427660987E+02  0.000000000E+00  0.00000E+00  9.000E+00
#rwgt            1           9   925.31675623144224                1     1776294           0
</event>
<event>
      6   9999  3.45752E-01  2.18488E+01 -1.00000E+00  1.57334E-01
      21    -1     0     0   501   502  0.000000000E+00  0.000000000E+00  1.594739432E+01  1.594739432E+01  0.000000000E+00  0.00000E+00  9.000E+00
      21    -1     0     0   512   503  0.000000000E+00  0.000000000E+00 -1.053906656E+03  1.053906656E+03  0.000000000E+00  0.00000E+00  9.000E+00
      25     1     1     2     0     0 -2.610060482E+01  3.647427291E+01 -6.162062615E+02  6.303460532E+02  1.249574961E+02  0.00000E+00  9.000E+00
       5     1     1     2   501     0  2.959574465E+00  6.730731397E+00  4.046223945E+00  9.643456557E+00  4.750000000E+00  0.00000E+00  9.000E+00
      -5     1     1     2     0   503  2.896727210E+01 -2.214738881E+01 -2.435478355E+02  2.463081817E+02  4.750000000E+00  0.00000E+00  9.000E+00
      21     1     1     2   512   502 -5.826241745E+00 -2.105761550E+01 -1.822513886E+02  1.835563589E+02  3.814697266E-06  0.00000E+00  9.000E+00
#rwgt            1           9   5.0187751181774371E-003           1     1777013           0
</event>
<event>
      6   9999  3.45752E-01  1.67921E+01 -1.00000E+00  1.66230E-01
      21    -1     0     0   501   502  0.000000000E+00  0.000000000E+00  2.942365282E+02  2.942365282E+02  0.000000000E+00  0.00000E+00  9.000E+00
      21    -1     0     0   511   503  0.000000000E+00  0.000000000E+00 -1.344735747E+02  1.344735747E+02  0.000000000E+00  0.00000E+00  9.000E+00
      25     1     1     2     0     0  1.700072263E+01  4.903883133E+01 -4.412479315E+01  1.423592020E+02  1.250012539E+02  0.00000E+00  9.000E+00
       5     1     1     2   501     0  3.303072751E-01  9.269301928E-01  2.202369908E+02  2.202904059E+02  4.750000000E+00  0.00000E+00  9.000E+00
      -5     1     1     2     0   503 -1.240375266E+00 -4.516327212E+01 -4.804394621E+00  4.568264865E+01  4.750000000E+00  0.00000E+00  9.000E+00
      21     1     1     2   511   502 -1.609065464E+01 -4.802489395E+00 -1.154484955E+01  2.037784636E+01  3.769728732E-07  0.00000E+00  9.000E+00
#rwgt            1           9   1.8122879958934409E-003           1     1778732           0
</event>
<event>
      6   9999  3.45752E-01  7.73842E+00 -1.00000E+00  1.99740E-01
      21    -1     0     0   501   502  0.000000000E+00  0.000000000E+00  1.321347020E+01  1.321347020E+01  0.000000000E+00  0.00000E+00  9.000E+00
      21    -1     0     0   512   503  0.000000000E+00  0.000000000E+00 -1.092662613E+03  1.092662613E+03  0.000000000E+00  0.00000E+00  9.000E+00
      25     1     1     2     0     0 -1.965839366E+01 -1.013995364E+00 -8.241228199E+02  8.337800091E+02  1.249928023E+02  0.00000E+00  9.000E+00
       5     1     1     2   501     0  3.265961308E-02  2.588260140E-01 -5.825222793E-01  4.792691286E+00  4.750000000E+00  0.00000E+00  9.000E+00
      -5     1     1     2     0   503  2.552656433E+01  5.761506505E+00 -2.223651435E+01  3.466735517E+01  4.750000000E+00  0.00000E+00  9.000E+00
      21     1     1     2   512   502 -5.900830279E+00 -5.006337156E+00 -2.325072863E+02  2.326360278E+02  2.697398305E-06  0.00000E+00  9.000E+00
#rwgt            1           9   3.8476280800422074E-004           1     1780985           0
</event>
<event>
      6   9999  3.45752E-01  2.36671E+00 -1.00000E+00  3.06947E-01
      21    -1     0     0   501   511  0.000000000E+00  0.000000000E+00  4.661239128E+02  4.661239128E+02  0.000000000E+00  0.00000E+00  9.000E+00
      21    -1     0     0   502   503  0.000000000E+00  0.000000000E+00 -1.026088091E+03  1.026088091E+03  0.000000000E+00  0.00000E+00  9.000E+00
      25     1     1     2     0     0 -3.542881004E+01 -9.691117670E+01 -3.845976077E+02  4.173570541E+02  1.249984558E+02  0.00000E+00  9.000E+00
       5     1     1     2   501     0  7.385350392E-01  1.226428376E+00  2.503665563E+00  5.557013750E+00  4.750000000E+00  0.00000E+00  9.000E+00
      -5     1     1     2     0   503  3.386793146E+01  9.790399738E+01 -6.192692065E+02  6.278926199E+02  4.750000000E+00  0.00000E+00  9.000E+00
      21     1     1     2   502   511  8.223435429E-01 -2.219249066E+00  4.413989708E+02  4.414053157E+02  7.629394531E-06  0.00000E+00  9.000E+00
#rwgt            1           9   7.7647186438261186E-004           1     1783975           0
</event>
<event>
      6   9999  3.45752E-01  4.07317E+00 -1.00000E+00  2.46232E-01
      21    -1     0     0   501   502  0.000000000E+00  0.000000000E+00  2.281483751E+02  2.281483751E+02  0.000000000E+00  0.00000E+00  9.000E+00
      21    -1     0     0   502   512  0.000000000E+00  0.000000000E+00 -7.471558615E+01  7.471558615E+01  0.000000000E+00  0.00000E+00  9.000E+00
      25     1     1     2     0     0  9.758123165E+00  5.408843897E+01  2.460287167E+01  1.387496839E+02  1.250015732E+02  0.00000E+00  9.000E+00
       5     1     1     2   501     0 -2.930457109E+00  5.323452422E-01  1.029000093E+02  1.030526340E+02  4.750000000E+00  0.00000E+00  9.000E+00
      -5     1     1     2     0   503 -6.227832654E+00 -5.059202319E+01  2.438089845E+01  5.670387482E+01  4.750000000E+00  0.00000E+00  9.000E+00
      21     1     1     2   503   512 -5.998334013E-01 -4.028761017E+00  1.549009550E+00  4.357768468E+00  3.650024150E-08  0.00000E+00  9.000E+00
#rwgt            1           9   4.4427326813548313E-004           1     1792663           0
</event>
<event>
      6   9999 -3.45752E-01  1.87690E+01 -1.00000E+00  1.62345E-01
      21    -1     0     0   501   502  0.000000000E+00  0.000000000E+00  1.560198045E+01  1.560198045E+01  0.000000000E+00  0.00000E+00  9.000E+00
      21    -1     0     0   502   511  0.000000000E+00  0.000000000E+00 -8.752870248E+02  8.752870248E+02  0.000000000E+00  0.00000E+00  9.000E+00
      25     1     1     2     0     0  1.724811110E+01  2.070246189E+01 -7.711382621E+02  7.816688122E+02  1.250032938E+02  0.00000E+00  9.000E+00
       5     1     1     2   501     0  4.655926488E+00  8.861026462E-01  5.710438614E+00  8.811040718E+00  4.750000000E+00  0.00000E+00  9.000E+00
      -5     1     1     2     0   503 -8.545052882E+00 -8.404752159E+00 -1.983646734E+01  2.365810060E+01  4.750000000E+00  0.00000E+00  9.000E+00
      21     1     1     2   503   511 -1.335898470E+01 -1.318381238E+01 -7.442075352E+01  7.675105169E+01  9.536743164E-07  0.00000E+00  9.000E+00
#rwgt            1           9  -5.0438341874425559E-004           1     1798079           0
</event>
<event>
      6   9999  3.45752E-01  1.46779E+01 -1.00000E+00  1.71192E-01
      21    -1     0     0   501   512  0.000000000E+00  0.000000000E+00  6.119059634E+01  6.119059634E+01  0.000000000E+00  0.00000E+00  9.000E+00
      21    -1     0     0   502   503  0.000000000E+00  0.000000000E+00 -1.023996996E+03  1.023996996E+03  0.000000000E+00  0.00000E+00  9.000E+00
      25     1     1     2     0     0  1.541833836E+01  2.925876991E+01 -7.038721464E+02  7.156494193E+02  1.249971682E+02  0.00000E+00  9.000E+00
       5     1     1     2   501     0 -2.103107173E+00  2.246088471E+00  2.124774649E+01  2.198856985E+01  4.750000000E+00  0.00000E+00  9.000E+00
      -5     1     1     2     0   503 -1.684031251E+00 -2.255180203E+01 -3.118187094E+02  3.126737753E+02  4.750000000E+00  0.00000E+00  9.000E+00
      21     1     1     2   502   512 -1.163119993E+01 -8.953056348E+00  3.163670923E+01  3.487582832E+01  1.907348633E-06  0.00000E+00  9.000E+00
#rwgt            1           9   5.0116604375292537E-004           1     1799769           0
</event>
<event>
      6   9999  3.45752E-01  2.16590E+01 -1.00000E+00  1.57613E-01
      21    -1     0     0   501   511  0.000000000E+00  0.000000000E+00  2.313415404E+02  2.313415404E+02  0.000000000E+00  0.00000E+00  9.000E+00
      21    -1     0     0   502   503  0.000000000E+00  0.000000000E+00 -2.304787810E+02  2.304787810E+02  0.000000000E+00  0.00000E+00  9.000E+00
      25     1     1     2     0     0  1.255556092E+02  4.445979068E+01 -2.336606465E+01  1.841556161E+02  1.250057357E+02  0.00000E+00  9.000E+00
       5     1     1     2   501     0  1.526953149E+00  6.749262586E+00  9.318933787E+01  9.356655024E+01  4.750000000E+00  0.00000E+00  9.000E+00
      -5     1     1     2     0   503 -1.083362548E+02 -4.036071518E+01 -9.536807473E+01  1.499445351E+02  4.750000000E+00  0.00000E+00  9.000E+00
      21     1     1     2   502   511 -1.874630755E+01 -1.084833809E+01  2.640756084E+01  3.415361995E+01  3.371747881E-07  0.00000E+00  9.000E+00
#rwgt            1           9   1.9140503885828695E-003           1     1802337           0
</event>
<event>
      6   9999  3.45752E-01  2.54049E+01 -1.00000E+00  1.52665E-01
      21    -1     0     0   512   502  0.000000000E+00  0.000000000E+00  8.790950028E+02  8.790950028E+02  0.000000000E+00  0.00000E+00  9.000E+00
      21    -1     0     0   502   503  0.000000000E+00  0.000000000E+00 -5.389468934E+01  5.389468934E+01  0.000000000E+00  0.00000E+00  9.000E+00
      25     1     1     2     0     0 -1.249046654E+02  4.173393379E+01  1.561504855E+02  2.394813656E+02  1.250018145E+02  0.00000E+00  9.000E+00
       5     1     1     2   501     0  4.461083888E+01 -6.629999214E+01  4.081480084E+02  4.159244826E+02  4.750000000E+00  0.00000E+00  9.000E+00
      -5     1     1     2     0   503  6.890745456E+01  1.855693173E+00  1.809824802E+02  1.937237764E+02  4.750000000E+00  0.00000E+00  9.000E+00
      21     1     1     2   512   501  1.138637200E+01  2.271036517E+01  7.991933924E+01  8.386006760E+01  9.536743164E-07  0.00000E+00  9.000E+00
#rwgt            1           9   4.3351572398181833E-004           1     1804283           0
</event>
<event>
      6   9999 -3.45752E-01  3.26829E+01 -1.00000E+00  1.45471E-01
      21    -1     0     0   511   502  0.000000000E+00  0.000000000E+00  1.361772475E+02  1.361772475E+02  0.000000000E+00  0.00000E+00  9.000E+00
      21    -1     0     0   502   503  0.000000000E+00  0.000000000E+00 -8.575255177E+02  8.575255177E+02  0.000000000E+00  0.00000E+00  9.000E+00
      25     1     1     2     0     0 -3.659877968E-01  4.337256963E+01 -6.113626273E+02  6.255157996E+02  1.249977594E+02  0.00000E+00  9.000E+00
       5     1     1     2   501     0  4.633239025E+00  1.237758194E+00 -1.238191443E+00  6.862548161E+00  4.750000000E+00  0.00000E+00  9.000E+00
      -5     1     1     2     0   503  2.808496651E+01 -3.997312677E+01 -2.302908626E+02  2.354635005E+02  4.750000000E+00  0.00000E+00  9.000E+00
      21     1     1     2   511   501 -3.235221774E+01 -4.637201052E+00  1.215434111E+02  1.258609169E+02  2.697398305E-06  0.00000E+00  9.000E+00
#rwgt            1           9  -3.6753889714581753E-004           1     1806394           0
</event>
<event>
      6   9999  3.45752E-01  2.98527E+01 -1.00000E+00  1.47976E-01
      21    -1     0     0   501   502  0.000000000E+00  0.000000000E+00  3.473871561E+01  3.473871561E+01  0.000000000E+00  0.00000E+00  9.000E+00
      21    -1     0     0   502   512  0.000000000E+00  0.000000000E+00 -3.149182074E+03  3.149182074E+03  0.000000000E+00  0.00000E+00  9.000E+00
      25     1     1     2     0     0  8.434851567E+01 -1.575826737E+02 -7.059623319E+02  7.388876231E+02  1.250005376E+02  0.00000E+00  9.000E+00
       5     1     1     2   501     0 -6.268285132E+01  1.897409189E+02 -5.552857575E+02  5.901657319E+02  4.750000000E+00  0.00000E+00  9.000E+00
      -5     1     1     2     0   503 -9.245839188E+00 -5.011785330E+00 -4.599184447E+01  4.741746295E+01  4.750000000E+00  0.00000E+00  9.000E+00
      21     1     1     2   503   512 -1.241982516E+01 -2.714645988E+01 -1.807203424E+03  1.807449971E+03  2.157918644E-05  0.00000E+00  9.000E+00
#rwgt            1           9   2.0925736606621738E-003           1     1807397           0
</event>
<event>
      6   9999  3.45752E-01  8.68616E+00 -1.00000E+00  1.93876E-01
      21    -1     0     0   501   502  0.000000000E+00  0.000000000E+00  6.575852428E+01  6.575852428E+01  0.000000000E+00  0.00000E+00  9.000E+00
      21    -1     0     0   511   503  0.000000000E+00  0.000000000E+00 -1.867226593E+03  1.867226593E+03  0.000000000E+00  0.00000E+00  9.000E+00
      25     1     1     2     0     0 -1.349331629E+02 -3.469080427E+01 -2.698370099E+02  3.284002720E+02  1.249972656E+02  0.00000E+00  9.000E+00
       5     1     1     2   501     0 -7.248562675E+00  4.169223989E+00  3.078386352E+01  3.225109057E+01  4.750000000E+00  0.00000E+00  9.000E+00
      -5     1     1     2     0   503  1.423055548E+02  3.920685833E+01 -1.103728127E+03  1.113564722E+03  4.750000000E+00  0.00000E+00  9.000E+00
      21     1     1     2   511   502 -1.238292842E-01 -8.685278051E+00 -4.586867952E+02  4.587690328E+02  0.000000000E+00  0.00000E+00  9.000E+00
#rwgt            1           9   3.1695656136894668E-004           1     1809164           0
</event>
<event>
      6   9999  3.45752E-01  1.09299E+01 -1.00000E+00  1.83216E-01
      21    -1     0     0   501   502  0.000000000E+00  0.000000000E+00  4.244029306E+01  4.244029306E+01  0.000000000E+00  0.00000E+00  9.000E+00
      21    -1     0     0   512   503  0.000000000E+00  0.000000000E+00 -1.172347227E+03  1.172347227E+03  0.000000000E+00  0.00000E+00  9.000E+00
      25     1     1     2     0     0  1.084058494E+02 -3.396880031E+01 -3.754764135E+02  4.117172259E+02  1.249913172E+02  0.00000E+00  9.000E+00
       5     1     1     2   501     0  4.143364165E+00  3.861466924E+00  1.603711141E+01  1.765870425E+01  4.750000000E+00  0.00000E+00  9.000E+00
      -5     1     1     2     0   503 -1.023218244E+02  3.396248288E+01 -3.863501468E+02  4.011386349E+02  4.750000000E+00  0.00000E+00  9.000E+00
      21     1     1     2   512   502 -1.022738917E+01 -3.855149502E+00 -3.841174846E+02  3.842729546E+02  7.629394531E-06  0.00000E+00  9.000E+00
#rwgt            1           9  0.24935877230431666                1     1814564           0
</event>
<event>
      6   9999 -3.45752E-01  2.67070E+01 -1.00000E+00  1.51180E-01
      21    -1     0     0   501   502  0.000000000E+00  0.000000000E+00  6.553443583E+01  6.553443583E+01  0.000000000E+00  0.00000E+00  9.000E+00
      21    -1     0     0   511   503  0.000000000E+00  0.000000000E+00 -7.512885571E+02  7.512885571E+02  0.000000000E+00  0.00000E+00  9.000E+00
      25     1     1     2     0     0 -7.817398625E+01  1.145158720E+02 -3.440900394E+02  3.914694794E+02  1.250013640E+02  0.00000E+00  9.000E+00
       5     1     1     2   501     0 -8.884688219E+00 -1.591521857E+00  2.663841062E+01  2.852434131E+01  4.750000000E+00  0.00000E+00  9.000E+00
      -5     1     1     2     0   503  6.194756498E+01 -1.038306007E+02 -2.984745564E+02  3.220681880E+02  4.750000000E+00  0.00000E+00  9.000E+00
      21     1     1     2   511   502  2.511110949E+01 -9.093749438E+00 -6.982793606E+01  7.476098417E+01  9.536743164E-07  0.00000E+00  9.000E+00
#rwgt            1           9  -4.2013332692658551E-003           1     1818386           0
</event>
<event>
      6   9999  3.45752E-01  3.59091E+01 -1.00000E+00  1.42958E-01
      21    -1     0     0   501   502  0.000000000E+00  0.000000000E+00  9.210757467E+01  9.210757467E+01  0.000000000E+00  0.00000E+00  9.000E+00
      21    -1     0     0   512   503  0.000000000E+00  0.000000000E+00 -2.129164725E+03  2.129164725E+03  0.000000000E+00  0.00000E+00  9.000E+00
      25     1     1     2     0     0  1.799147627E+02 -3.470209760E+01 -5.326052731E+02  5.769463371E+02  1.250005660E+02  0.00000E+00  9.000E+00
       5     1     1     2   501     0  3.994584637E+00 -1.016810472E+01  5.826126763E+01  5.946667021E+01  4.750000000E+00  0.00000E+00  9.000E+00
      -5     1     1     2     0   503 -2.097609385E+02  1.994716846E+01 -1.053131294E+03  1.074013792E+03  4.750000000E+00  0.00000E+00  9.000E+00
      21     1     1     2   512   502  2.585159120E+01  2.492303386E+01 -5.095818506E+02  5.108454999E+02  5.394796609E-06  0.00000E+00  9.000E+00
#rwgt            1           9   1.1444287547909699E-005           1     1820625           0
</event>
<event>
      6   9999 -3.45752E-01  3.54754E+01 -1.00000E+00  1.43278E-01
      21    -1     0     0   501   502  0.000000000E+00  0.000000000E+00  6.036159400E+01  6.036159400E+01  0.000000000E+00  0.00000E+00  9.000E+00
      21    -1     0     0   502   511  0.000000000E+00  0.000000000E+00 -3.089135635E+03  3.089135635E+03  0.000000000E+00  0.00000E+00  9.000E+00
      25     1     1     2     0     0 -1.639633157E+02 -7.828934797E+01 -2.061349952E+03  2.073113955E+03  1.249986167E+02  0.00000E+00  9.000E+00
       5     1     1     2   501     0  8.973822531E+00  2.983905302E+00  4.317804177E+01  4.445603415E+01  4.750000000E+00  0.00000E+00  9.000E+00
      -5     1     1     2     0   503  1.672653008E+02  4.202172001E+01 -8.678503015E+02  8.848334386E+02  4.750000000E+00  0.00000E+00  9.000E+00
      21     1     1     2   503   511 -1.227580761E+01  3.328372265E+01 -1.427518290E+02  1.470938012E+02  2.697398305E-06  0.00000E+00  9.000E+00
#rwgt            1           9  -8.1874035138635478E-004           1     1822937           0
</event>
<event>
      6   9999  3.45752E-01  6.69768E+00 -1.00000E+00  2.07613E-01
      21    -1     0     0   512   502  0.000000000E+00  0.000000000E+00  3.030251665E+01  3.030251665E+01  0.000000000E+00  0.00000E+00  9.000E+00
      21    -1     0     0   502   503  0.000000000E+00  0.000000000E+00 -1.213168734E+03  1.213168734E+03  0.000000000E+00  0.00000E+00  9.000E+00
      25     1     1     2     0     0  6.155544582E+00  2.349956582E+00 -1.095462645E+03  1.102591999E+03  1.250091784E+02  0.00000E+00  9.000E+00
       5     1     1     2   501     0 -2.975879918E+00 -5.533858455E+00  2.537308616E+01  2.656756391E+01  4.750000000E+00  0.00000E+00  9.000E+00
      -5     1     1     2     0   503  3.141141628E+00  5.398924386E+00 -9.486096847E+01  9.518498303E+01  4.750000000E+00  0.00000E+00  9.000E+00
      21     1     1     2   512   501 -6.320806293E+00 -2.215022513E+00 -1.791568947E+01  1.912670505E+01  3.371747881E-07  0.00000E+00  9.000E+00
#rwgt            1           9   6.0049043379242434E-003           1     1825310           0
</event>
<event>
      6   9999  3.45752E-01  3.69406E+01 -1.00000E+00  1.42220E-01
      21    -1     0     0   511   502  0.000000000E+00  0.000000000E+00  3.450497408E+02  3.450497408E+02  0.000000000E+00  0.00000E+00  9.000E+00
      21    -1     0     0   502   503  0.000000000E+00  0.000000000E+00 -4.340370077E+02  4.340370077E+02  0.000000000E+00  0.00000E+00  9.000E+00
      25     1     1     2     0     0  1.508999898E+02 -9.869935081E+01 -3.510216450E+02  4.139492115E+02  1.250015427E+02  0.00000E+00  9.000E+00
       5     1     1     2   501     0 -4.109742629E+00 -4.669316465E+00  1.377203252E+02  1.379425350E+02  4.750000000E+00  0.00000E+00  9.000E+00
      -5     1     1     2     0   503 -1.373789708E+02  6.764706184E+01  1.015222928E+02  1.837891319E+02  4.750000000E+00  0.00000E+00  9.000E+00
      21     1     1     2   511   501 -9.411276454E+00  3.572160544E+01  2.279176015E+01  4.340587000E+01  6.743495762E-07  0.00000E+00  9.000E+00
#rwgt            1           9   1.2853239803729356E-005           1     1829745           0
</event>
<event>
      6   9999  3.45752E-01  3.42480E+01 -1.00000E+00  1.44211E-01
      21    -1     0     0   501   502  0.000000000E+00  0.000000000E+00  4.230522305E+02  4.230522305E+02  0.000000000E+00  0.00000E+00  9.000E+00
      21    -1     0     0   512   503  0.000000000E+00  0.000000000E+00 -8.533902985E+01  8.533902985E+01  0.000000000E+00  0.00000E+00  9.000E+00
      25     1     1     2     0     0  7.297924452E+00  1.946129879E+01  2.579992156E+02  2.874382976E+02  1.250007113E+02  0.00000E+00  9.000E+00
       5     1     1     2   501     0  3.951278412E+00 -1.840165240E+00  1.235494870E+02  1.237175697E+02  4.750000000E+00  0.00000E+00  9.000E+00
      -5     1     1     2     0   503  2.261640889E+01 -2.272456213E+01  9.567893600E+00  3.379370892E+01  4.750000000E+00  0.00000E+00  9.000E+00
      21     1     1     2   512   502 -3.386561175E+01  5.103428577E+00 -5.340339550E+01  6.344168419E+01  1.507891493E-06  0.00000E+00  9.000E+00
#rwgt            1           9   3.6365350465843958E-003           1     1831836           0
</event>
<event>
      6   9999 -3.45752E-01  5.82344E+01 -1.00000E+00  1.31338E-01
      21    -1     0     0   501   502  0.000000000E+00  0.000000000E+00  4.199355514E+01  4.199355514E+01  0.000000000E+00  0.00000E+00  9.000E+00
      21    -1     0     0   511   503  0.000000000E+00  0.000000000E+00 -1.614983207E+03  1.614983207E+03  0.000000000E+00  0.00000E+00  9.000E+00
      25     1     1     2     0     0 -4.671778989E+01  8.442958772E+01 -1.007745421E+03  1.020043322E+03  1.250065579E+02  0.00000E+00  9.000E+00
       5     1     1     2   501     0 -1.999327792E+01  1.171419182E+01  2.510979958E+01  3.449663733E+01  4.750000000E+00  0.00000E+00  9.000E+00
      -5     1     1     2     0   503  2.623074861E+01 -5.427982863E+01 -2.556785481E+02  2.627326291E+02  4.750000000E+00  0.00000E+00  9.000E+00
      21     1     1     2   511   502  4.048031921E+01 -4.186395091E+01 -3.346754832E+02  3.397041737E+02  3.814697266E-06  0.00000E+00  9.000E+00
#rwgt            1           9  -1.5545875041928470E-003           1     1832835           0
</event>
<event>
      6   9999  3.45752E-01  2.30967E+01 -1.00000E+00  1.55580E-01
      21    -1     0     0   512   502  0.000000000E+00  0.000000000E+00  8.375444354E+02  8.375444354E+02  0.000000000E+00  0.00000E+00  9.000E+00
      21    -1     0     0   502   503  0.000000000E+00  0.000000000E+00 -4.403685433E+01  4.403685433E+01  0.000000000E+00  0.00000E+00  9.000E+00
      25     1     1     2     0     0 -5.570769916E+01 -6.368486763E+01  1.143751477E+02  1.893854323E+02  1.250042296E+02  0.00000E+00  9.000E+00
       5     1     1     2   501     0  5.656096710E+01 -1.548953868E+00  4.401984291E+02  4.438454255E+02  4.750000000E+00  0.00000E+00  9.000E+00
      -5     1     1     2     0   503  5.157803036E+00  4.293304035E+01  1.764786166E+02  1.817611441E+02  4.750000000E+00  0.00000E+00  9.000E+00
      21     1     1     2   512   501 -6.011070970E+00  2.230078114E+01  6.245538768E+01  6.658928791E+01  0.000000000E+00  0.00000E+00  9.000E+00
#rwgt            1           9  0.10778718222302572                1     1833979           0
</event>
<event>
      6   9999  3.45752E-01  1.36441E+02 -1.00000E+00  1.14967E-01
      21    -1     0     0   511   502  0.000000000E+00  0.000000000E+00  4.134924801E+01  4.134924801E+01  0.000000000E+00  0.00000E+00  9.000E+00
       1    -1     0     0   501     0  0.000000000E+00  0.000000000E+00 -1.918657541E+03  1.918657541E+03  0.000000000E+00  0.00000E+00  9.000E+00
      25     1     1     2     0     0  1.540682653E+02  1.030069627E+02 -4.643404854E+02  5.153480066E+02  1.249960671E+02  0.00000E+00  9.000E+00
       5     1     1     2   501     0 -6.790661615E+00 -8.573225487E+00  7.260315258E-02  1.192396963E+01  4.750000000E+00  0.00000E+00  9.000E+00
      -5     1     1     2     0   502 -1.083658764E+01 -9.473653129E+01 -7.284850729E+02  7.347145744E+02  4.750000000E+00  0.00000E+00  9.000E+00
       1     1     1     2   511     0 -1.364410160E+02  3.027940855E-01 -6.845553375E+02  6.980202380E+02  1.321449896E-05  0.00000E+00  9.000E+00
#rwgt            1           1   9.2720258464246367E-003           1     1835917           0
</event>
<event>
      6   9999  3.45752E-01  1.90844E+01 -1.00000E+00  1.61780E-01
      21    -1     0     0   501   512  0.000000000E+00  0.000000000E+00  7.533625821E+02  7.533625821E+02  0.000000000E+00  0.00000E+00  9.000E+00
      21    -1     0     0   502   503  0.000000000E+00  0.000000000E+00 -1.133914636E+03  1.133914636E+03  0.000000000E+00  0.00000E+00  9.000E+00
      25     1     1     2     0     0 -1.645730903E+01  5.829982608E+01 -6.716649169E+02  6.858782610E+02  1.250020622E+02  0.00000E+00  9.000E+00
       5     1     1     2   501     0  1.267032789E+01 -2.641873644E+00  2.706603839E+01  3.037514838E+01  4.750000000E+00  0.00000E+00  9.000E+00
      -5     1     1     2     0   503  2.274609434E+01 -5.347514001E+01 -4.514866327E+02  4.552358920E+02  4.750000000E+00  0.00000E+00  9.000E+00
      21     1     1     2   502   512 -1.895911320E+01 -2.182812422E+00  7.155334575E+02  7.157879165E+02  0.000000000E+00  0.00000E+00  9.000E+00
#rwgt            1           9   1.6735062753653992E-002           1     1836064           0
</event>
<event>
      6   9999  3.45752E-01  2.25002E+01 -1.00000E+00  1.56401E-01
      21    -1     0     0   501   502  0.000000000E+00  0.000000000E+00  2.258694426E+02  2.258694426E+02  0.000000000E+00  0.00000E+00  9.000E+00
      21    -1     0     0   502   511  0.000000000E+00  0.000000000E+00 -3.010386390E+02  3.010386390E+02  0.000000000E+00  0.00000E+00  9.000E+00
      25     1     1     2     0     0 -6.683729677E+01  7.412727215E+01 -4.331081975E+01  1.657223704E+02  1.250040009E+02  0.00000E+00  9.000E+00
       5     1     1     2   501     0 -9.611233751E+00 -1.457155563E+00  1.502350861E+02  1.506241771E+02  4.750000000E+00  0.00000E+00  9.000E+00
      -5     1     1     2     0   503  6.134993579E+01 -5.598807965E+01 -1.454720753E+02  1.675803296E+02  4.750000000E+00  0.00000E+00  9.000E+00
      21     1     1     2   503   511  1.509859474E+01 -1.668203694E+01 -3.662138747E+01  4.298120449E+01  0.000000000E+00  0.00000E+00  9.000E+00
#rwgt            1           9   2.1623753888537836E-003           1     1838369           0
</event>
<event>
      6   9999 -3.45752E-01  1.08156E+02 -1.00000E+00  1.19006E-01
      21    -1     0     0   512   502  0.000000000E+00  0.000000000E+00  2.063942688E+01  2.063942688E+01  0.000000000E+00  0.00000E+00  9.000E+00
       2    -1     0     0   501     0  0.000000000E+00  0.000000000E+00 -2.204799549E+03  2.204799549E+03  0.000000000E+00  0.00000E+00  9.000E+00
      25     1     1     2     0     0  2.235540775E+01 -1.004578107E+02 -8.394284613E+02  8.549010499E+02  1.249965094E+02  0.00000E+00  9.000E+00
       5     1     1     2   501     0  7.205027118E+00 -4.940644324E+00 -6.138668968E+00  1.168623715E+01  4.750000000E+00  0.00000E+00  9.000E+00
      -5     1     1     2     0   502  5.963703032E+01  4.423032952E+01 -1.738940779E+02  1.891417730E+02  4.750000000E+00  0.00000E+00  9.000E+00
       2     1     1     2   512     0 -8.919746520E+01  6.116812549E+01 -1.164698914E+03  1.169709916E+03  1.525878906E-05  0.00000E+00  9.000E+00
#rwgt            1           3  -2.8278195995527185E-006           1     1840550           0
</event>
<event>
      6   9999  3.45752E-01  2.90706E+00 -1.00000E+00  2.80536E-01
      21    -1     0     0   501   502  0.000000000E+00  0.000000000E+00  2.848640586E+01  2.848640586E+01  0.000000000E+00  0.00000E+00  9.000E+00
      21    -1     0     0   511   503  0.000000000E+00  0.000000000E+00 -1.075332851E+03  1.075332851E+03  0.000000000E+00  0.00000E+00  9.000E+00
      25     1     1     2     0     0 -1.010075301E+01 -1.930235924E+00 -9.403961707E+02  9.487230578E+02  1.249989266E+02  0.00000E+00  9.000E+00
       5     1     1     2   501     0  3.251398974E+00 -3.062430315E+00  2.367498875E+01  2.455641804E+01  4.750000000E+00  0.00000E+00  9.000E+00
      -5     1     1     2     0   503  5.111585883E+00  2.662179882E+00 -8.999802236E+01  9.030737534E+01  4.750000000E+00  0.00000E+00  9.000E+00
      21     1     1     2   511   502  1.737768156E+00  2.330486357E+00 -4.012724119E+01  4.023240597E+01  0.000000000E+00  0.00000E+00  9.000E+00
#rwgt            1           9   4.0883432642437300E-004           1     1841056           0
</event>
<event>
      6   9999  3.45752E-01  6.09966E+00 -1.00000E+00  2.13066E-01
      21    -1     0     0   501   502  0.000000000E+00  0.000000000E+00  1.916236631E+02  1.916236631E+02  0.000000000E+00  0.00000E+00  9.000E+00
      21    -1     0     0   512   503  0.000000000E+00  0.000000000E+00 -4.377441774E+02  4.377441774E+02  0.000000000E+00  0.00000E+00  9.000E+00
      25     1     1     2     0     0 -8.690126699E+01 -1.304808980E+02 -3.549775808E+02  4.076906540E+02  1.250019662E+02  0.00000E+00  9.000E+00
       5     1     1     2   501     0 -4.691148983E-01  2.543307016E+00  4.017639358E+01  4.053879106E+01  4.750000000E+00  0.00000E+00  9.000E+00
      -5     1     1     2     0   503  8.567092853E+01  1.220794556E+02  7.923469202E+01  1.689485140E+02  4.750000000E+00  0.00000E+00  9.000E+00
      21     1     1     2   512   502  1.699453360E+00  5.858135386E+00 -1.055401900E+01  1.218988142E+01  0.000000000E+00  0.00000E+00  9.000E+00
#rwgt            1           9   1.4943324237759606E-003           1     1849247           0
</event>
<event>
      6   9999  3.45752E-01  8.65066E+00 -1.00000E+00  1.94078E-01
      21    -1     0     0   501   502  0.000000000E+00  0.000000000E+00  9.262931094E+00  9.262931094E+00  0.000000000E+00  0.00000E+00  9.000E+00
      21    -1     0     0   502   511  0.000000000E+00  0.000000000E+00 -1.024187418E+03  1.024187418E+03  0.000000000E+00  0.00000E+00  9.000E+00
      25     1     1     2     0     0 -2.786578911E+00 -3.984853953E+00 -7.782453245E+02  7.882351375E+02  1.250008112E+02  0.00000E+00  9.000E+00
       5     1     1     2   501     0 -5.574009187E-01 -3.092963572E+00  1.817747482E+00  5.978613999E+00  4.750000000E+00  0.00000E+00  9.000E+00
      -5     1     1     2     0   503 -2.592938464E+00  7.860025773E-01 -2.625360278E+01  2.681707085E+01  4.750000000E+00  0.00000E+00  9.000E+00
      21     1     1     2   503   511  5.936918293E+00  6.291814948E+00 -2.122433069E+02  2.124195265E+02  2.697398305E-06  0.00000E+00  9.000E+00
#rwgt            1           9   4.7606999935857341E-004           1     1854458           0
</event>
<event>
      6   9999  3.45752E-01  1.15706E+01 -1.00000E+00  1.80758E-01
      21    -1     0     0   501   512  0.000000000E+00  0.000000000E+00  2.090325107E+02  2.090325107E+02  0.000000000E+00  0.00000E+00  9.000E+00
      21    -1     0     0   502   503  0.000000000E+00  0.000000000E+00 -1.036467910E+02  1.036467910E+02  0.000000000E+00  0.00000E+00  9.000E+00
      25     1     1     2     0     0  1.217759072E+01 -5.843440373E+00 -6.051734460E+01  1.395366410E+02  1.250027426E+02  0.00000E+00  9.000E+00
       5     1     1     2   501     0  2.464364642E+00 -5.948543232E-01  3.044377575E+01  3.091622432E+01  4.750000000E+00  0.00000E+00  9.000E+00
      -5     1     1     2     0   503 -4.549640413E+00  1.209730159E+01  1.211507331E+01  1.834070432E+01  4.750000000E+00  0.00000E+00  9.000E+00
      21     1     1     2   502   512 -1.009231495E+01 -5.659006896E+00  1.233442153E+02  1.238857321E+02  1.348699152E-06  0.00000E+00  9.000E+00
#rwgt            1           9   2.7990836920061742E-006           1     1857617           0
</event>
<event>
      6   9999  3.45752E-01  5.05496E+00 -1.00000E+00  2.24980E-01
      21    -1     0     0   501   511  0.000000000E+00  0.000000000E+00  1.642373899E+01  1.642373899E+01  0.000000000E+00  0.00000E+00  9.000E+00
      21    -1     0     0   502   503  0.000000000E+00  0.000000000E+00 -9.082643449E+02  9.082643449E+02  0.000000000E+00  0.00000E+00  9.000E+00
      25     1     1     2     0     0  6.908651770E+00 -1.298596588E+00 -8.230357287E+02  8.325036547E+02  1.250004345E+02  0.00000E+00  9.000E+00
       5     1     1     2   501     0 -1.434508466E+00  4.614344501E+00  8.494730821E+00  1.086613737E+01  4.750000000E+00  0.00000E+00  9.000E+00
      -5     1     1     2     0   503 -2.839690666E+00  9.984492994E-01 -7.585195506E+01  7.606012313E+01  4.750000000E+00  0.00000E+00  9.000E+00
      21     1     1     2   502   511 -2.634452638E+00 -4.314197213E+00 -1.447652972E+00  5.258168638E+00  1.712013080E-07  0.00000E+00  9.000E+00
#rwgt            1           9   1.6703254385088823E-003           1     1859695           0
</event>
<event>
      6   9999  3.45752E-01  3.64699E+00 -1.00000E+00  2.56459E-01
      21    -1     0     0   501   512  0.000000000E+00  0.000000000E+00  4.162083858E+01  4.162083858E+01  0.000000000E+00  0.00000E+00  9.000E+00
      21    -1     0     0   502   503  0.000000000E+00  0.000000000E+00 -7.073115692E+02  7.073115692E+02  0.000000000E+00  0.00000E+00  9.000E+00
      25     1     1     2     0     0 -3.198376658E+00 -6.121450261E-01 -6.225689517E+02  6.349985570E+02  1.249818529E+02  0.00000E+00  9.000E+00
       5     1     1     2   501     0  5.713736569E+00 -1.442300969E+00  2.289614433E+01  2.411478681E+01  4.750000000E+00  0.00000E+00  9.000E+00
      -5     1     1     2     0   503 -2.993752628E+00 -1.561035157E+00 -7.752713009E+01  7.774585382E+01  4.750000000E+00  0.00000E+00  9.000E+00
      21     1     1     2   502   512  4.783927171E-01  3.615481152E+00  1.150920675E+01  1.207321016E+01  4.768371582E-07  0.00000E+00  9.000E+00
#rwgt            1           9   2.0914945580794249                1     1863864           0
</event>
<event>
      6   9999  3.45752E-01  2.29769E+01 -1.00000E+00  1.55743E-01
      21    -1     0     0   511   503  0.000000000E+00  0.000000000E+00  2.399140638E+02  2.399140638E+02  0.000000000E+00  0.00000E+00  9.000E+00
      21    -1     0     0   501   502  0.000000000E+00  0.000000000E+00 -8.591960766E+02  8.591960766E+02  0.000000000E+00  0.00000E+00  9.000E+00
      25     1     1     2     0     0 -1.554516005E+01  3.091789139E+01 -6.856894963E+02  6.978489699E+02  1.250021259E+02  0.00000E+00  9.000E+00
       5     1     1     2   501     0 -1.777268436E+01 -4.658417531E+01 -1.375396786E+02  1.463751324E+02  4.750000000E+00  0.00000E+00  9.000E+00
      -5     1     1     2     0   503  1.122488010E+01  9.354388973E+00 -2.251686150E+01  2.725938514E+01  4.750000000E+00  0.00000E+00  9.000E+00
      21     1     1     2   511   502  2.209296430E+01  6.311894951E+00  2.264640237E+02  2.276266529E+02  3.814697266E-06  0.00000E+00  9.000E+00
#rwgt            1           9  0.36644197420402569                1     1869917           0
</event>
<event>
      6   9999  3.45752E-01  4.23740E+00 -1.00000E+00  2.42779E-01
      21    -1     0     0   512   502  0.000000000E+00  0.000000000E+00  3.491385685E+00  3.491385685E+00  0.000000000E+00  0.00000E+00  9.000E+00
      21    -1     0     0   502   503  0.000000000E+00  0.000000000E+00 -2.503839961E+03  2.503839961E+03  0.000000000E+00  0.00000E+00  9.000E+00
      25     1     1     2     0     0  3.424211894E+00 -1.891242814E+01 -2.243271385E+03  2.246833294E+03  1.249957591E+02  0.00000E+00  9.000E+00
       5     1     1     2   501     0 -1.546870683E-01 -3.086124442E-01 -1.744771687E+01  1.808603034E+01  4.750000000E+00  0.00000E+00  9.000E+00
      -5     1     1     2     0   503 -7.453789522E+00  1.855206509E+01 -2.358208718E+02  2.367145626E+02  4.750000000E+00  0.00000E+00  9.000E+00
      21     1     1     2   512   501  4.184264697E+00  6.689754990E-01 -3.808601821E+00  5.697459706E+00  4.480271452E-07  0.00000E+00  9.000E+00
#rwgt            1           9   1.5437328098277803E-003           1     1871141           0
</event>
<event>
      6   9999  3.45752E-01  6.16460E+01 -1.00000E+00  1.30095E-01
      21    -1     0     0   511   502  0.000000000E+00  0.000000000E+00  3.567110619E+01  3.567110619E+01  0.000000000E+00  0.00000E+00  9.000E+00
      21    -1     0     0   502   503  0.000000000E+00  0.000000000E+00 -3.238499136E+03  3.238499136E+03  0.000000000E+00  0.00000E+00  9.000E+00
      25     1     1     2     0     0 -7.598926722E+01  1.117855410E+02 -2.693589260E+03  2.699874170E+03  1.250082294E+02  0.00000E+00  9.000E+00
       5     1     1     2   501     0  2.044002374E+01 -8.206766901E+01 -4.193700050E+02  4.278395265E+02  4.750000000E+00  0.00000E+00  9.000E+00
      -5     1     1     2     0   503  1.889508093E+00  6.278523979E-01 -8.441256821E+01  8.456954896E+01  4.750000000E+00  0.00000E+00  9.000E+00
      21     1     1     2   511   501  5.365973539E+01 -3.034572442E+01 -5.456196064E+00  6.188699595E+01  5.347503380E-06  0.00000E+00  9.000E+00
#rwgt            1           9   1.1857302710436273E-004           1     1875260           0
</event>
<event>
      6   9999 -3.45752E-01  6.22389E+00 -1.00000E+00  2.11865E-01
      -2    -1     0     0     0   503  0.000000000E+00  0.000000000E+00  2.533987730E+01  2.533987730E+01  0.000000000E+00  0.00000E+00  9.000E+00
      21    -1     0     0   501   502  0.000000000E+00  0.000000000E+00 -8.438977040E+02  8.438977040E+02  0.000000000E+00  0.00000E+00  9.000E+00
      25     1     1     2     0     0 -4.067582658E+01  4.910685846E+01 -5.429849294E+02  5.608237974E+02  1.249987670E+02  0.00000E+00  9.000E+00
       5     1     1     2   501     0 -1.052775287E+00 -1.287655681E+00 -1.614782741E+01  1.691393576E+01  4.750000000E+00  0.00000E+00  9.000E+00
      -5     1     1     2     0   503  4.039259395E+01 -4.174039491E+01 -2.716236132E+02  2.778052770E+02  4.750000000E+00  0.00000E+00  9.000E+00
      -2     1     1     2     0   502  1.336007924E+00 -6.078807869E+00  1.219854323E+01  1.369457116E+01  7.539457465E-07  0.00000E+00  9.000E+00
#rwgt            1           9  -3.2050143879551532E-002           1     1875879           0
</event>
<event>
      6   9999  3.45752E-01  1.08422E+01 -1.00000E+00  1.83569E-01
      21    -1     0     0   501   502  0.000000000E+00  0.000000000E+00  5.034937253E+01  5.034937253E+01  0.000000000E+00  0.00000E+00  9.000E+00
      21    -1     0     0   502   511  0.000000000E+00  0.000000000E+00 -1.419885645E+03  1.419885645E+03  0.000000000E+00  0.00000E+00  9.000E+00
      25     1     1     2     0     0  1.039710673E+02  2.044186290E+01 -2.160315235E+02  2.711462393E+02  1.249912450E+02  0.00000E+00  9.000E+00
       5     1     1     2   501     0  5.271579836E+00 -1.546712254E+00  1.949446760E+01  2.080333242E+01  4.750000000E+00  0.00000E+00  9.000E+00
      -5     1     1     2     0   503 -9.890193735E+01 -1.563585167E+01 -1.084986121E+03  1.089607048E+03  4.750000000E+00  0.00000E+00  9.000E+00
      21     1     1     2   503   511 -1.034070983E+01 -3.259298973E+00 -8.801309504E+01  8.867839764E+01  1.348699152E-06  0.00000E+00  9.000E+00
#rwgt            1           9   1.0718067221753339E-003           1     1879489           0
</event>
<event>
      6   9999  3.45752E-01  1.09642E+01 -1.00000E+00  1.83079E-01
      21    -1     0     0   501   502  0.000000000E+00  0.000000000E+00  7.384657777E+02  7.384657777E+02  0.000000000E+00  0.00000E+00  9.000E+00
      -1    -1     0     0     0   503  0.000000000E+00  0.000000000E+00 -1.120203830E+02  1.120203830E+02  0.000000000E+00  0.00000E+00  9.000E+00
      25     1     1     2     0     0  3.208818205E+01 -2.452182227E+01  6.968442785E+01  1.486998542E+02  1.249990239E+02  0.00000E+00  9.000E+00
       5     1     1     2   501     0 -2.430170083E-01  1.104943983E+01  6.162631692E+02  6.163805686E+02  4.750000000E+00  0.00000E+00  9.000E+00
      -5     1     1     2     0   503 -3.888062444E+01  2.188169375E+01 -3.010736953E+01  5.403265381E+01  4.750000000E+00  0.00000E+00  9.000E+00
      -1     1     1     2     0   502  7.035459396E+00 -8.409311306E+00 -2.939483286E+01  3.137308408E+01  4.768371582E-07  0.00000E+00  9.000E+00
#rwgt            1           9   3.7541830716404594E-002           1     1883490           0
</event>
<event>
      6   9999  3.45752E-01  6.50006E+00 -1.00000E+00  2.09327E-01
      21    -1     0     0   501   502  0.000000000E+00  0.000000000E+00  1.046029739E+02  1.046029739E+02  0.000000000E+00  0.00000E+00  9.000E+00
      21    -1     0     0   502   511  0.000000000E+00  0.000000000E+00 -1.633814535E+02  1.633814535E+02  0.000000000E+00  0.00000E+00  9.000E+00
      25     1     1     2     0     0 -1.173873220E+01 -8.162129458E+00 -1.108887725E+02  1.677057991E+02  1.249979880E+02  0.00000E+00  9.000E+00
       5     1     1     2   501     0  1.380973151E+00 -3.482606496E+00  6.854944096E+01  6.881587019E+01  4.750000000E+00  0.00000E+00  9.000E+00
      -5     1     1     2     0   503  7.098182102E+00  6.021038537E+00  3.076310491E+00  1.089326767E+01  4.750000000E+00  0.00000E+00  9.000E+00
      21     1     1     2   503   511  3.259576948E+00  5.623697417E+00 -1.951545849E+01  2.056949039E+01  2.384185791E-07  0.00000E+00  9.000E+00
#rwgt            1           9   1.3141835430517028E-004           1     1887618           0
</event>
<event>
      6   9999 -3.45752E-01  3.70060E+01 -1.00000E+00  1.42174E-01
      21    -1     0     0   501   502  0.000000000E+00  0.000000000E+00  1.768192028E+01  1.768192028E+01  0.000000000E+00  0.00000E+00  9.000E+00
       1    -1     0     0   502     0  0.000000000E+00  0.000000000E+00 -1.363230626E+03  1.363230626E+03  0.000000000E+00  0.00000E+00  9.000E+00
      25     1     1     2     0     0 -3.534960163E+01  1.208853094E+01 -4.991390181E+02  5.159053177E+02  1.249912417E+02  0.00000E+00  9.000E+00
       5     1     1     2   501     0 -5.620857270E+00 -3.617248714E+00  2.182915093E+00  8.485643347E+00  4.750000000E+00  0.00000E+00  9.000E+00
      -5     1     1     2     0   503  9.983825237E+00 -2.870182049E+01 -6.349639507E+01  7.055370971E+01  4.750000000E+00  0.00000E+00  9.000E+00
       1     1     1     2   503     0  3.098663366E+01  2.023053826E+01 -7.850962074E+02  7.859678753E+02  1.525878906E-05  0.00000E+00  9.000E+00
#rwgt            1           9  -55.343270299500567                1     1891762           0
</event>
<event>
      6   9999  3.45752E-01  8.08992E+00 -1.00000E+00  1.97442E-01
      21    -1     0     0   511   502  0.000000000E+00  0.000000000E+00  7.294983668E+00  7.294983668E+00  0.000000000E+00  0.00000E+00  9.000E+00
      21    -1     0     0   502   503  0.000000000E+00  0.000000000E+00 -5.939751984E+03  5.939751984E+03  0.000000000E+00  0.00000E+00  9.000E+00
      25     1     1     2     0     0  9.479326036E+00 -7.012965691E+00 -5.503223941E+03  5.504656043E+03  1.250015025E+02  0.00000E+00  9.000E+00
       5     1     1     2   501     0 -7.881643236E-01  1.715981890E+00  4.858499555E+00  7.052185106E+00  4.750000000E+00  0.00000E+00  9.000E+00
      -5     1     1     2     0   503 -6.194360914E+00 -2.398003895E+00 -4.065898446E+02  4.066718392E+02  4.750000000E+00  0.00000E+00  9.000E+00
      21     1     1     2   511   501 -2.496800798E+00  7.694987695E+00 -2.750171482E+01  2.866690022E+01  4.768371582E-07  0.00000E+00  9.000E+00
#rwgt            1           9   4.4706225466579802E-005           1     1892732           0
</event>
<event>
      6   9999 -3.45752E-01  1.10834E+01 -1.00000E+00  1.82608E-01
      21    -1     0     0   512   502  0.000000000E+00  0.000000000E+00  2.639720354E+01  2.639720354E+01  0.000000000E+00  0.00000E+00  9.000E+00
      21    -1     0     0   502   503  0.000000000E+00  0.000000000E+00 -9.809450404E+02  9.809450404E+02  0.000000000E+00  0.00000E+00  9.000E+00
      25     1     1     2     0     0  3.979078482E+01  1.850180426E+01 -6.926827168E+02  7.052370810E+02  1.249974838E+02  0.00000E+00  9.000E+00
       5     1     1     2   501     0  4.015652087E+00  6.038253930E+00  9.941055676E+00  1.318988477E+01  4.750000000E+00  0.00000E+00  9.000E+00
      -5     1     1     2     0   503 -3.494732041E+01 -1.787982052E+01 -2.746426830E+02  2.774746277E+02  4.750000000E+00  0.00000E+00  9.000E+00
      21     1     1     2   512   501 -8.859116497E+00 -6.660237671E+00  2.836507223E+00  1.144065051E+01  7.432677694E-07  0.00000E+00  9.000E+00
#rwgt            1           9  -1.0293249707171724E-004           1     1896305           0
</event>
<event>
      6   9999  3.45752E-01  2.74179E+00 -1.00000E+00  2.87550E-01
      21    -1     0     0   501   502  0.000000000E+00  0.000000000E+00  1.147176940E+03  1.147176940E+03  0.000000000E+00  0.00000E+00  9.000E+00
      21    -1     0     0   502   511  0.000000000E+00  0.000000000E+00 -1.778589673E+01  1.778589673E+01  0.000000000E+00  0.00000E+00  9.000E+00
      25     1     1     2     0     0 -5.246767679E+00  4.216464509E+00  5.083934771E+02  5.235795670E+02  1.250053130E+02  0.00000E+00  9.000E+00
       5     1     1     2   501     0  8.399342143E-01 -2.199183247E+00  6.193572385E+02  6.193799265E+02  4.750000000E+00  0.00000E+00  9.000E+00
      -5     1     1     2     0   503  6.096235814E+00  1.421984607E-01  1.032407715E+01  1.289702991E+01  4.750000000E+00  0.00000E+00  9.000E+00
      21     1     1     2   503   511 -1.689402349E+00 -2.159479723E+00 -8.683749626E+00  9.106313224E+00  8.840797528E-07  0.00000E+00  9.000E+00
#rwgt            1           9   6.4875960730153160E-004           1     1898887           0
</event>
<event>
      6   9999  3.45752E-01  6.35757E+00 -1.00000E+00  2.10615E-01
      21    -1     0     0   501   512  0.000000000E+00  0.000000000E+00  2.312046511E+01  2.312046511E+01  0.000000000E+00  0.00000E+00  9.000E+00
      21    -1     0     0   502   503  0.000000000E+00  0.000000000E+00 -9.788122211E+02  9.788122211E+02  0.000000000E+00  0.00000E+00  9.000E+00
      25     1     1     2     0     0  5.553284226E+01 -8.978187146E+01 -4.846829878E+02  5.115556780E+02  1.250077278E+02  0.00000E+00  9.000E+00
       5     1     1     2   501     0  6.134797480E-01 -5.545374744E-01  1.827137317E+00  5.156044995E+00  4.750000000E+00  0.00000E+00  9.000E+00
      -5     1     1     2     0   503 -4.993257531E+01  8.899178036E+01 -4.536426347E+02  4.650021522E+02  4.750000000E+00  0.00000E+00  9.000E+00
      21     1     1     2   502   512 -6.213746700E+00  1.344628575E+00 -1.919327081E+01  2.021881100E+01  2.384185791E-07  0.00000E+00  9.000E+00
#rwgt            1           9  0.41189569582704011                1     1905344           0
</event>
<event>
      6   9999  3.45752E-01  4.60185E+00 -1.00000E+00  2.35889E-01
      21    -1     0     0   501   502  0.000000000E+00  0.000000000E+00  2.018919008E+02  2.018919008E+02  0.000000000E+00  0.00000E+00  9.000E+00
      -1    -1     0     0     0   503  0.000000000E+00  0.000000000E+00 -2.483403764E+02  2.483403764E+02  0.000000000E+00  0.00000E+00  9.000E+00
      25     1     1     2     0     0 -4.994489545E+00 -9.247415672E-01  1.493685598E+02  1.948389529E+02  1.250018034E+02  0.00000E+00  9.000E+00
       5     1     1     2   501     0 -4.891133905E-02 -1.021209244E-01  2.275166685E+01  2.324249697E+01  4.750000000E+00  0.00000E+00  9.000E+00
      -5     1     1     2     0   503  6.460522709E-01 -3.297386234E-01  5.914555977E+00  7.620405731E+00  4.750000000E+00  0.00000E+00  9.000E+00
      -1     1     1     2     0   502  4.397348613E+00  1.356601115E+00 -2.244832582E+02  2.245304217E+02  0.000000000E+00  0.00000E+00  9.000E+00
#rwgt            1           9   7.2352228889800501E-004           1     1909547           0
</event>
<event>
      6   9999  3.45752E-01  9.27391E+00 -1.00000E+00  1.90709E-01
      21    -1     0     0   501   502  0.000000000E+00  0.000000000E+00  5.169366236E+01  5.169366236E+01  0.000000000E+00  0.00000E+00  9.000E+00
      21    -1     0     0   502   511  0.000000000E+00  0.000000000E+00 -1.724992075E+03  1.724992075E+03  0.000000000E+00  0.00000E+00  9.000E+00
      25     1     1     2     0     0 -2.432659237E+01  2.011465706E+01 -2.910661686E+02  3.183404519E+02  1.249989852E+02  0.00000E+00  9.000E+00
       5     1     1     2   501     0  2.340427066E+00  1.975806528E+00  2.921782154E+01  2.975945238E+01  4.750000000E+00  0.00000E+00  9.000E+00
      -5     1     1     2     0   503  1.699789223E+01 -1.427237049E+01 -6.506952186E+00  2.361211186E+01  4.750000000E+00  0.00000E+00  9.000E+00
      21     1     1     2   503   511  4.988273077E+00 -7.818093098E+00 -1.404943114E+03  1.404973722E+03  2.157918644E-05  0.00000E+00  9.000E+00
#rwgt            1           9   4.4378510037064714E-005           1     1913518           0
</event>
<event>
      6   9999  3.45752E-01  1.47700E+01 -1.00000E+00  1.70955E-01
      21    -1     0     0   501   502  0.000000000E+00  0.000000000E+00  7.008362194E+01  7.008362194E+01  0.000000000E+00  0.00000E+00  9.000E+00
      21    -1     0     0   502   512  0.000000000E+00  0.000000000E+00 -5.981536570E+02  5.981536570E+02  0.000000000E+00  0.00000E+00  9.000E+00
      25     1     1     2     0     0  2.692849834E+00  2.061043016E+01  7.781886955E+00  1.269546698E+02  1.249995566E+02  0.00000E+00  9.000E+00
       5     1     1     2   501     0 -9.558661618E-02  3.204231515E-01  4.533776313E-02  4.761970528E+00  4.750000000E+00  0.00000E+00  9.000E+00
      -5     1     1     2     0   503  1.475540658E+00 -6.733469712E+00 -3.245307882E+02  3.246387404E+02  4.750000000E+00  0.00000E+00  9.000E+00
      21     1     1     2   503   512 -4.072803875E+00 -1.419738360E+01 -2.113664716E+02  2.118818982E+02  2.697398305E-06  0.00000E+00  9.000E+00
#rwgt            1           9   3.9893889297547946E-002           1     1916585           0
</event>
<event>
      6   9999  3.45752E-01  4.02754E+01 -1.00000E+00  1.40013E-01
      21    -1     0     0   501   511  0.000000000E+00  0.000000000E+00  2.460676540E+02  2.460676540E+02  0.000000000E+00  0.00000E+00  9.000E+00
      21    -1     0     0   502   503  0.000000000E+00  0.000000000E+00 -5.021418678E+02  5.021418678E+02  0.000000000E+00  0.00000E+00  9.000E+00
      25     1     1     2     0     0  3.541770147E+01  1.749373726E+02 -1.065782866E+02  2.425806978E+02  1.250158625E+02  0.00000E+00  9.000E+00
       5     1     1     2   501     0 -1.299684064E+02 -2.224046589E+02 -1.052310805E+02  2.783015662E+02  4.750000000E+00  0.00000E+00  9.000E+00
      -5     1     1     2     0   503  1.040641183E+02  8.660294241E+01 -9.283828814E+01  1.642282576E+02  4.750000000E+00  0.00000E+00  9.000E+00
      21     1     1     2   502   511 -9.513413408E+00 -3.913565614E+01  4.857344138E+01  6.309900018E+01  0.000000000E+00  0.00000E+00  9.000E+00
#rwgt            1           9   1.5224637916062387E-002           1     1918918           0
</event>
<event>
      6   9999  3.45752E-01  6.27085E+00 -1.00000E+00  2.11421E-01
      21    -1     0     0   502   503  0.000000000E+00  0.000000000E+00  3.578117738E+03  3.578117738E+03  0.000000000E+00  0.00000E+00  9.000E+00
      21    -1     0     0   501   512  0.000000000E+00  0.000000000E+00 -4.997035170E+00  4.997035170E+00  0.000000000E+00  0.00000E+00  9.000E+00
      25     1     1     2     0     0 -2.717099782E+01 -4.236470819E+01  3.255588648E+03  3.258374673E+03  1.249601240E+02  0.00000E+00  9.000E+00
       5     1     1     2   501     0  2.951410823E+01  3.374243617E+01  2.072178531E+02  2.120646971E+02  4.750000000E+00  0.00000E+00  9.000E+00
      -5     1     1     2     0   503  4.835209994E-01  3.024617600E+00  1.025020415E+02  1.026577474E+02  4.750000000E+00  0.00000E+00  9.000E+00
      21     1     1     2   502   512 -2.826631415E+00  5.597654422E+00  7.812160487E+00  1.001765600E+01  3.264680848E-07  0.00000E+00  9.000E+00
#rwgt            1           9   1.9628746177677036E-003           1     1920532           0
</event>
<event>
      6   9999  3.45752E-01  1.36454E+01 -1.00000E+00  1.74013E-01
      21    -1     0     0   501   502  0.000000000E+00  0.000000000E+00  2.353744130E+01  2.353744130E+01  0.000000000E+00  0.00000E+00  9.000E+00
      21    -1     0     0   502   511  0.000000000E+00  0.000000000E+00 -1.167585552E+03  1.167585552E+03  0.000000000E+00  0.00000E+00  9.000E+00
      25     1     1     2     0     0 -1.836200598E+01  9.275411236E+00 -4.209938815E+02  4.396411158E+02  1.250010636E+02  0.00000E+00  9.000E+00
       5     1     1     2   501     0 -2.070203439E+00 -4.503745892E-01  1.334735737E+01  1.432490936E+01  4.750000000E+00  0.00000E+00  9.000E+00
      -5     1     1     2     0   503  1.137575545E+01  1.381673759E+00 -1.273925315E+02  1.279950641E+02  4.750000000E+00  0.00000E+00  9.000E+00
      21     1     1     2   503   511  9.056453971E+00 -1.020671041E+01 -6.090090552E+02  6.091619043E+02  1.078959322E-05  0.00000E+00  9.000E+00
#rwgt            1           9   2.2524938163539440E-002           1     1924398           0
</event>
<event>
      6   9999  3.45752E-01  6.59937E+00 -1.00000E+00  2.08456E-01
      21    -1     0     0   512   502  0.000000000E+00  0.000000000E+00  1.204361101E+01  1.204361101E+01  0.000000000E+00  0.00000E+00  9.000E+00
      21    -1     0     0   502   503  0.000000000E+00  0.000000000E+00 -2.982505533E+03  2.982505533E+03  0.000000000E+00  0.00000E+00  9.000E+00
      25     1     1     2     0     0  1.331980362E+01 -1.522954697E+01 -2.859448561E+03  2.862250226E+03  1.249837034E+02  0.00000E+00  9.000E+00
       5     1     1     2   501     0 -3.578879467E+00  3.998273424E+00  8.802796057E+00  1.135104784E+01  4.750000000E+00  0.00000E+00  9.000E+00
      -5     1     1     2     0   503 -4.305083479E+00  7.489177016E+00 -7.627748807E+01  7.691189246E+01  4.750000000E+00  0.00000E+00  9.000E+00
      21     1     1     2   512   501 -5.435840672E+00  3.742096530E+00 -4.353866946E+01  4.403597835E+01  6.743495762E-07  0.00000E+00  9.000E+00
#rwgt            1           9   1.6256247085798672E-005           1     1926622           0
</event>
<event>
      6   9999  3.45752E-01  9.91405E+00 -1.00000E+00  1.87589E-01
      21    -1     0     0   501   502  0.000000000E+00  0.000000000E+00  1.887125158E+01  1.887125158E+01  0.000000000E+00  0.00000E+00  9.000E+00
      21    -1     0     0   502   511  0.000000000E+00  0.000000000E+00 -1.157507997E+03  1.157507997E+03  0.000000000E+00  0.00000E+00  9.000E+00
      25     1     1     2     0     0 -4.743698775E+01  1.628149509E+01 -7.887654067E+02  8.001825216E+02  1.250033842E+02  0.00000E+00  9.000E+00
       5     1     1     2   501     0  2.660136077E+00 -3.723976590E+00  5.831555103E+00  8.804195620E+00  4.750000000E+00  0.00000E+00  9.000E+00
      -5     1     1     2     0   503  5.093123248E+01 -2.033003064E+01 -1.262762774E+02  1.377518106E+02  4.750000000E+00  0.00000E+00  9.000E+00
      21     1     1     2   503   511 -6.154380814E+00  7.772512146E+00 -2.294266161E+02  2.296407205E+02  0.000000000E+00  0.00000E+00  9.000E+00
#rwgt            1           9   3.1005887318844186E-005           1     1931742           0
</event>
<event>
      6   9999  3.45752E-01  9.38563E+00 -1.00000E+00  1.90142E-01
      21    -1     0     0   501   502  0.000000000E+00  0.000000000E+00  2.330085683E+01  2.330085683E+01  0.000000000E+00  0.00000E+00  9.000E+00
      21    -1     0     0   512   503  0.000000000E+00  0.000000000E+00 -2.408279265E+03  2.408279265E+03  0.000000000E+00  0.00000E+00  9.000E+00
      25     1     1     2     0     0  1.795558272E+00  2.736963179E+01 -1.951565234E+03  1.955756782E+03  1.250016182E+02  0.00000E+00  9.000E+00
       5     1     1     2   501     0  6.797423198E+00  1.192712093E+01  1.731095937E+01  2.259851743E+01  4.750000000E+00  0.00000E+00  9.000E+00
      -5     1     1     2     0   503 -7.016491445E+00 -3.004446535E+01 -2.089851071E+02  2.113036643E+02  4.750000000E+00  0.00000E+00  9.000E+00
      21     1     1     2   512   502 -1.576490025E+00 -9.252287370E+00 -2.417390261E+02  2.419211584E+02  3.814697266E-06  0.00000E+00  9.000E+00
#rwgt            1           9   1.0212393688222436E-002           1     1934633           0
</event>
<event>
      6   9999 -3.45752E-01  8.53401E+00 -1.00000E+00  1.94750E-01
      21    -1     0     0   511   502  0.000000000E+00  0.000000000E+00  8.981638622E+02  8.981638622E+02  0.000000000E+00  0.00000E+00  9.000E+00
      21    -1     0     0   502   503  0.000000000E+00  0.000000000E+00 -9.172748134E+02  9.172748134E+02  0.000000000E+00  0.00000E+00  9.000E+00
      25     1     1     2     0     0  8.259913362E+00 -1.821148412E+01 -7.757058686E+02  7.859670222E+02  1.249987244E+02  0.00000E+00  9.000E+00
       5     1     1     2   501     0 -2.788691136E+00 -1.909712403E-01  8.475551119E+00  1.010993249E+01  4.750000000E+00  0.00000E+00  9.000E+00
      -5     1     1     2     0   503 -6.246804931E+00  2.690114675E+01 -1.341528019E+02  1.370482799E+02  4.750000000E+00  0.00000E+00  9.000E+00
      21     1     1     2   511   501  7.755827053E-01 -8.498691398E+00  8.822721682E+02  8.823134410E+02  1.078959322E-05  0.00000E+00  9.000E+00
#rwgt            1           9  -1.6349092155179710E-003           1     1938880           0
</event>
<event>
      6   9999  3.45752E-01  1.13591E+01 -1.00000E+00  1.81547E-01
       1    -1     0     0   501     0  0.000000000E+00  0.000000000E+00  1.302223882E+03  1.302223882E+03  0.000000000E+00  0.00000E+00  9.000E+00
      21    -1     0     0   502   503  0.000000000E+00  0.000000000E+00 -1.232550922E+03  1.232550922E+03  0.000000000E+00  0.00000E+00  9.000E+00
      25     1     1     2     0     0 -4.593683526E+01 -2.371875542E+01 -1.131271140E+03  1.139333434E+03  1.250340299E+02  0.00000E+00  9.000E+00
       5     1     1     2   501     0 -9.134518959E-01  7.349608689E+00  3.911293026E+01  4.009033494E+01  4.750000000E+00  0.00000E+00  9.000E+00
      -5     1     1     2     0   503  3.755974732E+01  9.833534432E+00 -9.278010125E+01  1.006883444E+02  4.750000000E+00  0.00000E+00  9.000E+00
       1     1     1     2   502     0  9.290539833E+00  6.535612295E+00  1.254611271E+03  1.254662691E+03  2.157918644E-05  0.00000E+00  9.000E+00
#rwgt            1           9   3.1832120018208943E-004           1     1941974           0
</event>
<event>
      6   9999  3.45752E-01  3.86395E+00 -1.00000E+00  2.51002E-01
      21    -1     0     0   501   502  0.000000000E+00  0.000000000E+00  6.584973565E+01  6.584973565E+01  0.000000000E+00  0.00000E+00  9.000E+00
      21    -1     0     0   502   511  0.000000000E+00  0.000000000E+00 -2.163307871E+02  2.163307871E+02  0.000000000E+00  0.00000E+00  9.000E+00
      25     1     1     2     0     0  7.802466749E-02  6.759804465E+00 -2.477428207E+01  1.276008707E+02  1.249900640E+02  0.00000E+00  9.000E+00
       5     1     1     2   501     0  2.054324631E-01 -1.875464481E-01  9.610837786E+00  1.072418198E+01  4.750000000E+00  0.00000E+00  9.000E+00
      -5     1     1     2     0   503  8.850415031E-02 -2.726252709E+00  2.473587170E+00  6.010109841E+00  4.750000000E+00  0.00000E+00  9.000E+00
      21     1     1     2   503   511 -3.719612809E-01 -3.846005308E+00 -1.377911943E+02  1.378453603E+02  0.000000000E+00  0.00000E+00  9.000E+00
#rwgt            1           9   9.0252760026238513E-004           1     1945523           0
</event>
<event>
      6   9999  3.45752E-01  1.05374E+01 -1.00000E+00  1.84830E-01
      21    -1     0     0   501   502  0.000000000E+00  0.000000000E+00  1.358790542E+01  1.358790542E+01  0.000000000E+00  0.00000E+00  9.000E+00
      21    -1     0     0   512   503  0.000000000E+00  0.000000000E+00 -1.018177205E+03  1.018177205E+03  0.000000000E+00  0.00000E+00  9.000E+00
      25     1     1     2     0     0 -6.106907506E+01  6.049407039E+00 -5.557310021E+02  5.729151026E+02  1.250149626E+02  0.00000E+00  9.000E+00
       5     1     1     2   501     0  6.139463067E+01 -1.056816691E+01 -2.112909785E+02  2.203348064E+02  4.750000000E+00  0.00000E+00  9.000E+00
      -5     1     1     2     0   503  8.805935641E+00 -7.398575233E-01 -8.627777413E+01  8.685913136E+01  4.750000000E+00  0.00000E+00  9.000E+00
      21     1     1     2   512   502 -9.131491254E+00  5.258617399E+00 -1.512895453E+02  1.516560705E+02  0.000000000E+00  0.00000E+00  9.000E+00
#rwgt            1           9   4.7189542887642572E-002           1     1950137           0
</event>
<event>
      6   9999  3.45752E-01  1.77211E+01 -1.00000E+00  1.64327E-01
      21    -1     0     0   501   502  0.000000000E+00  0.000000000E+00  2.337099237E+01  2.337099237E+01  0.000000000E+00  0.00000E+00  9.000E+00
      21    -1     0     0   502   511  0.000000000E+00  0.000000000E+00 -1.329067996E+03  1.329067996E+03  0.000000000E+00  0.00000E+00  9.000E+00
      25     1     1     2     0     0  1.981496096E+01 -4.920510175E-01 -9.609264237E+02  9.692252121E+02  1.250001812E+02  0.00000E+00  9.000E+00
       5     1     1     2   501     0  3.816544731E-02  2.084453797E+00  1.786239004E+01  1.860037317E+01  4.750000000E+00  0.00000E+00  9.000E+00
      -5     1     1     2     0   503 -4.720523976E+00  7.629487221E+00 -3.351559557E+01  3.501928138E+01  4.750000000E+00  0.00000E+00  9.000E+00
      21     1     1     2   503   511 -1.513260243E+01 -9.221890001E+00 -3.291173740E+02  3.295941213E+02  3.814697266E-06  0.00000E+00  9.000E+00
#rwgt            1           9   9.1528192308306582E-004           1     1952775           0
</event>
<event>
      6   9999  3.45752E-01  6.69374E+00 -1.00000E+00  2.07646E-01
      21    -1     0     0   501   502  0.000000000E+00  0.000000000E+00  1.262463368E+01  1.262463368E+01  0.000000000E+00  0.00000E+00  9.000E+00
       2    -1     0     0   502     0  0.000000000E+00  0.000000000E+00 -3.428181291E+03  3.428181291E+03  0.000000000E+00  0.00000E+00  9.000E+00
      25     1     1     2     0     0  6.515416504E+00 -2.332561646E+01 -1.609883589E+03  1.614907918E+03  1.249635150E+02  0.00000E+00  9.000E+00
       5     1     1     2   501     0  3.713817083E+00  3.073615518E+00  7.122198506E+00  9.824854260E+00  4.750000000E+00  0.00000E+00  9.000E+00
      -5     1     1     2     0   503 -3.827302426E+00  2.220685288E+01 -7.958676384E+01  8.285172320E+01  4.750000000E+00  0.00000E+00  9.000E+00
       2     1     1     2   503     0 -6.401931161E+00 -1.954851941E+00 -1.733208503E+03  1.733221429E+03  3.737624730E-05  0.00000E+00  9.000E+00
#rwgt            1           9   2.8558279560644644E-004           1     1954871           0
</event>
<event>
      6   9999  3.45752E-01  5.77062E+00 -1.00000E+00  2.16443E-01
      21    -1     0     0   501   511  0.000000000E+00  0.000000000E+00  2.101052264E+01  2.101052264E+01  0.000000000E+00  0.00000E+00  9.000E+00
      21    -1     0     0   502   503  0.000000000E+00  0.000000000E+00 -3.175486855E+02  3.175486855E+02  0.000000000E+00  0.00000E+00  9.000E+00
      25     1     1     2     0     0 -6.535193644E+00 -1.987589127E+00 -2.729518986E+02  3.002900209E+02  1.249987937E+02  0.00000E+00  9.000E+00
       5     1     1     2   501     0 -3.853054028E-01 -1.168961742E+00  2.238466625E+00  5.393344476E+00  4.750000000E+00  0.00000E+00  9.000E+00
      -5     1     1     2     0   503  2.181025923E+00 -1.354709057E-01 -2.654990082E+01  2.705984036E+01  4.750000000E+00  0.00000E+00  9.000E+00
      21     1     1     2   502   511  4.739473123E+00  3.292021775E+00  7.251699345E-01  5.816002432E+00  8.229435248E-08  0.00000E+00  9.000E+00
#rwgt            1           9   2.1372010223608818E-003           1     1958803           0
</event>
<event>
      6   9999  3.45752E-01  4.22390E+01 -1.00000E+00  1.38828E-01
      21    -1     0     0   501   502  0.000000000E+00  0.000000000E+00  1.200502299E+03  1.200502299E+03  0.000000000E+00  0.00000E+00  9.000E+00
      21    -1     0     0   502   512  0.000000000E+00  0.000000000E+00 -7.792597981E+01  7.792597981E+01  0.000000000E+00  0.00000E+00  9.000E+00
      25     1     1     2     0     0 -2.493736283E+00 -1.529000522E+01  2.750485006E+01  1.289265306E+02  1.250021221E+02  0.00000E+00  9.000E+00
       5     1     1     2   501     0  1.954480991E+01 -2.259604244E+01  1.093358204E+03  1.093776625E+03  4.750000000E+00  0.00000E+00  9.000E+00
      -5     1     1     2     0   503  2.355098139E+00  3.689206741E-01  1.123284701E+01  1.242666254E+01  4.750000000E+00  0.00000E+00  9.000E+00
      21     1     1     2   503   512 -1.940617177E+01  3.751712699E+01 -9.519581262E+00  4.329846126E+01  6.078504936E-07  0.00000E+00  9.000E+00
#rwgt            1           9   4.8088599981321268E-003           1     1961927           0
</event>
<event>
      6   9999  3.45752E-01  1.27244E+01 -1.00000E+00  1.76806E-01
      21    -1     0     0   502   511  0.000000000E+00  0.000000000E+00  9.023981836E+01  9.023981836E+01  0.000000000E+00  0.00000E+00  9.000E+00
      21    -1     0     0   501   502  0.000000000E+00  0.000000000E+00 -7.070659156E+01  7.070659156E+01  0.000000000E+00  0.00000E+00  9.000E+00
      25     1     1     2     0     0  5.561777499E+00 -1.006224505E+01  1.609981991E+01  1.265549085E+02  1.249990341E+02  0.00000E+00  9.000E+00
       5     1     1     2   501     0  5.633160778E+00  3.595633540E+00 -8.889736400E+00  1.209342773E+01  4.750000000E+00  0.00000E+00  9.000E+00
      -5     1     1     2     0   503 -1.626695938E-01  1.263888078E-01  2.554926774E-01  4.761324609E+00  4.750000000E+00  0.00000E+00  9.000E+00
      21     1     1     2   503   511 -1.103226868E+01  6.340222703E+00  1.206765062E+01  1.753674906E+01  2.384185791E-07  0.00000E+00  9.000E+00
#rwgt            1           9   1.1212149391691090E-002           1     1963150           0
</event>
<event>
      6   9999  3.45752E-01  4.96965E+01 -1.00000E+00  1.34929E-01
      21    -1     0     0   501   512  0.000000000E+00  0.000000000E+00  8.389442122E+01  8.389442122E+01  0.000000000E+00  0.00000E+00  9.000E+00
      21    -1     0     0   502   503  0.000000000E+00  0.000000000E+00 -1.811832700E+02  1.811832700E+02  0.000000000E+00  0.00000E+00  9.000E+00
      25     1     1     2     0     0  3.178208442E+01 -3.500714752E+01 -1.116830593E+02  1.741669804E+02  1.250017202E+02  0.00000E+00  9.000E+00
       5     1     1     2   501     0  4.246640170E+00 -4.318704828E+00  1.130666830E+01  1.367802662E+01  4.750000000E+00  0.00000E+00  9.000E+00
      -5     1     1     2     0   503 -2.584721057E-01  4.826174058E+00 -2.095679295E+01  2.202517729E+01  4.750000000E+00  0.00000E+00  9.000E+00
      21     1     1     2   502   512 -3.577025248E+01  3.449967829E+01  2.404433522E+01  5.520750692E+01  1.011524364E-06  0.00000E+00  9.000E+00
#rwgt            1           9   9.6523486681632757                1     1965780           0
</event>
<event>
      6   9999  3.45752E-01  1.13591E+01 -1.00000E+00  1.81547E-01
      21    -1     0     0   511   502  0.000000000E+00  0.000000000E+00  1.190065081E+01  1.190065081E+01  0.000000000E+00  0.00000E+00  9.000E+00
      21    -1     0     0   502   503  0.000000000E+00  0.000000000E+00 -7.905380196E+02  7.905380196E+02  0.000000000E+00  0.00000E+00  9.000E+00
      25     1     1     2     0     0  5.241920843E+00  3.040685586E+00 -4.990616125E+02  5.145115331E+02  1.249916041E+02  0.00000E+00  9.000E+00
       5     1     1     2   501     0  2.938262071E-01  1.083218791E+00 -1.718552207E+00  5.174516255E+00  4.750000000E+00  0.00000E+00  9.000E+00
      -5     1     1     2     0   503  7.226303725E-01  5.355619040E+00 -2.668115155E+02  2.669085090E+02  4.750000000E+00  0.00000E+00  9.000E+00
      21     1     1     2   511   501 -6.258377422E+00 -9.479523417E+00 -1.104568860E+01  1.584411212E+01  1.192092896E-07  0.00000E+00  9.000E+00
#rwgt            1           9   1.5402986832339165E-002           1     1967062           0
</event>
<event>
      6   9999  3.45752E-01  7.92136E+01 -1.00000E+00  1.24898E-01
      21    -1     0     0   501   512  0.000000000E+00  0.000000000E+00  9.437660723E+01  9.437660723E+01  0.000000000E+00  0.00000E+00  9.000E+00
      21    -1     0     0   502   503  0.000000000E+00  0.000000000E+00 -1.441337982E+03  1.441337982E+03  0.000000000E+00  0.00000E+00  9.000E+00
      25     1     1     2     0     0 -5.162704791E+01  2.077934986E+02 -4.393399052E+02  5.044662156E+02  1.249924810E+02  0.00000E+00  9.000E+00
       5     1     1     2   501     0 -5.788021958E+01 -3.571722207E+00 -3.287251561E+01  6.682845053E+01  4.750000000E+00  0.00000E+00  9.000E+00
      -5     1     1     2     0   503  1.036066809E+02 -1.252282138E+02 -8.699996231E+02  8.850640410E+02  4.750000000E+00  0.00000E+00  9.000E+00
      21     1     1     2   502   512  5.900586594E+00 -7.899356267E+01 -4.749330777E+00  7.935588200E+01  1.157312860E-06  0.00000E+00  9.000E+00
#rwgt            1           9   2.8320600088003887E-004           1     1969327           0
</event>
<event>
      6   9999  3.45752E-01  1.20506E+01 -1.00000E+00  1.79046E-01
      21    -1     0     0   501   502  0.000000000E+00  0.000000000E+00  1.864641388E+01  1.864641388E+01  0.000000000E+00  0.00000E+00  9.000E+00
      21    -1     0     0   511   503  0.000000000E+00  0.000000000E+00 -1.087175627E+03  1.087175627E+03  0.000000000E+00  0.00000E+00  9.000E+00
      25     1     1     2     0     0 -6.812782672E+00 -1.034525216E+01 -9.093946957E+02  9.175159971E+02  1.211753035E+02  0.00000E+00  9.000E+00
       5     1     1     2   501     0  4.162024706E+00 -4.087555702E+00  1.311445195E+01  1.511892559E+01  4.750000000E+00  0.00000E+00  9.000E+00
      -5     1     1     2     0   503 -1.377391437E+00  3.075415783E+00 -4.689403192E+01  4.725429207E+01  4.750000000E+00  0.00000E+00  9.000E+00
      21     1     1     2   511   502  4.028149403E+00  1.135739208E+01 -1.253549370E+02  1.259328256E+02  0.000000000E+00  0.00000E+00  9.000E+00
#rwgt            1           9   1.0273116258638414E-003           1     1970167           0
</event>
<event>
      6   9999 -3.45752E-01  1.01316E+02 -1.00000E+00  1.20194E-01
      21    -1     0     0   501   502  0.000000000E+00  0.000000000E+00  9.065240169E+02  9.065240169E+02  0.000000000E+00  0.00000E+00  9.000E+00
      21    -1     0     0   512   503  0.000000000E+00  0.000000000E+00 -2.518140778E+02  2.518140778E+02  0.000000000E+00  0.00000E+00  9.000E+00
      25     1     1     2     0     0 -2.090919934E+02  2.719355188E+01  1.752423657E+02  3.013236576E+02  1.250084356E+02  0.00000E+00  9.000E+00
       5     1     1     2   501     0 -4.876150986E+00 -2.563966511E+02  4.754611358E+02  5.402303895E+02  4.750000000E+00  0.00000E+00  9.000E+00
      -5     1     1     2     0   503  1.613401891E+02  1.426275647E+02  5.223855784E+00  2.154602748E+02  4.750000000E+00  0.00000E+00  9.000E+00
      21     1     1     2   512   502  5.262795526E+01  8.657553450E+01 -1.217418188E+00  1.013237729E+02  2.130657633E-06  0.00000E+00  9.000E+00
#rwgt            1           9  -1438.1135087786856                1     1972361           0
</event>
<event>
      6   9999  3.45752E-01  5.94741E+00 -1.00000E+00  2.14592E-01
      21    -1     0     0   501   502  0.000000000E+00  0.000000000E+00  1.200853716E+01  1.200853716E+01  0.000000000E+00  0.00000E+00  9.000E+00
      21    -1     0     0   502   511  0.000000000E+00  0.000000000E+00 -1.044019880E+03  1.044019880E+03  0.000000000E+00  0.00000E+00  9.000E+00
      25     1     1     2     0     0 -1.419635063E+01  2.361448405E+01 -7.034301654E+02  7.149827429E+02  1.250085792E+02  0.00000E+00  9.000E+00
       5     1     1     2   501     0  1.370520890E-01  3.012209681E-01  2.552041810E+00  5.402308280E+00  4.750000000E+00  0.00000E+00  9.000E+00
      -5     1     1     2     0   503  1.405932785E+01 -2.986311102E+01 -1.234406029E+02  1.278656132E+02  4.750000000E+00  0.00000E+00  9.000E+00
      21     1     1     2   503   511 -2.930533295E-05  5.947406011E+00 -2.076926159E+02  2.077777523E+02  2.697398305E-06  0.00000E+00  9.000E+00
#rwgt            1           9   6.0011984889912111E-004           1     1973438           0
</event>
<event>
      6   9999  3.45752E-01  3.13298E+00 -1.00000E+00  2.72076E-01
      21    -1     0     0   501   512  0.000000000E+00  0.000000000E+00  2.042102505E+02  2.042102505E+02  0.000000000E+00  0.00000E+00  9.000E+00
      21    -1     0     0   502   503  0.000000000E+00  0.000000000E+00 -7.883348835E+02  7.883348835E+02  0.000000000E+00  0.00000E+00  9.000E+00
      25     1     1     2     0     0 -4.076707581E-01  1.615935036E+00 -7.524226355E+02  7.627361617E+02  1.249954102E+02  0.00000E+00  9.000E+00
       5     1     1     2   501     0 -1.168958398E+00 -5.144205180E-01  3.297191654E+00  5.921576226E+00  4.750000000E+00  0.00000E+00  9.000E+00
      -5     1     1     2     0   503  5.947694817E-01  1.873639491E+00 -2.920617450E+01  2.965514128E+01  4.750000000E+00  0.00000E+00  9.000E+00
      21     1     1     2   502   512  9.818596744E-01 -2.975154009E+00  1.942069854E+02  1.942322547E+02  4.672030912E-06  0.00000E+00  9.000E+00
#rwgt            1           9   4.5010818918891972E-005           1     1977004           0
</event>
<event>
      6   9999  3.45752E-01  5.30089E+01 -1.00000E+00  1.33444E-01
      21    -1     0     0   501   511  0.000000000E+00  0.000000000E+00  8.692144338E+00  8.692144338E+00  0.000000000E+00  0.00000E+00  9.000E+00
      21    -1     0     0   502   503  0.000000000E+00  0.000000000E+00 -3.999765491E+03  3.999765491E+03  0.000000000E+00  0.00000E+00  9.000E+00
      25     1     1     2     0     0 -1.264487301E+01  7.258747296E+01 -3.294782605E+03  3.297976035E+03  1.249987274E+02  0.00000E+00  9.000E+00
       5     1     1     2   501     0 -1.628586563E+00 -1.705275166E+01 -3.743610231E+02  3.747828528E+02  4.750000000E+00  0.00000E+00  9.000E+00
      -5     1     1     2     0   503 -1.236377999E+01 -9.704624702E+00 -2.217662948E+02  2.223733231E+02  4.750000000E+00  0.00000E+00  9.000E+00
      21     1     1     2   502   511  2.663723956E+01 -4.583009659E+01 -1.001634238E+02  1.133254241E+02  3.568322551E-06  0.00000E+00  9.000E+00
#rwgt            1           9   6.4405732287503505E-004           1     1982387           0
</event>
<event>
      6   9999  3.45752E-01  6.49275E+00 -1.00000E+00  2.09392E-01
      21    -1     0     0   501   502  0.000000000E+00  0.000000000E+00  1.246573225E+01  1.246573225E+01  0.000000000E+00  0.00000E+00  9.000E+00
      21    -1     0     0   512   503  0.000000000E+00  0.000000000E+00 -2.334090744E+03  2.334090744E+03  0.000000000E+00  0.00000E+00  9.000E+00
      25     1     1     2     0     0  1.145947152E+01 -5.025983858E+00 -1.568483684E+03  1.573513946E+03  1.250939319E+02  0.00000E+00  9.000E+00
       5     1     1     2   501     0  1.298589345E+00  6.516107813E+00  8.135866962E+00  1.152826208E+01  4.750000000E+00  0.00000E+00  9.000E+00
      -5     1     1     2     0   503 -6.397376001E+00 -1.872332440E-01 -1.569856646E+02  1.571878585E+02  4.750000000E+00  0.00000E+00  9.000E+00
      21     1     1     2   512   502 -6.360684864E+00 -1.302890712E+00 -6.042915299E+02  6.043264093E+02  0.000000000E+00  0.00000E+00  9.000E+00
#rwgt            1           9   1.0785164145107347E-004           1     1982758           0
</event>
<event>
      6   9999  3.45752E-01  4.85552E+00 -1.00000E+00  2.31625E-01
      21    -1     0     0   501   502  0.000000000E+00  0.000000000E+00  1.216468670E+03  1.216468670E+03  0.000000000E+00  0.00000E+00  9.000E+00
      21    -1     0     0   511   503  0.000000000E+00  0.000000000E+00 -4.597776064E+02  4.597776064E+02  0.000000000E+00  0.00000E+00  9.000E+00
      25     1     1     2     0     0  7.398093445E+00  3.171720948E+01  1.614693978E+02  2.067820210E+02  1.250028986E+02  0.00000E+00  9.000E+00
       5     1     1     2   501     0  4.411249286E+00 -8.835666138E+00  1.021852783E+03  1.021911542E+03  4.750000000E+00  0.00000E+00  9.000E+00
      -5     1     1     2     0   503 -6.974391565E+00 -2.332801523E+01 -4.280116817E+00  2.517380250E+01  4.750000000E+00  0.00000E+00  9.000E+00
      21     1     1     2   511   502 -4.834951166E+00  4.464718885E-01 -4.223510006E+02  4.223789102E+02  5.394796609E-06  0.00000E+00  9.000E+00
#rwgt            1           9   352.81566194037811                1     1987829           0
</event>
<event>
      6   9999  3.45752E-01  2.21676E+01 -1.00000E+00  1.56873E-01
      21    -1     0     0   501   512  0.000000000E+00  0.000000000E+00  2.742079688E+01  2.742079688E+01  0.000000000E+00  0.00000E+00  9.000E+00
      21    -1     0     0   502   503  0.000000000E+00  0.000000000E+00 -8.155765719E+02  8.155765719E+02  0.000000000E+00  0.00000E+00  9.000E+00
      25     1     1     2     0     0  1.460332465E+01  1.786933549E+01 -5.778108206E+02  5.916271252E+02  1.249989624E+02  0.00000E+00  9.000E+00
       5     1     1     2   501     0 -1.608835098E-01  3.940929689E+00  2.341577333E+00  6.603203368E+00  4.750000000E+00  0.00000E+00  9.000E+00
      -5     1     1     2     0   503 -8.713903763E+00 -3.956542906E-01 -2.209026595E+02  2.211258378E+02  4.750000000E+00  0.00000E+00  9.000E+00
      21     1     1     2   502   512 -5.728537373E+00 -2.141461089E+01  8.216127717E+00  2.364120248E+01  9.156639275E-07  0.00000E+00  9.000E+00
#rwgt            1           9   2.2185091219837032                1     1994757           0
</event>
<event>
      6   9999  3.45752E-01  1.06104E+02 -1.00000E+00  1.19352E-01
      21    -1     0     0   511   502  0.000000000E+00  0.000000000E+00  1.567490830E+01  1.567490830E+01  0.000000000E+00  0.00000E+00  9.000E+00
       2    -1     0     0   501     0  0.000000000E+00  0.000000000E+00 -3.635567245E+03  3.635567245E+03  0.000000000E+00  0.00000E+00  9.000E+00
      25     1     1     2     0     0 -1.577529291E+01  3.636236516E+01 -3.335250295E+02  3.583765733E+02  1.249949658E+02  0.00000E+00  9.000E+00
       5     1     1     2   501     0  1.132875000E+00  1.229913569E+01 -1.816010758E+02  1.820825784E+02  4.750000000E+00  0.00000E+00  9.000E+00
      -5     1     1     2     0   502 -1.671278301E+01  5.270382364E+01 -3.883046245E+02  3.922499892E+02  4.750000000E+00  0.00000E+00  9.000E+00
       2     1     1     2   511     0  3.135520093E+01 -1.013653245E+02 -2.716461607E+03  2.718533012E+03  5.285799584E-05  0.00000E+00  9.000E+00
#rwgt            1           3   5.9876363812157543E-006           1     1996670           0
</event>
<event>
      6   9999  3.45752E-01  6.40942E+00 -1.00000E+00  2.10141E-01
      21    -1     0     0   501   502  0.000000000E+00  0.000000000E+00  1.261978386E+01  1.261978386E+01  0.000000000E+00  0.00000E+00  9.000E+00
      21    -1     0     0   512   503  0.000000000E+00  0.000000000E+00 -2.401397393E+03  2.401397393E+03  0.000000000E+00  0.00000E+00  9.000E+00
      25     1     1     2     0     0  2.664863820E-01  7.019816987E+00 -8.282146983E+02  8.376234478E+02  1.249964197E+02  0.00000E+00  9.000E+00
       5     1     1     2   501     0 -4.905197092E+00  6.624112134E-01  5.688033936E+00  8.911564239E+00  4.750000000E+00  0.00000E+00  9.000E+00
      -5     1     1     2     0   503 -1.647332810E+00 -6.430719834E+00 -2.674616711E+01  2.796404510E+01  4.750000000E+00  0.00000E+00  9.000E+00
      21     1     1     2   512   502  6.286043521E+00 -1.251508366E+00 -1.539504777E+03  1.539518119E+03  3.051757812E-05  0.00000E+00  9.000E+00
#rwgt            1           9   1.6584107490682496E-003           1     1997178           0
</event>
<event>
      6   9999 -3.45752E-01  1.71607E+01 -1.00000E+00  1.65457E-01
      21    -1     0     0   501   502  0.000000000E+00  0.000000000E+00  3.521017318E+02  3.521017318E+02  0.000000000E+00  0.00000E+00  9.000E+00
      21    -1     0     0   502   511  0.000000000E+00  0.000000000E+00 -3.496327504E+02  3.496327504E+02  0.000000000E+00  0.00000E+00  9.000E+00
      25     1     1     2     0     0  3.864526687E+01 -9.774205111E+01 -1.161840998E+02  2.004274485E+02  1.250018074E+02  0.00000E+00  9.000E+00
       5     1     1     2   501     0 -5.764280220E-01  1.317712598E-01  2.036764813E+02  2.037327199E+02  4.750000000E+00  0.00000E+00  9.000E+00
      -5     1     1     2     0   503 -5.154000713E+01  8.697935766E+01  8.163598344E+01  1.300337544E+02  4.750000000E+00  0.00000E+00  9.000E+00
      21     1     1     2   503   511  1.347116829E+01  1.063092220E+01 -1.666593836E+02  1.675405593E+02  0.000000000E+00  0.00000E+00  9.000E+00
#rwgt            1           9  -1.0955724729142112E-003           1     2001229           0
</event>
<event>
      6   9999  3.45752E-01  1.09867E+01 -1.00000E+00  1.82989E-01
       3    -1     0     0   501     0  0.000000000E+00  0.000000000E+00  8.133152217E+01  8.133152217E+01  0.000000000E+00  0.00000E+00  9.000E+00
      21    -1     0     0   502   503  0.000000000E+00  0.000000000E+00 -3.684920282E+02  3.684920282E+02  0.000000000E+00  0.00000E+00  9.000E+00
      25     1     1     2     0     0  2.193466741E+01 -6.085116677E-01 -2.095264748E+02  2.449593006E+02  1.249888609E+02  0.00000E+00  9.000E+00
       5     1     1     2   501     0  7.800888860E-01  8.239937998E+00  3.491120065E+01  3.619198182E+01  4.750000000E+00  0.00000E+00  9.000E+00
      -5     1     1     2     0   503 -1.906828396E+01  2.732530951E+00 -1.388003113E+02  1.402111091E+02  4.750000000E+00  0.00000E+00  9.000E+00
       3     1     1     2   502     0 -3.646472335E+00 -1.036395728E+01  2.625507946E+01  2.846115895E+01  5.840038640E-07  0.00000E+00  9.000E+00
#rwgt            1           9   7.6934636644694491E-004           1     2003994           0
</event>
<event>
      6   9999  3.45752E-01  1.11367E+01 -1.00000E+00  1.82400E-01
      21    -1     0     0   511   502  0.000000000E+00  0.000000000E+00  3.611736456E+03  3.611736456E+03  0.000000000E+00  0.00000E+00  9.000E+00
      21    -1     0     0   502   503  0.000000000E+00  0.000000000E+00 -2.559066719E+00  2.559066719E+00  0.000000000E+00  0.00000E+00  9.000E+00
      25     1     1     2     0     0  1.679434039E+01 -2.814646949E+00  1.742653603E+03  1.747213922E+03  1.249997424E+02  0.00000E+00  9.000E+00
       5     1     1     2   501     0 -1.102413352E+00  2.413580510E-01  4.872487144E+02  4.872731737E+02  4.750000000E+00  0.00000E+00  9.000E+00
      -5     1     1     2     0   503 -2.675250138E+01  1.273591166E+00  9.562527696E+02  9.566395560E+02  4.750000000E+00  0.00000E+00  9.000E+00
      21     1     1     2   511   501  1.106057434E+01  1.299697732E+00  4.230223017E+02  4.231688709E+02  7.629394531E-06  0.00000E+00  9.000E+00
#rwgt            1           9   2.3461525550566974E-003           1     2007458           0
</event>
<event>
      6   9999 -3.45752E-01  9.33794E+00 -1.00000E+00  1.90383E-01
      21    -1     0     0   512   502  0.000000000E+00  0.000000000E+00  1.886271637E+01  1.886271637E+01  0.000000000E+00  0.00000E+00  9.000E+00
      21    -1     0     0   502   503  0.000000000E+00  0.000000000E+00 -9.669379277E+02  9.669379277E+02  0.000000000E+00  0.00000E+00  9.000E+00
      25     1     1     2     0     0  4.250998425E+00 -1.037460878E-01 -9.360866514E+02  9.444054255E+02  1.250012281E+02  0.00000E+00  9.000E+00
       5     1     1     2   501     0  4.276691110E+00  9.925962809E-01  1.106596030E+01  1.281769525E+01  4.750000000E+00  0.00000E+00  9.000E+00
      -5     1     1     2     0   503 -1.909179176E-01 -5.095435527E+00 -1.364205617E+01  1.531888082E+01  4.750000000E+00  0.00000E+00  9.000E+00
      21     1     1     2   512   501 -8.336771618E+00  4.206585334E+00 -9.412464003E+00  1.325864246E+01  0.000000000E+00  0.00000E+00  9.000E+00
#rwgt            1           9  -2.1302300459560594E-002           1     2009509           0
</event>
<event>
      6   9999  3.45752E-01  4.30674E+01 -1.00000E+00  1.38350E-01
      21    -1     0     0   511   503  0.000000000E+00  0.000000000E+00  2.433160939E+01  2.433160939E+01  0.000000000E+00  0.00000E+00  9.000E+00
      21    -1     0     0   501   502  0.000000000E+00  0.000000000E+00 -8.396407678E+02  8.396407678E+02  0.000000000E+00  0.00000E+00  9.000E+00
      25     1     1     2     0     0  3.323641722E+00 -1.189086967E+01 -6.980368457E+02  7.092467965E+02  1.249925637E+02  0.00000E+00  9.000E+00
       5     1     1     2   501     0  2.571849215E+01 -1.620927078E+01 -7.085530091E+01  7.724776673E+01  4.750000000E+00  0.00000E+00  9.000E+00
      -5     1     1     2     0   503  8.847671907E+00  7.626631396E+00 -2.786330591E+01  3.058387027E+01  4.750000000E+00  0.00000E+00  9.000E+00
      21     1     1     2   511   502 -3.788980578E+01  2.047350905E+01 -1.855370590E+01  4.689394371E+01  8.920806376E-07  0.00000E+00  9.000E+00
#rwgt            1           9  0.19959503700127362                1     2012548           0
</event>
<event>
      6   9999  3.45752E-01  2.83573E+01 -1.00000E+00  1.49438E-01
      21    -1     0     0   502   503  0.000000000E+00  0.000000000E+00  1.216805195E+01  1.216805195E+01  0.000000000E+00  0.00000E+00  9.000E+00
      21    -1     0     0   512   502  0.000000000E+00  0.000000000E+00 -8.709619597E+02  8.709619597E+02  0.000000000E+00  0.00000E+00  9.000E+00
      25     1     1     2     0     0  3.066756187E+01  2.361585942E+01 -4.531852835E+02  4.717013312E+02  1.250081456E+02  0.00000E+00  9.000E+00
       5     1     1     2   501     0 -1.137831411E+01  1.666602192E+01 -1.648023350E+02  1.661011572E+02  4.750000000E+00  0.00000E+00  9.000E+00
      -5     1     1     2     0   503 -1.254019771E+01 -1.273937629E+01 -9.926972171E+01  1.009781581E+02  4.750000000E+00  0.00000E+00  9.000E+00
      21     1     1     2   512   501 -6.749050054E+00 -2.754250505E+01 -1.415365675E+02  1.443493651E+02  0.000000000E+00  0.00000E+00  9.000E+00
#rwgt            1           9   1.2036301481997346E-003           1     2013468           0
</event>
<event>
      6   9999  3.45752E-01  1.17763E+01 -1.00000E+00  1.80012E-01
      21    -1     0     0   502   503  0.000000000E+00  0.000000000E+00  1.995549077E+01  1.995549077E+01  0.000000000E+00  0.00000E+00  9.000E+00
      21    -1     0     0   501   511  0.000000000E+00  0.000000000E+00 -1.116510695E+03  1.116510695E+03  0.000000000E+00  0.00000E+00  9.000E+00
      25     1     1     2     0     0 -2.597260442E+01 -2.065249764E+01 -2.096764220E+02  2.463574765E+02  1.250068096E+02  0.00000E+00  9.000E+00
       5     1     1     2   501     0  2.581613956E+01  7.464873100E+00 -7.488626459E+02  7.493597416E+02  4.750000000E+00  0.00000E+00  9.000E+00
      -5     1     1     2     0   503  7.841067522E-01  1.428107928E+00 -4.587360493E+00  6.801521296E+00  4.750000000E+00  0.00000E+00  9.000E+00
      21     1     1     2   502   511 -6.276418886E-01  1.175951662E+01 -1.334287755E+02  1.339474460E+02  0.000000000E+00  0.00000E+00  9.000E+00
#rwgt            1           9  0.47496405196171565                1     2015124           0
</event>
<event>
      6   9999 -3.45752E-01  1.01728E+01 -1.00000E+00  1.86413E-01
      21    -1     0     0   501   512  0.000000000E+00  0.000000000E+00  4.105459565E+01  4.105459565E+01  0.000000000E+00  0.00000E+00  9.000E+00
      21    -1     0     0   502   503  0.000000000E+00  0.000000000E+00 -1.060378280E+03  1.060378280E+03  0.000000000E+00  0.00000E+00  9.000E+00
      25     1     1     2     0     0 -1.426797274E+00  2.765809326E+01 -8.977303371E+02  9.068144336E+02  1.250026120E+02  0.00000E+00  9.000E+00
       5     1     1     2   501     0  8.131995550E-01 -8.354057314E-02  5.373852426E-01  4.849696428E+00  4.750000000E+00  0.00000E+00  9.000E+00
      -5     1     1     2     0   503  6.067683197E+00 -1.898743294E+01 -1.544926038E+02  1.558456497E+02  4.750000000E+00  0.00000E+00  9.000E+00
      21     1     1     2   502   512 -5.454085478E+00 -8.587119749E+00  3.236187169E+01  3.392309557E+01  3.053247565E-06  0.00000E+00  9.000E+00
#rwgt            1           9  -3.1106225385130402                1     2017775           0
</event>
<event>
      6   9999  3.45752E-01  1.79299E+01 -1.00000E+00  1.63919E-01
      21    -1     0     0   501   502  0.000000000E+00  0.000000000E+00  2.522567663E+01  2.522567663E+01  0.000000000E+00  0.00000E+00  9.000E+00
      21    -1     0     0   502   511  0.000000000E+00  0.000000000E+00 -8.911570271E+02  8.911570271E+02  0.000000000E+00  0.00000E+00  9.000E+00
      25     1     1     2     0     0 -6.654718391E+01  1.600869697E+01 -7.347891848E+02  7.484813940E+02  1.249977801E+02  0.00000E+00  9.000E+00
       5     1     1     2   501     0 -3.084430818E+00  3.450429371E+00  6.112537202E+00  9.019134512E+00  4.750000000E+00  0.00000E+00  9.000E+00
      -5     1     1     2     0   503  5.366032418E+01 -1.131063741E+01 -6.875527778E+01  8.807503411E+01  4.750000000E+00  0.00000E+00  9.000E+00
      21     1     1     2   503   511  1.597129055E+01 -8.148488927E+00 -6.849942513E+01  7.080714114E+01  9.536743164E-07  0.00000E+00  9.000E+00
#rwgt            1           9   1.3636108023482975E-002           1     2020136           0
</event>
<event>
      6   9999  3.45752E-01  9.54372E+00 -1.00000E+00  1.89356E-01
      21    -1     0     0   501   502  0.000000000E+00  0.000000000E+00  8.641364231E+00  8.641364231E+00  0.000000000E+00  0.00000E+00  9.000E+00
      21    -1     0     0   512   503  0.000000000E+00  0.000000000E+00 -8.368779528E+02  8.368779528E+02  0.000000000E+00  0.00000E+00  9.000E+00
      25     1     1     2     0     0  2.939133073E+00 -5.138216512E+00 -7.150230712E+02  7.258924642E+02  1.250073497E+02  0.00000E+00  9.000E+00
       5     1     1     2   501     0 -2.615257686E-01 -1.386330741E+00 -3.893872639E-01  4.970355228E+00  4.750000000E+00  0.00000E+00  9.000E+00
      -5     1     1     2     0   503 -1.819209079E-01 -2.687087962E+00 -1.002778473E+01  1.141807792E+01  4.750000000E+00  0.00000E+00  9.000E+00
      21     1     1     2   512   502 -2.495686396E+00  9.211635215E+00 -1.027963454E+02  1.032384197E+02  1.348699152E-06  0.00000E+00  9.000E+00
#rwgt            1           9   6.7599542342914259E-005           1     2023217           0
</event>
<event>
      6   9999 -3.45752E-01  1.20524E+01 -1.00000E+00  1.79040E-01
       3    -1     0     0   501     0  0.000000000E+00  0.000000000E+00  5.856485921E+01  5.856485921E+01  0.000000000E+00  0.00000E+00  9.000E+00
      21    -1     0     0   502   503  0.000000000E+00  0.000000000E+00 -2.317941221E+03  2.317941221E+03  0.000000000E+00  0.00000E+00  9.000E+00
      25     1     1     2     0     0 -1.462771027E+00  3.499535039E+00 -2.193842482E+03  2.197404030E+03  1.250009846E+02  0.00000E+00  9.000E+00
       5     1     1     2   501     0  7.636206337E+00  1.258811055E+01  2.273679122E+01  2.750084271E+01  4.750000000E+00  0.00000E+00  9.000E+00
      -5     1     1     2     0   503 -1.016985850E+01 -4.717114904E+00 -1.184656725E+02  1.190896942E+02  4.750000000E+00  0.00000E+00  9.000E+00
       3     1     1     2   502     0  3.996423191E+00 -1.137053069E+01  3.019500194E+01  3.251151348E+01  2.545613826E-06  0.00000E+00  9.000E+00
#rwgt            1           9  -1.1402688538084666E-004           1     2025710           0
</event>
<event>
      6   9999  3.45752E-01  7.33302E+00 -1.00000E+00  2.02599E-01
      21    -1     0     0   501   502  0.000000000E+00  0.000000000E+00  1.765456025E+01  1.765456025E+01  0.000000000E+00  0.00000E+00  9.000E+00
      21    -1     0     0   511   503  0.000000000E+00  0.000000000E+00 -1.091424331E+03  1.091424331E+03  0.000000000E+00  0.00000E+00  9.000E+00
      25     1     1     2     0     0 -1.985906790E+01 -4.480214175E+01 -8.256342286E+02  8.364793666E+02  1.249969475E+02  0.00000E+00  9.000E+00
       5     1     1     2   501     0 -3.616223183E+00  1.854033701E+00  8.603444470E+00  1.063467291E+01  4.750000000E+00  0.00000E+00  9.000E+00
      -5     1     1     2     0   503  1.811907642E+01  3.793970149E+01 -1.813742411E+02  1.862441938E+02  4.750000000E+00  0.00000E+00  9.000E+00
      21     1     1     2   511   502  5.356214664E+00  5.008406560E+00 -7.536474556E+01  7.572065798E+01  0.000000000E+00  0.00000E+00  9.000E+00
#rwgt            1           9  0.12595521967145876                1     2029337           0
</event>
<event>
      6   9999  3.45752E-01  6.34691E+00 -1.00000E+00  2.10713E-01
      21    -1     0     0   501   502  0.000000000E+00  0.000000000E+00  3.717012643E+01  3.717012643E+01  0.000000000E+00  0.00000E+00  9.000E+00
       2    -1     0     0   502     0  0.000000000E+00  0.000000000E+00 -6.941796344E+02  6.941796344E+02  0.000000000E+00  0.00000E+00  9.000E+00
      25     1     1     2     0     0 -3.641584483E+00 -1.058599300E+00 -1.713056172E+02  2.120766452E+02  1.249660241E+02  0.00000E+00  9.000E+00
       5     1     1     2   501     0 -1.302398498E+00 -1.443130226E+00  1.042992978E+01  1.162431942E+01  4.750000000E+00  0.00000E+00  9.000E+00
      -5     1     1     2     0   503 -1.109173924E-01 -1.336398879E+00  4.675886080E+00  6.798873088E+00  4.750000000E+00  0.00000E+00  9.000E+00
       2     1     1     2   503     0  5.054900374E+00  3.838128405E+00 -5.008097066E+02  5.008499231E+02  5.394796609E-06  0.00000E+00  9.000E+00
#rwgt            1           9   1.4090846561159132E-002           1     2032953           0
</event>
<event>
      6   9999  3.45752E-01  1.21112E+01 -1.00000E+00  1.78837E-01
      21    -1     0     0   511   502  0.000000000E+00  0.000000000E+00  5.085586654E+00  5.085586654E+00  0.000000000E+00  0.00000E+00  9.000E+00
      21    -1     0     0   502   503  0.000000000E+00  0.000000000E+00 -2.054778468E+03  2.054778468E+03  0.000000000E+00  0.00000E+00  9.000E+00
      25     1     1     2     0     0  4.460012736E+00 -1.038764620E+01 -1.913188975E+03  1.917301440E+03  1.249998520E+02  0.00000E+00  9.000E+00
       5     1     1     2   501     0  1.715728708E+00 -4.712160916E+00 -2.974192242E+00  7.520405906E+00  4.750000000E+00  0.00000E+00  9.000E+00
      -5     1     1     2     0   503  1.800505456E+00  5.986043156E+00 -6.188922376E+01  6.238519897E+01  4.750000000E+00  0.00000E+00  9.000E+00
      21     1     1     2   511   501 -7.976246900E+00  9.113763957E+00 -7.164049021E+01  7.265700961E+01  0.000000000E+00  0.00000E+00  9.000E+00
#rwgt            1           9  0.71357874734665705                1     2036351           0
</event>
<event>
      6   9999  3.45752E-01  7.71686E+00 -1.00000E+00  1.99886E-01
      21    -1     0     0   501   502  0.000000000E+00  0.000000000E+00  4.899733528E+01  4.899733528E+01  0.000000000E+00  0.00000E+00  9.000E+00
      21    -1     0     0   502   512  0.000000000E+00  0.000000000E+00 -1.344147193E+03  1.344147193E+03  0.000000000E+00  0.00000E+00  9.000E+00
      25     1     1     2     0     0  2.944837550E+01 -8.834328844E+01 -1.506145910E+02  2.167509726E+02  1.249979427E+02  0.00000E+00  9.000E+00
       5     1     1     2   501     0 -3.548090086E+00  2.713841773E+00  1.254200949E+01  1.413571301E+01  4.750000000E+00  0.00000E+00  9.000E+00
      -5     1     1     2     0   503 -2.472892396E+01  9.325688271E+01 -1.129445633E+03  1.133568862E+03  4.750000000E+00  0.00000E+00  9.000E+00
      21     1     1     2   503   512 -1.171361456E+00 -7.627436048E+00 -2.763164331E+01  2.868898012E+01  4.768371582E-07  0.00000E+00  9.000E+00
#rwgt            1           9   1.4582570374556839E-003           1     2038553           0
</event>
<event>
      6   9999 -3.45752E-01  7.23219E+00 -1.00000E+00  2.03349E-01
      21    -1     0     0   501   511  0.000000000E+00  0.000000000E+00  1.030197427E+02  1.030197427E+02  0.000000000E+00  0.00000E+00  9.000E+00
      21    -1     0     0   502   503  0.000000000E+00  0.000000000E+00 -3.668267633E+03  3.668267633E+03  0.000000000E+00  0.00000E+00  9.000E+00
      25     1     1     2     0     0  7.491049190E+01  7.133690895E+01 -2.220260965E+03  2.226185046E+03  1.250622558E+02  0.00000E+00  9.000E+00
       5     1     1     2   501     0 -4.589533476E-01 -1.250456620E-01 -9.669276693E+00  1.078349138E+01  4.750000000E+00  0.00000E+00  9.000E+00
      -5     1     1     2     0   503 -7.631798494E+01 -7.819906599E+01 -1.432599567E+03  1.436768461E+03  4.750000000E+00  0.00000E+00  9.000E+00
      21     1     1     2   502   511  1.866446386E+00  6.987202711E+00  9.728191818E+01  9.755037790E+01  5.046370146E-06  0.00000E+00  9.000E+00
#rwgt            1           9  -3.3184208987012588E-004           1     2043246           0
</event>
<event>
      6   9999  3.45752E-01  5.54357E+00 -1.00000E+00  2.18959E-01
      21    -1     0     0   501   502  0.000000000E+00  0.000000000E+00  7.374945374E+00  7.374945374E+00  0.000000000E+00  0.00000E+00  9.000E+00
       2    -1     0     0   502     0  0.000000000E+00  0.000000000E+00 -1.514081232E+03  1.514081232E+03  0.000000000E+00  0.00000E+00  9.000E+00
      25     1     1     2     0     0 -7.274842371E+00 -5.495232001E+00 -6.268908944E+02  6.392962583E+02  1.249975659E+02  0.00000E+00  9.000E+00
       5     1     1     2   501     0  3.515212155E-01 -1.971683076E-01 -4.324016236E+00  6.435997119E+00  4.750000000E+00  0.00000E+00  9.000E+00
      -5     1     1     2     0   503  5.048274830E+00  4.755653400E-01 -1.135432255E+02  1.137556055E+02  4.750000000E+00  0.00000E+00  9.000E+00
       2     1     1     2   503     0  1.875046325E+00  5.216834968E+00 -7.619481503E+02  7.619683162E+02  0.000000000E+00  0.00000E+00  9.000E+00
#rwgt            1           9   1.3910837076986362E-002           1     2046774           0
</event>
<event>
      6   9999  3.45752E-01  5.66561E+00 -1.00000E+00  2.17587E-01
      21    -1     0     0   501   502  0.000000000E+00  0.000000000E+00  1.242126697E+03  1.242126697E+03  0.000000000E+00  0.00000E+00  9.000E+00
      21    -1     0     0   502   511  0.000000000E+00  0.000000000E+00 -9.276995617E+01  9.276995617E+01  0.000000000E+00  0.00000E+00  9.000E+00
      25     1     1     2     0     0 -1.680038036E+01  9.847827511E+00  2.663560203E+02  2.948717623E+02  1.249983766E+02  0.00000E+00  9.000E+00
       5     1     1     2   501     0  1.190442003E+00 -1.827676441E+00  9.379518735E+02  9.379664371E+02  4.750000000E+00  0.00000E+00  9.000E+00
      -5     1     1     2     0   503  1.880701593E+01 -3.342773027E+00  1.931450808E+01  2.757699588E+01  4.750000000E+00  0.00000E+00  9.000E+00
      21     1     1     2   503   511 -3.197077570E+00 -4.677378044E+00 -7.426566104E+01  7.448145796E+01  2.523185073E-06  0.00000E+00  9.000E+00
#rwgt            1           9   3.7269191215936982E-003           1     2051030           0
</event>
<event>
      6   9999  3.45752E-01  1.36330E+01 -1.00000E+00  1.74048E-01
      21    -1     0     0   502   512  0.000000000E+00  0.000000000E+00  1.114654404E+02  1.114654404E+02  0.000000000E+00  0.00000E+00  9.000E+00
      21    -1     0     0   501   502  0.000000000E+00  0.000000000E+00 -1.264662019E+02  1.264662019E+02  0.000000000E+00  0.00000E+00  9.000E+00
      25     1     1     2     0     0  5.106130577E+01 -7.758556649E-01  1.665905848E+01  1.360467576E+02  1.249933483E+02  0.00000E+00  9.000E+00
       5     1     1     2   501     0 -4.557758428E+01 -1.259813982E+01 -5.268678072E+01  7.095413081E+01  4.750000000E+00  0.00000E+00  9.000E+00
      -5     1     1     2     0   503  5.712832164E-01  1.159462233E+00 -1.002812183E+00  5.023828168E+00  4.750000000E+00  0.00000E+00  9.000E+00
      21     1     1     2   503   512 -6.055004703E+00  1.221453326E+01  2.202977298E+01  2.590692576E+01  0.000000000E+00  0.00000E+00  9.000E+00
#rwgt            1           9   9.8849448408792326E-002           1     2056246           0
</event>
<event>
      6   9999  3.45752E-01  5.41691E+00 -1.00000E+00  2.20435E-01
      21    -1     0     0   501   502  0.000000000E+00  0.000000000E+00  1.598943795E+01  1.598943795E+01  0.000000000E+00  0.00000E+00  9.000E+00
      21    -1     0     0   502   511  0.000000000E+00  0.000000000E+00 -9.452966220E+02  9.452966220E+02  0.000000000E+00  0.00000E+00  9.000E+00
      25     1     1     2     0     0  5.749274479E+01 -5.063578451E+00 -4.917690520E+02  5.106774844E+02  1.249945480E+02  0.00000E+00  9.000E+00
       5     1     1     2   501     0 -1.133381434E+00  9.889591411E-01  3.263065593E+00  5.955895459E+00  4.750000000E+00  0.00000E+00  9.000E+00
      -5     1     1     2     0   503 -5.211058461E+01  7.434799458E+00 -4.076394212E+02  4.110513952E+02  4.750000000E+00  0.00000E+00  9.000E+00
      21     1     1     2   503   511 -4.248778751E+00 -3.360180148E+00 -3.316177645E+01  3.360128493E+01  6.743495762E-07  0.00000E+00  9.000E+00
#rwgt            1           9   9.1124703105523324E-005           1     2058264           0
</event>
<event>
      6   9999  3.45752E-01  9.30074E+00 -1.00000E+00  1.90572E-01
      21    -1     0     0   501   502  0.000000000E+00  0.000000000E+00  3.331984730E+01  3.331984730E+01  0.000000000E+00  0.00000E+00  9.000E+00
      21    -1     0     0   502   512  0.000000000E+00  0.000000000E+00 -4.283430368E+02  4.283430368E+02  0.000000000E+00  0.00000E+00  9.000E+00
      25     1     1     2     0     0  4.700574862E+00 -3.760981333E+01 -2.464767108E+02  2.789492667E+02  1.250013237E+02  0.00000E+00  9.000E+00
       5     1     1     2   501     0  1.982640599E+00 -8.958219841E-01  1.417155200E+01  1.510393150E+01  4.750000000E+00  0.00000E+00  9.000E+00
      -5     1     1     2     0   503 -8.272963783E+00  2.934176422E+01 -1.216518341E+02  1.255034354E+02  4.750000000E+00  0.00000E+00  9.000E+00
      21     1     1     2   503   512  1.589748322E+00  9.163871091E+00 -4.106619657E+01  4.210625054E+01  4.768371582E-07  0.00000E+00  9.000E+00
#rwgt            1           9   3.7506953122859514E-004           1     2062447           0
</event>
<event>
      6   9999  3.45752E-01  8.48178E+00 -1.00000E+00  1.95055E-01
      21    -1     0     0   501   502  0.000000000E+00  0.000000000E+00  4.467320438E+02  4.467320438E+02  0.000000000E+00  0.00000E+00  9.000E+00
      21    -1     0     0   502   511  0.000000000E+00  0.000000000E+00 -1.433376974E+02  1.433376974E+02  0.000000000E+00  0.00000E+00  9.000E+00
      25     1     1     2     0     0 -5.970431071E+00  1.941535938E+01 -8.648742108E+01  1.533506718E+02  1.249950091E+02  0.00000E+00  9.000E+00
       5     1     1     2   501     0  3.087010822E+00 -6.546340281E+00  4.080435604E+02  4.081353867E+02  4.750000000E+00  0.00000E+00  9.000E+00
      -5     1     1     2     0   503  6.518137336E-01 -4.686075003E+00  1.760059274E+00  6.931411741E+00  4.750000000E+00  0.00000E+00  9.000E+00
      21     1     1     2   503   511  2.231606516E+00 -8.182944095E+00 -1.992185222E+01  2.165227095E+01  5.840038640E-07  0.00000E+00  9.000E+00
#rwgt            1           9   1.4031131546554574E-003           1     2065487           0
</event>
<event>
      6   9999  3.45752E-01  1.59666E+01 -1.00000E+00  1.68054E-01
      21    -1     0     0   512   502  0.000000000E+00  0.000000000E+00  2.016401436E+01  2.016401436E+01  0.000000000E+00  0.00000E+00  9.000E+00
      21    -1     0     0   502   503  0.000000000E+00  0.000000000E+00 -7.161274179E+02  7.161274179E+02  0.000000000E+00  0.00000E+00  9.000E+00
      25     1     1     2     0     0  1.306138837E+01  8.434839159E+00 -6.433807903E+02  6.555962456E+02  1.250033981E+02  0.00000E+00  9.000E+00
       5     1     1     2   501     0 -1.492091811E+00  1.900308604E+00 -3.271379850E+01  3.314502410E+01  4.750000000E+00  0.00000E+00  9.000E+00
      -5     1     1     2     0   503  2.880982074E+00 -3.543880685E+00 -2.860199862E+01  2.935125164E+01  4.750000000E+00  0.00000E+00  9.000E+00
      21     1     1     2   512   501 -1.445027864E+01 -6.791267079E+00  8.733183814E+00  1.819891098E+01  7.817075878E-07  0.00000E+00  9.000E+00
#rwgt            1           9   2.3002845340236123E-003           1     2070221           0
</event>
<event>
      6   9999  3.45752E-01  9.81297E+00 -1.00000E+00  1.88062E-01
      21    -1     0     0   511   502  0.000000000E+00  0.000000000E+00  1.731389975E+01  1.731389975E+01  0.000000000E+00  0.00000E+00  9.000E+00
      21    -1     0     0   502   503  0.000000000E+00  0.000000000E+00 -9.132845897E+02  9.132845897E+02  0.000000000E+00  0.00000E+00  9.000E+00
      25     1     1     2     0     0 -2.352138308E+01 -1.190302949E+01 -8.015461431E+02  8.116960561E+02  1.252171330E+02  0.00000E+00  9.000E+00
       5     1     1     2   501     0  6.723602735E-01 -1.137444645E+00  9.457892347E+00  1.066583688E+01  4.750000000E+00  0.00000E+00  9.000E+00
      -5     1     1     2     0   503  1.305396695E+01  1.244785498E+01 -8.422827597E+01  8.626888268E+01  4.750000000E+00  0.00000E+00  9.000E+00
      21     1     1     2   511   501  9.795055862E+00  5.926191550E-01 -1.965416318E+01  2.196771374E+01  2.384185791E-07  0.00000E+00  9.000E+00
#rwgt            1           9   4.2914594124056623E-005           1     2071533           0
</event>
<event>
      6   9999  3.45752E-01  1.08646E+01 -1.00000E+00  1.83478E-01
      21    -1     0     0   502   503  0.000000000E+00  0.000000000E+00  7.147506677E+00  7.147506677E+00  0.000000000E+00  0.00000E+00  9.000E+00
       2    -1     0     0   501     0  0.000000000E+00  0.000000000E+00 -1.144015080E+03  1.144015080E+03  0.000000000E+00  0.00000E+00  9.000E+00
      25     1     1     2     0     0  8.414014083E+00  3.249776564E+00 -6.036894259E+02  6.165594257E+02  1.249929833E+02  0.00000E+00  9.000E+00
       5     1     1     2   501     0 -5.165067886E-01  2.037207203E+00 -5.334387885E+01  5.359616501E+01  4.750000000E+00  0.00000E+00  9.000E+00
      -5     1     1     2     0   503 -5.677164116E+00  5.348334392E+00 -3.962671167E+01  4.066538640E+01  4.750000000E+00  0.00000E+00  9.000E+00
       2     1     1     2   502     0 -2.220343178E+00 -1.063531816E+01 -4.402075572E+02  4.403416099E+02  0.000000000E+00  0.00000E+00  9.000E+00
#rwgt            1           9   9.4839896555121386E-002           1     2074025           0
</event>
<event>
      6   9999  3.45752E-01  1.08276E+01 -1.00000E+00  1.83628E-01
      21    -1     0     0   502   503  0.000000000E+00  0.000000000E+00  1.365299565E+01  1.365299565E+01  0.000000000E+00  0.00000E+00  9.000E+00
      21    -1     0     0   501   511  0.000000000E+00  0.000000000E+00 -9.759868343E+02  9.759868343E+02  0.000000000E+00  0.00000E+00  9.000E+00
      25     1     1     2     0     0  3.421817738E+01  6.147943156E+01 -6.618789868E+02  6.772446985E+02  1.250039372E+02  0.00000E+00  9.000E+00
       5     1     1     2   501     0 -2.065663909E+01 -4.940847389E+01 -1.529122952E+02  1.620883294E+02  4.750000000E+00  0.00000E+00  9.000E+00
      -5     1     1     2     0   503 -1.232800811E+01 -1.313826331E+00 -3.843826737E+01  4.066655655E+01  4.750000000E+00  0.00000E+00  9.000E+00
      21     1     1     2   502   511 -1.233530176E+00 -1.075713134E+01 -1.091042893E+02  1.096402454E+02  1.907348633E-06  0.00000E+00  9.000E+00
#rwgt            1           9   2.9584431791484572E-003           1     2075979           0
</event>
<event>
      6   9999  3.45752E-01  1.46961E+01 -1.00000E+00  1.71145E-01
      21    -1     0     0   512   502  0.000000000E+00  0.000000000E+00  1.441582333E+02  1.441582333E+02  0.000000000E+00  0.00000E+00  9.000E+00
      21    -1     0     0   502   503  0.000000000E+00  0.000000000E+00 -1.293813824E+02  1.293813824E+02  0.000000000E+00  0.00000E+00  9.000E+00
      25     1     1     2     0     0  1.205314728E+01  1.915454600E+01 -8.471090504E+01  1.526850307E+02  1.249984247E+02  0.00000E+00  9.000E+00
       5     1     1     2   501     0  3.077684542E+00  2.983925864E-02  3.741387469E+01  3.783957653E+01  4.750000000E+00  0.00000E+00  9.000E+00
      -5     1     1     2     0   503 -4.558686957E+00 -2.939247227E+01  1.489931602E+01  3.360433262E+01  4.750000000E+00  0.00000E+00  9.000E+00
      21     1     1     2   512   501 -1.057214487E+01  1.020808701E+01  4.717456518E+01  4.941067584E+01  6.743495762E-07  0.00000E+00  9.000E+00
#rwgt            1           9   2.2527677626035483E-002           1     2079036           0
</event>
<event>
      6   9999  3.45752E-01  1.02342E+01 -1.00000E+00  1.86141E-01
      21    -1     0     0   501   502  0.000000000E+00  0.000000000E+00  7.360893255E+01  7.360893255E+01  0.000000000E+00  0.00000E+00  9.000E+00
      21    -1     0     0   511   503  0.000000000E+00  0.000000000E+00 -1.050909869E+03  1.050909869E+03  0.000000000E+00  0.00000E+00  9.000E+00
      25     1     1     2     0     0  8.847917883E+01 -1.263802641E+02 -4.659386121E+02  5.064825912E+02  1.250011548E+02  0.00000E+00  9.000E+00
       5     1     1     2   501     0  3.107642871E+00 -8.483057556E-01  4.223170587E+01  4.261990788E+01  4.750000000E+00  0.00000E+00  9.000E+00
      -5     1     1     2     0   503 -8.519944931E+01  1.192322883E+02 -5.118627960E+02  5.324484662E+02  4.750000000E+00  0.00000E+00  9.000E+00
      21     1     1     2   511   502 -6.387372392E+00  7.996281540E+00 -4.173123403E+01  4.296783609E+01  6.743495762E-07  0.00000E+00  9.000E+00
#rwgt            1           9   1.6430689829308787E-003           1     2081229           0
</event>
<event>
      6   9999 -3.45752E-01  1.41191E+01 -1.00000E+00  1.72681E-01
      21    -1     0     0   502   512  0.000000000E+00  0.000000000E+00  3.144801447E+00  3.144801447E+00  0.000000000E+00  0.00000E+00  9.000E+00
      21    -1     0     0   501   502  0.000000000E+00  0.000000000E+00 -4.014634531E+03  4.014634531E+03  0.000000000E+00  0.00000E+00  9.000E+00
      25     1     1     2     0     0  5.365930636E+01  2.301479026E+01 -2.331408168E+03  2.335487215E+03  1.250099410E+02  0.00000E+00  9.000E+00
       5     1     1     2   501     0 -6.375369281E+00  5.930876215E+00 -2.970716153E+02  2.972371574E+02  4.750000000E+00  0.00000E+00  9.000E+00
      -5     1     1     2     0   503 -3.576233008E+01 -2.078462286E+01 -1.311703159E+03  1.312363777E+03  4.750000000E+00  0.00000E+00  9.000E+00
      21     1     1     2   503   512 -1.152160700E+01 -8.161043617E+00 -7.130678849E+01  7.269118341E+01  1.348699152E-06  0.00000E+00  9.000E+00
#rwgt            1           9  -2.2193434786985789E-004           1     2085791           0
</event>
<event>
      6   9999  3.45752E-01  1.82748E+01 -1.00000E+00  1.63259E-01
      21    -1     0     0   511   502  0.000000000E+00  0.000000000E+00  1.062917280E+02  1.062917280E+02  0.000000000E+00  0.00000E+00  9.000E+00
      21    -1     0     0   502   503  0.000000000E+00  0.000000000E+00 -1.661482944E+03  1.661482944E+03  0.000000000E+00  0.00000E+00  9.000E+00
      25     1     1     2     0     0  2.158252769E+01  1.767601376E+01 -1.096778718E+03  1.104232057E+03  1.250065296E+02  0.00000E+00  9.000E+00
       5     1     1     2   501     0 -4.456580425E+00  5.052741861E+00  9.252656432E+01  9.289305095E+01  4.750000000E+00  0.00000E+00  9.000E+00
      -5     1     1     2     0   503 -3.391457792E+01 -1.550998051E+01 -5.510932992E+02  5.523740988E+02  4.750000000E+00  0.00000E+00  9.000E+00
      21     1     1     2   511   501  1.678863065E+01 -7.218775109E+00  1.542371764E-01  1.827546504E+01  4.470775194E-07  0.00000E+00  9.000E+00
#rwgt            1           9   7.9233758374506211E-004           1     2087479           0
</event>
<event>
      6   9999  3.45752E-01  1.02735E+01 -1.00000E+00  1.85968E-01
      21    -1     0     0   501   512  0.000000000E+00  0.000000000E+00  5.702880669E+02  5.702880669E+02  0.000000000E+00  0.00000E+00  9.000E+00
      21    -1     0     0   502   503  0.000000000E+00  0.000000000E+00 -8.412998366E+01  8.412998366E+01  0.000000000E+00  0.00000E+00  9.000E+00
      25     1     1     2     0     0 -4.599197047E+00  8.842799476E+00 -3.573675173E+01  1.303907334E+02  1.250011209E+02  0.00000E+00  9.000E+00
       5     1     1     2   501     0 -4.826001229E-01  3.843970322E-02  4.387803031E+01  4.413704141E+01  4.750000000E+00  0.00000E+00  9.000E+00
      -5     1     1     2     0   503 -2.877065955E-02  3.092579826E-02  5.522877512E+00  7.284672963E+00  4.750000000E+00  0.00000E+00  9.000E+00
      21     1     1     2   502   512  5.110567829E+00 -8.912164977E+00  4.724939271E+02  4.726056027E+02  5.394796609E-06  0.00000E+00  9.000E+00
#rwgt            1           9   1.4123017180805332E-002           1     2090667           0
</event>
<event>
      6   9999  3.45752E-01  5.49475E+00 -1.00000E+00  2.19521E-01
      21    -1     0     0   511   502  0.000000000E+00  0.000000000E+00  1.474723146E+01  1.474723146E+01  0.000000000E+00  0.00000E+00  9.000E+00
      21    -1     0     0   502   503  0.000000000E+00  0.000000000E+00 -8.352302866E+02  8.352302866E+02  0.000000000E+00  0.00000E+00  9.000E+00
      25     1     1     2     0     0  2.423411566E+00  2.292104315E+00 -7.904828187E+02  8.003122621E+02  1.250020140E+02  0.00000E+00  9.000E+00
       5     1     1     2   501     0  3.913202544E+00  2.102909269E+00  5.253402512E+00  8.360389913E+00  4.750000000E+00  0.00000E+00  9.000E+00
      -5     1     1     2     0   503 -2.166122079E+00 -8.174027427E-01 -3.541568059E+01  3.580772491E+01  4.750000000E+00  0.00000E+00  9.000E+00
      21     1     1     2   511   501 -4.170492031E+00 -3.577610841E+00  1.620416589E-01  5.497141131E+00  3.782912614E-07  0.00000E+00  9.000E+00
#rwgt            1           9   4.7489849859674932E-007           1     2093842           0
</event>
<event>
      6   9999  3.45752E-01  1.10822E+01 -1.00000E+00  1.82612E-01
      21    -1     0     0   501   502  0.000000000E+00  0.000000000E+00  2.352054186E+03  2.352054186E+03  0.000000000E+00  0.00000E+00  9.000E+00
      21    -1     0     0   512   503  0.000000000E+00  0.000000000E+00 -8.765924443E+00  8.765924443E+00  0.000000000E+00  0.00000E+00  9.000E+00
      25     1     1     2     0     0  7.386830556E+00  7.861882533E+00  2.085068864E+03  2.088840270E+03  1.250005250E+02  0.00000E+00  9.000E+00
       5     1     1     2   501     0  2.130692994E-01  2.099871993E-01  2.047602080E+02  2.048155140E+02  4.750000000E+00  0.00000E+00  9.000E+00
      -5     1     1     2     0   503  1.286862855E-02 -1.826625778E-02  5.566286201E+01  5.586516989E+01  4.750000000E+00  0.00000E+00  9.000E+00
      21     1     1     2   512   502 -7.612768484E+00 -8.053603475E+00 -2.203672274E+00  1.129915680E+01  1.452691270E-06  0.00000E+00  9.000E+00
#rwgt            1           9   8.3085157579883354E-005           1     2097874           0
</event>
<event>
      6   9999  3.45752E-01  4.09856E+00 -1.00000E+00  2.45682E-01
      21    -1     0     0   511   502  0.000000000E+00  0.000000000E+00  6.344658324E+01  6.344658324E+01  0.000000000E+00  0.00000E+00  9.000E+00
      21    -1     0     0   502   503  0.000000000E+00  0.000000000E+00 -7.276695500E+02  7.276695500E+02  0.000000000E+00  0.00000E+00  9.000E+00
      25     1     1     2     0     0  3.557597117E+00 -1.003084721E+00 -5.474628901E+02  5.615688742E+02  1.250212853E+02  0.00000E+00  9.000E+00
       5     1     1     2   501     0 -2.159846366E-01  5.753741110E-01 -4.221258460E+00  6.384295397E+00  4.750000000E+00  0.00000E+00  9.000E+00
      -5     1     1     2     0   503 -7.256751614E+00  1.640083664E+00 -1.676587094E+02  1.678909041E+02  4.750000000E+00  0.00000E+00  9.000E+00
      21     1     1     2   511   501  3.915139134E+00 -1.212373054E+00  5.511989121E+01  5.527205958E+01  2.132480600E-06  0.00000E+00  9.000E+00
#rwgt            1           9   3.2269501473095041E-004           1     2099606           0
</event>
<event>
      6   9999  3.45752E-01  1.00872E+01 -1.00000E+00  1.86797E-01
      21    -1     0     0   501   502  0.000000000E+00  0.000000000E+00  1.149014793E+03  1.149014793E+03  0.000000000E+00  0.00000E+00  9.000E+00
      21    -1     0     0   512   503  0.000000000E+00  0.000000000E+00 -5.298127202E+01  5.298127202E+01  0.000000000E+00  0.00000E+00  9.000E+00
      25     1     1     2     0     0  4.075336411E+01  1.861211671E+01  5.728185154E+02  5.880090903E+02  1.250055640E+02  0.00000E+00  9.000E+00
       5     1     1     2   501     0 -5.817271429E+00  5.144911393E+00  5.470114809E+02  5.470872266E+02  4.750000000E+00  0.00000E+00  9.000E+00
      -5     1     1     2     0   503 -4.497779396E+01 -2.471373506E+01 -2.390133239E+01  5.681203077E+01  4.750000000E+00  0.00000E+00  9.000E+00
      21     1     1     2   512   502  1.004170128E+01  9.567069562E-01  1.048573010E-01  1.008771767E+01  4.449207795E-07  0.00000E+00  9.000E+00
#rwgt            1           9  0.86106633379642794                1     2104079           0
</event>
<event>
      6   9999  3.45752E-01  9.54346E+00 -1.00000E+00  1.89357E-01
      21    -1     0     0   511   502  0.000000000E+00  0.000000000E+00  3.385496951E+01  3.385496951E+01  0.000000000E+00  0.00000E+00  9.000E+00
      21    -1     0     0   502   503  0.000000000E+00  0.000000000E+00 -6.954169807E+02  6.954169807E+02  0.000000000E+00  0.00000E+00  9.000E+00
      25     1     1     2     0     0 -1.027676013E+00 -1.007760934E+01 -6.639359346E+02  6.756761126E+02  1.249986780E+02  0.00000E+00  9.000E+00
       5     1     1     2   501     0 -9.626087710E-01  6.711444550E-01 -1.102353556E+01  1.206059231E+01  4.750000000E+00  0.00000E+00  9.000E+00
      -5     1     1     2     0   503 -4.456087984E-01  1.791070544E-01 -1.279587222E+01  1.365750681E+01  4.750000000E+00  0.00000E+00  9.000E+00
      21     1     1     2   511   501  2.435893582E+00  9.227357832E+00  2.619333116E+01  2.787773857E+01  1.305872339E-06  0.00000E+00  9.000E+00
#rwgt            1           9   1.5437922791462853E-003           1     2108155           0
</event>
<event>
      6   9999 -3.45752E-01  3.34315E+01 -1.00000E+00  1.44859E-01
      21    -1     0     0   502   512  0.000000000E+00  0.000000000E+00  1.678839854E+02  1.678839854E+02  0.000000000E+00  0.00000E+00  9.000E+00
      21    -1     0     0   501   502  0.000000000E+00  0.000000000E+00 -1.332612633E+03  1.332612633E+03  0.000000000E+00  0.00000E+00  9.000E+00
      25     1     1     2     0     0 -2.206628387E+01 -1.197356812E+02 -6.276263941E+02  6.514322805E+02  1.250022854E+02  0.00000E+00  9.000E+00
       5     1     1     2   501     0  2.893637260E+01 -2.110782353E+01 -5.314671195E+02  5.326938290E+02  4.750000000E+00  0.00000E+00  9.000E+00
      -5     1     1     2     0   503 -3.914445918E+01  1.495630595E+02 -1.209236301E+02  1.963325859E+02  4.750000000E+00  0.00000E+00  9.000E+00
      21     1     1     2   503   512  3.227437045E+01 -8.719554729E+00  1.152884961E+02  1.200379230E+02  1.907348633E-06  0.00000E+00  9.000E+00
#rwgt            1           9  -3.9635542687637406E-003           1     2110247           0
</event>
<event>
      6   9999  3.45752E-01  1.81717E+01 -1.00000E+00  1.63455E-01
      21    -1     0     0   501   502  0.000000000E+00  0.000000000E+00  1.082603482E+01  1.082603482E+01  0.000000000E+00  0.00000E+00  9.000E+00
      21    -1     0     0   502   511  0.000000000E+00  0.000000000E+00 -1.088109479E+03  1.088109479E+03  0.000000000E+00  0.00000E+00  9.000E+00
      25     1     1     2     0     0 -6.478759509E+00 -7.489037325E+00 -7.504444363E+02  7.608483728E+02  1.250013373E+02  0.00000E+00  9.000E+00
       5     1     1     2   501     0 -4.621235898E+00 -4.007798871E+00  2.292244414E+00  8.076828429E+00  4.750000000E+00  0.00000E+00  9.000E+00
      -5     1     1     2     0   503 -1.248851099E+00 -1.834218266E+00 -4.629606209E+01  4.659197196E+01  4.750000000E+00  0.00000E+00  9.000E+00
      21     1     1     2   503   511  1.234884651E+01  1.333105446E+01 -2.828351906E+02  2.834183411E+02  3.814697266E-06  0.00000E+00  9.000E+00
#rwgt            1           9   1.2739160973283947E-004           1     2112530           0
</event>
<event>
      6   9999  3.45752E-01  5.53017E+00 -1.00000E+00  2.19112E-01
      21    -1     0     0   501   502  0.000000000E+00  0.000000000E+00  1.358581327E+01  1.358581327E+01  0.000000000E+00  0.00000E+00  9.000E+00
      21    -1     0     0   512   503  0.000000000E+00  0.000000000E+00 -9.242125401E+02  9.242125401E+02  0.000000000E+00  0.00000E+00  9.000E+00
      25     1     1     2     0     0  2.484711163E+01  5.605556978E+00 -5.456850581E+02  5.603977643E+02  1.249986811E+02  0.00000E+00  9.000E+00
       5     1     1     2   501     0 -9.951160204E-01  2.076756779E+00  3.847326371E+00  6.532043694E+00  4.750000000E+00  0.00000E+00  9.000E+00
      -5     1     1     2     0   503 -2.930529592E+01 -8.601164904E+00 -2.429706594E+02  2.449287330E+02  4.750000000E+00  0.00000E+00  9.000E+00
      21     1     1     2   512   502  5.453300318E+00  9.188511458E-01 -1.258183357E+02  1.259398125E+02  1.907348633E-06  0.00000E+00  9.000E+00
#rwgt            1           9   7.1964576700157740E-002           1     2114016           0
</event>
<event>
      6   9999  3.45752E-01  5.47852E+00 -1.00000E+00  2.19710E-01
      21    -1     0     0   501   502  0.000000000E+00  0.000000000E+00  2.848076486E+03  2.848076486E+03  0.000000000E+00  0.00000E+00  9.000E+00
      21    -1     0     0   511   503  0.000000000E+00  0.000000000E+00 -2.913606037E+01  2.913606037E+01  0.000000000E+00  0.00000E+00  9.000E+00
      25     1     1     2     0     0 -3.050561803E+00 -3.240281882E+00  2.602716740E+03  2.605719802E+03  1.249858201E+02  0.00000E+00  9.000E+00
       5     1     1     2   501     0 -8.122744074E-02 -4.014026928E-01  2.129345139E+02  2.129878809E+02  4.750000000E+00  0.00000E+00  9.000E+00
      -5     1     1     2     0   503  2.668422408E+00 -1.817200266E+00  3.035326229E+01  3.089183916E+01  4.750000000E+00  0.00000E+00  9.000E+00
      21     1     1     2   511   502  4.633668363E-01  5.458884841E+00 -2.706409010E+01  2.761302420E+01  3.337860107E-06  0.00000E+00  9.000E+00
#rwgt            1           9   4.7596345113055669E-003           1     2118216           0
</event>
<event>
      6   9999  3.45752E-01  8.27314E+00 -1.00000E+00  1.96305E-01
      21    -1     0     0   502   512  0.000000000E+00  0.000000000E+00  5.679601502E+01  5.679601502E+01  0.000000000E+00  0.00000E+00  9.000E+00
      21    -1     0     0   501   502  0.000000000E+00  0.000000000E+00 -1.257608979E+03  1.257608979E+03  0.000000000E+00  0.00000E+00  9.000E+00
      25     1     1     2     0     0  5.633207045E+01 -8.962576715E+00 -5.531137849E+01  1.481175130E+02  1.250032764E+02  0.00000E+00  9.000E+00
       5     1     1     2   501     0 -3.074113009E+01 -2.680959707E+01 -1.005144880E+03  1.005983382E+03  4.750000000E+00  0.00000E+00  9.000E+00
      -5     1     1     2     0   503 -1.738958495E+01  3.685967601E+01 -1.450847279E+02  1.507752438E+02  4.750000000E+00  0.00000E+00  9.000E+00
      21     1     1     2   503   512 -8.201355411E+00 -1.087502229E+00  4.728022532E+00  9.528855584E+00  4.768371582E-07  0.00000E+00  9.000E+00
#rwgt            1           9   3.4455562381174434E-002           1     2121052           0
</event>
<event>
      6   9999  3.45752E-01  3.73747E+00 -1.00000E+00  2.54114E-01
      21    -1     0     0   501   502  0.000000000E+00  0.000000000E+00  1.334272890E+01  1.334272890E+01  0.000000000E+00  0.00000E+00  9.000E+00
      21    -1     0     0   511   503  0.000000000E+00  0.000000000E+00 -2.740586619E+03  2.740586619E+03  0.000000000E+00  0.00000E+00  9.000E+00
      25     1     1     2     0     0  1.557950013E+01 -2.224456415E+01 -1.059037543E+03  1.066733143E+03  1.249861564E+02  0.00000E+00  9.000E+00
       5     1     1     2   501     0  1.601205894E+00  1.479825097E+00  7.681540267E+00  9.290979685E+00  4.750000000E+00  0.00000E+00  9.000E+00
      -5     1     1     2     0   503 -1.723251325E+01  1.702762545E+01 -1.503932387E+02  1.524059982E+02  4.750000000E+00  0.00000E+00  9.000E+00
      21     1     1     2   511   502  5.180722440E-02  3.737113608E+00 -1.525494648E+03  1.525499227E+03  2.157918644E-05  0.00000E+00  9.000E+00
#rwgt            1           9   6.1322976777093176E-003           1     2125340           0
</event>
<event>
      6   9999  3.45752E-01  2.33874E+01 -1.00000E+00  1.55191E-01
       2    -1     0     0   501     0  0.000000000E+00  0.000000000E+00  5.278018620E+02  5.278018620E+02  0.000000000E+00  0.00000E+00  9.000E+00
      21    -1     0     0   502   503  0.000000000E+00  0.000000000E+00 -6.623580424E+02  6.623580424E+02  0.000000000E+00  0.00000E+00  9.000E+00
      25     1     1     2     0     0 -1.252274822E+02  4.956108689E+01 -2.326004009E+02  2.964279139E+02  1.250133512E+02  0.00000E+00  9.000E+00
       5     1     1     2   501     0 -4.286039893E+00 -8.208471101E+00  7.905295172E+01  7.973506638E+01  4.750000000E+00  0.00000E+00  9.000E+00
      -5     1     1     2     0   503  1.337098909E+02 -6.436045865E+01 -3.832878116E+02  4.110385779E+02  4.750000000E+00  0.00000E+00  9.000E+00
       2     1     1     2   502     0 -4.196368766E+00  2.300784286E+01  4.022790803E+02  4.029583462E+02  5.394796609E-06  0.00000E+00  9.000E+00
#rwgt            1           9   4.2095388169836188                1     2130726           0
</event>
<event>
      6   9999  3.45752E-01  2.45850E+01 -1.00000E+00  1.53657E-01
      21    -1     0     0   501   502  0.000000000E+00  0.000000000E+00  1.030806736E+03  1.030806736E+03  0.000000000E+00  0.00000E+00  9.000E+00
      21    -1     0     0   502   511  0.000000000E+00  0.000000000E+00 -1.701916803E+01  1.701916803E+01  0.000000000E+00  0.00000E+00  9.000E+00
      25     1     1     2     0     0  2.839610230E+01 -7.906461695E+01  6.719462559E+02  6.886176434E+02  1.249997425E+02  0.00000E+00  9.000E+00
       5     1     1     2   501     0  1.067142753E+00 -2.172006110E+00  1.287250099E+02  1.288353487E+02  4.750000000E+00  0.00000E+00  9.000E+00
      -5     1     1     2     0   503 -1.669376109E+01  6.022795506E+01  1.601609671E+02  1.719889127E+02  4.750000000E+00  0.00000E+00  9.000E+00
      21     1     1     2   503   511 -1.276948397E+01  2.100866800E+01  5.295533512E+01  5.838399926E+01  6.743495762E-07  0.00000E+00  9.000E+00
#rwgt            1           9   2.6471866182118057E-002           1     2133260           0
</event>
<event>
      6   9999  3.45752E-01  4.44221E+01 -1.00000E+00  1.37595E-01
      21    -1     0     0   501   512  0.000000000E+00  0.000000000E+00  9.526003752E+01  9.526003752E+01  0.000000000E+00  0.00000E+00  9.000E+00
      21    -1     0     0   502   503  0.000000000E+00  0.000000000E+00 -8.409205200E+02  8.409205200E+02  0.000000000E+00  0.00000E+00  9.000E+00
      25     1     1     2     0     0  7.126925270E+01 -4.672169261E+00 -6.362201695E+02  6.523049838E+02  1.249982090E+02  0.00000E+00  9.000E+00
       5     1     1     2   501     0 -3.265023265E+01  2.803851330E+01 -1.191164840E+02  1.267418446E+02  4.750000000E+00  0.00000E+00  9.000E+00
      -5     1     1     2     0   503  3.611309676E+00 -9.585028532E+00 -6.731016910E+01  6.825053622E+01  4.750000000E+00  0.00000E+00  9.000E+00
      21     1     1     2   502   512 -4.223032972E+01 -1.378131551E+01  7.698634013E+01  8.888319286E+01  3.303624740E-06  0.00000E+00  9.000E+00
#rwgt            1           9   4.2707800947641705E-003           1     2134671           0
</event>
<event>
      6   9999  3.45752E-01  2.38398E+01 -1.00000E+00  1.54599E-01
      21    -1     0     0   501   502  0.000000000E+00  0.000000000E+00  4.250189768E+01  4.250189768E+01  0.000000000E+00  0.00000E+00  9.000E+00
      21    -1     0     0   511   503  0.000000000E+00  0.000000000E+00 -1.267321668E+03  1.267321668E+03  0.000000000E+00  0.00000E+00  9.000E+00
      25     1     1     2     0     0 -2.133660730E+01  9.712442015E+00 -1.057262306E+03  1.064885467E+03  1.250115641E+02  0.00000E+00  9.000E+00
       5     1     1     2   501     0 -5.797857080E+00  1.413376224E+01  3.516500692E+01  3.863312819E+01  4.750000000E+00  0.00000E+00  9.000E+00
      -5     1     1     2     0   503  1.231025512E+01 -5.175873819E+00 -8.769438481E+01  8.883242470E+01  4.750000000E+00  0.00000E+00  9.000E+00
      21     1     1     2   511   502  1.482420927E+01 -1.867033044E+01 -1.150280869E+02  1.174725465E+02  2.336015456E-06  0.00000E+00  9.000E+00
#rwgt            1           9   7.5503766364354132E-003           1     2135479           0
</event>
<event>
      6   9999 -3.45752E-01  3.23556E+01 -1.00000E+00  1.45745E-01
      -1    -1     0     0     0   502  0.000000000E+00  0.000000000E+00  7.525312657E+02  7.525312657E+02  0.000000000E+00  0.00000E+00  9.000E+00
      21    -1     0     0   502   503  0.000000000E+00  0.000000000E+00 -8.813770239E+02  8.813770239E+02  0.000000000E+00  0.00000E+00  9.000E+00
      25     1     1     2     0     0  5.153067862E+01 -4.432927173E+00 -5.140547760E+02  5.315563393E+02  1.249990695E+02  0.00000E+00  9.000E+00
       5     1     1     2   501     0 -3.157098196E+01  4.346799113E+01 -1.822056087E+02  1.900201029E+02  4.750000000E+00  0.00000E+00  9.000E+00
      -5     1     1     2     0   503  9.923389469E+00 -2.663007788E+01 -1.708983452E+02  1.733102466E+02  4.750000000E+00  0.00000E+00  9.000E+00
      -1     1     1     2     0   501 -2.988308614E+01 -1.240498607E+01  7.383129716E+02  7.390216009E+02  1.078959322E-05  0.00000E+00  9.000E+00
#rwgt            1           9  -2.6464958305104529E-002           1     2138162           0
</event>
<event>
      6   9999  3.45752E-01  4.84862E+00 -1.00000E+00  2.31736E-01
       3    -1     0     0   501     0  0.000000000E+00  0.000000000E+00  5.701134682E+02  5.701134682E+02  0.000000000E+00  0.00000E+00  9.000E+00
      21    -1     0     0   502   503  0.000000000E+00  0.000000000E+00 -3.255714243E+02  3.255714243E+02  0.000000000E+00  0.00000E+00  9.000E+00
      25     1     1     2     0     0  1.316892878E+01 -1.554596621E+01 -2.060012505E+02  2.418187111E+02  1.249987043E+02  0.00000E+00  9.000E+00
       5     1     1     2   501     0  9.030640755E-01  3.851062959E-01  4.006671239E+00  6.291243597E+00  4.750000000E+00  0.00000E+00  9.000E+00
      -5     1     1     2     0   503 -1.112692132E+01  1.130915595E+01 -9.982619900E+01  1.011906018E+02  4.750000000E+00  0.00000E+00  9.000E+00
       3     1     1     2   502     0 -2.945071540E+00  3.851703971E+00  5.463628222E+02  5.463843360E+02  0.000000000E+00  0.00000E+00  9.000E+00
#rwgt            1           9   1.7382604818640013E-004           1     2139488           0
</event>
<event>
      6   9999  3.45752E-01  2.14302E+01 -1.00000E+00  1.57954E-01
      21    -1     0     0   501   502  0.000000000E+00  0.000000000E+00  9.078655356E+00  9.078655356E+00  0.000000000E+00  0.00000E+00  9.000E+00
      21    -1     0     0   511   503  0.000000000E+00  0.000000000E+00 -8.419875705E+02  8.419875705E+02  0.000000000E+00  0.00000E+00  9.000E+00
      25     1     1     2     0     0 -1.348861960E+00 -1.063138493E+01 -5.130475145E+02  5.281633144E+02  1.249955549E+02  0.00000E+00  9.000E+00
       5     1     1     2   501     0 -8.378191956E+00  1.329097888E-01 -7.889414131E+01  7.947993330E+01  4.750000000E+00  0.00000E+00  9.000E+00
      -5     1     1     2     0   503 -5.862499736E+00 -4.205854979E+00 -1.368918428E+02  1.371641252E+02  4.750000000E+00  0.00000E+00  9.000E+00
      21     1     1     2   511   502  1.558955365E+01  1.470433012E+01 -1.040754165E+02  1.062588530E+02  1.348699152E-06  0.00000E+00  9.000E+00
#rwgt            1           9   2.0625751553670165E-004           1     2143728           0
</event>
<event>
      6   9999  3.45752E-01  9.81100E+00 -1.00000E+00  1.88071E-01
      21    -1     0     0   512   502  0.000000000E+00  0.000000000E+00  4.920248310E+01  4.920248310E+01  0.000000000E+00  0.00000E+00  9.000E+00
      21    -1     0     0   502   503  0.000000000E+00  0.000000000E+00 -1.003514803E+03  1.003514803E+03  0.000000000E+00  0.00000E+00  9.000E+00
      25     1     1     2     0     0 -3.499357545E+01 -6.287173602E+00 -8.864126797E+02  8.958885911E+02  1.249994005E+02  0.00000E+00  9.000E+00
       5     1     1     2   501     0 -3.309941631E+00  1.617783666E+00  1.371009001E+01  1.497003693E+01  4.750000000E+00  0.00000E+00  9.000E+00
      -5     1     1     2     0   503  2.860808027E+01  6.170797389E+00 -1.088970866E+02  1.128611490E+02  4.750000000E+00  0.00000E+00  9.000E+00
      21     1     1     2   512   501  9.695436815E+00 -1.501407453E+00  2.728735629E+01  2.899750907E+01  1.261592536E-06  0.00000E+00  9.000E+00
#rwgt            1           9   1.8288291563495101E-003           1     2144973           0
</event>
<event>
      6   9999  3.45752E-01  1.75322E+01 -1.00000E+00  1.64702E-01
      21    -1     0     0   501   502  0.000000000E+00  0.000000000E+00  3.121671964E+01  3.121671964E+01  0.000000000E+00  0.00000E+00  9.000E+00
      21    -1     0     0   502   511  0.000000000E+00  0.000000000E+00 -1.411795727E+03  1.411795727E+03  0.000000000E+00  0.00000E+00  9.000E+00
      25     1     1     2     0     0 -5.377473242E+00  1.075642694E+01 -1.094556504E+03  1.101736497E+03  1.249990011E+02  0.00000E+00  9.000E+00
       5     1     1     2   501     0 -3.577623224E+00 -4.177418685E+00  2.652611624E+01  2.750359172E+01  4.750000000E+00  0.00000E+00  9.000E+00
      -5     1     1     2     0   503 -6.038411266E+00  2.508041494E+00 -5.095963655E+01  5.159650899E+01  4.750000000E+00  0.00000E+00  9.000E+00
      21     1     1     2   503   511  1.499350773E+01 -9.087049751E+00 -2.615889828E+02  2.621758488E+02  3.814697266E-06  0.00000E+00  9.000E+00
#rwgt            1           9   5.5141070263729837E-002           1     2148314           0
</event>
<event>
      6   9999  3.45752E-01  5.62208E+00 -1.00000E+00  2.18071E-01
      21    -1     0     0   512   503  0.000000000E+00  0.000000000E+00  2.175146533E+01  2.175146533E+01  0.000000000E+00  0.00000E+00  9.000E+00
      21    -1     0     0   501   502  0.000000000E+00  0.000000000E+00 -7.132937446E+02  7.132937446E+02  0.000000000E+00  0.00000E+00  9.000E+00
      25     1     1     2     0     0  4.968491117E+00  5.833049665E+00 -6.046240978E+02  6.174585028E+02  1.250039709E+02  0.00000E+00  9.000E+00
       5     1     1     2   501     0 -5.120813818E-01  2.336594252E+00 -5.979422662E+01  6.003027518E+01  4.750000000E+00  0.00000E+00  9.000E+00
      -5     1     1     2     0   503 -9.227244832E+00 -5.195261306E+00 -4.098609495E+01  4.259759695E+01  4.750000000E+00  0.00000E+00  9.000E+00
      21     1     1     2   512   502  4.770835097E+00 -2.974382611E+00  1.386214002E+01  1.495883503E+01  1.450243599E-06  0.00000E+00  9.000E+00
#rwgt            1           9   7.1431486073511487E-003           1     2151052           0
</event>
<event>
      6   9999  3.45752E-01  8.44316E+00 -1.00000E+00  1.95283E-01
       2    -1     0     0   502     0  0.000000000E+00  0.000000000E+00  6.048495984E+01  6.048495984E+01  0.000000000E+00  0.00000E+00  9.000E+00
      21    -1     0     0   501   502  0.000000000E+00  0.000000000E+00 -7.448513562E+02  7.448513562E+02  0.000000000E+00  0.00000E+00  9.000E+00
      25     1     1     2     0     0  2.584678145E+01  1.854615094E+01 -5.847173412E+02  5.987754444E+02  1.250025916E+02  0.00000E+00  9.000E+00
       5     1     1     2   501     0 -1.337891896E+01 -9.506725912E+00 -1.110796189E+02  1.123860203E+02  4.750000000E+00  0.00000E+00  9.000E+00
      -5     1     1     2     0   503 -4.028811170E+00 -8.775993080E+00 -4.032440375E+01  4.173570908E+01  4.750000000E+00  0.00000E+00  9.000E+00
       2     1     1     2   503     0 -8.439051323E+00 -2.634319470E-01  5.175496751E+01  5.243914230E+01  2.523185073E-06  0.00000E+00  9.000E+00
#rwgt            1           9   1.9658659853976222E-004           1     2154389           0
</event>
<event>
      6   9999  3.45752E-01  3.78507E+00 -1.00000E+00  2.52921E-01
      21    -1     0     0   501   502  0.000000000E+00  0.000000000E+00  4.671845842E+01  4.671845842E+01  0.000000000E+00  0.00000E+00  9.000E+00
      21    -1     0     0   511   503  0.000000000E+00  0.000000000E+00 -2.773618449E+02  2.773618449E+02  0.000000000E+00  0.00000E+00  9.000E+00
      25     1     1     2     0     0  9.988618179E+00 -1.093636244E+01 -1.769134083E+02  2.171249032E+02  1.250019721E+02  0.00000E+00  9.000E+00
       5     1     1     2   501     0 -1.177574303E+00 -2.983147940E-02  2.553262918E+01  2.599740803E+01  4.750000000E+00  0.00000E+00  9.000E+00
      -5     1     1     2     0   503 -5.041971585E+00  1.061858420E+01 -6.258675419E+01  6.385796825E+01  4.750000000E+00  0.00000E+00  9.000E+00
      21     1     1     2   511   502 -3.769072291E+00  3.476097107E-01 -1.667585317E+01  1.710002390E+01  2.384185791E-07  0.00000E+00  9.000E+00
#rwgt            1           9   15.026529868725756                1     2157401           0
</event>
<event>
      6   9999  3.45752E-01  5.48399E+01 -1.00000E+00  1.32675E-01
       2    -1     0     0   501     0  0.000000000E+00  0.000000000E+00  4.936425378E+02  4.936425378E+02  0.000000000E+00  0.00000E+00  9.000E+00
      -2    -1     0     0     0   512  0.000000000E+00  0.000000000E+00 -2.110745895E+02  2.110745895E+02  0.000000000E+00  0.00000E+00  9.000E+00
      25     1     1     2     0     0 -1.467467052E+02  7.647754217E-01  3.597138331E+02  4.081114021E+02  1.250027779E+02  0.00000E+00  9.000E+00
       5     1     1     2   501     0  6.964286120E+01 -4.752318510E+01 -1.539102953E+01  8.583721529E+01  4.750000000E+00  0.00000E+00  9.000E+00
      -5     1     1     2     0   502  1.319316963E+02  4.561116303E+01 -6.840765996E+01  1.555265930E+02  4.750000000E+00  0.00000E+00  9.000E+00
      21     1     1     2   502   512 -5.482785236E+01  1.147246655E+00  6.652804670E+00  5.524191687E+01  7.052516679E-07  0.00000E+00  9.000E+00
#rwgt            1           4   6.7187315645042092E-005           1     2162716           0
</event>
<event>
      6   9999  3.45752E-01  2.38807E+00 -1.00000E+00  3.05683E-01
      21    -1     0     0   511   502  0.000000000E+00  0.000000000E+00  1.025281911E+02  1.025281911E+02  0.000000000E+00  0.00000E+00  9.000E+00
      21    -1     0     0   502   503  0.000000000E+00  0.000000000E+00 -1.180092402E+03  1.180092402E+03  0.000000000E+00  0.00000E+00  9.000E+00
      25     1     1     2     0     0  1.559805383E+00  1.748018357E+00 -1.123700164E+03  1.130633675E+03  1.249998460E+02  0.00000E+00  9.000E+00
       5     1     1     2   501     0 -1.057590862E-01  5.976662261E-01 -1.001286946E+01  1.109902900E+01  4.750000000E+00  0.00000E+00  9.000E+00
      -5     1     1     2     0   503 -1.170455231E+00  2.548450055E-02 -4.221377655E+01  4.249630625E+01  4.750000000E+00  0.00000E+00  9.000E+00
      21     1     1     2   511   501 -2.835910654E-01 -2.371169084E+00  9.836259823E+01  9.839158296E+01  5.046370146E-06  0.00000E+00  9.000E+00
#rwgt            1           9   1.5630973957723380E-004           1     2162956           0
</event>
<event>
      6   9999 -3.45752E-01  9.37236E+00 -1.00000E+00  1.90209E-01
      21    -1     0     0   501   512  0.000000000E+00  0.000000000E+00  9.779429029E+00  9.779429029E+00  0.000000000E+00  0.00000E+00  9.000E+00
      21    -1     0     0   502   503  0.000000000E+00  0.000000000E+00 -1.981671369E+03  1.981671369E+03  0.000000000E+00  0.00000E+00  9.000E+00
      25     1     1     2     0     0 -2.354675186E+00  8.499680632E+00 -1.884872233E+03  1.889032888E+03  1.249965101E+02  0.00000E+00  9.000E+00
       5     1     1     2   501     0 -1.107608718E-01  2.095119618E+00  2.867902217E+00  5.932044952E+00  4.750000000E+00  0.00000E+00  9.000E+00
      -5     1     1     2     0   503  3.474778381E+00 -1.276950448E+00 -8.620638524E+01  8.641648016E+01  4.750000000E+00  0.00000E+00  9.000E+00
      21     1     1     2   502   512 -1.009342323E+00 -9.317849802E+00 -3.681223224E+00  1.006938435E+01  4.878850443E-07  0.00000E+00  9.000E+00
#rwgt            1           9  -1.3249717178491900                1     2168450           0
</event>
<event>
      6   9999 -3.45752E-01  8.43120E+00 -1.00000E+00  1.95354E-01
       2    -1     0     0   501     0  0.000000000E+00  0.000000000E+00  5.238064806E+01  5.238064806E+01  0.000000000E+00  0.00000E+00  9.000E+00
      21    -1     0     0   502   503  0.000000000E+00  0.000000000E+00 -8.108723461E+02  8.108723461E+02  0.000000000E+00  0.00000E+00  9.000E+00
      25     1     1     2     0     0  4.644551572E+01  1.869730586E+01 -5.845386525E+02  5.998474351E+02  1.249989355E+02  0.00000E+00  9.000E+00
       5     1     1     2   501     0  2.198861173E-01  1.771128819E+00  4.071855245E+00  6.505978200E+00  4.750000000E+00  0.00000E+00  9.000E+00
      -5     1     1     2     0   503 -3.838682003E+01 -1.887148677E+01 -2.148517803E+02  2.191199009E+02  4.750000000E+00  0.00000E+00  9.000E+00
       2     1     1     2   502     0 -8.278581808E+00 -1.596947912E+00  3.682687957E+01  3.777967997E+01  1.261592536E-06  0.00000E+00  9.000E+00
#rwgt            1           9  -3.0991021236838085E-004           1     2171224           0
</event>
<event>
      6   9999  3.45752E-01  8.96695E+01 -1.00000E+00  1.22482E-01
      21    -1     0     0   511   502  0.000000000E+00  0.000000000E+00  3.298915242E+01  3.298915242E+01  0.000000000E+00  0.00000E+00  9.000E+00
      21    -1     0     0   502   503  0.000000000E+00  0.000000000E+00 -2.241172782E+03  2.241172782E+03  0.000000000E+00  0.00000E+00  9.000E+00
      25     1     1     2     0     0 -2.421834193E+01 -5.925795308E+01 -1.382311911E+03  1.389411090E+03  1.248155568E+02  0.00000E+00  9.000E+00
       5     1     1     2   501     0 -2.219733973E+01  3.152170514E+01 -3.459929499E+02  3.481666608E+02  4.750000000E+00  0.00000E+00  9.000E+00
      -5     1     1     2     0   503 -2.439154457E+01 -2.728160719E+01 -4.345400970E+02  4.361042214E+02  4.750000000E+00  0.00000E+00  9.000E+00
      21     1     1     2   511   501  7.080722623E+01  5.501785513E+01 -4.533867081E+01  1.004799619E+02  2.861022949E-06  0.00000E+00  9.000E+00
#rwgt            1           9   2.7431040808388013E-002           1     2174051           0
</event>
<event>
      6   9999  3.45752E-01  3.13516E+01 -1.00000E+00  1.46611E-01
      21    -1     0     0   501   502  0.000000000E+00  0.000000000E+00  1.471518127E+02  1.471518127E+02  0.000000000E+00  0.00000E+00  9.000E+00
      21    -1     0     0   512   503  0.000000000E+00  0.000000000E+00 -1.118480800E+03  1.118480800E+03  0.000000000E+00  0.00000E+00  9.000E+00
      25     1     1     2     0     0  1.016291424E-01  1.252876680E+01 -4.647376435E+02  4.814166435E+02  1.249957081E+02  0.00000E+00  9.000E+00
       5     1     1     2   501     0  9.013148734E+00 -4.036895112E-01  1.293307730E+02  1.297320745E+02  4.750000000E+00  0.00000E+00  9.000E+00
      -5     1     1     2     0   503  1.968058569E+01 -2.452457850E+01 -1.958217171E+01  3.734707957E+01  4.750000000E+00  0.00000E+00  9.000E+00
      21     1     1     2   512   502 -2.879536357E+01  1.239950121E+01 -6.163399447E+02  6.171368147E+02  7.629394531E-06  0.00000E+00  9.000E+00
#rwgt            1           9   1.2273720623436160E-003           1     2174706           0
</event>
<event>
      6   9999  3.45752E-01  9.51780E+00 -1.00000E+00  1.89483E-01
      21    -1     0     0   501   502  0.000000000E+00  0.000000000E+00  6.843598724E+01  6.843598724E+01  0.000000000E+00  0.00000E+00  9.000E+00
      21    -1     0     0   511   503  0.000000000E+00  0.000000000E+00 -3.999046712E+02  3.999046712E+02  0.000000000E+00  0.00000E+00  9.000E+00
      25     1     1     2     0     0 -8.280459000E+00  6.698578881E+00 -2.047085662E+01  1.271122144E+02  1.250000884E+02  0.00000E+00  9.000E+00
       5     1     1     2   501     0 -1.438581561E+00 -5.858655953E-02  1.311794702E+01  1.402554752E+01  4.750000000E+00  0.00000E+00  9.000E+00
      -5     1     1     2     0   503  1.152156757E+00 -2.493067623E+00 -3.636931567E+00  6.582751901E+00  4.750000000E+00  0.00000E+00  9.000E+00
      21     1     1     2   511   502  8.566883804E+00 -4.146924699E+00 -3.204788428E+02  3.206201447E+02  3.814697266E-06  0.00000E+00  9.000E+00
#rwgt            1           9   5.1035478662891259E-004           1     2176746           0
</event>
<event>
      6   9999  3.45752E-01  1.55507E+01 -1.00000E+00  1.69025E-01
      21    -1     0     0   501   502  0.000000000E+00  0.000000000E+00  1.960019747E+01  1.960019747E+01  0.000000000E+00  0.00000E+00  9.000E+00
      21    -1     0     0   512   503  0.000000000E+00  0.000000000E+00 -1.041025748E+03  1.041025748E+03  0.000000000E+00  0.00000E+00  9.000E+00
      25     1     1     2     0     0  6.042096275E+01  1.357106645E+00 -3.642340147E+02  3.897982197E+02  1.249948005E+02  0.00000E+00  9.000E+00
       5     1     1     2   501     0 -1.698764237E+00 -5.979351584E-01  2.026468089E+00  5.469222916E+00  4.750000000E+00  0.00000E+00  9.000E+00
      -5     1     1     2     0   503 -7.238944382E+01  6.659195418E+00 -5.857441200E+02  5.902569890E+02  4.750000000E+00  0.00000E+00  9.000E+00
      21     1     1     2   512   502  1.366724530E+01 -7.418366905E+00 -7.347388396E+01  7.510151387E+01  0.000000000E+00  0.00000E+00  9.000E+00
#rwgt            1           9   6.5980225226499548E-005           1     2178786           0
</event>
<event>
      6   9999  3.45752E-01  3.88868E+00 -1.00000E+00  2.50415E-01
      21    -1     0     0   511   502  0.000000000E+00  0.000000000E+00  7.793173597E+00  7.793173597E+00  0.000000000E+00  0.00000E+00  9.000E+00
      21    -1     0     0   502   503  0.000000000E+00  0.000000000E+00 -7.499762001E+02  7.499762001E+02  0.000000000E+00  0.00000E+00  9.000E+00
      25     1     1     2     0     0 -3.376100268E+00  5.914775224E+00 -6.742165991E+02  6.857408385E+02  1.250043698E+02  0.00000E+00  9.000E+00
       5     1     1     2   501     0 -7.351222418E-01  4.428964457E-01 -2.965590573E+00  5.665138076E+00  4.750000000E+00  0.00000E+00  9.000E+00
      -5     1     1     2     0   503  3.558226012E+00 -2.508510039E+00 -5.798538323E+01  5.834227253E+01  4.750000000E+00  0.00000E+00  9.000E+00
      21     1     1     2   511   501  5.529964974E-01 -3.849161630E+00 -7.015453572E+00  8.021124560E+00  1.884864366E-07  0.00000E+00  9.000E+00
#rwgt            1           9   1.9994881022795149E-003           1     2181189           0
</event>
<event>
      6   9999  3.45752E-01  7.25651E+00 -1.00000E+00  2.03167E-01
      21    -1     0     0   512   502  0.000000000E+00  0.000000000E+00  1.488022702E+02  1.488022702E+02  0.000000000E+00  0.00000E+00  9.000E+00
      21    -1     0     0   502   503  0.000000000E+00  0.000000000E+00 -1.885563430E+03  1.885563430E+03  0.000000000E+00  0.00000E+00  9.000E+00
      25     1     1     2     0     0 -2.862048344E+01  3.183641802E+00 -1.371675136E+03  1.377660023E+03  1.250007775E+02  0.00000E+00  9.000E+00
       5     1     1     2   501     0 -1.467893929E+01  5.734247997E+00  7.499416587E+01  7.677916563E+01  4.750000000E+00  0.00000E+00  9.000E+00
      -5     1     1     2     0   503  3.652060457E+01 -1.150720954E+01 -5.090830583E+02  5.105431355E+02  4.750000000E+00  0.00000E+00  9.000E+00
      21     1     1     2   512   501  6.778818164E+00  2.589319740E+00  6.900286852E+01  6.938337565E+01  9.536743164E-07  0.00000E+00  9.000E+00
#rwgt            1           9   1.3400037750282273E-004           1     2186136           0
</event>
<event>
      6   9999  3.45752E-01  1.16986E+01 -1.00000E+00  1.80291E-01
      21    -1     0     0   501   502  0.000000000E+00  0.000000000E+00  2.179857018E+02  2.179857018E+02  0.000000000E+00  0.00000E+00  9.000E+00
      21    -1     0     0   502   511  0.000000000E+00  0.000000000E+00 -1.934037091E+02  1.934037091E+02  0.000000000E+00  0.00000E+00  9.000E+00
      25     1     1     2     0     0  4.726767596E+01 -8.095903205E+01 -2.941011791E+01  1.589909589E+02  1.249982877E+02  0.00000E+00  9.000E+00
       5     1     1     2   501     0 -2.873351215E+00  4.654531274E+00  1.198250139E+02  1.200438139E+02  4.750000000E+00  0.00000E+00  9.000E+00
      -5     1     1     2     0   503 -5.582608978E+01  7.382022990E+01 -3.446382922E+01  9.887515697E+01  4.750000000E+00  0.00000E+00  9.000E+00
      21     1     1     2   503   511  1.143176503E+01  2.484270880E+00 -3.136907404E+01  3.347948117E+01  5.840038640E-07  0.00000E+00  9.000E+00
#rwgt            1           9  0.17197382882839413                1     2191992           0
</event>
<event>
      6   9999  3.45752E-01  4.33006E+00 -1.00000E+00  2.40932E-01
      21    -1     0     0   512   503  0.000000000E+00  0.000000000E+00  1.296323188E+01  1.296323188E+01  0.000000000E+00  0.00000E+00  9.000E+00
      21    -1     0     0   501   502  0.000000000E+00  0.000000000E+00 -8.159388471E+02  8.159388471E+02  0.000000000E+00  0.00000E+00  9.000E+00
      25     1     1     2     0     0 -1.019731540E+01  3.540796173E+01 -6.805153814E+02  6.928805920E+02  1.249984860E+02  0.00000E+00  9.000E+00
       5     1     1     2   501     0  2.064559853E-01  4.388665503E+00 -5.055579548E+01  5.096816619E+01  4.750000000E+00  0.00000E+00  9.000E+00
      -5     1     1     2     0   503  6.997652440E+00 -3.666771215E+01 -7.137985732E+01  8.069160294E+01  4.750000000E+00  0.00000E+00  9.000E+00
      21     1     1     2   512   502  2.993206977E+00 -3.128915088E+00 -5.245811042E-01  4.361717892E+00  2.662475167E-07  0.00000E+00  9.000E+00
#rwgt            1           9  0.38312307539220458                1     2195034           0
</event>
<event>
      6   9999  3.45752E-01  8.68923E+00 -1.00000E+00  1.93859E-01
      21    -1     0     0   501   502  0.000000000E+00  0.000000000E+00  6.029588926E+01  6.029588926E+01  0.000000000E+00  0.00000E+00  9.000E+00
      21    -1     0     0   502   511  0.000000000E+00  0.000000000E+00 -1.831957504E+03  1.831957504E+03  0.000000000E+00  0.00000E+00  9.000E+00
      25     1     1     2     0     0 -8.581189151E+00  1.296639056E+01 -1.213900766E+03  1.220418551E+03  1.249984263E+02  0.00000E+00  9.000E+00
       5     1     1     2   501     0 -2.336265862E+00  1.769601914E+00  5.669215315E+01  5.696623876E+01  4.750000000E+00  0.00000E+00  9.000E+00
      -5     1     1     2     0   503  5.959926475E+00 -7.599775633E+00 -1.755665130E+02  1.758961066E+02  4.750000000E+00  0.00000E+00  9.000E+00
      21     1     1     2   503   511  4.957528538E+00 -7.136216838E+00 -4.388864887E+02  4.389724965E+02  5.394796609E-06  0.00000E+00  9.000E+00
#rwgt            1           9  0.23022813766382186                1     2199234           0
</event>
<event>
      6   9999  3.45752E-01  1.29176E+01 -1.00000E+00  1.76196E-01
      21    -1     0     0   501   512  0.000000000E+00  0.000000000E+00  2.604174245E+01  2.604174245E+01  0.000000000E+00  0.00000E+00  9.000E+00
      21    -1     0     0   502   503  0.000000000E+00  0.000000000E+00 -8.594587425E+02  8.594587425E+02  0.000000000E+00  0.00000E+00  9.000E+00
      25     1     1     2     0     0  1.054224755E+01 -5.723860644E-01 -8.189686627E+02  8.285205559E+02  1.250006981E+02  0.00000E+00  9.000E+00
       5     1     1     2   501     0  1.904424759E+00 -6.097139299E-01 -4.090160657E+00  6.579551576E+00  4.750000000E+00  0.00000E+00  9.000E+00
      -5     1     1     2     0   503  3.627225415E-01 -4.861909443E-01 -2.807161238E+01  2.847711135E+01  4.750000000E+00  0.00000E+00  9.000E+00
      21     1     1     2   502   512 -1.280939486E+01  1.668290939E+00  1.771343569E+01  2.192326607E+01  4.768371582E-07  0.00000E+00  9.000E+00
#rwgt            1           9   4.4391491203900297E-004           1     2203819           0
</event>
<event>
      6   9999  3.45752E-01  7.25394E+00 -1.00000E+00  2.03186E-01
      21    -1     0     0   501   511  0.000000000E+00  0.000000000E+00  6.110500986E+01  6.110500986E+01  0.000000000E+00  0.00000E+00  9.000E+00
      21    -1     0     0   502   503  0.000000000E+00  0.000000000E+00 -2.224492869E+03  2.224492869E+03  0.000000000E+00  0.00000E+00  9.000E+00
      25     1     1     2     0     0  2.940742806E+01  1.103721176E+02 -4.424853869E+02  4.737788288E+02  1.250050392E+02  0.00000E+00  9.000E+00
       5     1     1     2   501     0 -2.447012747E+00  7.723933469E-01  1.066710941E+01  1.195550861E+01  4.750000000E+00  0.00000E+00  9.000E+00
      -5     1     1     2     0   503 -2.066599410E+01 -1.075389794E+02 -1.763609677E+03  1.767012555E+03  4.750000000E+00  0.00000E+00  9.000E+00
      21     1     1     2   502   511 -6.294421220E+00 -3.605531504E+00  3.204009522E+01  3.285098625E+01  2.336015456E-06  0.00000E+00  9.000E+00
#rwgt            1           9   6.9443183679052619E-005           1     2205428           0
</event>
<event>
      6   9999  3.45752E-01  7.17634E+00 -1.00000E+00  2.03771E-01
      21    -1     0     0   502   503  0.000000000E+00  0.000000000E+00  6.228358706E+00  6.228358706E+00  0.000000000E+00  0.00000E+00  9.000E+00
      21    -1     0     0   501   512  0.000000000E+00  0.000000000E+00 -9.438887568E+02  9.438887568E+02  0.000000000E+00  0.00000E+00  9.000E+00
      25     1     1     2     0     0 -7.784720012E+00  4.845922307E+00 -7.613118305E+02  7.715613611E+02  1.250085830E+02  0.00000E+00  9.000E+00
       5     1     1     2   501     0 -3.040019701E-01 -1.248013935E-01 -1.171310283E+01  1.264386296E+01  4.750000000E+00  0.00000E+00  9.000E+00
      -5     1     1     2     0   503  1.211975272E+00 -2.669224222E+00 -1.353057944E+01  1.463669095E+01  4.750000000E+00  0.00000E+00  9.000E+00
      21     1     1     2   502   512  6.876746710E+00 -2.051896692E+00 -1.511048853E+02  1.512752005E+02  3.303624740E-06  0.00000E+00  9.000E+00
#rwgt            1           9   6.2589336701060336E-005           1     2210796           0
</event>
<event>
      6   9999  3.45752E-01  9.11009E+00 -1.00000E+00  1.91561E-01
      21    -1     0     0   502   503  0.000000000E+00  0.000000000E+00  1.033191473E+01  1.033191473E+01  0.000000000E+00  0.00000E+00  9.000E+00
      21    -1     0     0   511   502  0.000000000E+00  0.000000000E+00 -9.062816097E+02  9.062816097E+02  0.000000000E+00  0.00000E+00  9.000E+00
      25     1     1     2     0     0  1.315639080E+01 -1.678953286E+01 -4.910122801E+02  5.071218029E+02  1.249979390E+02  0.00000E+00  9.000E+00
       5     1     1     2   501     0 -1.366968995E+01 -3.508590250E+00 -1.456378933E+02  1.463971622E+02  4.750000000E+00  0.00000E+00  9.000E+00
      -5     1     1     2     0   503  8.873472459E+00  2.391768832E+01 -9.318905569E+01  9.673446608E+01  4.750000000E+00  0.00000E+00  9.000E+00
      21     1     1     2   511   501 -8.360173308E+00 -3.619565212E+00 -1.661104659E+02  1.663600933E+02  1.907348633E-06  0.00000E+00  9.000E+00
#rwgt            1           9   49.994476166246805                1     2213476           0
</event>
<event>
      6   9999  3.45752E-01  8.74635E+00 -1.00000E+00  1.93537E-01
      21    -1     0     0   512   502  0.000000000E+00  0.000000000E+00  1.306696301E+02  1.306696301E+02  0.000000000E+00  0.00000E+00  9.000E+00
      21    -1     0     0   502   503  0.000000000E+00  0.000000000E+00 -1.166383391E+03  1.166383391E+03  0.000000000E+00  0.00000E+00  9.000E+00
      25     1     1     2     0     0  6.282735234E+01 -7.811936534E+00 -7.944929297E+02  8.067541354E+02  1.249996683E+02  0.00000E+00  9.000E+00
       5     1     1     2   501     0 -5.347304955E+00 -4.672022802E+00  2.366251640E+01  2.515747702E+01  4.750000000E+00  0.00000E+00  9.000E+00
      -5     1     1     2     0   503 -6.195449808E+01  4.968783490E+00 -3.621534415E+02  3.674788788E+02  4.750000000E+00  0.00000E+00  9.000E+00
      21     1     1     2   512   501  4.474450695E+00  7.515175846E+00  9.727009393E+01  9.766252992E+01  3.568322551E-06  0.00000E+00  9.000E+00
#rwgt            1           9   1.1626332589473745E-003           1     2216033           0
</event>
<event>
      6   9999  3.45752E-01  9.55102E+01 -1.00000E+00  1.21289E-01
      -1    -1     0     0     0   502  0.000000000E+00  0.000000000E+00  1.794665396E+02  1.794665396E+02  0.000000000E+00  0.00000E+00  9.000E+00
      21    -1     0     0   501   511  0.000000000E+00  0.000000000E+00 -3.136437618E+02  3.136437618E+02  0.000000000E+00  0.00000E+00  9.000E+00
      25     1     1     2     0     0  8.922460513E+01  7.589431218E+00 -1.383755309E+02  2.068600215E+02  1.249986053E+02  0.00000E+00  9.000E+00
       5     1     1     2   501     0  1.651929994E+01 -5.967702627E-01 -8.535432106E+01  8.706989164E+01  4.750000000E+00  0.00000E+00  9.000E+00
      -5     1     1     2     0   502 -1.023949892E+01 -5.943638630E+00 -3.785585487E+01  3.994749587E+01  4.750000000E+00  0.00000E+00  9.000E+00
      -1     1     1     2     0   511 -9.550440616E+01 -1.049022325E+00  1.274084846E+02  1.592328923E+02  2.336015456E-06  0.00000E+00  9.000E+00
#rwgt            1           1   57.606426698277652                1     2219667           0
</event>
<event>
      6   9999 -3.45752E-01  8.69826E+00 -1.00000E+00  1.93808E-01
      21    -1     0     0   501   512  0.000000000E+00  0.000000000E+00  2.229101901E+01  2.229101901E+01  0.000000000E+00  0.00000E+00  9.000E+00
      21    -1     0     0   502   503  0.000000000E+00  0.000000000E+00 -6.338429055E+02  6.338429055E+02  0.000000000E+00  0.00000E+00  9.000E+00
      25     1     1     2     0     0 -6.996061117E+00 -7.659589622E+00 -5.805596621E+02  5.939551552E+02  1.250023638E+02  0.00000E+00  9.000E+00
       5     1     1     2   501     0 -2.100816657E+00 -1.445158160E+00  1.737535752E+00  5.664224857E+00  4.750000000E+00  0.00000E+00  9.000E+00
      -5     1     1     2     0   503  4.399187255E-01  8.258107243E+00 -4.242824080E+01  4.348687136E+01  4.750000000E+00  0.00000E+00  9.000E+00
      21     1     1     2   502   512  8.656959049E+00  8.466405393E-01  9.698480625E+00  1.302767311E+01  3.371747881E-07  0.00000E+00  9.000E+00
#rwgt            1           9  -6.1198238307783905E-002           1     2220030           0
</event>
<event>
      6   9999  3.45752E-01  1.11779E+01 -1.00000E+00  1.82239E-01
       3    -1     0     0   501     0  0.000000000E+00  0.000000000E+00  2.373613450E+01  2.373613450E+01  0.000000000E+00  0.00000E+00  9.000E+00
      21    -1     0     0   502   503  0.000000000E+00  0.000000000E+00 -1.512767925E+03  1.512767925E+03  0.000000000E+00  0.00000E+00  9.000E+00
      25     1     1     2     0     0  1.563048116E+01  9.158241019E+00 -1.346214480E+03  1.352126835E+03  1.250014693E+02  0.00000E+00  9.000E+00
       5     1     1     2   501     0 -1.348256971E+00  1.943857340E+00 -2.606855645E+00  5.912239387E+00  4.750000000E+00  0.00000E+00  9.000E+00
      -5     1     1     2     0   503 -1.351127642E+01  4.922221935E-02 -1.573511580E+02  1.580016027E+02  4.750000000E+00  0.00000E+00  9.000E+00
       3     1     1     2   502     0 -7.709477744E-01 -1.115132058E+01  1.714070305E+01  2.046338223E+01  5.840038640E-07  0.00000E+00  9.000E+00
#rwgt            1           9   4.4823456222010916E-004           1     2222477           0
</event>
<event>
      6   9999  3.45752E-01  1.89431E+01 -1.00000E+00  1.62031E-01
      21    -1     0     0   511   502  0.000000000E+00  0.000000000E+00  9.290277951E+01  9.290277951E+01  0.000000000E+00  0.00000E+00  9.000E+00
      21    -1     0     0   502   503  0.000000000E+00  0.000000000E+00 -8.131042733E+02  8.131042733E+02  0.000000000E+00  0.00000E+00  9.000E+00
      25     1     1     2     0     0  5.866175044E+00  2.320974345E+01 -7.719533247E+02  7.823796217E+02  1.250313270E+02  0.00000E+00  9.000E+00
       5     1     1     2   501     0  1.091014670E+01 -6.093212808E+00  8.137993626E+01  8.247069218E+01  4.750000000E+00  0.00000E+00  9.000E+00
      -5     1     1     2     0   503 -2.470116185E+00 -4.699854572E+00 -1.688485861E+01  1.832623959E+01  4.750000000E+00  0.00000E+00  9.000E+00
      21     1     1     2   511   501 -1.430620556E+01 -1.241667607E+01 -1.274324671E+01  2.283049931E+01  4.768371582E-07  0.00000E+00  9.000E+00
#rwgt            1           9   2.5326855361809339E-004           1     2224676           0
</event>
<event>
      6   9999  3.45752E-01  1.80827E+01 -1.00000E+00  1.63625E-01
      21    -1     0     0   501   502  0.000000000E+00  0.000000000E+00  1.093471306E+02  1.093471306E+02  0.000000000E+00  0.00000E+00  9.000E+00
      21    -1     0     0   502   512  0.000000000E+00  0.000000000E+00 -7.067998001E+02  7.067998001E+02  0.000000000E+00  0.00000E+00  9.000E+00
      25     1     1     2     0     0  4.833779354E+01  1.639204543E+01 -1.752433756E+02  2.212248445E+02  1.249997988E+02  0.00000E+00  9.000E+00
       5     1     1     2   501     0 -3.719221029E+00  1.881484382E-01  8.285631558E+01  8.307586615E+01  4.750000000E+00  0.00000E+00  9.000E+00
      -5     1     1     2     0   503 -2.682054335E+01 -1.338434137E+01 -4.798945681E+02  4.808532428E+02  4.750000000E+00  0.00000E+00  9.000E+00
      21     1     1     2   503   512 -1.779802915E+01 -3.195852502E+00 -2.517104137E+01  3.099297724E+01  6.743495762E-07  0.00000E+00  9.000E+00
#rwgt            1           9   50.498722788383766                1     2227460           0
</event>
<event>
      6   9999  3.45752E-01  1.01585E+01 -1.00000E+00  1.86477E-01
      21    -1     0     0   501   511  0.000000000E+00  0.000000000E+00  1.591210097E+01  1.591210097E+01  0.000000000E+00  0.00000E+00  9.000E+00
      21    -1     0     0   502   503  0.000000000E+00  0.000000000E+00 -8.069395109E+02  8.069395109E+02  0.000000000E+00  0.00000E+00  9.000E+00
      25     1     1     2     0     0  4.755657751E+00 -7.508901288E+00 -7.388170397E+02  7.493684783E+02  1.249939928E+02  0.00000E+00  9.000E+00
       5     1     1     2   501     0  2.935408204E+00 -3.037723270E+00  2.556237579E+00  6.851367349E+00  4.750000000E+00  0.00000E+00  9.000E+00
      -5     1     1     2     0   503 -3.551865533E+00  1.269674159E+00 -5.606365558E+01  5.639081307E+01  4.750000000E+00  0.00000E+00  9.000E+00
      21     1     1     2   502   511 -4.139200423E+00  9.276950400E+00  1.297047758E+00  1.024095317E+01  1.115100797E-07  0.00000E+00  9.000E+00
#rwgt            1           9   1.8546642034692216E-002           1     2230186           0
</event>
<event>
      6   9999  3.45752E-01  1.90879E+00 -1.00000E+00  3.40932E-01
      21    -1     0     0   501   512  0.000000000E+00  0.000000000E+00  4.708622325E+00  4.708622325E+00  0.000000000E+00  0.00000E+00  9.000E+00
      21    -1     0     0   502   503  0.000000000E+00  0.000000000E+00 -2.343320247E+03  2.343320247E+03  0.000000000E+00  0.00000E+00  9.000E+00
      25     1     1     2     0     0  1.070096873E+01 -1.999357425E+00 -2.280346188E+03  2.283795539E+03  1.249992674E+02  0.00000E+00  9.000E+00
       5     1     1     2   501     0 -3.455350240E-01 -1.987442775E+00 -1.053530041E+00  5.267043648E+00  4.750000000E+00  0.00000E+00  9.000E+00
      -5     1     1     2     0   503 -9.209141734E+00  5.513064787E+00 -4.114508759E+01  4.278648043E+01  4.750000000E+00  0.00000E+00  9.000E+00
      21     1     1     2   502   512 -1.146291972E+00 -1.526264587E+00 -1.606681868E+01  1.617980628E+01  2.384185791E-07  0.00000E+00  9.000E+00
#rwgt            1           9   1.0714898511963103E-002           1     2232896           0
</event>
<event>
      6   9999  3.45752E-01  4.47284E+00 -1.00000E+00  2.38217E-01
      21    -1     0     0   501   502  0.000000000E+00  0.000000000E+00  9.130131854E+00  9.130131854E+00  0.000000000E+00  0.00000E+00  9.000E+00
      21    -1     0     0   502   511  0.000000000E+00  0.000000000E+00 -8.173793086E+02  8.173793086E+02  0.000000000E+00  0.00000E+00  9.000E+00
      25     1     1     2     0     0 -8.435932194E+00  8.360052992E+00 -7.482030854E+02  7.586699915E+02  1.250249721E+02  0.00000E+00  9.000E+00
       5     1     1     2   501     0 -1.795035188E+00 -4.841466081E-01  1.691319653E-01  5.103690320E+00  4.750000000E+00  0.00000E+00  9.000E+00
      -5     1     1     2     0   503  5.766472990E+00 -7.602807173E+00 -2.419514433E+01  2.643903169E+01  4.750000000E+00  0.00000E+00  9.000E+00
      21     1     1     2   503   511  4.464494392E+00 -2.730992102E-01 -3.602007901E+01  3.629672692E+01  0.000000000E+00  0.00000E+00  9.000E+00
#rwgt            1           9   5.3962953657011648E-004           1     2241557           0
</event>
<event>
      6   9999  3.45752E-01  1.46292E+01 -1.00000E+00  1.71319E-01
      21    -1     0     0   501   512  0.000000000E+00  0.000000000E+00  6.593953411E+00  6.593953411E+00  0.000000000E+00  0.00000E+00  9.000E+00
      21    -1     0     0   502   503  0.000000000E+00  0.000000000E+00 -1.863451899E+03  1.863451899E+03  0.000000000E+00  0.00000E+00  9.000E+00
      25     1     1     2     0     0 -6.435131846E+00  1.968301937E+01 -1.690280950E+03  1.695022684E+03  1.249935093E+02  0.00000E+00  9.000E+00
       5     1     1     2   501     0 -7.155325070E-01 -5.823741089E-02 -5.366882740E+00  7.202868089E+00  4.750000000E+00  0.00000E+00  9.000E+00
      -5     1     1     2     0   503 -2.053595976E+00 -3.099552807E+01 -9.693560966E+01  1.019019869E+02  4.750000000E+00  0.00000E+00  9.000E+00
      21     1     1     2   502   512  9.204260329E+00  1.137074612E+01 -6.427450340E+01  6.591831356E+01  9.536743164E-07  0.00000E+00  9.000E+00
#rwgt            1           9   8.3756602554396382E-005           1     2245603           0
</event>
<event>
      6   9999  3.45752E-01  2.31272E+00 -1.00000E+00  3.10246E-01
      21    -1     0     0   501   502  0.000000000E+00  0.000000000E+00  2.423287738E+03  2.423287738E+03  0.000000000E+00  0.00000E+00  9.000E+00
      21    -1     0     0   502   511  0.000000000E+00  0.000000000E+00 -5.697171924E+00  5.697171924E+00  0.000000000E+00  0.00000E+00  9.000E+00
      25     1     1     2     0     0 -1.382057281E+01 -5.675768513E+00  1.388228049E+03  1.393924368E+03  1.249992246E+02  0.00000E+00  9.000E+00
       5     1     1     2   501     0  1.631243379E+00 -2.373568020E+00  1.002401015E+03  1.002416406E+03  4.750000000E+00  0.00000E+00  9.000E+00
      -5     1     1     2     0   503  1.390094153E+01  6.494002372E+00  2.415503869E+01  2.900752723E+01  4.750000000E+00  0.00000E+00  9.000E+00
      21     1     1     2   503   511 -1.711612096E+00  1.555334161E+00  2.806464124E+00  3.636608475E+00  2.935188354E-07  0.00000E+00  9.000E+00
#rwgt            1           9   5.8517301828573569E-004           1     2247424           0
</event>
<event>
      6   9999 -3.45752E-01  2.98038E+01 -1.00000E+00  1.48023E-01
      21    -1     0     0   502   512  0.000000000E+00  0.000000000E+00  2.824345252E+02  2.824345252E+02  0.000000000E+00  0.00000E+00  9.000E+00
      21    -1     0     0   501   502  0.000000000E+00  0.000000000E+00 -1.680991253E+02  1.680991253E+02  0.000000000E+00  0.00000E+00  9.000E+00
      25     1     1     2     0     0  2.125918835E+01  3.911520155E+00 -1.325580001E+02  1.834775369E+02  1.250005203E+02  0.00000E+00  9.000E+00
       5     1     1     2   501     0  1.021493423E+00 -1.495246041E+00  3.390938336E+01  3.428830689E+01  4.750000000E+00  0.00000E+00  9.000E+00
      -5     1     1     2     0   503  6.693213340E+00 -9.400447480E+00  1.997812018E+02  2.001705737E+02  4.750000000E+00  0.00000E+00  9.000E+00
      21     1     1     2   503   512 -2.897389512E+01  6.984173365E+00  1.320281482E+01  3.259723294E+01  5.840038640E-07  0.00000E+00  9.000E+00
#rwgt            1           9  -3.3495420767511351E-002           1     2254897           0
</event>
<event>
      6   9999  3.45752E-01  9.47793E+00 -1.00000E+00  1.89680E-01
      21    -1     0     0   511   502  0.000000000E+00  0.000000000E+00  1.163807978E+01  1.163807978E+01  0.000000000E+00  0.00000E+00  9.000E+00
      21    -1     0     0   502   503  0.000000000E+00  0.000000000E+00 -5.976628345E+02  5.976628345E+02  0.000000000E+00  0.00000E+00  9.000E+00
      25     1     1     2     0     0 -1.208794254E+01 -2.985813148E+00 -5.573767551E+02  5.713563782E+02  1.249969217E+02  0.00000E+00  9.000E+00
       5     1     1     2   501     0  1.940820629E-01 -6.197278492E-01  4.980805663E-01  4.819991152E+00  4.750000000E+00  0.00000E+00  9.000E+00
      -5     1     1     2     0   503  2.421573238E+00  3.278508940E+00 -1.128367988E+01  1.290335497E+01  4.750000000E+00  0.00000E+00  9.000E+00
      21     1     1     2   511   501  9.472287236E+00  3.270320572E-01 -1.786240037E+01  2.022118994E+01  0.000000000E+00  0.00000E+00  9.000E+00
#rwgt            1           9   1.3203272776267138E-003           1     2256498           0
</event>
<event>
      6   9999  3.45752E-01  1.30368E+01 -1.00000E+00  1.75826E-01
      21    -1     0     0   501   502  0.000000000E+00  0.000000000E+00  3.697938439E+01  3.697938439E+01  0.000000000E+00  0.00000E+00  9.000E+00
      21    -1     0     0   502   512  0.000000000E+00  0.000000000E+00 -2.330693909E+02  2.330693909E+02  0.000000000E+00  0.00000E+00  9.000E+00
      25     1     1     2     0     0 -1.113675457E+01 -1.403848748E+01 -1.541408543E+02  1.992622414E+02  1.249997258E+02  0.00000E+00  9.000E+00
       5     1     1     2   501     0 -3.702722682E-01 -4.493052215E-01  1.364350316E+00  4.976236381E+00  4.750000000E+00  0.00000E+00  9.000E+00
      -5     1     1     2     0   503  1.970210792E+00  5.599156031E+00  9.066677718E+00  1.183213521E+01  4.750000000E+00  0.00000E+00  9.000E+00
      21     1     1     2   503   512  9.536816043E+00  8.888636671E+00 -5.238018021E+01  5.397816226E+01  6.743495762E-07  0.00000E+00  9.000E+00
#rwgt            1           9   4.9556002629723146E-004           1     2258766           0
</event>
<event>
      6   9999  3.45752E-01  4.94308E+00 -1.00000E+00  2.30240E-01
      21    -1     0     0   501   511  0.000000000E+00  0.000000000E+00  4.892020279E+02  4.892020279E+02  0.000000000E+00  0.00000E+00  9.000E+00
      21    -1     0     0   502   503  0.000000000E+00  0.000000000E+00 -8.993304147E+02  8.993304147E+02  0.000000000E+00  0.00000E+00  9.000E+00
      25     1     1     2     0     0 -1.066460952E+01 -8.078022115E+00 -8.809128784E+02  8.898373090E+02  1.249957947E+02  0.00000E+00  9.000E+00
       5     1     1     2   501     0  4.821558218E+00  7.003738206E+00  5.156456216E+01  5.247634079E+01  4.750000000E+00  0.00000E+00  9.000E+00
      -5     1     1     2     0   503  2.209192379E+00 -2.276700215E+00 -1.288044406E+01  1.409014670E+01  4.750000000E+00  0.00000E+00  9.000E+00
      21     1     1     2   502   511  3.633858919E+00  3.350984124E+00  4.321003735E+02  4.321286462E+02  9.344061824E-06  0.00000E+00  9.000E+00
#rwgt            1           9   1.0923014932216926E-003           1     2261231           0
</event>
<event>
      6   9999  3.45752E-01  1.35973E+01 -1.00000E+00  1.74151E-01
      21    -1     0     0   501   502  0.000000000E+00  0.000000000E+00  1.541161506E+02  1.541161506E+02  0.000000000E+00  0.00000E+00  9.000E+00
      21    -1     0     0   502   512  0.000000000E+00  0.000000000E+00 -2.229912592E+02  2.229912592E+02  0.000000000E+00  0.00000E+00  9.000E+00
      25     1     1     2     0     0 -8.895596956E+00  3.117848713E+01  1.475658710E+01  1.299770921E+02  1.250002316E+02  0.00000E+00  9.000E+00
       5     1     1     2   501     0 -3.123366337E-01  1.965521468E-01  7.035563629E+01  7.051676570E+01  4.750000000E+00  0.00000E+00  9.000E+00
      -5     1     1     2     0   503 -4.217720474E+00 -3.352867825E+01 -1.553443031E+01  3.749456569E+01  4.750000000E+00  0.00000E+00  9.000E+00
      21     1     1     2   503   512  1.342565406E+01  2.153638971E+00 -1.384529017E+02  1.391189862E+02  1.907348633E-06  0.00000E+00  9.000E+00
#rwgt            1           9   499.43079200707268                1     2267689           0
</event>
<event>
      6   9999  3.45752E-01  1.88990E+01 -1.00000E+00  1.62110E-01
      21    -1     0     0   501   502  0.000000000E+00  0.000000000E+00  8.131967754E+00  8.131967754E+00  0.000000000E+00  0.00000E+00  9.000E+00
      21    -1     0     0   502   511  0.000000000E+00  0.000000000E+00 -1.493178107E+03  1.493178107E+03  0.000000000E+00  0.00000E+00  9.000E+00
      25     1     1     2     0     0  3.664724731E+01 -9.335294436E+00 -7.014144521E+02  7.134693521E+02  1.250044567E+02  0.00000E+00  9.000E+00
       5     1     1     2   501     0  7.301336250E-01 -5.143641654E-02 -9.443898828E+00  1.059648366E+01  4.750000000E+00  0.00000E+00  9.000E+00
      -5     1     1     2     0   503 -1.887889129E+01  5.516660828E+00 -7.164761078E+01  7.444990741E+01  4.750000000E+00  0.00000E+00  9.000E+00
      21     1     1     2   503   511 -1.849848964E+01  3.870070025E+00 -7.025401780E+02  7.027943321E+02  1.078959322E-05  0.00000E+00  9.000E+00
#rwgt            1           9   3.0241783300811479E-003           1     2270159           0
</event>
<event>
      6   9999  3.45752E-01  1.15642E+01 -1.00000E+00  1.80782E-01
       2    -1     0     0   501     0  0.000000000E+00  0.000000000E+00  3.132037451E+03  3.132037451E+03  0.000000000E+00  0.00000E+00  9.000E+00
      21    -1     0     0   502   503  0.000000000E+00  0.000000000E+00 -7.892091665E+01  7.892091665E+01  0.000000000E+00  0.00000E+00  9.000E+00
      25     1     1     2     0     0 -8.893259041E+00 -1.995294166E+01  4.843809455E+00  1.269904300E+02  1.250035874E+02  0.00000E+00  9.000E+00
       5     1     1     2   501     0 -1.888466491E+00  2.479542209E+01  1.959094732E+03  1.959258306E+03  4.750000000E+00  0.00000E+00  9.000E+00
      -5     1     1     2     0   503  5.915623445E+00  5.648090538E+00 -1.647458556E+01  1.899657856E+01  4.750000000E+00  0.00000E+00  9.000E+00
       2     1     1     2   502     0  4.866102087E+00 -1.049057097E+01  1.105652579E+03  1.105713053E+03  2.157918644E-05  0.00000E+00  9.000E+00
#rwgt            1           9   1.9925231938052783E-002           1     2272197           0
</event>
<event>
      6   9999  3.45752E-01  1.95620E+00 -1.00000E+00  3.36651E-01
      -2    -1     0     0     0   502  0.000000000E+00  0.000000000E+00  2.510214208E+02  2.510214208E+02  0.000000000E+00  0.00000E+00  9.000E+00
      21    -1     0     0   502   503  0.000000000E+00  0.000000000E+00 -3.924118872E+03  3.924118872E+03  0.000000000E+00  0.00000E+00  9.000E+00
      25     1     1     2     0     0  3.614419134E+00  4.426042058E+00 -3.688250102E+03  3.690372085E+03  1.249986334E+02  0.00000E+00  9.000E+00
       5     1     1     2   501     0 -3.170248925E+00  1.104206667E+00  6.709950405E+00  8.880072355E+00  4.750000000E+00  0.00000E+00  9.000E+00
      -5     1     1     2     0   503 -1.550926389E+00 -3.917233656E+00 -2.336756450E+02  2.337618866E+02  4.750000000E+00  0.00000E+00  9.000E+00
      -2     1     1     2     0   501  1.106756180E+00 -1.613015069E+00  2.421183458E+02  2.421262482E+02  8.092194914E-06  0.00000E+00  9.000E+00
#rwgt            1           9   9.1393858753706231E-005           1     2276329           0
</event>
<event>
      6   9999  3.45752E-01  6.42530E+01 -1.00000E+00  1.29207E-01
      21    -1     0     0   502   503  0.000000000E+00  0.000000000E+00  4.864738339E+01  4.864738339E+01  0.000000000E+00  0.00000E+00  9.000E+00
      21    -1     0     0   501   511  0.000000000E+00  0.000000000E+00 -3.386687100E+02  3.386687100E+02  0.000000000E+00  0.00000E+00  9.000E+00
      25     1     1     2     0     0 -1.851988867E+01 -2.033151641E+01 -1.747147983E+02  2.165787684E+02  1.249989815E+02  0.00000E+00  9.000E+00
       5     1     1     2   501     0 -6.368141132E+00 -4.034316438E+00  6.416211339E+00  1.097994529E+01  4.750000000E+00  0.00000E+00  9.000E+00
      -5     1     1     2     0   503 -2.440344920E+01 -1.685070744E+01 -1.147293115E+01  3.215066599E+01  4.750000000E+00  0.00000E+00  9.000E+00
      21     1     1     2   502   511  4.929147901E+01  4.121654029E+01 -1.102498085E+02  1.276067136E+02  0.000000000E+00  0.00000E+00  9.000E+00
#rwgt            1           9   1.5127465719119354E-004           1     2285966           0
</event>
<event>
      6   9999 -3.45752E-01  1.71583E+01 -1.00000E+00  1.65462E-01
      21    -1     0     0   501   502  0.000000000E+00  0.000000000E+00  8.486524188E+02  8.486524188E+02  0.000000000E+00  0.00000E+00  9.000E+00
      21    -1     0     0   502   512  0.000000000E+00  0.000000000E+00 -1.397248627E+02  1.397248627E+02  0.000000000E+00  0.00000E+00  9.000E+00
      25     1     1     2     0     0  3.315720113E+01 -1.902615834E+01 -1.030144348E+02  1.664279772E+02  1.249996126E+02  0.00000E+00  9.000E+00
       5     1     1     2   501     0  3.297554744E+00  4.823954328E+00  5.453511339E+02  5.454031226E+02  4.750000000E+00  0.00000E+00  9.000E+00
      -5     1     1     2     0   503 -2.237205077E+01  4.399936496E+00  2.544817638E+02  2.555452968E+02  4.750000000E+00  0.00000E+00  9.000E+00
      21     1     1     2   503   512 -1.408270511E+01  9.802267514E+00  1.210909311E+01  2.100088493E+01  2.920019320E-07  0.00000E+00  9.000E+00
#rwgt            1           9  -8.6199546591036408E-005           1     2286704           0
</event>
<event>
      6   9999  3.45752E-01  3.32764E+00 -1.00000E+00  2.65645E-01
       2    -1     0     0   501     0  0.000000000E+00  0.000000000E+00  9.504133835E+00  9.504133835E+00  0.000000000E+00  0.00000E+00  9.000E+00
      21    -1     0     0   502   503  0.000000000E+00  0.000000000E+00 -5.469221073E+03  5.469221073E+03  0.000000000E+00  0.00000E+00  9.000E+00
      25     1     1     2     0     0 -9.511197125E+00 -1.351257295E+00 -2.951396671E+03  2.954058151E+03  1.249998409E+02  0.00000E+00  9.000E+00
       5     1     1     2   501     0  1.879669243E+00 -9.844814479E-01 -5.156889733E+00  7.325187500E+00  4.750000000E+00  0.00000E+00  9.000E+00
      -5     1     1     2     0   503  6.938811218E+00  5.590477721E+00 -2.509851415E+03  2.509871727E+03  4.750000000E+00  0.00000E+00  9.000E+00
       2     1     1     2   502     0  6.927166641E-01 -3.254738978E+00  6.688036261E+00  7.470141312E+00  2.451773143E-06  0.00000E+00  9.000E+00
#rwgt            1           9   1.9760624216213377E-005           1     2289800           0
</event>
<event>
      6   9999  3.45752E-01  1.27049E+01 -1.00000E+00  1.76868E-01
      21    -1     0     0   501   511  0.000000000E+00  0.000000000E+00  4.111186433E+01  4.111186433E+01  0.000000000E+00  0.00000E+00  9.000E+00
      21    -1     0     0   502   503  0.000000000E+00  0.000000000E+00 -1.177972732E+03  1.177972732E+03  0.000000000E+00  0.00000E+00  9.000E+00
      25     1     1     2     0     0  2.716344806E+01 -4.502881167E+01 -2.727470646E+02  3.046004827E+02  1.250001840E+02  0.00000E+00  9.000E+00
       5     1     1     2   501     0  1.155016714E+00 -3.535705923E+00  1.647907015E+01  1.754871884E+01  4.750000000E+00  0.00000E+00  9.000E+00
      -5     1     1     2     0   503 -3.947806378E+01  4.249183028E+01 -8.822106063E+02  8.841279260E+02  4.750000000E+00  0.00000E+00  9.000E+00
      21     1     1     2   502   511  1.115959901E+01  6.072687310E+00  1.617733640E+00  1.280746826E+01  3.223614045E-07  0.00000E+00  9.000E+00
#rwgt            1           9   2.3626849641715703E-002           1     2295225           0
</event>
<event>
      6   9999  3.45752E-01  3.25016E+01 -1.00000E+00  1.45623E-01
      21    -1     0     0   501   512  0.000000000E+00  0.000000000E+00  1.684477899E+01  1.684477899E+01  0.000000000E+00  0.00000E+00  9.000E+00
      21    -1     0     0   502   503  0.000000000E+00  0.000000000E+00 -1.183859011E+03  1.183859011E+03  0.000000000E+00  0.00000E+00  9.000E+00
      25     1     1     2     0     0  6.318236491E+01 -2.637834381E+01 -7.126869128E+02  7.267983704E+02  1.250016291E+02  0.00000E+00  9.000E+00
       5     1     1     2   501     0 -1.989527986E+01  1.935192944E+01 -5.435908340E+01  6.121921089E+01  4.750000000E+00  0.00000E+00  9.000E+00
      -5     1     1     2     0   503 -6.736586706E+01 -1.480397152E+01 -2.678079576E+02  2.765881094E+02  4.750000000E+00  0.00000E+00  9.000E+00
      21     1     1     2   502   512  2.407878201E+01  2.183038588E+01 -1.321602781E+02  1.360980991E+02  0.000000000E+00  0.00000E+00  9.000E+00
#rwgt            1           9   7.9031764149466741E-004           1     2297913           0
</event>
<event>
      6   9999  3.45752E-01  1.82665E+01 -1.00000E+00  1.63275E-01
      21    -1     0     0   502   511  0.000000000E+00  0.000000000E+00  1.106524779E+01  1.106524779E+01  0.000000000E+00  0.00000E+00  9.000E+00
      21    -1     0     0   501   502  0.000000000E+00  0.000000000E+00 -7.434049890E+02  7.434049890E+02  0.000000000E+00  0.00000E+00  9.000E+00
      25     1     1     2     0     0  2.449812619E+01 -2.260472972E+00 -5.999482182E+02  6.133248659E+02  1.249970348E+02  0.00000E+00  9.000E+00
       5     1     1     2   501     0 -8.603348585E+00  7.399735515E-01 -4.838165598E+01  4.937521952E+01  4.750000000E+00  0.00000E+00  9.000E+00
      -5     1     1     2     0   503  1.482299748E+00  7.150915175E+00 -6.433857649E+01  6.492570927E+01  4.750000000E+00  0.00000E+00  9.000E+00
      21     1     1     2   503   511 -1.737707736E+01 -5.630415755E+00 -1.967129061E+01  2.684444213E+01  5.331201500E-07  0.00000E+00  9.000E+00
#rwgt            1           9  0.53992731244007885                1     2298897           0
</event>
<event>
      6   9999 -3.45752E-01  8.61553E+00 -1.00000E+00  1.94279E-01
      21    -1     0     0   501   502  0.000000000E+00  0.000000000E+00  1.615871445E+01  1.615871445E+01  0.000000000E+00  0.00000E+00  9.000E+00
      21    -1     0     0   512   503  0.000000000E+00  0.000000000E+00 -1.011068731E+03  1.011068731E+03  0.000000000E+00  0.00000E+00  9.000E+00
      25     1     1     2     0     0 -1.175619026E+01  1.357538643E+00 -8.286028158E+02  8.380622466E+02  1.250026077E+02  0.00000E+00  9.000E+00
       5     1     1     2   501     0  1.188606419E+00 -3.414524951E-01  1.031895804E+01  1.142684427E+01  4.750000000E+00  0.00000E+00  9.000E+00
      -5     1     1     2     0   503  2.039530343E+00 -2.240682839E+00 -1.761756317E+01  1.849652334E+01  4.750000000E+00  0.00000E+00  9.000E+00
      21     1     1     2   512   502  8.528053500E+00  1.224596691E+00 -1.590085961E+02  1.592418317E+02  1.907348633E-06  0.00000E+00  9.000E+00
#rwgt            1           9  -6.8045992808650358E-006           1     2300577           0
</event>
<event>
      6   9999  3.45752E-01  9.44259E+00 -1.00000E+00  1.89856E-01
      21    -1     0     0   501   502  0.000000000E+00  0.000000000E+00  6.267893817E+01  6.267893817E+01  0.000000000E+00  0.00000E+00  9.000E+00
      21    -1     0     0   502   511  0.000000000E+00  0.000000000E+00 -1.292147349E+03  1.292147349E+03  0.000000000E+00  0.00000E+00  9.000E+00
      25     1     1     2     0     0  3.940511407E+01 -5.974367462E+01 -5.066621350E+02  5.267388976E+02  1.250011100E+02  0.00000E+00  9.000E+00
       5     1     1     2   501     0  1.022448842E+00  9.414185861E-01  4.630930384E+01  4.657301571E+01  4.750000000E+00  0.00000E+00  9.000E+00
      -5     1     1     2     0   503 -4.533827164E+01  5.073705057E+01 -1.826096000E+02  1.949323875E+02  4.750000000E+00  0.00000E+00  9.000E+00
      21     1     1     2   503   511  4.910708727E+00  8.065205466E+00 -5.865059796E+02  5.865819864E+02  1.078959322E-05  0.00000E+00  9.000E+00
#rwgt            1           9   1.9578422283311517E-004           1     2303480           0
</event>
<event>
      6   9999  3.45752E-01  2.41631E+01 -1.00000E+00  1.54185E-01
      21    -1     0     0   501   512  0.000000000E+00  0.000000000E+00  5.386343722E+01  5.386343722E+01  0.000000000E+00  0.00000E+00  9.000E+00
      21    -1     0     0   502   503  0.000000000E+00  0.000000000E+00 -8.025853217E+02  8.025853217E+02  0.000000000E+00  0.00000E+00  9.000E+00
      25     1     1     2     0     0  2.551285954E+01  8.539418107E+00 -7.198091425E+02  7.310772333E+02  1.249995674E+02  0.00000E+00  9.000E+00
       5     1     1     2   501     0 -2.632961510E+01  1.421421187E+01 -4.802602350E+01  5.678339444E+01  4.750000000E+00  0.00000E+00  9.000E+00
      -5     1     1     2     0   503  8.403822907E-02  1.398379021E+00 -2.110017617E+01  2.167354287E+01  4.750000000E+00  0.00000E+00  9.000E+00
      21     1     1     2   502   512  7.327173337E-01 -2.415200900E+01  4.021345768E+01  4.691458826E+01  1.168007728E-06  0.00000E+00  9.000E+00
#rwgt            1           9   7.6510672516521437E-003           1     2307130           0
</event>
<event>
      6   9999  3.45752E-01  1.74287E+01 -1.00000E+00  1.64910E-01
      21    -1     0     0   501   502  0.000000000E+00  0.000000000E+00  2.331803829E+01  2.331803829E+01  0.000000000E+00  0.00000E+00  9.000E+00
      21    -1     0     0   511   503  0.000000000E+00  0.000000000E+00 -2.030409936E+03  2.030409936E+03  0.000000000E+00  0.00000E+00  9.000E+00
      25     1     1     2     0     0  1.326782664E+01  2.797264563E+01 -9.872106095E+02  9.955733741E+02  1.249922057E+02  0.00000E+00  9.000E+00
       5     1     1     2   501     0  7.732121259E+00  1.162438334E+00  1.643002357E+01  1.880545497E+01  4.750000000E+00  0.00000E+00  9.000E+00
      -5     1     1     2     0   503 -1.463798396E+01 -1.290907187E+01 -6.858574660E+01  7.146664850E+01  4.750000000E+00  0.00000E+00  9.000E+00
      21     1     1     2   511   502 -6.361963940E+00 -1.622601209E+01 -9.677255655E+02  9.678824971E+02  1.525878906E-05  0.00000E+00  9.000E+00
#rwgt            1           9  0.76952422120473385                1     2308626           0
</event>
<event>
      6   9999  3.45752E-01  8.91097E+00 -1.00000E+00  1.92627E-01
      21    -1     0     0   512   503  0.000000000E+00  0.000000000E+00  2.709105917E+01  2.709105917E+01  0.000000000E+00  0.00000E+00  9.000E+00
      21    -1     0     0   501   502  0.000000000E+00  0.000000000E+00 -1.098901325E+03  1.098901325E+03  0.000000000E+00  0.00000E+00  9.000E+00
      25     1     1     2     0     0  3.911356639E+01  2.527780766E+01 -1.707450290E+02  2.166736319E+02  1.249990368E+02  0.00000E+00  9.000E+00
       5     1     1     2   501     0  3.563065858E+00 -6.167391651E+00 -7.686025099E+02  7.686501889E+02  4.750000000E+00  0.00000E+00  9.000E+00
      -5     1     1     2     0   503 -3.404314667E+01 -1.690400372E+01 -1.112706361E+02  1.176792171E+02  4.750000000E+00  0.00000E+00  9.000E+00
      21     1     1     2   512   502 -8.633485578E+00 -2.206412289E+00 -2.119209068E+01  2.298934614E+01  0.000000000E+00  0.00000E+00  9.000E+00
#rwgt            1           9   2.0082296411098439E-002           1     2310718           0
</event>
<event>
      6   9999  3.45752E-01  4.26029E+00 -1.00000E+00  2.42316E-01
      21    -1     0     0   511   502  0.000000000E+00  0.000000000E+00  4.661815216E+01  4.661815216E+01  0.000000000E+00  0.00000E+00  9.000E+00
      21    -1     0     0   502   503  0.000000000E+00  0.000000000E+00 -2.478582085E+02  2.478582085E+02  0.000000000E+00  0.00000E+00  9.000E+00
      25     1     1     2     0     0 -8.121807072E+00 -1.762305064E+00 -2.194381108E+02  2.526799590E+02  1.250000309E+02  0.00000E+00  9.000E+00
       5     1     1     2   501     0  1.281621004E+00  2.015645883E-01  2.496289746E+01  2.544389770E+01  4.750000000E+00  0.00000E+00  9.000E+00
      -5     1     1     2     0   503  5.800234479E+00  5.692153910E+00 -7.491973288E+00  1.203060680E+01  4.750000000E+00  0.00000E+00  9.000E+00
      21     1     1     2   511   501  1.039951589E+00 -4.131413435E+00  7.271303251E-01  4.321897128E+00  2.787751993E-08  0.00000E+00  9.000E+00
#rwgt            1           9   4.4477958284226893E-004           1     2314074           0
</event>
<event>
      6   9999  3.45752E-01  2.25072E+01 -1.00000E+00  1.56392E-01
      21    -1     0     0   512   502  0.000000000E+00  0.000000000E+00  5.305612869E+01  5.305612869E+01  0.000000000E+00  0.00000E+00  9.000E+00
      21    -1     0     0   502   503  0.000000000E+00  0.000000000E+00 -1.198208223E+03  1.198208223E+03  0.000000000E+00  0.00000E+00  9.000E+00
      25     1     1     2     0     0  3.086911635E+01  1.048320436E+02 -7.221148600E+02  7.409571408E+02  1.249998153E+02  0.00000E+00  9.000E+00
       5     1     1     2   501     0 -2.907165566E-01 -8.332421469E-03  2.003221647E+01  2.058972516E+01  4.750000000E+00  0.00000E+00  9.000E+00
      -5     1     1     2     0   503 -4.066845297E+01 -1.249424694E+02 -4.478130943E+02  4.667158382E+02  4.750000000E+00  0.00000E+00  9.000E+00
      21     1     1     2   512   501  1.009005318E+01  2.011875829E+01  4.743643941E+00  2.300164703E+01  7.771494872E-07  0.00000E+00  9.000E+00
#rwgt            1           9   6.1724286270127294E-005           1     2319024           0
</event>
<event>
      6   9999 -3.45752E-01  3.36311E+00 -1.00000E+00  2.64546E-01
      21    -1     0     0   511   503  0.000000000E+00  0.000000000E+00  9.406687557E+01  9.406687557E+01  0.000000000E+00  0.00000E+00  9.000E+00
      21    -1     0     0   501   502  0.000000000E+00  0.000000000E+00 -1.018124464E+03  1.018124464E+03  0.000000000E+00  0.00000E+00  9.000E+00
      25     1     1     2     0     0  2.866452707E+00  5.127358486E+00 -1.012237758E+03  1.019943965E+03  1.250036265E+02  0.00000E+00  9.000E+00
       5     1     1     2   501     0 -6.941635078E-01 -1.819067655E+00  6.860605362E+00  8.568621595E+00  4.750000000E+00  0.00000E+00  9.000E+00
      -5     1     1     2     0   503  9.056639962E-01 -4.663555044E+00  8.750966927E+00  1.103226609E+01  4.750000000E+00  0.00000E+00  9.000E+00
      21     1     1     2   511   502 -3.077953195E+00  1.355264213E+00  7.256859801E+01  7.264648618E+01  0.000000000E+00  0.00000E+00  9.000E+00
#rwgt            1           9  -4.6467402436223269E-005           1     2321605           0
</event>
<event>
      6   9999  3.45752E-01  1.89928E+01 -1.00000E+00  1.61942E-01
      21    -1     0     0   512   502  0.000000000E+00  0.000000000E+00  9.146463530E+01  9.146463530E+01  0.000000000E+00  0.00000E+00  9.000E+00
      21    -1     0     0   502   503  0.000000000E+00  0.000000000E+00 -1.620122314E+03  1.620122314E+03  0.000000000E+00  0.00000E+00  9.000E+00
      25     1     1     2     0     0 -1.325995922E+02  1.259992632E+01 -2.576786328E+02  3.158530537E+02  1.249938549E+02  0.00000E+00  9.000E+00
       5     1     1     2   501     0  6.440190874E+00 -2.473412528E+00  5.570468689E+01  5.633088379E+01  4.750000000E+00  0.00000E+00  9.000E+00
      -5     1     1     2     0   503  1.169907033E+02  6.506634921E+00 -1.306259000E+03  1.311512218E+03  4.750000000E+00  0.00000E+00  9.000E+00
      21     1     1     2   512   501  9.168697996E+00 -1.663314871E+01 -2.042473294E+01  2.789079372E+01  3.371747881E-07  0.00000E+00  9.000E+00
#rwgt            1           9   1.1535674372907023E-004           1     2328019           0
</event>
<event>
      6   9999  3.45752E-01  9.82623E+00 -1.00000E+00  1.87999E-01
      21    -1     0     0   501   511  0.000000000E+00  0.000000000E+00  1.641746494E+02  1.641746494E+02  0.000000000E+00  0.00000E+00  9.000E+00
      21    -1     0     0   502   503  0.000000000E+00  0.000000000E+00 -3.543144722E+02  3.543144722E+02  0.000000000E+00  0.00000E+00  9.000E+00
      25     1     1     2     0     0  1.161919421E+02 -1.298747319E+01 -2.467096879E+02  3.002583035E+02  1.249805459E+02  0.00000E+00  9.000E+00
       5     1     1     2   501     0  3.898487650E+00 -7.043799275E+00  8.261338594E+01  8.314052773E+01  4.750000000E+00  0.00000E+00  9.000E+00
      -5     1     1     2     0   503 -1.221933415E+02  1.043269676E+01 -2.409299481E+01  1.250723341E+02  4.750000000E+00  0.00000E+00  9.000E+00
      21     1     1     2   502   511  2.102911773E+00  9.598575702E+00 -1.950526002E+00  1.001795613E+01  1.562846971E-07  0.00000E+00  9.000E+00
#rwgt            1           9   3.2121157927498395E-003           1     2331026           0
</event>
<event>
      6   9999  3.45752E-01  1.03143E+01 -1.00000E+00  1.85789E-01
      21    -1     0     0   512   503  0.000000000E+00  0.000000000E+00  2.153733609E+01  2.153733609E+01  0.000000000E+00  0.00000E+00  9.000E+00
      21    -1     0     0   501   502  0.000000000E+00  0.000000000E+00 -6.550898711E+02  6.550898711E+02  0.000000000E+00  0.00000E+00  9.000E+00
      25     1     1     2     0     0  3.820577776E+00  9.568270619E+00 -5.982534623E+02  6.112612343E+02  1.250077711E+02  0.00000E+00  9.000E+00
       5     1     1     2   501     0 -2.414520250E-01  2.767600271E-01 -1.850948878E+01  1.911278552E+01  4.750000000E+00  0.00000E+00  9.000E+00
      -5     1     1     2     0   503 -1.064226730E+01 -2.328622183E+00 -2.836203100E+01  3.075138431E+01  4.750000000E+00  0.00000E+00  9.000E+00
      21     1     1     2   512   502  7.063141549E+00 -7.516408463E+00  1.157244709E+01  1.550180301E+01  7.907449699E-07  0.00000E+00  9.000E+00
#rwgt            1           9   7.4964846968597176E-004           1     2335871           0
</event>
<event>
      6   9999  3.45752E-01  1.81676E+01 -1.00000E+00  1.63462E-01
      21    -1     0     0   501   502  0.000000000E+00  0.000000000E+00  1.278312760E+01  1.278312760E+01  0.000000000E+00  0.00000E+00  9.000E+00
      21    -1     0     0   511   503  0.000000000E+00  0.000000000E+00 -9.694104969E+02  9.694104969E+02  0.000000000E+00  0.00000E+00  9.000E+00
      25     1     1     2     0     0  1.448413654E+01  9.229259947E-01 -7.421803717E+02  7.527725868E+02  1.249968852E+02  0.00000E+00  9.000E+00
       5     1     1     2   501     0  7.870152176E-01 -6.038647584E+00  2.480844695E+00  8.111827661E+00  4.750000000E+00  0.00000E+00  9.000E+00
      -5     1     1     2     0   503 -1.447654157E+01 -1.303452612E+01 -5.845139286E+01  6.179479715E+01  4.750000000E+00  0.00000E+00  9.000E+00
      21     1     1     2   511   502 -7.946101806E-01  1.815024771E+01 -1.584764494E+02  1.595144129E+02  1.907348633E-06  0.00000E+00  9.000E+00
#rwgt            1           9   3.0797347276065594E-004           1     2338011           0
</event>
<event>
      6   9999  3.45752E-01  1.24581E+02 -1.00000E+00  1.16514E-01
      21    -1     0     0   502   503  0.000000000E+00  0.000000000E+00  4.599444773E+01  4.599444773E+01  0.000000000E+00  0.00000E+00  9.000E+00
      21    -1     0     0   501   512  0.000000000E+00  0.000000000E+00 -1.715021998E+03  1.715021998E+03  0.000000000E+00  0.00000E+00  9.000E+00
      25     1     1     2     0     0  1.382804200E+00  2.072269824E+01 -2.282916485E+02  2.610988742E+02  1.249968117E+02  0.00000E+00  9.000E+00
       5     1     1     2   501     0 -6.256610670E+01 -3.998321230E+01 -8.442562576E+02  8.475283865E+02  4.750000000E+00  0.00000E+00  9.000E+00
      -5     1     1     2     0   503  4.041107444E+01 -1.035767791E+02 -1.379671515E+02  1.772532130E+02  4.750000000E+00  0.00000E+00  9.000E+00
      21     1     1     2   502   512  2.077222806E+01  1.228372932E+02 -4.585124927E+02  4.751359721E+02  7.629394531E-06  0.00000E+00  9.000E+00
#rwgt            1           9   1.3561416583171555E-003           1     2339768           0
</event>
<event>
      6   9999 -3.45752E-01  2.92693E+01 -1.00000E+00  1.48534E-01
      21    -1     0     0   502   503  0.000000000E+00  0.000000000E+00  1.754566564E+01  1.754566564E+01  0.000000000E+00  0.00000E+00  9.000E+00
       1    -1     0     0   501     0  0.000000000E+00  0.000000000E+00 -1.445010642E+03  1.445010642E+03  0.000000000E+00  0.00000E+00  9.000E+00
      25     1     1     2     0     0 -4.938497004E+01  5.149146586E+00 -6.865945906E+02  6.996446071E+02  1.250002215E+02  0.00000E+00  9.000E+00
       5     1     1     2   501     0 -2.811095935E+01 -1.294239773E+01 -4.479978120E+01  5.465633166E+01  4.750000000E+00  0.00000E+00  9.000E+00
      -5     1     1     2     0   503  5.040017982E+01  1.886172846E+01 -1.218452725E+02  1.332845672E+02  4.750000000E+00  0.00000E+00  9.000E+00
       1     1     1     2   502     0  2.709574957E+01 -1.106847732E+01 -5.742253320E+02  5.749708016E+02  0.000000000E+00  0.00000E+00  9.000E+00
#rwgt            1           9 -0.79256644129976894                1     2340499           0
</event>
<event>
      6   9999 -3.45752E-01  3.82196E+01 -1.00000E+00  1.41342E-01
      21    -1     0     0   502   503  0.000000000E+00  0.000000000E+00  2.499724522E+01  2.499724522E+01  0.000000000E+00  0.00000E+00  9.000E+00
      21    -1     0     0   511   502  0.000000000E+00  0.000000000E+00 -1.367635009E+03  1.367635009E+03  0.000000000E+00  0.00000E+00  9.000E+00
      25     1     1     2     0     0  3.564141597E+01  3.028535007E+01 -1.202191545E+03  1.209578160E+03  1.250092013E+02  0.00000E+00  9.000E+00
       5     1     1     2   501     0 -4.563605714E+00 -1.035318249E+01 -1.590855756E+01  2.009128141E+01  4.750000000E+00  0.00000E+00  9.000E+00
      -5     1     1     2     0   503  3.226613403E+00 -3.081429536E+00  1.602359579E+01  1.729810290E+01  4.750000000E+00  0.00000E+00  9.000E+00
      21     1     1     2   511   501 -3.430442366E+01 -1.685073804E+01 -1.405612574E+02  1.456647106E+02  0.000000000E+00  0.00000E+00  9.000E+00
#rwgt            1           9 -0.57293455516126968                1     2341567           0
</event>
<event>
      6   9999  3.45752E-01  1.59102E+01 -1.00000E+00  1.68184E-01
      21    -1     0     0   501   512  0.000000000E+00  0.000000000E+00  1.428020118E+02  1.428020118E+02  0.000000000E+00  0.00000E+00  9.000E+00
      21    -1     0     0   502   503  0.000000000E+00  0.000000000E+00 -7.983861304E+02  7.983861304E+02  0.000000000E+00  0.00000E+00  9.000E+00
      25     1     1     2     0     0  3.363292616E+01  7.605644038E+01 -1.780936794E+02  2.329314867E+02  1.249958520E+02  0.00000E+00  9.000E+00
       5     1     1     2   501     0  3.738075995E-01 -6.198623648E+00  6.936640698E+01  6.980561285E+01  4.750000000E+00  0.00000E+00  9.000E+00
      -5     1     1     2     0   503 -2.106635544E+01 -6.060143710E+01 -5.894670608E+02  5.929673716E+02  4.750000000E+00  0.00000E+00  9.000E+00
      21     1     1     2   502   512 -1.294037832E+01 -9.256379636E+00  4.261021451E+01  4.548367109E+01  6.743495762E-07  0.00000E+00  9.000E+00
#rwgt            1           9   1.3468044888756783                1     2343361           0
</event>
<event>
      6   9999  3.45752E-01  1.68767E+01 -1.00000E+00  1.66051E-01
      21    -1     0     0   501   502  0.000000000E+00  0.000000000E+00  1.273372640E+01  1.273372640E+01  0.000000000E+00  0.00000E+00  9.000E+00
      21    -1     0     0   502   511  0.000000000E+00  0.000000000E+00 -1.004045950E+03  1.004045950E+03  0.000000000E+00  0.00000E+00  9.000E+00
      25     1     1     2     0     0  3.160104749E+00  6.494098918E+00 -6.708994661E+02  6.824831355E+02  1.249999081E+02  0.00000E+00  9.000E+00
       5     1     1     2   501     0 -4.512770275E+00  7.785284200E-01  4.471837535E+00  7.970635671E+00  4.750000000E+00  0.00000E+00  9.000E+00
      -5     1     1     2     0   503 -1.061762878E+01  4.624246754E+00 -1.857940862E+02  1.862152590E+02  4.750000000E+00  0.00000E+00  9.000E+00
      21     1     1     2   503   511  1.197029430E+01 -1.189687409E+01 -1.390905090E+02  1.401106464E+02  1.907348633E-06  0.00000E+00  9.000E+00
#rwgt            1           9   1.5685145473913903E-003           1     2346393           0
</event>
<event>
      6   9999  3.45752E-01  3.88597E+01 -1.00000E+00  1.40918E-01
      21    -1     0     0   512   503  0.000000000E+00  0.000000000E+00  1.735382473E+02  1.735382473E+02  0.000000000E+00  0.00000E+00  9.000E+00
      21    -1     0     0   501   502  0.000000000E+00  0.000000000E+00 -1.032606337E+03  1.032606337E+03  0.000000000E+00  0.00000E+00  9.000E+00
      25     1     1     2     0     0  2.979013849E+02 -1.481383464E+02 -1.504244425E+02  3.859300362E+02  1.249971006E+02  0.00000E+00  9.000E+00
       5     1     1     2   501     0 -2.773838048E+02  1.353679591E+02 -6.831165247E+02  7.496245782E+02  4.750000000E+00  0.00000E+00  9.000E+00
      -5     1     1     2     0   503  1.599099521E+01 -5.413845781E-01 -2.695507870E+01  3.170400279E+01  4.750000000E+00  0.00000E+00  9.000E+00
      21     1     1     2   512   502 -3.650857532E+01  1.331177191E+01  1.427956610E+00  3.888596667E+01  1.036461190E-06  0.00000E+00  9.000E+00
#rwgt            1           9   7.6344392836423601E-004           1     2348030           0
</event>
<event>
      6   9999  3.45752E-01  2.76528E+01 -1.00000E+00  1.50164E-01
      21    -1     0     0   501   502  0.000000000E+00  0.000000000E+00  2.507036925E+01  2.507036925E+01  0.000000000E+00  0.00000E+00  9.000E+00
       2    -1     0     0   502     0  0.000000000E+00  0.000000000E+00 -1.372572031E+03  1.372572031E+03  0.000000000E+00  0.00000E+00  9.000E+00
      25     1     1     2     0     0  3.794459843E+01  2.398656666E+00 -3.783115957E+02  4.002358564E+02  1.249941247E+02  0.00000E+00  9.000E+00
       5     1     1     2   501     0 -2.419647871E+00 -1.063775942E+01  1.018266756E+01  1.566096548E+01  4.750000000E+00  0.00000E+00  9.000E+00
      -5     1     1     2     0   503 -3.529118854E+01 -1.941273316E+01 -5.887291348E+02  5.901244605E+02  4.750000000E+00  0.00000E+00  9.000E+00
       2     1     1     2   503     0 -2.337620173E-01  2.765183591E+01 -3.906435990E+02  3.916211181E+02  5.394796609E-06  0.00000E+00  9.000E+00
#rwgt            1           9   6.6767510411852721E-003           1     2350668           0
</event>
<event>
      6   9999  3.45752E-01  2.18574E+01 -1.00000E+00  1.57321E-01
      21    -1     0     0   501   502  0.000000000E+00  0.000000000E+00  5.075043361E+02  5.075043361E+02  0.000000000E+00  0.00000E+00  9.000E+00
      21    -1     0     0   511   503  0.000000000E+00  0.000000000E+00 -2.139698410E+02  2.139698410E+02  0.000000000E+00  0.00000E+00  9.000E+00
      25     1     1     2     0     0  3.434093301E+00  3.105843916E+01  2.841814538E+02  3.120264783E+02  1.250000195E+02  0.00000E+00  9.000E+00
       5     1     1     2   501     0 -3.996320894E-01  1.735968786E+00  5.637892380E+01  5.660670315E+01  4.750000000E+00  0.00000E+00  9.000E+00
      -5     1     1     2     0   503 -8.850897178E+00 -1.172510277E+01  1.519177280E+02  1.527002783E+02  4.750000000E+00  0.00000E+00  9.000E+00
      21     1     1     2   511   502  5.816435966E+00 -2.106930517E+01 -1.989436105E+02  2.001407172E+02  2.697398305E-06  0.00000E+00  9.000E+00
#rwgt            1           9   1.4223669951560264E-003           1     2352584           0
</event>
<event>
      6   9999  3.45752E-01  1.72742E+01 -1.00000E+00  1.65224E-01
      -2    -1     0     0     0   502  0.000000000E+00  0.000000000E+00  6.169028516E+01  6.169028516E+01  0.000000000E+00  0.00000E+00  9.000E+00
       2    -1     0     0   512     0  0.000000000E+00  0.000000000E+00 -1.998773718E+03  1.998773718E+03  0.000000000E+00  0.00000E+00  9.000E+00
      25     1     1     2     0     0 -1.876617829E+02 -6.471714201E+01 -2.122979498E+02  3.163872011E+02  1.250007531E+02  0.00000E+00  9.000E+00
       5     1     1     2   501     0  2.351565302E+01 -4.043183802E+01 -6.525338559E+02  6.542252785E+02  4.750000000E+00  0.00000E+00  9.000E+00
      -5     1     1     2     0   502  1.491643298E+02  9.654983980E+01 -9.701275252E+02  9.862767596E+02  4.750000000E+00  0.00000E+00  9.000E+00
      21     1     1     2   512   501  1.498180006E+01  8.599140218E+00 -1.021241016E+02  1.035747637E+02  0.000000000E+00  0.00000E+00  9.000E+00
#rwgt            1           3   1.3952020699511743E-003           1     2354039           0
</event>
<event>
      6   9999  3.45752E-01  5.12801E+00 -1.00000E+00  2.24021E-01
      21    -1     0     0   501   502  0.000000000E+00  0.000000000E+00  8.519139992E+00  8.519139992E+00  0.000000000E+00  0.00000E+00  9.000E+00
      21    -1     0     0   511   503  0.000000000E+00  0.000000000E+00 -8.874781148E+02  8.874781148E+02  0.000000000E+00  0.00000E+00  9.000E+00
      25     1     1     2     0     0 -2.947128453E+00  9.558514970E-01 -4.749478572E+02  4.911308987E+02  1.249979734E+02  0.00000E+00  9.000E+00
       5     1     1     2   501     0  9.642805985E+00 -1.898849779E+00 -8.965439983E+01  9.031646166E+01  4.750000000E+00  0.00000E+00  9.000E+00
      -5     1     1     2     0   503 -2.671900358E+00 -2.235956187E+00 -1.719938491E+02  1.720946983E+02  4.750000000E+00  0.00000E+00  9.000E+00
      21     1     1     2   511   502 -4.023777175E+00  3.178954469E+00 -1.423628687E+02  1.424551962E+02  1.907348633E-06  0.00000E+00  9.000E+00
#rwgt            1           9  0.50598527695412210                1     2359776           0
</event>
<event>
      6   9999  3.45752E-01  2.20090E+01 -1.00000E+00  1.57101E-01
      21    -1     0     0   502   503  0.000000000E+00  0.000000000E+00  3.232242379E+01  3.232242379E+01  0.000000000E+00  0.00000E+00  9.000E+00
      21    -1     0     0   501   512  0.000000000E+00  0.000000000E+00 -3.136631822E+02  3.136631822E+02  0.000000000E+00  0.00000E+00  9.000E+00
      25     1     1     2     0     0  8.766844694E+00 -1.969287192E+01 -1.107764273E+02  1.684068887E+02  1.249991862E+02  0.00000E+00  9.000E+00
       5     1     1     2   501     0  1.328848572E+01  9.691937290E+00 -4.291568128E+01  4.620428228E+01  4.750000000E+00  0.00000E+00  9.000E+00
      -5     1     1     2     0   503 -2.460742551E-01  7.042696181E+00 -2.540359303E+01  2.678740676E+01  4.750000000E+00  0.00000E+00  9.000E+00
      21     1     1     2   502   512 -2.180925616E+01  2.958238445E+00 -1.022450568E+02  1.045870282E+02  1.907348633E-06  0.00000E+00  9.000E+00
#rwgt            1           9  0.36474091606821935                1     2363380           0
</event>
<event>
      6   9999  3.45752E-01  5.43972E+00 -1.00000E+00  2.20165E-01
      21    -1     0     0   501   502  0.000000000E+00  0.000000000E+00  3.193992228E+03  3.193992228E+03  0.000000000E+00  0.00000E+00  9.000E+00
      21    -1     0     0   511   503  0.000000000E+00  0.000000000E+00 -3.158447486E+01  3.158447486E+01  0.000000000E+00  0.00000E+00  9.000E+00
      25     1     1     2     0     0  2.666187588E+01  6.741930372E+00  1.158685937E+02  1.726464388E+02  1.249998103E+02  0.00000E+00  9.000E+00
       5     1     1     2   501     0 -9.717040635E+00  8.495737645E+00  2.998341796E+03  2.998373340E+03  4.750000000E+00  0.00000E+00  9.000E+00
      -5     1     1     2     0   503 -1.213002439E+01 -1.270623608E+01  4.422082728E+01  4.781872010E+01  4.750000000E+00  0.00000E+00  9.000E+00
      21     1     1     2   511   502 -4.814810853E+00 -2.531431939E+00  3.976536208E+00  6.738203873E+00  2.384185791E-07  0.00000E+00  9.000E+00
#rwgt            1           9   1.9908671473392725E-004           1     2364309           0
</event>
<event>
      6   9999  3.45752E-01  2.30907E+01 -1.00000E+00  1.55588E-01
      21    -1     0     0   502   503  0.000000000E+00  0.000000000E+00  1.065388320E+01  1.065388320E+01  0.000000000E+00  0.00000E+00  9.000E+00
      21    -1     0     0   501   512  0.000000000E+00  0.000000000E+00 -1.449982110E+03  1.449982110E+03  0.000000000E+00  0.00000E+00  9.000E+00
      25     1     1     2     0     0  8.886261149E+00  2.954308241E+01 -4.076180546E+02  4.274687904E+02  1.250013159E+02  0.00000E+00  9.000E+00
       5     1     1     2   501     0 -1.305313716E+00 -1.193680085E+01 -3.351037962E+02  3.353525128E+02  4.750000000E+00  0.00000E+00  9.000E+00
      -5     1     1     2     0   503  7.460574079E+00 -8.671069044E-02 -4.867993376E+01  4.947692528E+01  4.750000000E+00  0.00000E+00  9.000E+00
      21     1     1     2   502   512 -1.504152151E+01 -1.751957087E+01 -6.479264421E+02  6.483377646E+02  7.629394531E-06  0.00000E+00  9.000E+00
#rwgt            1           9   1.7059457835145078E-004           1     2370781           0
</event>
<event>
      6   9999  3.45752E-01  7.95861E+00 -1.00000E+00  1.98282E-01
      21    -1     0     0   502   511  0.000000000E+00  0.000000000E+00  1.222532901E+01  1.222532901E+01  0.000000000E+00  0.00000E+00  9.000E+00
      21    -1     0     0   501   502  0.000000000E+00  0.000000000E+00 -6.992070764E+02  6.992070764E+02  0.000000000E+00  0.00000E+00  9.000E+00
      25     1     1     2     0     0  4.327234743E+00 -7.238929162E+00 -6.154700391E+02  6.280916093E+02  1.249982943E+02  0.00000E+00  9.000E+00
       5     1     1     2   501     0 -3.705726251E+00  2.099138684E+00 -4.468365905E+01  4.513679958E+01  4.750000000E+00  0.00000E+00  9.000E+00
      -5     1     1     2     0   503  2.991139000E+00 -1.951632132E+00 -2.927938181E+01  2.987642013E+01  4.750000000E+00  0.00000E+00  9.000E+00
      21     1     1     2   503   511 -3.612647492E+00  7.091422610E+00  2.451332615E+00  8.327576365E+00  4.460403188E-07  0.00000E+00  9.000E+00
#rwgt            1           9   1.4909277307328316E-002           1     2372152           0
</event>
<event>
      6   9999  3.45752E-01  1.14532E+01 -1.00000E+00  1.81193E-01
      21    -1     0     0   501   512  0.000000000E+00  0.000000000E+00  1.938052828E+02  1.938052828E+02  0.000000000E+00  0.00000E+00  9.000E+00
      21    -1     0     0   502   503  0.000000000E+00  0.000000000E+00 -1.453931987E+03  1.453931987E+03  0.000000000E+00  0.00000E+00  9.000E+00
      25     1     1     2     0     0 -1.063217471E+00 -1.839088663E+00 -1.275813825E+03  1.281924853E+03  1.250035956E+02  0.00000E+00  9.000E+00
       5     1     1     2   501     0 -8.910740516E-01 -1.371577769E+01  6.134120771E+01  6.304143744E+01  4.750000000E+00  0.00000E+00  9.000E+00
      -5     1     1     2     0   503 -3.781638897E+00  5.641470707E+00 -1.738585300E+02  1.740559621E+02  4.750000000E+00  0.00000E+00  9.000E+00
      21     1     1     2   502   512  5.735930419E+00  9.913395646E+00  1.282044436E+02  1.287150172E+02  1.907348633E-06  0.00000E+00  9.000E+00
#rwgt            1           9   9.8281961180026945E-005           1     2374597           0
</event>
<event>
      6   9999  3.45752E-01  3.83033E+00 -1.00000E+00  2.51812E-01
      21    -1     0     0   511   502  0.000000000E+00  0.000000000E+00  5.102909576E+02  5.102909576E+02  0.000000000E+00  0.00000E+00  9.000E+00
      21    -1     0     0   502   503  0.000000000E+00  0.000000000E+00 -2.138589216E+01  2.138589216E+01  0.000000000E+00  0.00000E+00  9.000E+00
      25     1     1     2     0     0 -9.548320611E-01  2.415292449E+00  1.793336640E+02  2.186166651E+02  1.250037516E+02  0.00000E+00  9.000E+00
       5     1     1     2   501     0  1.336301419E+00 -8.382904835E-01  2.363872497E+02  2.364402308E+02  4.750000000E+00  0.00000E+00  9.000E+00
      -5     1     1     2     0   503  2.870740019E+00  4.464968438E-01  2.987492726E+00  6.318870190E+00  4.750000000E+00  0.00000E+00  9.000E+00
      21     1     1     2   511   501 -3.252209377E+00 -2.023498810E+00  7.019665901E+01  7.030108356E+01  0.000000000E+00  0.00000E+00  9.000E+00
#rwgt            1           9   2.0158768321393343E-002           1     2378632           0
</event>
<event>
      6   9999  3.45752E-01  1.42748E+02 -1.00000E+00  1.14213E-01
      21    -1     0     0   502   512  0.000000000E+00  0.000000000E+00  1.225236345E+02  1.225236345E+02  0.000000000E+00  0.00000E+00  9.000E+00
      21    -1     0     0   501   502  0.000000000E+00  0.000000000E+00 -2.585669292E+03  2.585669292E+03  0.000000000E+00  0.00000E+00  9.000E+00
      25     1     1     2     0     0 -5.777051150E+01 -9.278017863E+01 -8.596817431E+01  1.869761915E+02  1.249959025E+02  0.00000E+00  9.000E+00
       5     1     1     2   501     0 -2.089884385E+01  5.819408236E+01 -2.290418684E+03  2.291258087E+03  4.750000000E+00  0.00000E+00  9.000E+00
      -5     1     1     2     0   503 -5.560833885E+01 -1.385481850E+01 -6.291030026E+01  8.523210501E+01  4.750000000E+00  0.00000E+00  9.000E+00
      21     1     1     2   503   512  1.342776942E+02  4.844091477E+01 -2.384849961E+01  1.447265432E+02  3.405298437E-06  0.00000E+00  9.000E+00
#rwgt            1           9   13.888561223176412                1     2383508           0
</event>
<event>
      6   9999  3.45752E-01  5.05716E+00 -1.00000E+00  2.24951E-01
       3    -1     0     0   501     0  0.000000000E+00  0.000000000E+00  1.375081114E+02  1.375081114E+02  0.000000000E+00  0.00000E+00  9.000E+00
      21    -1     0     0   502   503  0.000000000E+00  0.000000000E+00 -1.422661975E+03  1.422661975E+03  0.000000000E+00  0.00000E+00  9.000E+00
      25     1     1     2     0     0 -2.587424627E+00  1.771757133E+00 -1.350120836E+03  1.355898856E+03  1.250024144E+02  0.00000E+00  9.000E+00
       5     1     1     2   501     0 -2.130074271E+00  1.554560490E-01 -5.587842847E-01  5.237950254E+00  4.750000000E+00  0.00000E+00  9.000E+00
      -5     1     1     2     0   503 -1.795624464E-01 -6.648164493E-01 -6.661905808E+01  6.679173319E+01  4.750000000E+00  0.00000E+00  9.000E+00
       3     1     1     2   502     0  4.897061344E+00 -1.262396733E+00  1.321448141E+02  1.322415470E+02  2.697398305E-06  0.00000E+00  9.000E+00
#rwgt            1           9   6.2925349777102327E-004           1     2384278           0
</event>
<event>
      6   9999  3.45752E-01  5.10062E+01 -1.00000E+00  1.34326E-01
      21    -1     0     0   501   502  0.000000000E+00  0.000000000E+00  2.348294183E+02  2.348294183E+02  0.000000000E+00  0.00000E+00  9.000E+00
      21    -1     0     0   511   503  0.000000000E+00  0.000000000E+00 -1.777566559E+02  1.777566559E+02  0.000000000E+00  0.00000E+00  9.000E+00
      25     1     1     2     0     0 -3.947086705E+01  1.010640608E+01 -2.095352166E+01  1.331324961E+02  1.250004907E+02  0.00000E+00  9.000E+00
       5     1     1     2   501     0  8.147870642E+01 -4.430821301E+01  1.485990118E+02  1.752319210E+02  4.750000000E+00  0.00000E+00  9.000E+00
      -5     1     1     2     0   503 -8.118005211E+00 -3.917831970E+00 -4.689238614E+01  4.798655847E+01  4.750000000E+00  0.00000E+00  9.000E+00
      21     1     1     2   511   502 -3.388983416E+01  3.811963890E+01 -2.368034158E+01  5.623509853E+01  8.259061849E-07  0.00000E+00  9.000E+00
#rwgt            1           9   250336.85934579515                1     2388101           0
</event>
<event>
      6   9999  3.45752E-01  1.50568E+01 -1.00000E+00  1.70229E-01
      21    -1     0     0   512   502  0.000000000E+00  0.000000000E+00  1.128647788E+02  1.128647788E+02  0.000000000E+00  0.00000E+00  9.000E+00
       2    -1     0     0   501     0  0.000000000E+00  0.000000000E+00 -4.421936428E+02  4.421936428E+02  0.000000000E+00  0.00000E+00  9.000E+00
      25     1     1     2     0     0 -1.089520231E+02 -7.024689778E+01 -7.352144737E+00  1.802363352E+02  1.250036499E+02  0.00000E+00  9.000E+00
       5     1     1     2   501     0  6.021454047E+01  7.993199416E+01 -1.764184179E+02  2.028815794E+02  4.750000000E+00  0.00000E+00  9.000E+00
      -5     1     1     2     0   502  3.492018285E+01 -1.566742700E+01 -1.510633679E+02  1.559089191E+02  4.750000000E+00  0.00000E+00  9.000E+00
       2     1     1     2   512     0  1.381729981E+01  5.982330621E+00  5.505066636E+00  1.603158796E+01  3.039252468E-07  0.00000E+00  9.000E+00
#rwgt            1           3   7.9876667111904935E-004           1     2389354           0
</event>
<event>
      6   9999  3.45752E-01  3.28957E+00 -1.00000E+00  2.66847E-01
      21    -1     0     0   501   502  0.000000000E+00  0.000000000E+00  1.111199521E+01  1.111199521E+01  0.000000000E+00  0.00000E+00  9.000E+00
      21    -1     0     0   511   503  0.000000000E+00  0.000000000E+00 -8.443049354E+02  8.443049354E+02  0.000000000E+00  0.00000E+00  9.000E+00
      25     1     1     2     0     0  3.271866427E+00 -9.999228524E+00 -7.504883507E+02  7.608850678E+02  1.249104968E+02  0.00000E+00  9.000E+00
       5     1     1     2   501     0  1.026658004E+00  1.949286169E+00  4.306085904E+00  6.779278652E+00  4.750000000E+00  0.00000E+00  9.000E+00
      -5     1     1     2     0   503 -1.546394113E+00  6.247980324E+00 -5.612285146E+01  5.669008334E+01  4.750000000E+00  0.00000E+00  9.000E+00
      21     1     1     2   511   502 -2.752130318E+00  1.801962031E+00 -3.088782388E+01  3.106250074E+01  5.840038640E-07  0.00000E+00  9.000E+00
#rwgt            1           9   1.3908330934064207E-004           1     2395248           0
</event>
<event>
      6   9999 -3.45752E-01  8.48590E+00 -1.00000E+00  1.95031E-01
       3    -1     0     0   501     0  0.000000000E+00  0.000000000E+00  1.714056078E+02  1.714056078E+02  0.000000000E+00  0.00000E+00  9.000E+00
      21    -1     0     0   502   503  0.000000000E+00  0.000000000E+00 -1.259314505E+03  1.259314505E+03  0.000000000E+00  0.00000E+00  9.000E+00
      25     1     1     2     0     0  1.781966618E+00  1.572897997E+01 -7.020778929E+02  7.132948278E+02  1.250022696E+02  0.00000E+00  9.000E+00
       5     1     1     2   501     0  1.169627214E+00 -1.591656221E+00  1.804372096E+00  5.451573718E+00  4.750000000E+00  0.00000E+00  9.000E+00
      -5     1     1     2     0   503  1.261313735E+00 -2.150358966E+01 -5.494720946E+02  5.499146666E+02  4.750000000E+00  0.00000E+00  9.000E+00
       3     1     1     2   502     0 -4.212907567E+00  7.366265915E+00  1.618367185E+02  1.620590445E+02  3.814697266E-06  0.00000E+00  9.000E+00
#rwgt            1           9  -155.25676755361539                1     2400722           0
</event>
<event>
      6   9999  3.45752E-01  2.62946E+00 -1.00000E+00  2.92797E-01
      21    -1     0     0   501   502  0.000000000E+00  0.000000000E+00  1.114010743E+01  1.114010743E+01  0.000000000E+00  0.00000E+00  9.000E+00
      21    -1     0     0   511   503  0.000000000E+00  0.000000000E+00 -9.377694854E+02  9.377694854E+02  0.000000000E+00  0.00000E+00  9.000E+00
      25     1     1     2     0     0  1.588288152E+01  1.757272506E+01 -4.563412204E+02  4.737054993E+02  1.248540109E+02  0.00000E+00  9.000E+00
       5     1     1     2   501     0 -5.538765899E-02 -6.642812437E-01 -8.439443655E-01  4.870223758E+00  4.750000000E+00  0.00000E+00  9.000E+00
      -5     1     1     2     0   503 -1.450148628E+01 -1.917907408E+01 -3.483592829E+02  3.492203924E+02  4.750000000E+00  0.00000E+00  9.000E+00
      21     1     1     2   511   502 -1.326007584E+00  2.270630268E+00 -1.210849304E+02  1.211134774E+02  1.907348633E-06  0.00000E+00  9.000E+00
#rwgt            1           9   2.9621857241032431E-003           1     2403519           0
</event>
<event>
      6   9999  3.45752E-01  1.33710E+01 -1.00000E+00  1.74815E-01
      21    -1     0     0   512   502  0.000000000E+00  0.000000000E+00  1.748808725E+02  1.748808725E+02  0.000000000E+00  0.00000E+00  9.000E+00
      21    -1     0     0   502   503  0.000000000E+00  0.000000000E+00 -2.979391047E+02  2.979391047E+02  0.000000000E+00  0.00000E+00  9.000E+00
      25     1     1     2     0     0  1.282651522E+01 -1.281444695E+01 -2.302872801E+02  2.626520406E+02  1.250005341E+02  0.00000E+00  9.000E+00
       5     1     1     2   501     0 -4.776417106E+00  3.488405541E+00  1.282967978E+02  1.285208697E+02  4.750000000E+00  0.00000E+00  9.000E+00
      -5     1     1     2     0   503 -1.277609581E+01 -3.181875826E+00 -4.884943528E+01  5.081518262E+01  4.750000000E+00  0.00000E+00  9.000E+00
      21     1     1     2   512   501  4.725997691E+00  1.250791724E+01  2.778168535E+01  3.083188429E+01  3.371747881E-07  0.00000E+00  9.000E+00
#rwgt            1           9   2.8728224241754039E-004           1     2410174           0
</event>
<event>
      6   9999  3.45752E-01  5.02801E+00 -1.00000E+00  2.25340E-01
      21    -1     0     0   501   502  0.000000000E+00  0.000000000E+00  7.807602584E+01  7.807602584E+01  0.000000000E+00  0.00000E+00  9.000E+00
      21    -1     0     0   511   503  0.000000000E+00  0.000000000E+00 -9.483682151E+02  9.483682151E+02  0.000000000E+00  0.00000E+00  9.000E+00
      25     1     1     2     0     0  1.376488885E+01  3.601841239E+01 -2.865733474E+01  1.339148269E+02  1.250005593E+02  0.00000E+00  9.000E+00
       5     1     1     2   501     0 -2.730497639E+00  1.447732946E+00  2.441075775E+01  2.505991105E+01  4.750000000E+00  0.00000E+00  9.000E+00
      -5     1     1     2     0   503 -8.438621864E+00 -3.316000512E+01 -4.269986191E+02  4.283937202E+02  4.750000000E+00  0.00000E+00  9.000E+00
      21     1     1     2   511   502 -2.595769347E+00 -4.306140215E+00 -4.390469932E+02  4.390757829E+02  0.000000000E+00  0.00000E+00  9.000E+00
#rwgt            1           9   7.7338021182060093E-004           1     2413399           0
</event>
<event>
      6   9999  3.45752E-01  1.28438E+01 -1.00000E+00  1.76427E-01
      21    -1     0     0   501   502  0.000000000E+00  0.000000000E+00  2.356470642E+01  2.356470642E+01  0.000000000E+00  0.00000E+00  9.000E+00
      21    -1     0     0   502   512  0.000000000E+00  0.000000000E+00 -2.678047624E+03  2.678047624E+03  0.000000000E+00  0.00000E+00  9.000E+00
      25     1     1     2     0     0 -5.304015873E+00 -5.881151660E+01 -1.060702356E+03  1.069674146E+03  1.250054569E+02  0.00000E+00  9.000E+00
       5     1     1     2   501     0 -1.222556504E+00 -3.434109538E+00  1.689434538E+01  1.792398277E+01  4.750000000E+00  0.00000E+00  9.000E+00
      -5     1     1     2     0   503  6.143577799E+00  7.508370225E+01 -8.814502179E+02  8.846764126E+02  4.750000000E+00  0.00000E+00  9.000E+00
      21     1     1     2   503   512  3.829945772E-01 -1.283807612E+01 -7.292246891E+02  7.293377888E+02  0.000000000E+00  0.00000E+00  9.000E+00
#rwgt            1           9  0.20099944564898836                1     2418387           0
</event>
<event>
      6   9999  3.45752E-01  6.34841E+00 -1.00000E+00  2.10699E-01
      21    -1     0     0   501   511  0.000000000E+00  0.000000000E+00  1.956986682E+01  1.956986682E+01  0.000000000E+00  0.00000E+00  9.000E+00
      21    -1     0     0   502   503  0.000000000E+00  0.000000000E+00 -1.389109508E+03  1.389109508E+03  0.000000000E+00  0.00000E+00  9.000E+00
      25     1     1     2     0     0 -1.352808337E+01 -1.809113470E+01 -8.585789150E+02  8.679248320E+02  1.250018502E+02  0.00000E+00  9.000E+00
       5     1     1     2   501     0  6.053377843E+00  1.042300752E+00  1.280470072E+01  1.497506710E+01  4.750000000E+00  0.00000E+00  9.000E+00
      -5     1     1     2     0   503  8.593290038E+00  2.329791654E+01 -5.099379277E+02  5.105642860E+02  4.750000000E+00  0.00000E+00  9.000E+00
      21     1     1     2   502   511 -1.118584507E+00 -6.249082598E+00 -1.382749976E+01  1.521519024E+01  2.384185791E-07  0.00000E+00  9.000E+00
#rwgt            1           9  0.21518105886187086                1     2421325           0
</event>
<event>
      6   9999  3.45752E-01  2.75661E+01 -1.00000E+00  1.50255E-01
      21    -1     0     0   502   512  0.000000000E+00  0.000000000E+00  3.246388998E+01  3.246388998E+01  0.000000000E+00  0.00000E+00  9.000E+00
      21    -1     0     0   501   502  0.000000000E+00  0.000000000E+00 -7.276462261E+02  7.276462261E+02  0.000000000E+00  0.00000E+00  9.000E+00
      25     1     1     2     0     0 -1.001188661E+02  7.125731982E+00 -5.832432287E+02  6.048728229E+02  1.249956183E+02  0.00000E+00  9.000E+00
       5     1     1     2   501     0  6.906919294E+01 -1.026276971E+01 -6.490472117E+01  9.545188937E+01  4.750000000E+00  0.00000E+00  9.000E+00
      -5     1     1     2     0   503  3.593772084E+00  5.599049973E+00 -1.789156781E+01  1.967066997E+01  4.750000000E+00  0.00000E+00  9.000E+00
      21     1     1     2   503   512  2.745590107E+01 -2.462012247E+00 -2.914281842E+01  4.011473387E+01  5.840038640E-07  0.00000E+00  9.000E+00
#rwgt            1           9   8.7897206950798751E-002           1     2425543           0
</event>
<event>
      6   9999  3.45752E-01  2.34393E+01 -1.00000E+00  1.55122E-01
      21    -1     0     0   501   502  0.000000000E+00  0.000000000E+00  1.053321982E+03  1.053321982E+03  0.000000000E+00  0.00000E+00  9.000E+00
      21    -1     0     0   511   503  0.000000000E+00  0.000000000E+00 -4.651408814E+01  4.651408814E+01  0.000000000E+00  0.00000E+00  9.000E+00
      25     1     1     2     0     0 -3.934706919E+00 -7.219897359E+00  1.109967768E+02  1.673724872E+02  1.250026247E+02  0.00000E+00  9.000E+00
       5     1     1     2   501     0  9.138487221E+00 -1.206376722E+01  8.939070698E+02  8.940477942E+02  4.750000000E+00  0.00000E+00  9.000E+00
      -5     1     1     2     0   503 -8.575022241E-01 -3.749188488E+00  1.155147249E+01  1.306869317E+01  4.750000000E+00  0.00000E+00  9.000E+00
      21     1     1     2   511   502 -4.346278077E+00  2.303285307E+01 -9.647424978E+00  2.534709574E+01  0.000000000E+00  0.00000E+00  9.000E+00
#rwgt            1           9   3.5328068797288600E-002           1     2427207           0
</event>
<event>
      6   9999  3.45752E-01  1.45002E+01 -1.00000E+00  1.71657E-01
      21    -1     0     0   501   502  0.000000000E+00  0.000000000E+00  1.323819998E+03  1.323819998E+03  0.000000000E+00  0.00000E+00  9.000E+00
      21    -1     0     0   502   512  0.000000000E+00  0.000000000E+00 -1.119863190E+02  1.119863190E+02  0.000000000E+00  0.00000E+00  9.000E+00
      25     1     1     2     0     0 -4.763054555E+00  5.155805818E+01  1.025672763E+02  1.697823423E+02  1.250003101E+02  0.00000E+00  9.000E+00
       5     1     1     2   501     0  2.430156475E+00  8.912870683E-01  8.678007289E+02  8.678175889E+02  4.750000000E+00  0.00000E+00  9.000E+00
      -5     1     1     2     0   503 -1.120368305E+01 -5.764708997E+01  3.164219814E+02  3.218604392E+02  4.750000000E+00  0.00000E+00  9.000E+00
      21     1     1     2   503   512  1.353658113E+01  5.197744716E+00 -7.495630737E+01  7.634594681E+01  2.523185073E-06  0.00000E+00  9.000E+00
#rwgt            1           9   2.5363799767670527E-003           1     2428950           0
</event>
<event>
      6   9999  3.45752E-01  5.93563E+01 -1.00000E+00  1.30919E-01
      21    -1     0     0   501   502  0.000000000E+00  0.000000000E+00  9.590525676E+01  9.590525676E+01  0.000000000E+00  0.00000E+00  9.000E+00
      21    -1     0     0   502   511  0.000000000E+00  0.000000000E+00 -1.394211030E+03  1.394211030E+03  0.000000000E+00  0.00000E+00  9.000E+00
      25     1     1     2     0     0 -2.575088598E+02  6.244565637E+01 -7.966130682E+02  8.487799985E+02  1.249993300E+02  0.00000E+00  9.000E+00
       5     1     1     2   501     0 -5.850559271E+00  1.080762924E+00  3.592204587E+01  3.671992609E+01  4.750000000E+00  0.00000E+00  9.000E+00
      -5     1     1     2     0   503  2.145716188E+02 -2.971933767E+01 -4.047609297E+02  4.591058607E+02  4.750000000E+00  0.00000E+00  9.000E+00
      21     1     1     2   503   511  4.878780031E+01 -3.380708163E+01 -1.328538210E+02  1.455105013E+02  1.907348633E-06  0.00000E+00  9.000E+00
#rwgt            1           9   1.7168931500596732E-003           1     2432254           0
</event>
<event>
      6   9999 -3.45752E-01  1.64987E+01 -1.00000E+00  1.66864E-01
      21    -1     0     0   501   502  0.000000000E+00  0.000000000E+00  2.562139370E+01  2.562139370E+01  0.000000000E+00  0.00000E+00  9.000E+00
      21    -1     0     0   512   503  0.000000000E+00  0.000000000E+00 -1.177221010E+03  1.177221010E+03  0.000000000E+00  0.00000E+00  9.000E+00
      25     1     1     2     0     0 -2.722133908E+01  8.276125464E+01 -6.199865583E+02  6.384355815E+02  1.250049306E+02  0.00000E+00  9.000E+00
       5     1     1     2   501     0 -4.586767611E+00  1.195931508E+00  1.121237188E+01  1.306707589E+01  4.750000000E+00  0.00000E+00  9.000E+00
      -5     1     1     2     0   503  1.701057700E+01 -7.666069291E+01 -4.086109731E+02  4.161150218E+02  4.750000000E+00  0.00000E+00  9.000E+00
      21     1     1     2   512   502  1.479752969E+01 -7.296493245E+00 -1.342144571E+02  1.352247248E+02  0.000000000E+00  0.00000E+00  9.000E+00
#rwgt            1           9  -5.0787336483107907E-003           1     2434625           0
</event>
<event>
      6   9999  3.45752E-01  2.41147E+01 -1.00000E+00  1.54246E-01
      21    -1     0     0   511   502  0.000000000E+00  0.000000000E+00  5.903152169E+01  5.903152169E+01  0.000000000E+00  0.00000E+00  9.000E+00
      21    -1     0     0   502   503  0.000000000E+00  0.000000000E+00 -1.845024681E+03  1.845024681E+03  0.000000000E+00  0.00000E+00  9.000E+00
      25     1     1     2     0     0  1.910158086E+01 -3.818603291E+01 -1.132385754E+03  1.140063160E+03  1.249938740E+02  0.00000E+00  9.000E+00
       5     1     1     2   501     0  3.937914366E+00  7.590794469E-01  5.201262071E+01  5.238280810E+01  4.750000000E+00  0.00000E+00  9.000E+00
      -5     1     1     2     0   503 -2.799222456E+01  1.382630328E+01 -6.526021084E+02  6.533657519E+02  4.750000000E+00  0.00000E+00  9.000E+00
      21     1     1     2   511   501  4.952729340E+00  2.360065019E+01 -5.301791677E+01  5.824448228E+01  6.743495762E-07  0.00000E+00  9.000E+00
#rwgt            1           9   2.2370930060860114E-003           1     2436907           0
</event>
<event>
      6   9999  3.45752E-01  1.35637E+01 -1.00000E+00  1.74249E-01
      21    -1     0     0   501   512  0.000000000E+00  0.000000000E+00  8.335763960E+01  8.335763960E+01  0.000000000E+00  0.00000E+00  9.000E+00
      21    -1     0     0   502   503  0.000000000E+00  0.000000000E+00 -2.132653141E+03  2.132653141E+03  0.000000000E+00  0.00000E+00  9.000E+00
      25     1     1     2     0     0  7.897358517E+01  4.657761814E+01 -2.011284947E+03  2.017250205E+03  1.249998000E+02  0.00000E+00  9.000E+00
       5     1     1     2   501     0  4.154526367E-01  3.098536451E+00  1.185344332E+01  1.314686836E+01  4.750000000E+00  0.00000E+00  9.000E+00
      -5     1     1     2     0   503 -7.078253890E+01 -6.015957999E+01 -9.828948236E+01  1.353245274E+02  4.750000000E+00  0.00000E+00  9.000E+00
      21     1     1     2   502   512 -8.606498907E+00  1.048342540E+01  4.842548469E+01  5.028917974E+01  3.504023184E-06  0.00000E+00  9.000E+00
#rwgt            1           9   3.0752558625827772E-004           1     2439425           0
</event>
<event>
      6   9999 -3.45752E-01  3.15815E+01 -1.00000E+00  1.46409E-01
      21    -1     0     0   501   511  0.000000000E+00  0.000000000E+00  3.344961733E+02  3.344961733E+02  0.000000000E+00  0.00000E+00  9.000E+00
      21    -1     0     0   502   503  0.000000000E+00  0.000000000E+00 -3.240405294E+02  3.240405294E+02  0.000000000E+00  0.00000E+00  9.000E+00
      25     1     1     2     0     0 -8.645092104E+01  8.674611120E+01 -2.459042623E+02  3.018162839E+02  1.250020539E+02  0.00000E+00  9.000E+00
       5     1     1     2   501     0 -1.936761721E+01  2.357845521E+01  4.656976372E+01  5.587802376E+01  4.750000000E+00  0.00000E+00  9.000E+00
      -5     1     1     2     0   503  1.224864349E+02 -1.371493876E+02  1.757453917E+02  2.544049655E+02  4.750000000E+00  0.00000E+00  9.000E+00
      21     1     1     2   502   511 -1.666789661E+01  2.682482115E+01  3.404475075E+01  4.643742952E+01  1.066240300E-06  0.00000E+00  9.000E+00
#rwgt            1           9  -9.5290199399871778                1     2442989           0
</event>
<event>
      6   9999  3.45752E-01  1.10353E+01 -1.00000E+00  1.82797E-01
      21    -1     0     0   501   512  0.000000000E+00  0.000000000E+00  5.012246614E+01  5.012246614E+01  0.000000000E+00  0.00000E+00  9.000E+00
      21    -1     0     0   502   503  0.000000000E+00  0.000000000E+00 -3.005053916E+03  3.005053916E+03  0.000000000E+00  0.00000E+00  9.000E+00
      25     1     1     2     0     0 -2.926132603E+00  3.305915447E+00 -2.900108203E+03  2.902804176E+03  1.250000041E+02  0.00000E+00  9.000E+00
       5     1     1     2   501     0  3.008433597E+00  3.540662412E+00 -7.477748795E+00  1.000330896E+01  4.750000000E+00  0.00000E+00  9.000E+00
      -5     1     1     2     0   503  6.207525291E+00  2.220734932E+00 -9.403884037E+01  9.438925274E+01  4.750000000E+00  0.00000E+00  9.000E+00
      21     1     1     2   502   512 -6.289826284E+00 -9.067312792E+00  4.669334249E+01  4.797964473E+01  3.438521648E-06  0.00000E+00  9.000E+00
#rwgt            1           9   1.1441587654721413E-003           1     2444597           0
</event>
<event>
      6   9999  3.45752E-01  4.94406E+00 -1.00000E+00  2.30225E-01
      21    -1     0     0   501   511  0.000000000E+00  0.000000000E+00  2.985280234E+01  2.985280234E+01  0.000000000E+00  0.00000E+00  9.000E+00
      21    -1     0     0   502   503  0.000000000E+00  0.000000000E+00 -7.309447115E+02  7.309447115E+02  0.000000000E+00  0.00000E+00  9.000E+00
      25     1     1     2     0     0  1.409463534E-01 -2.436227704E+00 -5.957082402E+02  6.086837117E+02  1.249863928E+02  0.00000E+00  9.000E+00
       5     1     1     2   501     0  3.483432128E+00 -9.600402157E-01 -5.314460852E+00  7.991368516E+00  4.750000000E+00  0.00000E+00  9.000E+00
      -5     1     1     2     0   503  6.770137675E-01  5.833834258E+00 -1.216998138E+02  1.219339950E+02  4.750000000E+00  0.00000E+00  9.000E+00
      21     1     1     2   502   511 -4.301392248E+00 -2.437566338E+00  2.163060568E+01  2.218843859E+01  1.168007728E-06  0.00000E+00  9.000E+00
#rwgt            1           9   1.2068580554400886E-003           1     2446756           0
</event>
<event>
      6   9999  3.45752E-01  7.34910E+00 -1.00000E+00  2.02481E-01
      21    -1     0     0   501   512  0.000000000E+00  0.000000000E+00  4.963073271E+01  4.963073271E+01  0.000000000E+00  0.00000E+00  9.000E+00
      21    -1     0     0   502   503  0.000000000E+00  0.000000000E+00 -9.354143270E+02  9.354143270E+02  0.000000000E+00  0.00000E+00  9.000E+00
      25     1     1     2     0     0  3.436003637E+00 -7.782071689E+00 -9.109032837E+02  9.194797439E+02  1.250033615E+02  0.00000E+00  9.000E+00
       5     1     1     2   501     0  3.004914347E+00  4.086396894E+00  1.610133642E+01  1.753692346E+01  4.750000000E+00  0.00000E+00  9.000E+00
      -5     1     1     2     0   503  7.573458997E-01  2.214362711E+00 -1.865700042E+01  1.939389439E+01  4.750000000E+00  0.00000E+00  9.000E+00
      21     1     1     2   502   512 -7.198263883E+00  1.481312085E+00  2.767535340E+01  2.863449798E+01  1.305872339E-06  0.00000E+00  9.000E+00
#rwgt            1           9   3.0683843004045155E-003           1     2450518           0
</event>
<event>
      6   9999  3.45752E-01  2.86559E+00 -1.00000E+00  2.82224E-01
      21    -1     0     0   501   502  0.000000000E+00  0.000000000E+00  1.234151838E+02  1.234151838E+02  0.000000000E+00  0.00000E+00  9.000E+00
      21    -1     0     0   511   503  0.000000000E+00  0.000000000E+00 -5.110615346E+01  5.110615346E+01  0.000000000E+00  0.00000E+00  9.000E+00
      25     1     1     2     0     0 -2.708265913E+00 -2.067201337E+00  4.009151631E+01  1.313199352E+02  1.250039506E+02  0.00000E+00  9.000E+00
       5     1     1     2   501     0 -1.447493525E-01 -2.054242107E-01  3.452507211E+01  3.485120164E+01  4.750000000E+00  0.00000E+00  9.000E+00
      -5     1     1     2     0   503  3.573889033E-01  8.642835022E-01 -2.982889800E-01  4.850380306E+00  4.750000000E+00  0.00000E+00  9.000E+00
      21     1     1     2   511   502  2.495626362E+00  1.408342046E+00 -2.009269144E+00  3.499820103E+00  8.940696716E-08  0.00000E+00  9.000E+00
#rwgt            1           9   49.533414821958146                1     2454377           0
</event>
<event>
      6   9999  3.45752E-01  1.84482E+01 -1.00000E+00  1.62935E-01
      21    -1     0     0   502   512  0.000000000E+00  0.000000000E+00  1.051502438E+01  1.051502438E+01  0.000000000E+00  0.00000E+00  9.000E+00
      21    -1     0     0   501   502  0.000000000E+00  0.000000000E+00 -3.378739510E+03  3.378739510E+03  0.000000000E+00  0.00000E+00  9.000E+00
      25     1     1     2     0     0 -6.245245921E+01 -2.078969452E+01 -2.625067047E+03  2.628865691E+03  1.250011933E+02  0.00000E+00  9.000E+00
       5     1     1     2   501     0  4.368684166E-01  2.179116577E-01 -2.784946988E+01  2.825586333E+01  4.750000000E+00  0.00000E+00  9.000E+00
      -5     1     1     2     0   503  8.036501759E+01  1.866561739E+01 -7.071483237E+02  7.119608525E+02  4.750000000E+00  0.00000E+00  9.000E+00
      21     1     1     2   503   512 -1.834942680E+01  1.906165477E+00 -8.159645182E+00  2.017212781E+01  1.735713456E-06  0.00000E+00  9.000E+00
#rwgt            1           9   1.0355563800351133E-002           1     2459865           0
</event>
<event>
      6   9999 -3.45752E-01  1.36642E+01 -1.00000E+00  1.73958E-01
      21    -1     0     0   502   503  0.000000000E+00  0.000000000E+00  8.641722552E+00  8.641722552E+00  0.000000000E+00  0.00000E+00  9.000E+00
      21    -1     0     0   511   502  0.000000000E+00  0.000000000E+00 -8.080268566E+02  8.080268566E+02  0.000000000E+00  0.00000E+00  9.000E+00
      25     1     1     2     0     0  2.050531209E+01 -5.813826107E+00 -6.159559980E+02  6.288759276E+02  1.250154887E+02  0.00000E+00  9.000E+00
       5     1     1     2   501     0 -1.236267232E+01  1.458922184E+01 -9.820958538E+01  1.001666922E+02  4.750000000E+00  0.00000E+00  9.000E+00
      -5     1     1     2     0   503 -7.859547804E-01  2.739309790E+00 -1.309402216E+01  1.421750538E+01  4.750000000E+00  0.00000E+00  9.000E+00
      21     1     1     2   511   501 -7.356684991E+00 -1.151470552E+01 -7.212552850E+01  7.340845400E+01  1.651812370E-06  0.00000E+00  9.000E+00
#rwgt            1           9  -2.5338981768386434E-002           1     2461470           0
</event>
<event>
      6   9999  3.45752E-01  4.36699E+00 -1.00000E+00  2.40215E-01
      -1    -1     0     0     0   502  0.000000000E+00  0.000000000E+00  3.382448717E+02  3.382448717E+02  0.000000000E+00  0.00000E+00  9.000E+00
      21    -1     0     0   502   503  0.000000000E+00  0.000000000E+00 -6.675423700E+02  6.675423700E+02  0.000000000E+00  0.00000E+00  9.000E+00
      25     1     1     2     0     0  7.680851271E-01  1.863633235E-01 -6.115254926E+02  6.241728108E+02  1.250105794E+02  0.00000E+00  9.000E+00
       5     1     1     2   501     0 -4.230023967E-01  1.118116772E-01 -8.412524072E-01  4.843721554E+00  4.750000000E+00  0.00000E+00  9.000E+00
      -5     1     1     2     0   503  2.975114894E+00 -3.134884515E+00 -4.661613520E+01  4.705640626E+01  4.750000000E+00  0.00000E+00  9.000E+00
      -1     1     1     2     0   501 -3.320197624E+00  2.836709514E+00  3.296853819E+02  3.297143031E+02  3.814697266E-06  0.00000E+00  9.000E+00
#rwgt            1           9  0.30691242535607027                1     2463187           0
</event>
<event>
      6   9999  3.45752E-01  7.36624E+01 -1.00000E+00  1.26360E-01
      21    -1     0     0   501   511  0.000000000E+00  0.000000000E+00  7.121685253E+02  7.121685253E+02  0.000000000E+00  0.00000E+00  9.000E+00
      21    -1     0     0   502   503  0.000000000E+00  0.000000000E+00 -5.904865985E+01  5.904865985E+01  0.000000000E+00  0.00000E+00  9.000E+00
      25     1     1     2     0     0  1.891754557E+01  1.457748876E+01  1.608306467E+02  2.050885335E+02  1.249977318E+02  0.00000E+00  9.000E+00
       5     1     1     2   501     0 -5.598592608E+01 -5.227363398E+01  2.339193918E+02  2.461865169E+02  4.750000000E+00  0.00000E+00  9.000E+00
      -5     1     1     2     0   503  7.263910683E+01 -2.680870296E+01  3.568135144E+01  8.538657819E+01  4.750000000E+00  0.00000E+00  9.000E+00
      21     1     1     2   502   511 -3.557072632E+01  6.450484818E+01  2.226884755E+02  2.345555566E+02  2.697398305E-06  0.00000E+00  9.000E+00
#rwgt            1           9   7.5312124548006976                1     2467474           0
</event>
<event>
      6   9999  3.45752E-01  1.75336E+01 -1.00000E+00  1.64699E-01
      21    -1     0     0   501   502  0.000000000E+00  0.000000000E+00  1.210825085E+01  1.210825085E+01  0.000000000E+00  0.00000E+00  9.000E+00
      21    -1     0     0   502   512  0.000000000E+00  0.000000000E+00 -9.198391816E+02  9.198391816E+02  0.000000000E+00  0.00000E+00  9.000E+00
      25     1     1     2     0     0 -1.229225113E+01 -1.994037463E+01 -7.960699488E+02  8.061649077E+02  1.250031078E+02  0.00000E+00  9.000E+00
       5     1     1     2   501     0 -3.233565410E+00 -6.270345691E-01  3.181845693E+00  6.598163352E+00  4.750000000E+00  0.00000E+00  9.000E+00
      -5     1     1     2     0   503  1.764340563E+00  9.702341781E+00 -2.063105309E+01  2.335489639E+01  4.750000000E+00  0.00000E+00  9.000E+00
      21     1     1     2   503   512  1.376147597E+01  1.086506741E+01 -9.421177452E+01  9.582946504E+01  0.000000000E+00  0.00000E+00  9.000E+00
#rwgt            1           9   2.0594235797448952E-003           1     2468847           0
</event>
<event>
      6   9999  3.45752E-01  6.66980E+00 -1.00000E+00  2.07850E-01
      21    -1     0     0   511   502  0.000000000E+00  0.000000000E+00  2.594414758E+01  2.594414758E+01  0.000000000E+00  0.00000E+00  9.000E+00
      21    -1     0     0   502   503  0.000000000E+00  0.000000000E+00 -7.796645091E+02  7.796645091E+02  0.000000000E+00  0.00000E+00  9.000E+00
      25     1     1     2     0     0 -1.882350174E+01  9.963131454E+00 -7.089584016E+02  7.202085821E+02  1.249991937E+02  0.00000E+00  9.000E+00
       5     1     1     2   501     0 -1.547422574E+00 -6.774801248E-01  2.748661799E+00  5.742049950E+00  4.750000000E+00  0.00000E+00  9.000E+00
      -5     1     1     2     0   503  1.445663008E+01 -6.202255042E+00 -6.176865583E+01  6.391706708E+01  4.750000000E+00  0.00000E+00  9.000E+00
      21     1     1     2   511   501  5.914294235E+00 -3.083396288E+00  1.425803405E+01  1.574095753E+01  4.129530925E-07  0.00000E+00  9.000E+00
#rwgt            1           9   7.4976272402774906E-004           1     2470510           0
</event>
<event>
      6   9999  3.45752E-01  1.66555E+01 -1.00000E+00  1.66523E-01
      21    -1     0     0   502   512  0.000000000E+00  0.000000000E+00  2.475616503E+01  2.475616503E+01  0.000000000E+00  0.00000E+00  9.000E+00
      21    -1     0     0   501   502  0.000000000E+00  0.000000000E+00 -2.101628284E+03  2.101628284E+03  0.000000000E+00  0.00000E+00  9.000E+00
      25     1     1     2     0     0  2.660989038E+01  2.705466320E+01 -6.894418276E+02  7.017103354E+02  1.250092801E+02  0.00000E+00  9.000E+00
       5     1     1     2   501     0 -4.631092563E+01 -4.060739169E+01 -1.280669822E+03  1.282158889E+03  4.750000000E+00  0.00000E+00  9.000E+00
      -5     1     1     2     0   503  3.224499380E+01  2.595739807E+00 -1.179842612E+02  1.224309025E+02  4.750000000E+00  0.00000E+00  9.000E+00
      21     1     1     2   503   512 -1.254395855E+01  1.095698868E+01  1.122379153E+01  2.008432208E+01  1.289445618E-06  0.00000E+00  9.000E+00
#rwgt            1           9  0.35635842114071470                1     2473987           0
</event>
<event>
      6   9999  3.45752E-01  9.11109E+01 -1.00000E+00  1.22179E-01
      21    -1     0     0   501   502  0.000000000E+00  0.000000000E+00  6.191281672E+02  6.191281672E+02  0.000000000E+00  0.00000E+00  9.000E+00
      21    -1     0     0   502   511  0.000000000E+00  0.000000000E+00 -1.277422507E+03  1.277422507E+03  0.000000000E+00  0.00000E+00  9.000E+00
      25     1     1     2     0     0  5.836301388E+01  1.507928371E+01  3.713586339E+02  3.964397962E+02  1.249946035E+02  0.00000E+00  9.000E+00
       5     1     1     2   501     0 -1.487932355E+01 -7.201647867E+01  1.810938701E+02  1.955129657E+02  4.750000000E+00  0.00000E+00  9.000E+00
      -5     1     1     2     0   503  1.394212749E+01 -1.379807338E+01  4.302312779E+01  4.752180314E+01  4.750000000E+00  0.00000E+00  9.000E+00
      21     1     1     2   503   511 -5.742581782E+01  7.073526834E+01 -1.253769971E+03  1.257076109E+03  2.157918644E-05  0.00000E+00  9.000E+00
#rwgt            1           9   2.3764950156691893                1     2476474           0
</event>
<event>
      6   9999  3.45752E-01  1.80103E+01 -1.00000E+00  1.63764E-01
      21    -1     0     0   502   512  0.000000000E+00  0.000000000E+00  1.737493960E+01  1.737493960E+01  0.000000000E+00  0.00000E+00  9.000E+00
      21    -1     0     0   501   502  0.000000000E+00  0.000000000E+00 -7.954175410E+02  7.954175410E+02  0.000000000E+00  0.00000E+00  9.000E+00
      25     1     1     2     0     0  4.224931250E+00  1.727156401E+01 -4.856630621E+02  5.018061802E+02  1.249987023E+02  0.00000E+00  9.000E+00
       5     1     1     2   501     0  2.611799503E+00  2.353874215E-02 -1.335812416E+02  1.336911839E+02  4.750000000E+00  0.00000E+00  9.000E+00
      -5     1     1     2     0   503  3.068012857E+00 -3.233722299E+01 -1.555723884E+02  1.589982365E+02  4.750000000E+00  0.00000E+00  9.000E+00
      21     1     1     2   503   512 -9.904743610E+00  1.504212024E+01 -3.225909334E+00  1.829688001E+01  6.433437212E-07  0.00000E+00  9.000E+00
#rwgt            1           9   1.1783851974971995                1     2476902           0
</event>
<event>
      6   9999 -3.45752E-01  1.99480E+01 -1.00000E+00  1.60297E-01
      21    -1     0     0   511   502  0.000000000E+00  0.000000000E+00  7.277729122E+01  7.277729122E+01  0.000000000E+00  0.00000E+00  9.000E+00
      21    -1     0     0   502   503  0.000000000E+00  0.000000000E+00 -1.461472777E+03  1.461472777E+03  0.000000000E+00  0.00000E+00  9.000E+00
      25     1     1     2     0     0  7.683050081E-01 -1.064481794E+02 -8.603641292E+01  1.853638087E+02  1.250026881E+02  0.00000E+00  9.000E+00
       5     1     1     2   501     0 -9.474716922E-01  1.062732356E+00  1.387169797E+01  1.473138172E+01  4.750000000E+00  0.00000E+00  9.000E+00
      -5     1     1     2     0   503  1.945600079E+01  1.002547076E+02 -1.308759594E+03  1.312746655E+03  4.750000000E+00  0.00000E+00  9.000E+00
      21     1     1     2   511   501 -1.927683411E+01  5.130739413E+00 -7.771176737E+00  2.140822291E+01  5.591411304E-07  0.00000E+00  9.000E+00
#rwgt            1           9  -1.5815238613722125E-003           1     2478341           0
</event>
<event>
      6   9999  3.45752E-01  1.46400E+01 -1.00000E+00  1.71291E-01
      21    -1     0     0   501   512  0.000000000E+00  0.000000000E+00  2.449434377E+01  2.449434377E+01  0.000000000E+00  0.00000E+00  9.000E+00
      21    -1     0     0   502   503  0.000000000E+00  0.000000000E+00 -7.840899005E+02  7.840899005E+02  0.000000000E+00  0.00000E+00  9.000E+00
      25     1     1     2     0     0 -3.018084144E+01 -1.409617749E+01 -6.515056305E+02  6.642246107E+02  1.250006458E+02  0.00000E+00  9.000E+00
       5     1     1     2   501     0 -1.308121412E+00 -5.531508440E+00 -1.973061854E+01  2.107530723E+01  4.750000000E+00  0.00000E+00  9.000E+00
      -5     1     1     2     0   503  3.195908308E+01  4.995201205E+00 -9.959871685E+01  1.048274865E+02  4.750000000E+00  0.00000E+00  9.000E+00
      21     1     1     2   502   512 -4.701202219E-01  1.463248472E+01  1.123940911E+01  1.845683991E+01  5.591411304E-07  0.00000E+00  9.000E+00
#rwgt            1           9  0.98781304804406511                1     2481229           0
</event>
<event>
      6   9999  3.45752E-01  1.20872E+01 -1.00000E+00  1.78919E-01
      21    -1     0     0   511   502  0.000000000E+00  0.000000000E+00  3.580996096E+01  3.580996096E+01  0.000000000E+00  0.00000E+00  9.000E+00
      21    -1     0     0   502   503  0.000000000E+00  0.000000000E+00 -1.141492808E+03  1.141492808E+03  0.000000000E+00  0.00000E+00  9.000E+00
      25     1     1     2     0     0 -1.599508028E+01  4.287562335E+00 -9.880824939E+02  9.960960510E+02  1.250044087E+02  0.00000E+00  9.000E+00
       5     1     1     2   501     0 -8.715148848E+00 -1.010801380E+01  2.398611838E+01  2.785717389E+01  4.750000000E+00  0.00000E+00  9.000E+00
      -5     1     1     2     0   503  1.583770276E+01 -2.388052012E+00 -1.401899872E+02  1.411819061E+02  4.750000000E+00  0.00000E+00  9.000E+00
      21     1     1     2   511   501  8.872526368E+00  8.208503477E+00 -1.396484743E+00  1.216763835E+01  3.335331274E-07  0.00000E+00  9.000E+00
#rwgt            1           9  0.10996053034672219                1     2483529           0
</event>
<event>
      6   9999  3.45752E-01  5.09745E+00 -1.00000E+00  2.24419E-01
      21    -1     0     0   501   502  0.000000000E+00  0.000000000E+00  2.297704862E+01  2.297704862E+01  0.000000000E+00  0.00000E+00  9.000E+00
      21    -1     0     0   512   503  0.000000000E+00  0.000000000E+00 -5.226964211E+02  5.226964211E+02  0.000000000E+00  0.00000E+00  9.000E+00
      25     1     1     2     0     0  6.597924255E-01  1.176381962E+01 -4.766031844E+02  4.928637099E+02  1.250008736E+02  0.00000E+00  9.000E+00
       5     1     1     2   501     0 -2.540067259E+00  2.207365026E+00  1.003302236E+01  1.159950170E+01  4.750000000E+00  0.00000E+00  9.000E+00
      -5     1     1     2     0   503 -3.211876891E+00 -1.420357016E+01 -1.200772489E+01  1.946292670E+01  4.750000000E+00  0.00000E+00  9.000E+00
      21     1     1     2   512   502  5.092151724E+00  2.323855194E-01 -2.114148553E+01  2.174733140E+01  2.384185791E-07  0.00000E+00  9.000E+00
#rwgt            1           9   1.3518975065041577E-002           1     2486935           0
</event>
<event>
      6   9999  3.45752E-01  3.83151E+00 -1.00000E+00  2.51783E-01
      21    -1     0     0   502   503  0.000000000E+00  0.000000000E+00  7.306484861E+00  7.306484861E+00  0.000000000E+00  0.00000E+00  9.000E+00
      21    -1     0     0   501   511  0.000000000E+00  0.000000000E+00 -1.084066836E+03  1.084066836E+03  0.000000000E+00  0.00000E+00  9.000E+00
      25     1     1     2     0     0  7.073547100E+00  5.866648515E+00 -5.806236274E+02  5.939985466E+02  1.250040963E+02  0.00000E+00  9.000E+00
       5     1     1     2   501     0  8.229807384E-02  2.132071146E+00 -1.493463095E+01  1.581639030E+01  4.750000000E+00  0.00000E+00  9.000E+00
      -5     1     1     2     0   503 -5.513352088E+00 -4.537123467E+00 -1.090897463E+02  1.094263121E+02  4.750000000E+00  0.00000E+00  9.000E+00
      21     1     1     2   502   511 -1.642493086E+00 -3.461596195E+00 -3.721123467E+02  3.721320720E+02  5.394796609E-06  0.00000E+00  9.000E+00
#rwgt            1           9   1.3594819891611505E-004           1     2492018           0
</event>
<event>
      6   9999  3.45752E-01  1.88312E+01 -1.00000E+00  1.62233E-01
      21    -1     0     0   512   502  0.000000000E+00  0.000000000E+00  9.088804149E+01  9.088804149E+01  0.000000000E+00  0.00000E+00  9.000E+00
      21    -1     0     0   502   503  0.000000000E+00  0.000000000E+00 -2.446273428E+03  2.446273428E+03  0.000000000E+00  0.00000E+00  9.000E+00
      25     1     1     2     0     0 -3.059259756E+01  1.501980897E+00 -1.360136138E+03  1.366212469E+03  1.250121334E+02  0.00000E+00  9.000E+00
       5     1     1     2   501     0  8.040346467E+00 -4.214083582E+00  3.940531235E+00  1.097706510E+01  4.750000000E+00  0.00000E+00  9.000E+00
      -5     1     1     2     0   503  4.100380297E+01  6.474081564E+00 -1.078067816E+03  1.078877196E+03  4.750000000E+00  0.00000E+00  9.000E+00
      21     1     1     2   512   501 -1.845155188E+01 -3.761978879E+00  7.887803598E+01  8.109473973E+01  4.862803949E-06  0.00000E+00  9.000E+00
#rwgt            1           9   7.9898903376821734E-003           1     2496105           0
</event>
<event>
      6   9999 -3.45752E-01  1.49989E+01 -1.00000E+00  1.70374E-01
      21    -1     0     0   501   502  0.000000000E+00  0.000000000E+00  1.838595313E+01  1.838595313E+01  0.000000000E+00  0.00000E+00  9.000E+00
      21    -1     0     0   502   511  0.000000000E+00  0.000000000E+00 -1.252560104E+03  1.252560104E+03  0.000000000E+00  0.00000E+00  9.000E+00
      25     1     1     2     0     0  1.079292007E+01 -1.486373190E+01 -7.432060762E+02  7.538647619E+02  1.249775572E+02  0.00000E+00  9.000E+00
       5     1     1     2   501     0  1.789121845E+00  6.631078117E+00  1.090810909E+01  1.373759433E+01  4.750000000E+00  0.00000E+00  9.000E+00
      -5     1     1     2     0   503 -3.810756691E+00  2.039951856E+01 -2.084215931E+02  2.095060505E+02  4.750000000E+00  0.00000E+00  9.000E+00
      21     1     1     2   503   511 -8.771285225E+00 -1.216686477E+01 -2.934545905E+02  2.938376503E+02  3.814697266E-06  0.00000E+00  9.000E+00
#rwgt            1           9  -7.9201196156709636E-004           1     2497981           0
</event>
<event>
      6   9999 -3.45752E-01  8.92561E+00 -1.00000E+00  1.92548E-01
      21    -1     0     0   512   502  0.000000000E+00  0.000000000E+00  3.476203888E+00  3.476203888E+00  0.000000000E+00  0.00000E+00  9.000E+00
      21    -1     0     0   502   503  0.000000000E+00  0.000000000E+00 -3.969456562E+03  3.969456562E+03  0.000000000E+00  0.00000E+00  9.000E+00
      25     1     1     2     0     0 -1.174056364E+01 -3.900233005E+01 -1.437239245E+03  1.443239376E+03  1.249969110E+02  0.00000E+00  9.000E+00
       5     1     1     2   501     0  4.587689713E+00  3.553659403E+01 -1.535425797E+03  1.535851177E+03  4.750000000E+00  0.00000E+00  9.000E+00
      -5     1     1     2     0   503  1.546554694E+01  2.152011522E-01 -8.885697403E+02  8.887170390E+02  4.750000000E+00  0.00000E+00  9.000E+00
      21     1     1     2   512   501 -8.312673021E+00  3.250534872E+00 -1.047455762E+02  1.051251742E+02  0.000000000E+00  0.00000E+00  9.000E+00
#rwgt            1           9  -2.3479259788881612E-004           1     2500684           0
</event>
<event>
      6   9999  3.45752E-01  1.39890E+01 -1.00000E+00  1.73040E-01
      21    -1     0     0   501   511  0.000000000E+00  0.000000000E+00  6.028202025E+01  6.028202025E+01  0.000000000E+00  0.00000E+00  9.000E+00
      21    -1     0     0   502   503  0.000000000E+00  0.000000000E+00 -1.322381046E+03  1.322381046E+03  0.000000000E+00  0.00000E+00  9.000E+00
      25     1     1     2     0     0  2.442911274E+02  2.019542475E+01 -7.996290814E+02  8.456440179E+02  1.249845075E+02  0.00000E+00  9.000E+00
       5     1     1     2   501     0 -2.274567798E+02 -3.427592521E-01 -3.442937361E+02  4.126711080E+02  4.750000000E+00  0.00000E+00  9.000E+00
      -5     1     1     2     0   503 -2.847649095E+00 -1.959908700E+01 -9.593605558E+01  9.807406679E+01  4.750000000E+00  0.00000E+00  9.000E+00
      21     1     1     2   502   511 -1.398669856E+01 -2.535784942E-01 -2.224015243E+01  2.627387332E+01  2.384185791E-07  0.00000E+00  9.000E+00
#rwgt            1           9   2.3011559943816770E-004           1     2503819           0
</event>
<event>
      6   9999  3.45752E-01  2.20828E+01 -1.00000E+00  1.56994E-01
      21    -1     0     0   501   512  0.000000000E+00  0.000000000E+00  3.623876551E+02  3.623876551E+02  0.000000000E+00  0.00000E+00  9.000E+00
      21    -1     0     0   502   503  0.000000000E+00  0.000000000E+00 -4.333582112E+01  4.333582112E+01  0.000000000E+00  0.00000E+00  9.000E+00
      25     1     1     2     0     0 -1.581885695E+01 -2.374313712E+01  9.388979731E+01  1.589302208E+02  1.250181917E+02  0.00000E+00  9.000E+00
       5     1     1     2   501     0  4.392811223E+00 -4.993158113E+00  1.260809014E+02  1.263454970E+02  4.750000000E+00  0.00000E+00  9.000E+00
      -5     1     1     2     0   503  1.886862245E+01  7.945445871E+00  2.257696550E+00  2.113799227E+01  4.750000000E+00  0.00000E+00  9.000E+00
      21     1     1     2   502   512 -7.442576729E+00  2.079084936E+01  9.682343875E+01  9.930976617E+01  1.348699152E-06  0.00000E+00  9.000E+00
#rwgt            1           9   3.1585515967469973                1     2507410           0
</event>
<event>
      6   9999  3.45752E-01  5.16345E+00 -1.00000E+00  2.23564E-01
      21    -1     0     0   511   503  0.000000000E+00  0.000000000E+00  9.491747038E+00  9.491747038E+00  0.000000000E+00  0.00000E+00  9.000E+00
      21    -1     0     0   501   502  0.000000000E+00  0.000000000E+00 -7.250905138E+02  7.250905138E+02  0.000000000E+00  0.00000E+00  9.000E+00
      25     1     1     2     0     0 -3.184388964E+00 -8.974714977E+00 -5.927765080E+02  6.058873606E+02  1.249992777E+02  0.00000E+00  9.000E+00
       5     1     1     2   501     0 -5.886512475E+00 -5.607779870E+00 -5.749605847E+01  5.826197271E+01  4.750000000E+00  0.00000E+00  9.000E+00
      -5     1     1     2     0   503  7.136076310E+00  9.795255418E+00 -6.370459083E+01  6.502082749E+01  4.750000000E+00  0.00000E+00  9.000E+00
      21     1     1     2   511   502  1.934825129E+00  4.787239429E+00 -1.621609434E+00  5.412100035E+00  2.032247439E-07  0.00000E+00  9.000E+00
#rwgt            1           9   6.2828243885348176E-002           1     2509334           0
</event>
<event>
      6   9999  3.45752E-01  9.70222E+00 -1.00000E+00  1.88587E-01
      21    -1     0     0   512   502  0.000000000E+00  0.000000000E+00  4.281741767E+01  4.281741767E+01  0.000000000E+00  0.00000E+00  9.000E+00
      21    -1     0     0   502   503  0.000000000E+00  0.000000000E+00 -1.061056976E+03  1.061056976E+03  0.000000000E+00  0.00000E+00  9.000E+00
      25     1     1     2     0     0 -4.510811220E+00 -1.665988334E+00 -9.357124407E+02  9.440334440E+02  1.249729921E+02  0.00000E+00  9.000E+00
       5     1     1     2   501     0 -5.759094805E+00  7.824007994E+00  3.565325348E+01  3.725720411E+01  4.750000000E+00  0.00000E+00  9.000E+00
      -5     1     1     2     0   503  7.265839921E-01 -4.409273099E+00 -1.091013365E+02  1.092960829E+02  4.750000000E+00  0.00000E+00  9.000E+00
      21     1     1     2   512   501  9.543322033E+00 -1.748746561E+00 -9.079034673E+00  1.328766272E+01  3.371747881E-07  0.00000E+00  9.000E+00
#rwgt            1           9   7.6202273907926132                1     2513316           0
</event>
<event>
      6   9999  3.45752E-01  3.43584E+00 -1.00000E+00  2.62359E-01
      21    -1     0     0   501   502  0.000000000E+00  0.000000000E+00  2.260628761E+00  2.260628761E+00  0.000000000E+00  0.00000E+00  9.000E+00
      21    -1     0     0   511   503  0.000000000E+00  0.000000000E+00 -3.420712072E+03  3.420712072E+03  0.000000000E+00  0.00000E+00  9.000E+00
      25     1     1     2     0     0 -2.955048724E+00 -1.614585284E+00 -2.806474675E+03  2.809259141E+03  1.250019050E+02  0.00000E+00  9.000E+00
       5     1     1     2   501     0  9.057335715E-01  2.661807476E-01 -6.385134075E+00  8.013965476E+00  4.750000000E+00  0.00000E+00  9.000E+00
      -5     1     1     2     0   503 -9.276352951E-02 -1.337951483E+00 -1.273387625E+02  1.274343818E+02  4.750000000E+00  0.00000E+00  9.000E+00
      21     1     1     2   511   502  2.142078682E+00  2.686356019E+00 -4.782528713E+02  4.782652129E+02  5.394796609E-06  0.00000E+00  9.000E+00
#rwgt            1           9   3.4194321731135262E-005           1     2516921           0
</event>
<event>
      6   9999  3.45752E-01  2.63624E+01 -1.00000E+00  1.51563E-01
      21    -1     0     0   501   502  0.000000000E+00  0.000000000E+00  9.872756030E+00  9.872756030E+00  0.000000000E+00  0.00000E+00  9.000E+00
      21    -1     0     0   512   503  0.000000000E+00  0.000000000E+00 -1.009810584E+03  1.009810584E+03  0.000000000E+00  0.00000E+00  9.000E+00
      25     1     1     2     0     0 -1.843900134E+01 -2.138093409E+01 -7.259899533E+02  7.372130260E+02  1.249979691E+02  0.00000E+00  9.000E+00
       5     1     1     2   501     0 -4.482572979E+00 -2.656693993E+00 -8.623231599E-01  7.103350246E+00  4.750000000E+00  0.00000E+00  9.000E+00
      -5     1     1     2     0   503  3.102995845E+00  6.653755732E+00 -5.442684741E+01  5.512481535E+01  4.750000000E+00  0.00000E+00  9.000E+00
      21     1     1     2   512   502  1.981857848E+01  1.738387235E+01 -2.186587036E+02  2.202421480E+02  3.814697266E-06  0.00000E+00  9.000E+00
#rwgt            1           9   5.2143633307196777E-002           1     2521700           0
</event>
<event>
      6   9999  3.45752E-01  1.63464E+01 -1.00000E+00  1.67198E-01
      21    -1     0     0   501   511  0.000000000E+00  0.000000000E+00  2.916244621E+02  2.916244621E+02  0.000000000E+00  0.00000E+00  9.000E+00
      21    -1     0     0   502   503  0.000000000E+00  0.000000000E+00 -6.548244997E+02  6.548244997E+02  0.000000000E+00  0.00000E+00  9.000E+00
      25     1     1     2     0     0 -2.739080244E+01  1.487334565E+02 -1.105793795E+02  2.252211841E+02  1.249995417E+02  0.00000E+00  9.000E+00
       5     1     1     2   501     0 -1.480612855E+01 -1.113761449E+00  1.299564059E+02  1.308880890E+02  4.750000000E+00  0.00000E+00  9.000E+00
      -5     1     1     2     0   503  3.100683723E+01 -1.357038530E+02 -4.757625665E+02  4.957313203E+02  4.750000000E+00  0.00000E+00  9.000E+00
      21     1     1     2   502   511  1.119009376E+01 -1.191584206E+01  9.318550261E+01  9.460836848E+01  1.348699152E-06  0.00000E+00  9.000E+00
#rwgt            1           9   1.0025024821159964E-003           1     2522891           0
</event>
<event>
      6   9999  3.45752E-01  1.25673E+01 -1.00000E+00  1.77312E-01
      21    -1     0     0   501   502  0.000000000E+00  0.000000000E+00  3.030358689E+02  3.030358689E+02  0.000000000E+00  0.00000E+00  9.000E+00
      21    -1     0     0   502   512  0.000000000E+00  0.000000000E+00 -7.465443055E+01  7.465443055E+01  0.000000000E+00  0.00000E+00  9.000E+00
      25     1     1     2     0     0 -3.699797057E+01  2.174561863E+01 -1.291747527E+00  1.321696437E+02  1.250016974E+02  0.00000E+00  9.000E+00
       5     1     1     2   501     0 -2.828958295E-01  2.899165680E+00  1.609498610E+02  1.610462836E+02  4.750000000E+00  0.00000E+00  9.000E+00
      -5     1     1     2     0   503  2.771397314E+01 -1.649545520E+01  6.240822458E+01  7.040961116E+01  4.750000000E+00  0.00000E+00  9.000E+00
      21     1     1     2   503   512  9.566893264E+00 -8.149329109E+00  6.315100333E+00  1.406476107E+01  2.384185791E-07  0.00000E+00  9.000E+00
#rwgt            1           9   1.3514896982940754E-004           1     2526932           0
</event>
<event>
      6   9999  3.45752E-01  7.43799E+00 -1.00000E+00  2.01836E-01
      21    -1     0     0   502   511  0.000000000E+00  0.000000000E+00  7.955971463E+00  7.955971463E+00  0.000000000E+00  0.00000E+00  9.000E+00
      21    -1     0     0   501   502  0.000000000E+00  0.000000000E+00 -7.360392038E+02  7.360392038E+02  0.000000000E+00  0.00000E+00  9.000E+00
      25     1     1     2     0     0 -4.862638764E+00  5.827723513E+00 -6.209021650E+02  6.334055693E+02  1.250020365E+02  0.00000E+00  9.000E+00
       5     1     1     2   501     0  1.342805040E+00 -1.110743836E+01 -7.548222756E+01  7.645461065E+01  4.750000000E+00  0.00000E+00  9.000E+00
      -5     1     1     2     0   503 -9.572518461E-01 -6.599280469E-01 -8.920091103E+00  1.017262805E+01  4.750000000E+00  0.00000E+00  9.000E+00
      21     1     1     2   503   511  4.477085570E+00  5.939642890E+00 -2.277874868E+01  2.396236725E+01  4.768371582E-07  0.00000E+00  9.000E+00
#rwgt            1           9  0.29057959751153362                1     2529723           0
</event>
<event>
      6   9999  3.45752E-01  6.64546E+00 -1.00000E+00  2.08058E-01
      21    -1     0     0   501   502  0.000000000E+00  0.000000000E+00  2.476394213E+03  2.476394213E+03  0.000000000E+00  0.00000E+00  9.000E+00
      21    -1     0     0   502   512  0.000000000E+00  0.000000000E+00 -6.083769742E+00  6.083769742E+00  0.000000000E+00  0.00000E+00  9.000E+00
      25     1     1     2     0     0  9.876711268E+00 -1.235580807E+01  7.560117036E+02  7.664587581E+02  1.251204081E+02  0.00000E+00  9.000E+00
       5     1     1     2   501     0  2.177994654E+00 -2.224008212E-01  1.289416033E+03  1.289426641E+03  4.750000000E+00  0.00000E+00  9.000E+00
      -5     1     1     2     0   503 -1.432534396E+01  6.332703991E+00  4.096082757E+02  4.099351420E+02  4.750000000E+00  0.00000E+00  9.000E+00
      21     1     1     2   503   512  2.270638043E+00  6.245504900E+00  1.527443061E+01  1.665744155E+01  4.768371582E-07  0.00000E+00  9.000E+00
#rwgt            1           9   9.9453267044723653E-002           1     2532909           0
</event>
<event>
      6   9999 -3.45752E-01  3.95614E+00 -1.00000E+00  2.48845E-01
      21    -1     0     0   501   502  0.000000000E+00  0.000000000E+00  4.951128345E+02  4.951128345E+02  0.000000000E+00  0.00000E+00  9.000E+00
      -3    -1     0     0     0   503  0.000000000E+00  0.000000000E+00 -2.202957063E+02  2.202957063E+02  0.000000000E+00  0.00000E+00  9.000E+00
      25     1     1     2     0     0  4.591956631E+01 -3.360169723E+01 -3.046509744E+01  1.407138917E+02  1.250383802E+02  0.00000E+00  9.000E+00
       5     1     1     2   501     0 -8.092572070E+00 -2.550257704E+00  3.468072959E+02  3.469435927E+02  4.750000000E+00  0.00000E+00  9.000E+00
      -5     1     1     2     0   503 -3.926322138E+01  3.246572497E+01  8.605042009E+01  1.001142405E+02  4.750000000E+00  0.00000E+00  9.000E+00
      -3     1     1     2     0   502  1.436227140E+00  3.686229968E+00 -1.275754904E+02  1.276368159E+02  1.907348633E-06  0.00000E+00  9.000E+00
#rwgt            1           9  -1.5270055741181874E-004           1     2536934           0
</event>
<event>
      6   9999  3.45752E-01  2.21343E+01 -1.00000E+00  1.56920E-01
      21    -1     0     0   501   502  0.000000000E+00  0.000000000E+00  1.938156769E+01  1.938156769E+01  0.000000000E+00  0.00000E+00  9.000E+00
      21    -1     0     0   511   503  0.000000000E+00  0.000000000E+00 -2.282280725E+03  2.282280725E+03  0.000000000E+00  0.00000E+00  9.000E+00
      25     1     1     2     0     0 -2.597495074E+01  1.404167687E+01 -1.622667937E+03  1.627744666E+03  1.250183863E+02  0.00000E+00  9.000E+00
       5     1     1     2   501     0 -9.301216767E+00 -5.991058120E+00  1.409731580E+01  1.853920773E+01  4.750000000E+00  0.00000E+00  9.000E+00
      -5     1     1     2     0   503  1.379454918E+01 -2.715202379E+00 -2.385730339E+02  2.390341333E+02  4.750000000E+00  0.00000E+00  9.000E+00
      21     1     1     2   511   502  2.148161833E+01 -5.335416372E+00 -4.157555025E+02  4.163442860E+02  5.394796609E-06  0.00000E+00  9.000E+00
#rwgt            1           9   1.1600422968811184E-005           1     2543664           0
</event>
<event>
      6   9999  3.45752E-01  4.70827E+01 -1.00000E+00  1.36200E-01
       1    -1     0     0   501     0  0.000000000E+00  0.000000000E+00  2.518344210E+02  2.518344210E+02  0.000000000E+00  0.00000E+00  9.000E+00
      21    -1     0     0   502   503  0.000000000E+00  0.000000000E+00 -1.317453237E+02  1.317453237E+02  0.000000000E+00  0.00000E+00  9.000E+00
      25     1     1     2     0     0 -2.861424332E+00  9.044666289E+01 -2.382960759E+01  1.561442856E+02  1.249976045E+02  0.00000E+00  9.000E+00
       5     1     1     2   501     0 -2.304622530E+00 -3.695804869E+01 -4.346220988E+00  3.758537993E+01  4.750000000E+00  0.00000E+00  9.000E+00
      -5     1     1     2     0   503 -2.385896688E+01 -1.641664275E+01 -4.772510089E+00  2.973374871E+01  4.750000000E+00  0.00000E+00  9.000E+00
       1     1     1     2   502     0  2.902501375E+01 -3.707197145E+01  1.530374360E+02  1.601163305E+02  3.303624740E-06  0.00000E+00  9.000E+00
#rwgt            1           9   3.6160284582042922E-002           1     2545366           0
</event>
<event>
      6   9999  3.45752E-01  5.95880E+00 -1.00000E+00  2.14476E-01
      21    -1     0     0   501   502  0.000000000E+00  0.000000000E+00  2.953993159E+01  2.953993159E+01  0.000000000E+00  0.00000E+00  9.000E+00
      21    -1     0     0   502   511  0.000000000E+00  0.000000000E+00 -4.012935553E+03  4.012935553E+03  0.000000000E+00  0.00000E+00  9.000E+00
      25     1     1     2     0     0 -3.946169771E+01 -1.005304991E+02 -1.647258780E+03  1.655522286E+03  1.250157672E+02  0.00000E+00  9.000E+00
       5     1     1     2   501     0  1.250492863E+01 -2.406307746E+00  2.103122961E+01  2.504074032E+01  4.750000000E+00  0.00000E+00  9.000E+00
      -5     1     1     2     0   503  3.143620924E+01  9.900718657E+01 -1.140731662E+03  1.145461456E+03  4.750000000E+00  0.00000E+00  9.000E+00
      21     1     1     2   503   511 -4.479440150E+00  3.929620229E+00 -1.216436408E+03  1.216451003E+03  0.000000000E+00  0.00000E+00  9.000E+00
#rwgt            1           9   9.6204491807343754E-005           1     2546041           0
</event>
<event>
      6   9999  3.45752E-01  3.14023E+01 -1.00000E+00  1.46566E-01
      21    -1     0     0   501   502  0.000000000E+00  0.000000000E+00  2.839258283E+01  2.839258283E+01  0.000000000E+00  0.00000E+00  9.000E+00
      21    -1     0     0   502   512  0.000000000E+00  0.000000000E+00 -1.380050665E+03  1.380050665E+03  0.000000000E+00  0.00000E+00  9.000E+00
      25     1     1     2     0     0 -8.229831034E+00 -8.651467316E+00 -1.001844553E+03  1.009683074E+03  1.249992923E+02  0.00000E+00  9.000E+00
       5     1     1     2   501     0 -5.104133507E+00 -1.829105329E+01  1.939101903E+01  2.755338325E+01  4.750000000E+00  0.00000E+00  9.000E+00
      -5     1     1     2     0   503 -4.568453122E+00  1.143180906E+00 -8.814547956E+01  8.839890098E+01  4.750000000E+00  0.00000E+00  9.000E+00
      21     1     1     2   503   512  1.790241766E+01  2.579933970E+01 -2.810590678E+02  2.828078890E+02  7.629394531E-06  0.00000E+00  9.000E+00
#rwgt            1           9   8.0887987456744529E-006           1     2551318           0
</event>
<event>
      6   9999  3.45752E-01  7.70347E+00 -1.00000E+00  1.99977E-01
      21    -1     0     0   501   511  0.000000000E+00  0.000000000E+00  4.713638063E+01  4.713638063E+01  0.000000000E+00  0.00000E+00  9.000E+00
      21    -1     0     0   502   503  0.000000000E+00  0.000000000E+00 -9.287395858E+02  9.287395858E+02  0.000000000E+00  0.00000E+00  9.000E+00
      25     1     1     2     0     0  9.071976077E-01 -1.203462760E+00 -9.004525136E+02  9.090893261E+02  1.250056088E+02  0.00000E+00  9.000E+00
       5     1     1     2   501     0 -6.528471023E+00  4.669252496E-01  1.173748695E+01  1.425377329E+01  4.750000000E+00  0.00000E+00  9.000E+00
      -5     1     1     2     0   503 -1.913931077E+00 -8.647732431E-01 -2.190428358E+01  2.251157711E+01  4.750000000E+00  0.00000E+00  9.000E+00
      21     1     1     2   502   511  7.535204491E+00  1.601310753E+00  2.901610501E+01  3.002129000E+01  1.390207266E-06  0.00000E+00  9.000E+00
#rwgt            1           9   4.9661867838544167E-004           1     2552598           0
</event>
<event>
      6   9999  3.45752E-01  1.89614E+00 -1.00000E+00  3.42111E-01
       3    -1     0     0   501     0  0.000000000E+00  0.000000000E+00  3.594471791E+02  3.594471791E+02  0.000000000E+00  0.00000E+00  9.000E+00
      21    -1     0     0   502   503  0.000000000E+00  0.000000000E+00 -8.463093052E+01  8.463093052E+01  0.000000000E+00  0.00000E+00  9.000E+00
      25     1     1     2     0     0 -1.306582885E+01 -1.564616333E+01 -2.646840634E+01  1.293883293E+02  1.250009797E+02  0.00000E+00  9.000E+00
       5     1     1     2   501     0  3.666108873E+00  2.351715000E+00  1.158937502E+02  1.160727993E+02  4.750000000E+00  0.00000E+00  9.000E+00
      -5     1     1     2     0   503  1.128353876E+01  1.307861082E+01  5.533637138E+00  1.874971861E+01  4.750000000E+00  0.00000E+00  9.000E+00
       3     1     1     2   502     0 -1.883818779E+00  2.158375169E-01  1.798572676E+02  1.798672624E+02  2.697398305E-06  0.00000E+00  9.000E+00
#rwgt            1           9   6.4108526850619505                1     2556331           0
</event>
<event>
      6   9999  3.45752E-01  1.55287E+01 -1.00000E+00  1.69078E-01
      21    -1     0     0   511   502  0.000000000E+00  0.000000000E+00  6.918394651E+00  6.918394651E+00  0.000000000E+00  0.00000E+00  9.000E+00
      21    -1     0     0   502   503  0.000000000E+00  0.000000000E+00 -1.092835894E+03  1.092835894E+03  0.000000000E+00  0.00000E+00  9.000E+00
      25     1     1     2     0     0 -2.037418065E+01  7.420292244E-01 -9.760790461E+02  9.842635026E+02  1.250147205E+02  0.00000E+00  9.000E+00
       5     1     1     2   501     0 -1.407777070E+00 -5.700586528E-01 -2.590183746E+00  5.619462162E+00  4.750000000E+00  0.00000E+00  9.000E+00
      -5     1     1     2     0   503  6.431238783E+00  2.172481437E+00 -3.397128555E+01  3.496700230E+01  4.750000000E+00  0.00000E+00  9.000E+00
      21     1     1     2   511   501  1.535071894E+01 -2.344452009E+00 -7.327698428E+01  7.490432199E+01  1.651812370E-06  0.00000E+00  9.000E+00
#rwgt            1           9   2.3983534132936428E-004           1     2566008           0
</event>
<event>
      6   9999  3.45752E-01  3.59482E+01 -1.00000E+00  1.42930E-01
      21    -1     0     0   502   512  0.000000000E+00  0.000000000E+00  8.347554670E+01  8.347554670E+01  0.000000000E+00  0.00000E+00  9.000E+00
      21    -1     0     0   501   502  0.000000000E+00  0.000000000E+00 -6.403136479E+02  6.403136479E+02  0.000000000E+00  0.00000E+00  9.000E+00
      25     1     1     2     0     0  1.815281880E+02 -6.010330847E+01 -2.242085342E+02  3.200560627E+02  1.249060675E+02  0.00000E+00  9.000E+00
       5     1     1     2   501     0 -1.056025217E+02  3.072347116E+01 -2.928286394E+02  3.128370164E+02  4.750000000E+00  0.00000E+00  9.000E+00
      -5     1     1     2     0   503 -4.298437338E+01  1.498743483E+01 -2.255314474E+01  5.102437060E+01  4.750000000E+00  0.00000E+00  9.000E+00
      21     1     1     2   503   512 -3.294129292E+01  1.439240248E+01 -1.724778284E+01  3.987174489E+01  6.307962682E-07  0.00000E+00  9.000E+00
#rwgt            1           9  0.46632906360651888                1     2567428           0
</event>
<event>
      6   9999  3.45752E-01  4.59801E+00 -1.00000E+00  2.35957E-01
      21    -1     0     0   501   502  0.000000000E+00  0.000000000E+00  9.858852869E+02  9.858852869E+02  0.000000000E+00  0.00000E+00  9.000E+00
      21    -1     0     0   502   511  0.000000000E+00  0.000000000E+00 -1.263685545E+02  1.263685545E+02  0.000000000E+00  0.00000E+00  9.000E+00
      25     1     1     2     0     0  1.709349885E+01  8.862430652E+00 -8.181150732E+01  1.506270235E+02  1.249985884E+02  0.00000E+00  9.000E+00
       5     1     1     2   501     0 -1.380161622E+01 -5.978387535E+00  9.492042910E+02  9.493353329E+02  4.750000000E+00  0.00000E+00  9.000E+00
      -5     1     1     2     0   503 -1.608358373E-01  4.831825770E-01 -4.711687149E+00  6.709830800E+00  4.750000000E+00  0.00000E+00  9.000E+00
      21     1     1     2   503   511 -3.131046801E+00 -3.367225694E+00 -3.164364129E+00  5.581654171E+00  7.300048300E-08  0.00000E+00  9.000E+00
#rwgt            1           9  0.61943549805734688                1     2569028           0
</event>
<event>
      6   9999 -3.45752E-01  2.79942E+00 -1.00000E+00  2.85015E-01
      21    -1     0     0   502   512  0.000000000E+00  0.000000000E+00  1.365677762E+01  1.365677762E+01  0.000000000E+00  0.00000E+00  9.000E+00
      21    -1     0     0   501   502  0.000000000E+00  0.000000000E+00 -8.022976080E+02  8.022976080E+02  0.000000000E+00  0.00000E+00  9.000E+00
      25     1     1     2     0     0 -3.124856798E+01 -3.442106753E+01 -6.812958195E+02  6.942289198E+02  1.250140655E+02  0.00000E+00  9.000E+00
       5     1     1     2   501     0  2.101402069E-01 -2.202790673E-01 -6.666817639E+00  8.191559022E+00  4.750000000E+00  0.00000E+00  9.000E+00
      -5     1     1     2     0   503  3.060920094E+01  3.187503142E+01 -1.013389929E+02  1.106575564E+02  4.750000000E+00  0.00000E+00  9.000E+00
      21     1     1     2   503   512  4.292268368E-01  2.766315184E+00  6.607996182E-01  2.876350381E+00  9.512264531E-08  0.00000E+00  9.000E+00
#rwgt            1           9  -1.8133380082078323E-005           1     2576086           0
</event>
<event>
      6   9999  3.45752E-01  6.57431E+00 -1.00000E+00  2.08673E-01
      21    -1     0     0   501   511  0.000000000E+00  0.000000000E+00  3.323377149E+01  3.323377149E+01  0.000000000E+00  0.00000E+00  9.000E+00
      21    -1     0     0   502   503  0.000000000E+00  0.000000000E+00 -7.943302681E+02  7.943302681E+02  0.000000000E+00  0.00000E+00  9.000E+00
      25     1     1     2     0     0 -1.054765414E+01  5.179138638E+00 -4.792378761E+02  4.954115456E+02  1.250023246E+02  0.00000E+00  9.000E+00
       5     1     1     2   501     0 -1.274481410E+00  9.162599642E-01 -9.558695596E-01  5.093134771E+00  4.750000000E+00  0.00000E+00  9.000E+00
      -5     1     1     2     0   503  7.668846347E+00 -9.991487689E-01 -3.034436196E+02  3.035793180E+02  4.750000000E+00  0.00000E+00  9.000E+00
      21     1     1     2   502   511  4.153289202E+00 -5.096249834E+00  2.254086871E+01  2.348004122E+01  1.118282261E-06  0.00000E+00  9.000E+00
#rwgt            1           9   4.3941702168935333E-004           1     2582211           0
</event>
<event>
      6   9999  3.45752E-01  1.63655E+01 -1.00000E+00  1.67156E-01
      21    -1     0     0   512   502  0.000000000E+00  0.000000000E+00  1.665387466E+02  1.665387466E+02  0.000000000E+00  0.00000E+00  9.000E+00
      21    -1     0     0   502   503  0.000000000E+00  0.000000000E+00 -7.844181889E+02  7.844181889E+02  0.000000000E+00  0.00000E+00  9.000E+00
      25     1     1     2     0     0 -9.840208269E+01  3.201907297E+01 -5.654037795E+02  5.882298744E+02  1.249990415E+02  0.00000E+00  9.000E+00
       5     1     1     2   501     0 -2.704639220E-01 -3.131839799E-01 -7.773676304E+00  9.119417647E+00  4.750000000E+00  0.00000E+00  9.000E+00
      -5     1     1     2     0   503  8.987283741E+01 -4.550423735E+01 -1.858849070E+02  2.114793694E+02  4.750000000E+00  0.00000E+00  9.000E+00
      21     1     1     2   512   501  8.799709203E+00  1.379834835E+01  1.411829204E+02  1.421282741E+02  4.264961200E-06  0.00000E+00  9.000E+00
#rwgt            1           9   2.2197051757817199E-004           1     2585698           0
</event>
<event>
      6   9999  3.45752E-01  2.43508E+01 -1.00000E+00  1.53948E-01
      21    -1     0     0   501   502  0.000000000E+00  0.000000000E+00  8.470793494E+01  8.470793494E+01  0.000000000E+00  0.00000E+00  9.000E+00
       2    -1     0     0   502     0  0.000000000E+00  0.000000000E+00 -1.964216842E+03  1.964216842E+03  0.000000000E+00  0.00000E+00  9.000E+00
      25     1     1     2     0     0 -5.324322152E+00  4.470381676E+01 -2.319260386E+02  2.672881724E+02  1.250060003E+02  0.00000E+00  9.000E+00
       5     1     1     2   501     0  7.379543336E+00  7.655231800E+00  5.237473710E+01  5.365385187E+01  4.750000000E+00  0.00000E+00  9.000E+00
      -5     1     1     2     0   503  1.915980366E+01 -4.040566504E+01 -2.238445442E+01  5.023287911E+01  4.750000000E+00  0.00000E+00  9.000E+00
       2     1     1     2   503     0 -2.121502485E+01 -1.195338352E+01 -1.677573151E+03  1.677749873E+03  3.051757812E-05  0.00000E+00  9.000E+00
#rwgt            1           9   7.2675929334381468                1     2587656           0
</event>
<event>
      6   9999  3.45752E-01  9.79184E+00 -1.00000E+00  1.88161E-01
      21    -1     0     0   501   502  0.000000000E+00  0.000000000E+00  1.557264126E+02  1.557264126E+02  0.000000000E+00  0.00000E+00  9.000E+00
      21    -1     0     0   502   511  0.000000000E+00  0.000000000E+00 -3.700019275E+02  3.700019275E+02  0.000000000E+00  0.00000E+00  9.000E+00
      25     1     1     2     0     0  4.601355814E+01 -5.749102988E+01 -1.951704059E+02  2.431793683E+02  1.249890066E+02  0.00000E+00  9.000E+00
       5     1     1     2   501     0  2.681222189E+00  1.310976260E+01  1.111845703E+02  1.120875818E+02  4.750000000E+00  0.00000E+00  9.000E+00
      -5     1     1     2     0   503 -5.810565720E+01  4.708599647E+01 -5.118141976E+01  9.074942805E+01  4.750000000E+00  0.00000E+00  9.000E+00
      21     1     1     2   503   511  9.410876870E+00 -2.704729185E+00 -7.910825951E+01  7.971196200E+01  9.536743164E-07  0.00000E+00  9.000E+00
#rwgt            1           9  0.83720182737301208                1     2589151           0
</event>
<event>
      6   9999  3.45752E-01  1.36782E+02 -1.00000E+00  1.14925E-01
      21    -1     0     0   512   502  0.000000000E+00  0.000000000E+00  1.050488308E+02  1.050488308E+02  0.000000000E+00  0.00000E+00  9.000E+00
       2    -1     0     0   501     0  0.000000000E+00  0.000000000E+00 -1.084730954E+03  1.084730954E+03  0.000000000E+00  0.00000E+00  9.000E+00
      25     1     1     2     0     0 -8.995871801E+01 -1.035503428E+02 -9.493527523E+01  2.084524503E+02  1.249978925E+02  0.00000E+00  9.000E+00
       5     1     1     2   501     0 -7.604342967E+00 -1.902984494E+01  2.288757270E+01  3.108640401E+01  4.750000000E+00  0.00000E+00  9.000E+00
      -5     1     1     2     0   502  4.067020564E+01 -1.808913634E+00 -9.925675368E+00  4.217130928E+01  4.750000000E+00  0.00000E+00  9.000E+00
       2     1     1     2   512     0  5.689285534E+01  1.243891013E+02 -8.977087458E+02  9.080696216E+02  1.078959322E-05  0.00000E+00  9.000E+00
#rwgt            1           3   1.3806477076241063E-004           1     2593676           0
</event>
<event>
      6   9999  3.45752E-01  7.50514E+00 -1.00000E+00  2.01356E-01
      21    -1     0     0   501   511  0.000000000E+00  0.000000000E+00  2.918912503E+01  2.918912503E+01  0.000000000E+00  0.00000E+00  9.000E+00
      21    -1     0     0   502   503  0.000000000E+00  0.000000000E+00 -7.163034826E+02  7.163034826E+02  0.000000000E+00  0.00000E+00  9.000E+00
      25     1     1     2     0     0 -4.961862478E+00  6.199907004E+00 -6.493590133E+02  6.613302115E+02  1.250098455E+02  0.00000E+00  9.000E+00
       5     1     1     2   501     0 -6.767175084E-01  6.075115945E-01 -4.149596409E+00  6.372493019E+00  4.750000000E+00  0.00000E+00  9.000E+00
      -5     1     1     2     0   503  9.078768319E-01 -9.809634592E-01 -5.494664378E+01  5.516776860E+01  4.750000000E+00  0.00000E+00  9.000E+00
      21     1     1     2   502   511  4.730703155E+00 -5.826455139E+00  2.134089595E+01  2.262213455E+01  7.539457465E-07  0.00000E+00  9.000E+00
#rwgt            1           9   1.4316641226102267E-003           1     2594161           0
</event>
<event>
      6   9999  3.45752E-01  2.59960E+01 -1.00000E+00  1.51978E-01
      21    -1     0     0   502   503  0.000000000E+00  0.000000000E+00  9.314548783E+00  9.314548783E+00  0.000000000E+00  0.00000E+00  9.000E+00
       2    -1     0     0   501     0  0.000000000E+00  0.000000000E+00 -2.513965414E+03  2.513965414E+03  0.000000000E+00  0.00000E+00  9.000E+00
      25     1     1     2     0     0  2.259554133E+01 -2.183246833E+00 -7.479672317E+02  7.586796622E+02  1.249981005E+02  0.00000E+00  9.000E+00
       5     1     1     2   501     0 -1.376350377E+00 -6.424159884E+00 -1.388930717E+01  1.608227361E+01  4.750000000E+00  0.00000E+00  9.000E+00
      -5     1     1     2     0   503  3.560789542E+00  7.495826088E-01 -4.724570697E-01  6.002233912E+00  4.750000000E+00  0.00000E+00  9.000E+00
       2     1     1     2   502     0 -2.477998049E+01  7.857824108E+00 -1.742321870E+03  1.742515793E+03  2.157918644E-05  0.00000E+00  9.000E+00
#rwgt            1           9  0.91998302955684896                1     2596645           0
</event>
<event>
      6   9999  3.45752E-01  2.08728E+01 -1.00000E+00  1.58807E-01
      21    -1     0     0   511   502  0.000000000E+00  0.000000000E+00  1.586426475E+01  1.586426475E+01  0.000000000E+00  0.00000E+00  9.000E+00
      21    -1     0     0   502   503  0.000000000E+00  0.000000000E+00 -8.305890003E+02  8.305890003E+02  0.000000000E+00  0.00000E+00  9.000E+00
      25     1     1     2     0     0  1.978780573E+00 -1.666132121E+01 -7.794635653E+02  7.896011673E+02  1.250001539E+02  0.00000E+00  9.000E+00
       5     1     1     2   501     0  1.142481671E+00 -3.617492161E+00  2.746976106E+00  6.670823910E+00  4.750000000E+00  0.00000E+00  9.000E+00
      -5     1     1     2     0   503  1.585559960E+00 -5.635908763E-02 -2.519837682E+01  2.569120221E+01  4.750000000E+00  0.00000E+00  9.000E+00
      21     1     1     2   511   501 -4.706822204E+00  2.033517246E+01 -1.280976948E+01  2.449007163E+01  9.386548846E-07  0.00000E+00  9.000E+00
#rwgt            1           9   5.7451721757874579E-004           1     2597664           0
</event>
<event>
      6   9999  3.45752E-01  1.33010E+02 -1.00000E+00  1.15396E-01
      21    -1     0     0   512   502  0.000000000E+00  0.000000000E+00  5.948452676E+01  5.948452676E+01  0.000000000E+00  0.00000E+00  9.000E+00
       2    -1     0     0   501     0  0.000000000E+00  0.000000000E+00 -3.070234950E+03  3.070234950E+03  0.000000000E+00  0.00000E+00  9.000E+00
      25     1     1     2     0     0  2.256340545E+02  1.991775723E+02 -1.425011646E+03  1.461802236E+03  1.250006128E+02  0.00000E+00  9.000E+00
       5     1     1     2   501     0 -8.109424731E+00  2.586349506E+01  8.951512563E+00  2.893743636E+01  4.750000000E+00  0.00000E+00  9.000E+00
      -5     1     1     2     0   502 -9.117722308E+01 -1.834710215E+02 -1.294779306E+03  1.310896989E+03  4.750000000E+00  0.00000E+00  9.000E+00
       2     1     1     2   512     0 -1.263474066E+02 -4.157004586E+01 -2.999109847E+02  3.280828167E+02  3.814697266E-06  0.00000E+00  9.000E+00
#rwgt            1           3   2.0970136476959562E-004           1     2599016           0
</event>
<event>
      6   9999 -3.45752E-01  1.11736E+01 -1.00000E+00  1.82256E-01
      21    -1     0     0   502   503  0.000000000E+00  0.000000000E+00  9.004768339E+00  9.004768339E+00  0.000000000E+00  0.00000E+00  9.000E+00
      21    -1     0     0   511   502  0.000000000E+00  0.000000000E+00 -1.057162354E+03  1.057162354E+03  0.000000000E+00  0.00000E+00  9.000E+00
      25     1     1     2     0     0  4.933524547E+00  4.767415049E-01 -8.714987668E+02  8.804293219E+02  1.249844926E+02  0.00000E+00  9.000E+00
       5     1     1     2   501     0 -7.379710929E-01  9.491158679E-01 -1.133016195E+00  5.029080230E+00  4.750000000E+00  0.00000E+00  9.000E+00
      -5     1     1     2     0   503 -2.351016738E+00  9.594423915E+00 -1.009624806E+01  1.490224731E+01  4.750000000E+00  0.00000E+00  9.000E+00
      21     1     1     2   511   501 -1.844536716E+00 -1.102028129E+01 -1.654295548E+02  1.658064731E+02  2.697398305E-06  0.00000E+00  9.000E+00
#rwgt            1           9  -4.6843504357431679E-005           1     2599983           0
</event>
<event>
      6   9999 -3.45752E-01  1.07573E+01 -1.00000E+00  1.83915E-01
      21    -1     0     0   501   502  0.000000000E+00  0.000000000E+00  1.117972023E+02  1.117972023E+02  0.000000000E+00  0.00000E+00  9.000E+00
      21    -1     0     0   512   503  0.000000000E+00  0.000000000E+00 -5.539717202E+02  5.539717202E+02  0.000000000E+00  0.00000E+00  9.000E+00
      25     1     1     2     0     0 -7.467426242E+01  8.103888386E-02 -2.680152623E+02  3.050124334E+02  1.249966065E+02  0.00000E+00  9.000E+00
       5     1     1     2   501     0  1.290058318E+00  2.011198537E-01  3.532253333E+01  3.566438784E+01  4.750000000E+00  0.00000E+00  9.000E+00
      -5     1     1     2     0   503  6.703430332E+01 -8.965325468E+00  3.776846105E+01  7.760795084E+01  4.750000000E+00  0.00000E+00  9.000E+00
      21     1     1     2   512   502  6.349900778E+00  8.683166731E+00 -2.472502499E+02  2.474841504E+02  2.697398305E-06  0.00000E+00  9.000E+00
#rwgt            1           9  -4.0879541897442948                1     2602008           0
</event>
<event>
      6   9999  3.45752E-01  8.09972E+00 -1.00000E+00  1.97380E-01
      21    -1     0     0   501   511  0.000000000E+00  0.000000000E+00  5.236014160E+01  5.236014160E+01  0.000000000E+00  0.00000E+00  9.000E+00
      21    -1     0     0   502   503  0.000000000E+00  0.000000000E+00 -2.091325062E+03  2.091325062E+03  0.000000000E+00  0.00000E+00  9.000E+00
      25     1     1     2     0     0 -5.815261387E+01  9.365224692E+01 -1.961679267E+03  1.968746713E+03  1.250024134E+02  0.00000E+00  9.000E+00
       5     1     1     2   501     0  2.264348411E+00  1.980981977E+00  7.798522138E+00  9.614104787E+00  4.750000000E+00  0.00000E+00  9.000E+00
      -5     1     1     2     0   503  6.397008154E+01 -9.617142139E+01 -9.700689826E+01  1.509106174E+02  4.750000000E+00  0.00000E+00  9.000E+00
      21     1     1     2   502   511 -8.081816082E+00  5.381924863E-01  1.192272278E+01  1.441376844E+01  1.025477084E-06  0.00000E+00  9.000E+00
#rwgt            1           9   3.5613645044719417E-003           1     2605581           0
</event>
<event>
      6   9999 -3.45752E-01  1.12809E+01 -1.00000E+00  1.81844E-01
      21    -1     0     0   501   512  0.000000000E+00  0.000000000E+00  1.415692903E+01  1.415692903E+01  0.000000000E+00  0.00000E+00  9.000E+00
      21    -1     0     0   502   503  0.000000000E+00  0.000000000E+00 -7.576979182E+02  7.576979182E+02  0.000000000E+00  0.00000E+00  9.000E+00
      25     1     1     2     0     0  3.637637635E+00  5.066953151E+01 -6.094592037E+02  6.242171371E+02  1.250035178E+02  0.00000E+00  9.000E+00
       5     1     1     2   501     0 -6.563694604E+00 -2.753305626E+01 -6.314329931E+01  6.935985887E+01  4.750000000E+00  0.00000E+00  9.000E+00
      -5     1     1     2     0   503  9.870660669E+00 -1.424655090E+01 -5.973187344E+01  6.237670526E+01  4.750000000E+00  0.00000E+00  9.000E+00
      21     1     1     2   502   512 -6.944603700E+00 -8.889924350E+00 -1.120661273E+01  1.590114601E+01  5.196212463E-07  0.00000E+00  9.000E+00
#rwgt            1           9  -2.1594375134997864E-004           1     2610436           0
</event>
<event>
      6   9999  3.45752E-01  1.75694E+01 -1.00000E+00  1.64628E-01
      21    -1     0     0   511   502  0.000000000E+00  0.000000000E+00  5.331381288E+01  5.331381288E+01  0.000000000E+00  0.00000E+00  9.000E+00
      21    -1     0     0   502   503  0.000000000E+00  0.000000000E+00 -7.275374211E+02  7.275374211E+02  0.000000000E+00  0.00000E+00  9.000E+00
      25     1     1     2     0     0 -9.865682948E+00 -7.790802446E+00 -6.242944642E+02  6.368113254E+02  1.250082312E+02  0.00000E+00  9.000E+00
       5     1     1     2   501     0  1.325285448E+01 -4.723244384E+00 -7.792458025E+01  7.932685483E+01  4.750000000E+00  0.00000E+00  9.000E+00
      -5     1     1     2     0   503 -5.289072217E-01 -4.821312674E+00 -1.597757489E+01  1.736001722E+01  4.750000000E+00  0.00000E+00  9.000E+00
      21     1     1     2   511   501 -2.858264306E+00  1.733535950E+01  4.397301108E+01  4.735303652E+01  2.286830675E-06  0.00000E+00  9.000E+00
#rwgt            1           9  0.12270717339518757                1     2613067           0
</event>
<event>
      6   9999  3.45752E-01  8.18602E+00 -1.00000E+00  1.96841E-01
      21    -1     0     0   501   502  0.000000000E+00  0.000000000E+00  1.480778375E+01  1.480778375E+01  0.000000000E+00  0.00000E+00  9.000E+00
      21    -1     0     0   512   503  0.000000000E+00  0.000000000E+00 -1.001299357E+03  1.001299357E+03  0.000000000E+00  0.00000E+00  9.000E+00
      25     1     1     2     0     0  1.532139805E+00 -1.121130532E+01 -9.329305727E+02  9.413390538E+02  1.250268764E+02  0.00000E+00  9.000E+00
       5     1     1     2   501     0  1.503643506E+00 -5.162335531E+00  7.481393068E+00  1.036553878E+01  4.750000000E+00  0.00000E+00  9.000E+00
      -5     1     1     2     0   503 -5.292622269E+00  8.504865985E+00 -2.357935096E+01  2.605557306E+01  4.750000000E+00  0.00000E+00  9.000E+00
      21     1     1     2   512   502  2.256838957E+00  7.868774865E+00 -3.746304297E+01  3.834697548E+01  4.768371582E-07  0.00000E+00  9.000E+00
#rwgt            1           9   4.4957359395127942E-004           1     2614333           0
</event>
<event>
      6   9999  3.45752E-01  3.18199E+01 -1.00000E+00  1.46202E-01
      21    -1     0     0   501   502  0.000000000E+00  0.000000000E+00  1.095140958E+02  1.095140958E+02  0.000000000E+00  0.00000E+00  9.000E+00
      21    -1     0     0   502   511  0.000000000E+00  0.000000000E+00 -1.734745882E+03  1.734745882E+03  0.000000000E+00  0.00000E+00  9.000E+00
      25     1     1     2     0     0  4.820356995E+01 -2.870529767E+01 -1.118686450E+03  1.127045341E+03  1.249969960E+02  0.00000E+00  9.000E+00
       5     1     1     2   501     0 -6.852643009E-01  1.127839843E+00  1.017133877E+02  1.018327911E+02  4.750000000E+00  0.00000E+00  9.000E+00
      -5     1     1     2     0   503 -1.569837394E+01  2.760037238E+01 -5.290127116E+02  5.299860668E+02  4.750000000E+00  0.00000E+00  9.000E+00
      21     1     1     2   503   511 -3.181993171E+01 -2.291454893E-02 -7.924601193E+01  8.539577850E+01  9.536743164E-07  0.00000E+00  9.000E+00
#rwgt            1           9   2.4548624200845925E-003           1     2617409           0
</event>
<event>
      6   9999  3.45752E-01  2.50635E+00 -1.00000E+00  2.99066E-01
      21    -1     0     0   501   502  0.000000000E+00  0.000000000E+00  1.043746056E+01  1.043746056E+01  0.000000000E+00  0.00000E+00  9.000E+00
      21    -1     0     0   502   512  0.000000000E+00  0.000000000E+00 -1.619256397E+03  1.619256397E+03  0.000000000E+00  0.00000E+00  9.000E+00
      25     1     1     2     0     0 -1.438369944E+01 -1.422887687E+01 -9.019405917E+02  9.107862170E+02  1.250014015E+02  0.00000E+00  9.000E+00
       5     1     1     2   501     0  1.580519328E+00 -5.193830368E-01  4.738177752E+00  6.912353326E+00  4.750000000E+00  0.00000E+00  9.000E+00
      -5     1     1     2     0   503  1.090864354E+01  1.638914386E+01 -5.767400232E+02  5.770955029E+02  4.750000000E+00  0.00000E+00  9.000E+00
      21     1     1     2   503   512  1.894536577E+00 -1.640883949E+00 -1.348764994E+02  1.348997845E+02  1.907348633E-06  0.00000E+00  9.000E+00
#rwgt            1           9   7.1653482519630296E-003           1     2620049           0
</event>
<event>
      6   9999  3.45752E-01  8.91806E+00 -1.00000E+00  1.92589E-01
      21    -1     0     0   501   511  0.000000000E+00  0.000000000E+00  1.676826899E+02  1.676826899E+02  0.000000000E+00  0.00000E+00  9.000E+00
      21    -1     0     0   502   503  0.000000000E+00  0.000000000E+00 -6.848280402E+02  6.848280402E+02  0.000000000E+00  0.00000E+00  9.000E+00
      25     1     1     2     0     0 -3.217349426E+00 -1.415176097E+01 -6.223436124E+02  6.349380160E+02  1.249963544E+02  0.00000E+00  9.000E+00
       5     1     1     2   501     0 -6.072238362E-01 -2.393236363E-01 -7.806533451E+00  9.161356947E+00  4.750000000E+00  0.00000E+00  9.000E+00
      -5     1     1     2     0   503 -1.855748536E+00  7.516076950E+00 -4.714574980E+01  4.801270082E+01  4.750000000E+00  0.00000E+00  9.000E+00
      21     1     1     2   502   511  5.680321798E+00  6.875007659E+00  1.601505453E+02  1.603986563E+02  1.907348633E-06  0.00000E+00  9.000E+00
#rwgt            1           9   1.3950415959872475E-003           1     2627264           0
</event>
<event>
      6   9999  3.45752E-01  5.13610E+00 -1.00000E+00  2.23916E-01
      21    -1     0     0   501   512  0.000000000E+00  0.000000000E+00  7.229086188E+01  7.229086188E+01  0.000000000E+00  0.00000E+00  9.000E+00
      21    -1     0     0   502   503  0.000000000E+00  0.000000000E+00 -2.965050098E+02  2.965050098E+02  0.000000000E+00  0.00000E+00  9.000E+00
      25     1     1     2     0     0 -1.630631103E+01  8.935990118E+00 -2.620887670E+02  2.907975951E+02  1.246072703E+02  0.00000E+00  9.000E+00
       5     1     1     2   501     0 -1.189268440E+00  1.220868183E+00  2.283316385E+01  2.338419872E+01  4.750000000E+00  0.00000E+00  9.000E+00
      -5     1     1     2     0   503  2.208891480E+01 -7.858849617E+00 -1.222759036E+01  2.686555677E+01  4.750000000E+00  0.00000E+00  9.000E+00
      21     1     1     2   502   512 -4.593335331E+00 -2.298008684E+00  2.726904562E+01  2.774852109E+01  6.743495762E-07  0.00000E+00  9.000E+00
#rwgt            1           9   6.9431768892312229E-002           1     2630279           0
</event>
<event>
      6   9999  3.45752E-01  3.98921E+00 -1.00000E+00  2.48093E-01
      21    -1     0     0   511   502  0.000000000E+00  0.000000000E+00  1.071836824E+02  1.071836824E+02  0.000000000E+00  0.00000E+00  9.000E+00
      21    -1     0     0   502   503  0.000000000E+00  0.000000000E+00 -1.244509565E+02  1.244509565E+02  0.000000000E+00  0.00000E+00  9.000E+00
      25     1     1     2     0     0  5.345199932E+00  1.870940201E+01 -8.059959228E+01  1.499949223E+02  1.249942780E+02  0.00000E+00  9.000E+00
       5     1     1     2   501     0 -3.911337840E+00  7.834668021E-01  5.954840692E+01  5.987059087E+01  4.750000000E+00  0.00000E+00  9.000E+00
      -5     1     1     2     0   503 -3.485455855E+00 -1.607164991E+01  1.526344133E+00  1.718541706E+01  4.750000000E+00  0.00000E+00  9.000E+00
      21     1     1     2   511   501  2.051593763E+00 -3.421218906E+00  2.257567211E+00  4.583708704E+00  1.074538015E-07  0.00000E+00  9.000E+00
#rwgt            1           9   5.2026523238358552E-003           1     2634931           0
</event>
<event>
      6   9999  3.45752E-01  3.04444E+01 -1.00000E+00  1.47426E-01
      21    -1     0     0   512   502  0.000000000E+00  0.000000000E+00  4.856859863E+01  4.856859863E+01  0.000000000E+00  0.00000E+00  9.000E+00
      21    -1     0     0   502   503  0.000000000E+00  0.000000000E+00 -9.243986791E+02  9.243986791E+02  0.000000000E+00  0.00000E+00  9.000E+00
      25     1     1     2     0     0 -1.620909143E+01  4.590818549E+01 -4.771993877E+02  4.956951317E+02  1.249964473E+02  0.00000E+00  9.000E+00
       5     1     1     2   501     0 -4.737981169E+00  8.355285973E+00 -7.910470510E+01  7.982716416E+01  4.750000000E+00  0.00000E+00  9.000E+00
      -5     1     1     2     0   503  9.531470944E+00 -2.604037479E+01 -3.518895065E+02  3.530123756E+02  4.750000000E+00  0.00000E+00  9.000E+00
      21     1     1     2   512   501  1.141560165E+01 -2.822309667E+01  3.236351883E+01  4.443260624E+01  1.719260824E-06  0.00000E+00  9.000E+00
#rwgt            1           9   1.6154028777270120                1     2640736           0
</event>
<event>
      6   9999  3.45752E-01  1.98022E+01 -1.00000E+00  1.60541E-01
      21    -1     0     0   501   511  0.000000000E+00  0.000000000E+00  4.107064357E+01  4.107064357E+01  0.000000000E+00  0.00000E+00  9.000E+00
      21    -1     0     0   502   503  0.000000000E+00  0.000000000E+00 -7.862072822E+02  7.862072822E+02  0.000000000E+00  0.00000E+00  9.000E+00
      25     1     1     2     0     0  1.100718964E+01 -2.028977151E+01 -6.733205546E+02  6.852146944E+02  1.250031003E+02  0.00000E+00  9.000E+00
       5     1     1     2   501     0 -9.522266687E-01 -2.870924425E+00 -7.133219099E-01  5.676290235E+00  4.750000000E+00  0.00000E+00  9.000E+00
      -5     1     1     2     0   503 -2.064263132E+01  6.426615456E+00 -9.940792691E+01  1.018426141E+02  4.750000000E+00  0.00000E+00  9.000E+00
      21     1     1     2   502   511  1.058766835E+01  1.673408048E+01  2.830516486E+01  3.454432700E+01  1.011524364E-06  0.00000E+00  9.000E+00
#rwgt            1           9   4.5578982263149165E-005           1     2641861           0
</event>
<event>
      6   9999  3.45752E-01  7.81170E+00 -1.00000E+00  1.99248E-01
      21    -1     0     0   501   502  0.000000000E+00  0.000000000E+00  2.221019273E+02  2.221019273E+02  0.000000000E+00  0.00000E+00  9.000E+00
      21    -1     0     0   512   503  0.000000000E+00  0.000000000E+00 -2.354877940E+02  2.354877940E+02  0.000000000E+00  0.00000E+00  9.000E+00
      25     1     1     2     0     0 -9.943926164E+00 -6.678848080E+00 -2.067708931E+02  2.419134896E+02  1.249977821E+02  0.00000E+00  9.000E+00
       5     1     1     2   501     0  3.080262479E+00  4.526165258E-03  2.003155333E+02  2.003955175E+02  4.750000000E+00  0.00000E+00  9.000E+00
      -5     1     1     2     0   503 -1.655201938E-01  3.266512092E+00 -3.523842329E+00  6.758510408E+00  4.750000000E+00  0.00000E+00  9.000E+00
      21     1     1     2   512   502  7.029183879E+00  3.407809823E+00 -3.406664590E+00  8.522203789E+00  5.960464478E-08  0.00000E+00  9.000E+00
#rwgt            1           9   1.4585367166512002E-004           1     2642945           0
</event>
<event>
      6   9999  3.45752E-01  6.79526E+00 -1.00000E+00  2.06795E-01
      21    -1     0     0   501   502  0.000000000E+00  0.000000000E+00  3.599727256E+01  3.599727256E+01  0.000000000E+00  0.00000E+00  9.000E+00
      21    -1     0     0   511   503  0.000000000E+00  0.000000000E+00 -1.293373874E+03  1.293373874E+03  0.000000000E+00  0.00000E+00  9.000E+00
      25     1     1     2     0     0  3.595154724E+01 -3.205982246E+01 -3.390677582E+02  3.645717144E+02  1.250009775E+02  0.00000E+00  9.000E+00
       5     1     1     2   501     0 -3.767540569E+00  2.208889017E+00  2.225698120E+01  2.317346035E+01  4.750000000E+00  0.00000E+00  9.000E+00
      -5     1     1     2     0   503 -2.617580566E+01  2.667648753E+01 -7.617560218E+02  7.626870964E+02  4.750000000E+00  0.00000E+00  9.000E+00
      21     1     1     2   511   502 -6.008201011E+00  3.174445918E+00 -1.788098030E+02  1.789388757E+02  4.264961200E-06  0.00000E+00  9.000E+00
#rwgt            1           9   1.4985597324236189E-003           1     2647300           0
</event>
<event>
      6   9999  3.45752E-01  8.87372E+00 -1.00000E+00  1.92831E-01
      21    -1     0     0   502   512  0.000000000E+00  0.000000000E+00  1.250252647E+02  1.250252647E+02  0.000000000E+00  0.00000E+00  9.000E+00
      21    -1     0     0   501   502  0.000000000E+00  0.000000000E+00 -2.262042522E+02  2.262042522E+02  0.000000000E+00  0.00000E+00  9.000E+00
      25     1     1     2     0     0 -5.208613664E+00 -3.565895726E+00 -2.020206996E+02  2.376513622E+02  1.250038464E+02  0.00000E+00  9.000E+00
       5     1     1     2   501     0 -4.772620674E-01  1.869334549E-01  4.692740561E+00  6.696793052E+00  4.750000000E+00  0.00000E+00  9.000E+00
      -5     1     1     2     0   503 -3.047497839E+00  4.950954124E+00 -2.439879339E+00  7.893966114E+00  4.750000000E+00  0.00000E+00  9.000E+00
      21     1     1     2   503   512  8.733373570E+00 -1.571991853E+00  9.858885089E+01  9.898739562E+01  0.000000000E+00  0.00000E+00  9.000E+00
#rwgt            1           9   3.8944260979595674E-003           1     2652129           0
</event>
<event>
      6   9999  3.45752E-01  5.35492E+00 -1.00000E+00  2.21178E-01
      21    -1     0     0   501   502  0.000000000E+00  0.000000000E+00  9.065669542E+00  9.065669542E+00  0.000000000E+00  0.00000E+00  9.000E+00
      -3    -1     0     0     0   503  0.000000000E+00  0.000000000E+00 -8.990604034E+02  8.990604034E+02  0.000000000E+00  0.00000E+00  9.000E+00
      25     1     1     2     0     0 -9.366682314E+00 -8.909954319E+00 -5.999733121E+02  6.129926739E+02  1.249996839E+02  0.00000E+00  9.000E+00
       5     1     1     2   501     0  1.154534954E+00 -1.213900222E-01 -1.830102490E+00  5.221059435E+00  4.750000000E+00  0.00000E+00  9.000E+00
      -5     1     1     2     0   503  1.273277324E+01  6.160966472E+00 -6.637920302E+01  6.803559448E+01  4.750000000E+00  0.00000E+00  9.000E+00
      -3     1     1     2     0   502 -4.520625877E+00  2.870377869E+00 -2.218121162E+02  2.218767451E+02  3.814697266E-06  0.00000E+00  9.000E+00
#rwgt            1           9   1.8875666330531480E-004           1     2654495           0
</event>
<event>
      6   9999  3.45752E-01  1.35316E+01 -1.00000E+00  1.74342E-01
      21    -1     0     0   511   502  0.000000000E+00  0.000000000E+00  2.455127125E+01  2.455127125E+01  0.000000000E+00  0.00000E+00  9.000E+00
      21    -1     0     0   502   503  0.000000000E+00  0.000000000E+00 -1.756145440E+03  1.756145440E+03  0.000000000E+00  0.00000E+00  9.000E+00
      25     1     1     2     0     0 -6.652627603E+01  1.654083251E+01 -1.550029287E+03  1.556571368E+03  1.249971527E+02  0.00000E+00  9.000E+00
       5     1     1     2   501     0  1.550954905E+01 -2.661895464E+00  1.119971007E+01  1.989039479E+01  4.750000000E+00  0.00000E+00  9.000E+00
      -5     1     1     2     0   503  4.615593286E+01 -2.650732637E+01 -1.428200188E+02  1.524897661E+02  4.750000000E+00  0.00000E+00  9.000E+00
      21     1     1     2   511   501  4.860794121E+00  1.262838933E+01 -4.994457283E+01  5.174518230E+01  6.743495762E-07  0.00000E+00  9.000E+00
#rwgt            1           9   3.8412540663962996E-003           1     2658254           0
</event>
<event>
      6   9999  3.45752E-01  1.23551E+01 -1.00000E+00  1.78011E-01
      21    -1     0     0   501   502  0.000000000E+00  0.000000000E+00  8.155370854E+00  8.155370854E+00  0.000000000E+00  0.00000E+00  9.000E+00
      21    -1     0     0   502   512  0.000000000E+00  0.000000000E+00 -8.778005610E+02  8.778005610E+02  0.000000000E+00  0.00000E+00  9.000E+00
      25     1     1     2     0     0 -6.494238735E+00 -5.386596579E+00 -7.010236070E+02  7.121312350E+02  1.250024311E+02  0.00000E+00  9.000E+00
       5     1     1     2   501     0 -3.309530685E-01 -1.608021936E+00 -1.304792333E+00  5.192325829E+00  4.750000000E+00  0.00000E+00  9.000E+00
      -5     1     1     2     0   503 -2.244473721E-01 -3.151878975E+00 -1.998219332E+01  2.078064647E+01  4.750000000E+00  0.00000E+00  9.000E+00
      21     1     1     2   503   512  7.049639175E+00  1.014649749E+01 -1.473345975E+02  1.478517245E+02  0.000000000E+00  0.00000E+00  9.000E+00
#rwgt            1           9   4.5330447177498081E-004           1     2661343           0
</event>
<event>
      6   9999  3.45752E-01  1.00098E+01 -1.00000E+00  1.87149E-01
      21    -1     0     0   501   502  0.000000000E+00  0.000000000E+00  7.753497913E+00  7.753497913E+00  0.000000000E+00  0.00000E+00  9.000E+00
      21    -1     0     0   511   503  0.000000000E+00  0.000000000E+00 -9.756590474E+02  9.756590474E+02  0.000000000E+00  0.00000E+00  9.000E+00
      25     1     1     2     0     0 -1.288464481E+01  2.644955550E+01 -6.882749564E+02  7.001520491E+02  1.249995328E+02  0.00000E+00  9.000E+00
       5     1     1     2   501     0 -6.879072254E-01 -5.272578737E+00 -2.110318301E+01  2.227510126E+01  4.750000000E+00  0.00000E+00  9.000E+00
      -5     1     1     2     0   503  1.641887616E+01 -1.158039064E+01 -9.825247704E+01  1.003981907E+02  4.750000000E+00  0.00000E+00  9.000E+00
      21     1     1     2   511   502 -2.846324131E+00 -9.596586120E+00 -1.602749330E+02  1.605872043E+02  1.907348633E-06  0.00000E+00  9.000E+00
#rwgt            1           9   7.6537296790161217E-003           1     2663332           0
</event>
<event>
      6   9999  3.45752E-01  3.22489E+01 -1.00000E+00  1.45836E-01
      21    -1     0     0   501   502  0.000000000E+00  0.000000000E+00  2.285431619E+01  2.285431619E+01  0.000000000E+00  0.00000E+00  9.000E+00
      21    -1     0     0   512   503  0.000000000E+00  0.000000000E+00 -1.205874975E+03  1.205874975E+03  0.000000000E+00  0.00000E+00  9.000E+00
      25     1     1     2     0     0  2.604300301E+01 -9.020792978E+01 -4.740597695E+02  4.991726889E+02  1.249999987E+02  0.00000E+00  9.000E+00
       5     1     1     2   501     0 -1.049234269E+00 -6.629161724E+00  4.219646255E+00  9.242001527E+00  4.750000000E+00  0.00000E+00  9.000E+00
      -5     1     1     2     0   503 -2.033983202E+01  6.492573262E+01 -5.213564406E+02  5.257985928E+02  4.750000000E+00  0.00000E+00  9.000E+00
      21     1     1     2   512   502 -4.653936718E+00  3.191135888E+01 -1.918240949E+02  1.945160079E+02  3.814697266E-06  0.00000E+00  9.000E+00
#rwgt            1           9   8.3008952166956868E-005           1     2665742           0
</event>
<event>
      6   9999  3.45752E-01  1.51525E+01 -1.00000E+00  1.69991E-01
      21    -1     0     0   511   502  0.000000000E+00  0.000000000E+00  3.656316023E+01  3.656316023E+01  0.000000000E+00  0.00000E+00  9.000E+00
      21    -1     0     0   502   503  0.000000000E+00  0.000000000E+00 -1.033486567E+03  1.033486567E+03  0.000000000E+00  0.00000E+00  9.000E+00
      25     1     1     2     0     0 -1.192470915E+01 -9.977468302E+01 -4.173447572E+02  4.470992537E+02  1.249956410E+02  0.00000E+00  9.000E+00
       5     1     1     2   501     0  1.876112640E+00 -2.075086173E+00  6.961517035E+00  8.879808595E+00  4.750000000E+00  0.00000E+00  9.000E+00
      -5     1     1     2     0   503  8.874485251E+00  8.674278778E+01 -5.916653361E+02  5.980748283E+02  4.750000000E+00  0.00000E+00  9.000E+00
      21     1     1     2   511   501  1.174111259E+00  1.510698141E+01  5.125169594E+00  1.599583658E+01  5.960464478E-07  0.00000E+00  9.000E+00
#rwgt            1           9   4.3338163828592425E-003           1     2667395           0
</event>
<event>
      6   9999 -3.45752E-01  1.03918E+01 -1.00000E+00  1.85452E-01
      21    -1     0     0   502   503  0.000000000E+00  0.000000000E+00  2.252444508E+01  2.252444508E+01  0.000000000E+00  0.00000E+00  9.000E+00
      21    -1     0     0   512   502  0.000000000E+00  0.000000000E+00 -1.117593855E+03  1.117593855E+03  0.000000000E+00  0.00000E+00  9.000E+00
      25     1     1     2     0     0  6.210030125E+01 -2.383500637E+01 -2.252921747E+02  2.660943599E+02  1.250003579E+02  0.00000E+00  9.000E+00
       5     1     1     2   501     0 -6.768252498E+01  1.470837786E+01 -6.743491718E+02  6.779134374E+02  4.750000000E+00  0.00000E+00  9.000E+00
      -5     1     1     2     0   503 -1.019076421E+00  1.100854849E+00 -9.874640630E+01  9.887196597E+01  4.750000000E+00  0.00000E+00  9.000E+00
      21     1     1     2   512   501  6.601300148E+00  8.025773668E+00 -9.668165676E+01  9.723853639E+01  0.000000000E+00  0.00000E+00  9.000E+00
#rwgt            1           9  -3.4881802310278730E-002           1     2669812           0
</event>
<event>
      6   9999  3.45752E-01  1.02498E+01 -1.00000E+00  1.86072E-01
      21    -1     0     0   501   502  0.000000000E+00  0.000000000E+00  1.209902334E+01  1.209902334E+01  0.000000000E+00  0.00000E+00  9.000E+00
      21    -1     0     0   502   511  0.000000000E+00  0.000000000E+00 -9.371039915E+02  9.371039915E+02  0.000000000E+00  0.00000E+00  9.000E+00
      25     1     1     2     0     0 -1.863260299E+01 -4.073176005E+01 -6.123926879E+02  6.266227648E+02  1.250001402E+02  0.00000E+00  9.000E+00
       5     1     1     2   501     0  2.593506434E-01 -1.007570474E+00  1.399540504E+00  5.060007375E+00  4.750000000E+00  0.00000E+00  9.000E+00
      -5     1     1     2     0   503  1.417101178E+01  3.239051034E+01 -2.103962197E+02  2.133989093E+02  4.750000000E+00  0.00000E+00  9.000E+00
      21     1     1     2   503   511  4.202240566E+00  9.348820184E+00 -1.036156011E+02  1.041213333E+02  1.907348633E-06  0.00000E+00  9.000E+00
#rwgt            1           9   6.5362836360692347E-005           1     2673110           0
</event>
<event>
      6   9999  3.45752E-01  1.46801E+01 -1.00000E+00  1.71187E-01
       3    -1     0     0   501     0  0.000000000E+00  0.000000000E+00  4.976378111E+02  4.976378111E+02  0.000000000E+00  0.00000E+00  9.000E+00
      21    -1     0     0   502   503  0.000000000E+00  0.000000000E+00 -1.233987568E+02  1.233987568E+02  0.000000000E+00  0.00000E+00  9.000E+00
      25     1     1     2     0     0  3.705483871E+01 -4.012877784E+01  1.068396036E+01  1.368229468E+02  1.249919672E+02  0.00000E+00  9.000E+00
       5     1     1     2   501     0 -5.567234996E-01 -1.186835483E-02  1.162048503E+01  1.256615511E+01  4.750000000E+00  0.00000E+00  9.000E+00
      -5     1     1     2     0   503 -4.628341480E+01  2.919741266E+01 -4.709112713E+01  7.235178053E+01  4.750000000E+00  0.00000E+00  9.000E+00
       3     1     1     2   502     0  9.785299586E+00  1.094323353E+01  3.990257360E+02  3.992956855E+02  0.000000000E+00  0.00000E+00  9.000E+00
#rwgt            1           9   3.8569565776154051E-002           1     2676080           0
</event>
<event>
      6   9999  3.45752E-01  4.41606E+01 -1.00000E+00  1.37738E-01
      21    -1     0     0   501   502  0.000000000E+00  0.000000000E+00  4.541313784E+01  4.541313784E+01  0.000000000E+00  0.00000E+00  9.000E+00
      21    -1     0     0   502   511  0.000000000E+00  0.000000000E+00 -1.627735499E+03  1.627735499E+03  0.000000000E+00  0.00000E+00  9.000E+00
      25     1     1     2     0     0  1.003986702E+01  5.784300533E+01 -8.421482241E+02  8.533954678E+02  1.249943236E+02  0.00000E+00  9.000E+00
       5     1     1     2   501     0  3.013719359E+01 -3.955533916E+01  1.688062010E+01  5.272943322E+01  4.750000000E+00  0.00000E+00  9.000E+00
      -5     1     1     2     0   503 -4.526766602E+01 -6.215390558E+01 -4.104524051E+02  4.176194547E+02  4.750000000E+00  0.00000E+00  9.000E+00
      21     1     1     2   503   511  5.090605419E+00  4.386623940E+01 -3.466023524E+02  3.494042815E+02  3.814697266E-06  0.00000E+00  9.000E+00
#rwgt            1           9  0.59391365805145935                1     2678061           0
</event>
<event>
      6   9999  3.45752E-01  3.81467E+00 -1.00000E+00  2.52193E-01
      21    -1     0     0   501   502  0.000000000E+00  0.000000000E+00  7.972824055E+01  7.972824055E+01  0.000000000E+00  0.00000E+00  9.000E+00
      -1    -1     0     0     0   503  0.000000000E+00  0.000000000E+00 -8.747177492E+02  8.747177492E+02  0.000000000E+00  0.00000E+00  9.000E+00
      25     1     1     2     0     0 -1.239184485E+01 -1.213515102E+00 -3.593768722E+02  3.806986811E+02  1.249988765E+02  0.00000E+00  9.000E+00
       5     1     1     2   501     0  4.527847318E+00 -6.290249743E+00  6.777886830E+01  6.838571585E+01  4.750000000E+00  0.00000E+00  9.000E+00
      -5     1     1     2     0   503  9.976203652E+00  4.327242526E+00 -3.504430017E+01  3.699885325E+01  4.750000000E+00  0.00000E+00  9.000E+00
      -1     1     1     2     0   502 -2.112206121E+00  3.176522319E+00 -4.683472046E+02  4.683627395E+02  9.344061824E-06  0.00000E+00  9.000E+00
#rwgt            1           9   3.6552212831424840E-004           1     2679127           0
</event>
<event>
      6   9999  3.45752E-01  9.94612E+00 -1.00000E+00  1.87441E-01
       2    -1     0     0   501     0  0.000000000E+00  0.000000000E+00  2.650500586E+01  2.650500586E+01  0.000000000E+00  0.00000E+00  9.000E+00
      21    -1     0     0   502   503  0.000000000E+00  0.000000000E+00 -4.013070482E+03  4.013070482E+03  0.000000000E+00  0.00000E+00  9.000E+00
      25     1     1     2     0     0  1.979887331E+00 -1.494802593E+01 -3.534314586E+03  3.536556516E+03  1.250001207E+02  0.00000E+00  9.000E+00
       5     1     1     2   501     0  4.313310889E+00 -1.453431041E+00 -6.264036588E+00  9.083929050E+00  4.750000000E+00  0.00000E+00  9.000E+00
      -5     1     1     2     0   503  9.011155127E-01  9.533623548E+00 -4.688658173E+02  4.689876535E+02  4.750000000E+00  0.00000E+00  9.000E+00
       2     1     1     2   502     0 -7.194313733E+00  6.867833428E+00  2.287896372E+01  2.494738998E+01  2.939421655E-06  0.00000E+00  9.000E+00
#rwgt            1           9   4.6179614547988210E-004           1     2685697           0
</event>
<event>
      6   9999 -3.45752E-01  3.08541E+01 -1.00000E+00  1.47054E-01
      21    -1     0     0   501   502  0.000000000E+00  0.000000000E+00  7.288550552E+01  7.288550552E+01  0.000000000E+00  0.00000E+00  9.000E+00
      21    -1     0     0   511   503  0.000000000E+00  0.000000000E+00 -6.524622509E+02  6.524622509E+02  0.000000000E+00  0.00000E+00  9.000E+00
      25     1     1     2     0     0  2.092670047E+01 -1.407682783E+01 -5.158743887E+02  5.313988872E+02  1.249892334E+02  0.00000E+00  9.000E+00
       5     1     1     2   501     0  1.810393382E+01  5.448823383E+00  5.873152785E+01  6.188212149E+01  4.750000000E+00  0.00000E+00  9.000E+00
      -5     1     1     2     0   503 -8.185642435E+00  9.376007538E+00 -1.398696789E+01  1.931610805E+01  4.750000000E+00  0.00000E+00  9.000E+00
      21     1     1     2   511   502 -3.084499185E+01 -7.480030907E-01 -1.084469166E+02  1.127506397E+02  1.348699152E-06  0.00000E+00  9.000E+00
#rwgt            1           9  -1.2125330518677699                1     2688473           0
</event>
<event>
      6   9999  3.45752E-01  7.86059E+00 -1.00000E+00  1.98924E-01
      21    -1     0     0   501   502  0.000000000E+00  0.000000000E+00  2.885572195E+01  2.885572195E+01  0.000000000E+00  0.00000E+00  9.000E+00
      21    -1     0     0   512   503  0.000000000E+00  0.000000000E+00 -1.057432234E+03  1.057432234E+03  0.000000000E+00  0.00000E+00  9.000E+00
      25     1     1     2     0     0 -9.842594483E-01  5.417428813E+00 -2.115244140E+02  2.457619229E+02  1.250041107E+02  0.00000E+00  9.000E+00
       5     1     1     2   501     0 -2.283671606E+00  2.066963018E+00  1.058526153E+01  1.200407238E+01  4.750000000E+00  0.00000E+00  9.000E+00
      -5     1     1     2     0   503 -7.666874069E-01 -7.382298956E-01 -1.357021108E+01  1.441686241E+01  4.750000000E+00  0.00000E+00  9.000E+00
      21     1     1     2   512   502  4.034618462E+00 -6.746161936E+00 -8.140671488E+02  8.141050987E+02  1.525878906E-05  0.00000E+00  9.000E+00
#rwgt            1           9   1.5012621114486181E-004           1     2690124           0
</event>
<event>
      6   9999 -3.45752E-01  8.07342E+00 -1.00000E+00  1.97547E-01
      21    -1     0     0   501   502  0.000000000E+00  0.000000000E+00  1.828037890E+01  1.828037890E+01  0.000000000E+00  0.00000E+00  9.000E+00
      21    -1     0     0   502   511  0.000000000E+00  0.000000000E+00 -1.126146173E+03  1.126146173E+03  0.000000000E+00  0.00000E+00  9.000E+00
      25     1     1     2     0     0 -1.451619073E+00  2.017862541E+01 -6.264001496E+02  6.390709281E+02  1.250008787E+02  0.00000E+00  9.000E+00
       5     1     1     2   501     0 -3.599873541E+00  5.671365718E-01  1.091064225E+01  1.244529420E+01  4.750000000E+00  0.00000E+00  9.000E+00
      -5     1     1     2     0   503  6.016832389E+00 -1.273026506E+01 -3.239973646E+02  3.243379668E+02  4.750000000E+00  0.00000E+00  9.000E+00
      21     1     1     2   503   511 -9.653397752E-01 -8.015496925E+00 -1.683789224E+02  1.685723630E+02  0.000000000E+00  0.00000E+00  9.000E+00
#rwgt            1           9  -5.7741598411022125E-005           1     2693103           0
</event>
<event>
      6   9999  3.45752E-01  3.87152E+00 -1.00000E+00  2.50822E-01
      21    -1     0     0   501   502  0.000000000E+00  0.000000000E+00  1.122762090E+02  1.122762090E+02  0.000000000E+00  0.00000E+00  9.000E+00
      21    -1     0     0   502   512  0.000000000E+00  0.000000000E+00 -1.112119741E+02  1.112119741E+02  0.000000000E+00  0.00000E+00  9.000E+00
      25     1     1     2     0     0  2.430776152E+01  1.646306557E+01  1.283781821E+00  1.284144305E+02  1.250068721E+02  0.00000E+00  9.000E+00
       5     1     1     2   501     0  1.650662552E-01  2.341904597E+00  4.204261785E+01  4.237518117E+01  4.750000000E+00  0.00000E+00  9.000E+00
      -5     1     1     2     0   503 -2.099264890E+01 -1.710879035E+01 -3.544539964E+01  4.485912249E+01  4.750000000E+00  0.00000E+00  9.000E+00
      21     1     1     2   503   512 -3.480178877E+00 -1.696179823E+00 -6.816765172E+00  7.839448859E+00  0.000000000E+00  0.00000E+00  9.000E+00
#rwgt            1           9   3.0547035885783884E-002           1     2696457           0
</event>
<event>
      6   9999  3.45752E-01  2.18140E+01 -1.00000E+00  1.57385E-01
      21    -1     0     0   501   502  0.000000000E+00  0.000000000E+00  6.942694234E+02  6.942694234E+02  0.000000000E+00  0.00000E+00  9.000E+00
      21    -1     0     0   502   511  0.000000000E+00  0.000000000E+00 -4.092618542E+01  4.092618542E+01  0.000000000E+00  0.00000E+00  9.000E+00
      25     1     1     2     0     0 -8.102760563E+01 -1.655636207E+00  1.432840810E+02  2.066884645E+02  1.249863171E+02  0.00000E+00  9.000E+00
       5     1     1     2   501     0  1.599659506E+00 -3.828898894E+00  2.376073905E+02  2.376910892E+02  4.750000000E+00  0.00000E+00  9.000E+00
      -5     1     1     2     0   503  7.232301470E+01 -1.513993335E+01  2.438597345E+02  2.548528372E+02  4.750000000E+00  0.00000E+00  9.000E+00
      21     1     1     2   503   511  7.104931425E+00  2.062446845E+01  2.859203204E+01  3.596321796E+01  0.000000000E+00  0.00000E+00  9.000E+00
#rwgt            1           9   1.8593092472093908E-002           1     2701668           0
</event>
<event>
      6   9999  3.45752E-01  1.93610E+01 -1.00000E+00  1.61294E-01
      21    -1     0     0   502   503  0.000000000E+00  0.000000000E+00  8.469276611E+00  8.469276611E+00  0.000000000E+00  0.00000E+00  9.000E+00
      21    -1     0     0   501   512  0.000000000E+00  0.000000000E+00 -9.283445084E+02  9.283445084E+02  0.000000000E+00  0.00000E+00  9.000E+00
      25     1     1     2     0     0 -2.091779896E+00  4.877817376E+00 -6.297893910E+02  6.420961340E+02  1.249983983E+02  0.00000E+00  9.000E+00
       5     1     1     2   501     0 -1.328019489E+01  1.588797767E+01 -1.071219266E+02  1.092083379E+02  4.750000000E+00  0.00000E+00  9.000E+00
      -5     1     1     2     0   503 -8.000421756E-01 -1.012089516E+01 -7.256126148E+01  7.342187517E+01  4.750000000E+00  0.00000E+00  9.000E+00
      21     1     1     2   502   512  1.617201697E+01 -1.064489989E+01 -1.104026527E+02  1.120874379E+02  1.348699152E-06  0.00000E+00  9.000E+00
#rwgt            1           9   122.25047196515517                1     2703573           0
</event>
<event>
      6   9999  3.45752E-01  9.02596E+00 -1.00000E+00  1.92007E-01
      21    -1     0     0   501   502  0.000000000E+00  0.000000000E+00  2.128237495E+01  2.128237495E+01  0.000000000E+00  0.00000E+00  9.000E+00
      21    -1     0     0   502   511  0.000000000E+00  0.000000000E+00 -4.111082007E+03  4.111082007E+03  0.000000000E+00  0.00000E+00  9.000E+00
      25     1     1     2     0     0 -1.558605658E+02  8.840300943E+01 -8.571046694E+02  8.844933922E+02  1.248700862E+02  0.00000E+00  9.000E+00
       5     1     1     2   501     0 -3.548230958E+00  1.919701613E+00  2.672101467E+00  6.780694910E+00  4.750000000E+00  0.00000E+00  9.000E+00
      -5     1     1     2     0   503  1.531037202E+02 -8.386407248E+01 -2.697150481E+03  2.702798034E+03  4.750000000E+00  0.00000E+00  9.000E+00
      21     1     1     2   503   511  6.305076529E+00 -6.458638556E+00 -5.382165826E+02  5.382922606E+02  0.000000000E+00  0.00000E+00  9.000E+00
#rwgt            1           9   3.2373015820525791E-002           1     2705576           0
</event>
<event>
      6   9999  3.45752E-01  1.22081E+01 -1.00000E+00  1.78506E-01
      -3    -1     0     0     0   502  0.000000000E+00  0.000000000E+00  7.715973952E+01  7.715973952E+01  0.000000000E+00  0.00000E+00  9.000E+00
      21    -1     0     0   502   503  0.000000000E+00  0.000000000E+00 -7.461995601E+02  7.461995601E+02  0.000000000E+00  0.00000E+00  9.000E+00
      25     1     1     2     0     0  1.866645501E+01 -4.701852141E+00 -4.986675899E+02  5.144556379E+02  1.249987766E+02  0.00000E+00  9.000E+00
       5     1     1     2   501     0 -5.325465548E+00  7.771664345E+00 -7.036533430E+01  7.115196498E+01  4.750000000E+00  0.00000E+00  9.000E+00
      -5     1     1     2     0   503 -6.173075574E+00  6.812405231E+00 -1.681780307E+02  1.684960778E+02  4.750000000E+00  0.00000E+00  9.000E+00
      -3     1     1     2     0   501 -7.167913887E+00 -9.882217436E+00  6.817113430E+01  6.925561900E+01  3.568322551E-06  0.00000E+00  9.000E+00
#rwgt            1           9   9.9991200083392968E-005           1     2709820           0
</event>
<event>
      6   9999  3.45752E-01  2.21137E+01 -1.00000E+00  1.56950E-01
      21    -1     0     0   511   502  0.000000000E+00  0.000000000E+00  1.458783560E+02  1.458783560E+02  0.000000000E+00  0.00000E+00  9.000E+00
      21    -1     0     0   502   503  0.000000000E+00  0.000000000E+00 -1.362635346E+02  1.362635346E+02  0.000000000E+00  0.00000E+00  9.000E+00
      25     1     1     2     0     0  4.104165300E+01  5.217252506E+00 -9.256121914E+01  1.609511297E+02  1.250041993E+02  0.00000E+00  9.000E+00
       5     1     1     2   501     0 -2.453171323E+00  8.028475831E+00  2.333864179E+01  2.525330027E+01  4.750000000E+00  0.00000E+00  9.000E+00
      -5     1     1     2     0   503 -3.097135752E+01  7.514662493E+00  4.146783305E+01  5.251512941E+01  4.750000000E+00  0.00000E+00  9.000E+00
      21     1     1     2   511   501 -7.617124163E+00 -2.076039083E+01  3.736956574E+01  4.342233125E+01  0.000000000E+00  0.00000E+00  9.000E+00
#rwgt            1           9  0.36146514459078999                1     2711472           0
</event>
<event>
      6   9999  3.45752E-01  3.72460E+00 -1.00000E+00  2.54442E-01
      21    -1     0     0   501   502  0.000000000E+00  0.000000000E+00  2.763612760E+01  2.763612760E+01  0.000000000E+00  0.00000E+00  9.000E+00
      21    -1     0     0   502   512  0.000000000E+00  0.000000000E+00 -1.190516290E+03  1.190516290E+03  0.000000000E+00  0.00000E+00  9.000E+00
      25     1     1     2     0     0  1.948865203E+00 -1.312416693E+01 -1.063203518E+03  1.070608702E+03  1.250009139E+02  0.00000E+00  9.000E+00
       5     1     1     2   501     0 -1.044421770E+00  5.895090542E+00  2.302029134E+01  2.425570495E+01  4.750000000E+00  0.00000E+00  9.000E+00
      -5     1     1     2     0   503  9.533940180E-01  4.000908770E+00 -3.855036996E+01  3.905905471E+01  4.750000000E+00  0.00000E+00  9.000E+00
      21     1     1     2   503   512 -1.857837451E+00  3.228167622E+00 -8.414656523E+01  8.422895622E+01  1.907348633E-06  0.00000E+00  9.000E+00
#rwgt            1           9   6.1939575587756672E-003           1     2713662           0
</event>
<event>
      6   9999  3.45752E-01  3.81612E+01 -1.00000E+00  1.41382E-01
      21    -1     0     0   501   511  0.000000000E+00  0.000000000E+00  3.299611561E+02  3.299611561E+02  0.000000000E+00  0.00000E+00  9.000E+00
      21    -1     0     0   502   503  0.000000000E+00  0.000000000E+00 -1.146914563E+02  1.146914563E+02  0.000000000E+00  0.00000E+00  9.000E+00
      25     1     1     2     0     0 -4.783640760E+01  1.130434846E+02  1.735055371E+02  2.465732857E+02  1.250082498E+02  0.00000E+00  9.000E+00
       5     1     1     2   501     0 -3.652285918E+00  3.991321493E-01  4.030732196E+01  4.075219261E+01  4.750000000E+00  0.00000E+00  9.000E+00
      -5     1     1     2     0   503  1.582723444E+01 -9.985820981E+01 -3.243747497E+01  1.062869498E+02  4.750000000E+00  0.00000E+00  9.000E+00
      21     1     1     2   502   511  3.566145908E+01 -1.358440695E+01  3.389431565E+01  5.104018426E+01  4.768371582E-07  0.00000E+00  9.000E+00
#rwgt            1           9   2.0467236690000427E-003           1     2719849           0
</event>
<event>
      6   9999 -3.45752E-01  9.63433E+00 -1.00000E+00  1.88914E-01
      21    -1     0     0   512   502  0.000000000E+00  0.000000000E+00  5.004871641E+01  5.004871641E+01  0.000000000E+00  0.00000E+00  9.000E+00
      21    -1     0     0   502   503  0.000000000E+00  0.000000000E+00 -2.599782019E+03  2.599782019E+03  0.000000000E+00  0.00000E+00  9.000E+00
      25     1     1     2     0     0  9.325655823E+01 -3.200290860E+02 -1.102156581E+03  1.158227886E+03  1.250092213E+02  0.00000E+00  9.000E+00
       5     1     1     2   501     0 -1.627516458E-01 -1.070683826E+00 -3.934903802E-02  4.872052986E+00  4.750000000E+00  0.00000E+00  9.000E+00
      -5     1     1     2     0   503 -9.948853837E+01  3.138936812E+02 -1.413580387E+03  1.451433528E+03  4.750000000E+00  0.00000E+00  9.000E+00
      21     1     1     2   512   501  6.394731788E+00  7.206088629E+00 -3.395698482E+01  3.529726797E+01  6.743495762E-07  0.00000E+00  9.000E+00
#rwgt            1           9  -1.8977390117365229E-004           1     2721311           0
</event>
<event>
      6   9999 -3.45752E-01  2.22940E+01 -1.00000E+00  1.56692E-01
       4    -1     0     0   502     0  0.000000000E+00  0.000000000E+00  4.627160716E+01  4.627160716E+01  0.000000000E+00  0.00000E+00  9.000E+00
      21    -1     0     0   501   502  0.000000000E+00  0.000000000E+00 -7.434641389E+02  7.434641389E+02  0.000000000E+00  0.00000E+00  9.000E+00
      25     1     1     2     0     0  9.945025498E+00 -5.727513685E+00 -5.471247748E+02  5.613395562E+02  1.249994808E+02  0.00000E+00  9.000E+00
       5     1     1     2   501     0  2.448849222E+00  3.299250308E-03 -9.773487019E+01  9.788086751E+01  4.750000000E+00  0.00000E+00  9.000E+00
      -5     1     1     2     0   503 -7.129263895E+00 -1.593927341E+01 -8.723968178E+01  8.909664089E+01  4.750000000E+00  0.00000E+00  9.000E+00
       4     1     1     2   503     0 -5.264610826E+00  2.166348784E+01  3.490679505E+01  4.141868145E+01  8.259061849E-07  0.00000E+00  9.000E+00
#rwgt            1           9  -3.7168652183133394E-002           1     2726076           0
</event>
<event>
      6   9999  3.45752E-01  3.14215E+01 -1.00000E+00  1.46549E-01
      21    -1     0     0   501   502  0.000000000E+00  0.000000000E+00  5.802577723E+01  5.802577723E+01  0.000000000E+00  0.00000E+00  9.000E+00
      21    -1     0     0   502   511  0.000000000E+00  0.000000000E+00 -1.589541088E+03  1.589541088E+03  0.000000000E+00  0.00000E+00  9.000E+00
      25     1     1     2     0     0 -4.307971413E+01  9.824674316E+01 -6.016009409E+02  6.237433273E+02  1.249950478E+02  0.00000E+00  9.000E+00
       5     1     1     2   501     0 -1.646023573E+00 -4.548338197E+00  3.970517875E+01  4.027977772E+01  4.750000000E+00  0.00000E+00  9.000E+00
      -5     1     1     2     0   503  6.827861616E+01 -1.144967732E+02 -7.711531301E+02  7.826053878E+02  4.750000000E+00  0.00000E+00  9.000E+00
      21     1     1     2   503   511 -2.355287846E+01  2.079836825E+01 -1.984664190E+02  2.009383728E+02  2.697398305E-06  0.00000E+00  9.000E+00
#rwgt            1           9   1.3903514412729064E-004           1     2727175           0
</event>
<event>
      6   9999  3.45752E-01  1.06573E+02 -1.00000E+00  1.19272E-01
      21    -1     0     0   512   503  0.000000000E+00  0.000000000E+00  7.234365956E+01  7.234365956E+01  0.000000000E+00  0.00000E+00  9.000E+00
      21    -1     0     0   501   502  0.000000000E+00  0.000000000E+00 -1.122412811E+03  1.122412811E+03  0.000000000E+00  0.00000E+00  9.000E+00
      25     1     1     2     0     0 -7.670955473E+01 -2.016009197E+01 -3.363903973E+02  3.675230216E+02  1.249955475E+02  0.00000E+00  9.000E+00
       5     1     1     2   501     0  1.486980938E+01  3.435724850E+00 -6.059947097E+02  6.062054653E+02  4.750000000E+00  0.00000E+00  9.000E+00
      -5     1     1     2     0   503 -4.388289688E+01  3.015950983E+01 -1.009638220E+02  1.142434266E+02  4.750000000E+00  0.00000E+00  9.000E+00
      21     1     1     2   512   502  1.057226422E+02 -1.343514272E+01 -6.720221926E+00  1.067845566E+02  1.685873940E-07  0.00000E+00  9.000E+00
#rwgt            1           9   2.8957711367240933E-004           1     2729080           0
</event>
<event>
      6   9999 -3.45752E-01  2.09381E+01 -1.00000E+00  1.58706E-01
      21    -1     0     0   501   511  0.000000000E+00  0.000000000E+00  9.686340943E+01  9.686340943E+01  0.000000000E+00  0.00000E+00  9.000E+00
      21    -1     0     0   502   503  0.000000000E+00  0.000000000E+00 -9.188494145E+02  9.188494145E+02  0.000000000E+00  0.00000E+00  9.000E+00
      25     1     1     2     0     0 -7.907199381E+01  4.216050508E+01 -4.541227622E+02  4.794606047E+02  1.250003995E+02  0.00000E+00  9.000E+00
       5     1     1     2   501     0 -8.496675165E-01 -6.083715718E+01 -1.734645827E+02  1.838869369E+02  4.750000000E+00  0.00000E+00  9.000E+00
      -5     1     1     2     0   503  6.149762389E+01  8.728801029E+00 -2.683609071E+02  2.754964404E+02  4.750000000E+00  0.00000E+00  9.000E+00
      21     1     1     2   502   511  1.842403744E+01  9.947851074E+00  7.396224691E+01  7.686884196E+01  1.651812370E-06  0.00000E+00  9.000E+00
#rwgt            1           9  -2.9674901045824507E-004           1     2729506           0
</event>
<event>
      6   9999  3.45752E-01  1.23362E+01 -1.00000E+00  1.78074E-01
      21    -1     0     0   501   502  0.000000000E+00  0.000000000E+00  7.063291910E+02  7.063291910E+02  0.000000000E+00  0.00000E+00  9.000E+00
       2    -1     0     0   502     0  0.000000000E+00  0.000000000E+00 -2.485088052E+02  2.485088052E+02  0.000000000E+00  0.00000E+00  9.000E+00
      25     1     1     2     0     0  2.867226994E+00 -2.208844481E+01 -1.134336208E+02  1.702526899E+02  1.249906864E+02  0.00000E+00  9.000E+00
       5     1     1     2   501     0 -2.731730847E+00  1.251555312E+01  6.757171977E+02  6.758553064E+02  4.750000000E+00  0.00000E+00  9.000E+00
      -5     1     1     2     0   503 -8.983151200E+00  9.763335204E-01 -1.345403582E+01  1.688857046E+01  4.750000000E+00  0.00000E+00  9.000E+00
       2     1     1     2   503     0  8.847655052E+00  8.596558168E+00 -9.100915528E+01  9.184142941E+01  0.000000000E+00  0.00000E+00  9.000E+00
#rwgt            1           9   6.8745770091399930E-004           1     2731828           0
</event>
<event>
      6   9999  3.45752E-01  7.65310E+00 -1.00000E+00  2.00322E-01
      21    -1     0     0   501   502  0.000000000E+00  0.000000000E+00  3.055935020E+00  3.055935020E+00  0.000000000E+00  0.00000E+00  9.000E+00
      21    -1     0     0   502   511  0.000000000E+00  0.000000000E+00 -2.213265040E+03  2.213265040E+03  0.000000000E+00  0.00000E+00  9.000E+00
      25     1     1     2     0     0  1.686341037E+01  7.297738760E+00 -1.639302902E+03  1.644164105E+03  1.249958803E+02  0.00000E+00  9.000E+00
       5     1     1     2   501     0 -2.097734395E+01 -1.303064593E+01 -3.642902943E+02  3.651572644E+02  4.750000000E+00  0.00000E+00  9.000E+00
      -5     1     1     2     0   503  1.739266014E-01 -8.280598335E-01 -6.645543932E+01  6.663035231E+01  4.750000000E+00  0.00000E+00  9.000E+00
      21     1     1     2   503   511  3.940006980E+00  6.560967008E+00 -1.401604694E+02  1.403692528E+02  2.697398305E-06  0.00000E+00  9.000E+00
#rwgt            1           9   6.1895095558044106E-005           1     2735956           0
</event>
<event>
      6   9999 -3.45752E-01  1.33854E+01 -1.00000E+00  1.74772E-01
       2    -1     0     0   501     0  0.000000000E+00  0.000000000E+00  1.059434216E+03  1.059434216E+03  0.000000000E+00  0.00000E+00  9.000E+00
      21    -1     0     0   502   503  0.000000000E+00  0.000000000E+00 -5.069304714E+02  5.069304714E+02  0.000000000E+00  0.00000E+00  9.000E+00
      25     1     1     2     0     0  2.388830821E+01  9.784020329E+01 -3.626398790E+02  3.965804092E+02  1.249999301E+02  0.00000E+00  9.000E+00
       5     1     1     2   501     0 -1.415727551E+01  7.964758930E-01  1.403409427E+02  1.411354156E+02  4.750000000E+00  0.00000E+00  9.000E+00
      -5     1     1     2     0   503 -1.529533352E+01 -8.646266579E+01 -1.116362072E+02  1.421089197E+02  4.750000000E+00  0.00000E+00  9.000E+00
       2     1     1     2   502     0  5.564300821E+00 -1.217401339E+01  8.864388877E+02  8.865399425E+02  1.525878906E-05  0.00000E+00  9.000E+00
#rwgt            1           9  -1.4882551841123292E-002           1     2738450           0
</event>
<event>
      6   9999  3.45752E-01  1.88763E+01 -1.00000E+00  1.62151E-01
      21    -1     0     0   502   503  0.000000000E+00  0.000000000E+00  8.025023798E+00  8.025023798E+00  0.000000000E+00  0.00000E+00  9.000E+00
      21    -1     0     0   511   502  0.000000000E+00  0.000000000E+00 -1.074452555E+03  1.074452555E+03  0.000000000E+00  0.00000E+00  9.000E+00
      25     1     1     2     0     0 -1.080837397E+01  9.992879262E+00 -6.651012822E+02  6.769055491E+02  1.249989128E+02  0.00000E+00  9.000E+00
       5     1     1     2   501     0 -4.671020579E-01  4.338171348E-01 -9.049687451E+00  1.024039670E+01  4.750000000E+00  0.00000E+00  9.000E+00
      -5     1     1     2     0   503 -3.676343144E+00  1.095390490E+00 -5.887546260E+00  8.481808782E+00  4.750000000E+00  0.00000E+00  9.000E+00
      21     1     1     2   511   501  1.495181917E+01 -1.152208689E+01 -3.863890157E+02  3.868498247E+02  5.394796609E-06  0.00000E+00  9.000E+00
#rwgt            1           9   6.7372510940763453E-003           1     2742045           0
</event>
<event>
      6   9999  3.45752E-01  1.75635E+01 -1.00000E+00  1.64640E-01
      21    -1     0     0   501   502  0.000000000E+00  0.000000000E+00  1.127006945E+01  1.127006945E+01  0.000000000E+00  0.00000E+00  9.000E+00
       2    -1     0     0   502     0  0.000000000E+00  0.000000000E+00 -1.789038959E+03  1.789038959E+03  0.000000000E+00  0.00000E+00  9.000E+00
      25     1     1     2     0     0 -2.712485298E+01  1.222064342E+01 -6.815735697E+02  6.935797821E+02  1.250011255E+02  0.00000E+00  9.000E+00
       5     1     1     2   501     0  9.693973939E-01  2.844079391E+00  2.370616616E+00  6.100069018E+00  4.750000000E+00  0.00000E+00  9.000E+00
      -5     1     1     2     0   503  2.172988522E+01  1.932061775E+00 -1.299509594E+02  1.318549776E+02  4.750000000E+00  0.00000E+00  9.000E+00
       2     1     1     2   503     0  4.425570367E+00 -1.699678458E+01 -9.686149772E+02  9.687741999E+02  1.078959322E-05  0.00000E+00  9.000E+00
#rwgt            1           9   3.6647146203753984E-004           1     2743526           0
</event>
<event>
      6   9999  3.45752E-01  5.35994E+00 -1.00000E+00  2.21118E-01
      21    -1     0     0   501   502  0.000000000E+00  0.000000000E+00  3.831831712E+01  3.831831712E+01  0.000000000E+00  0.00000E+00  9.000E+00
      21    -1     0     0   511   503  0.000000000E+00  0.000000000E+00 -6.307221892E+02  6.307221892E+02  0.000000000E+00  0.00000E+00  9.000E+00
      25     1     1     2     0     0 -2.202703601E+00 -1.458145098E+01 -5.276120917E+02  5.424172387E+02  1.249978834E+02  0.00000E+00  9.000E+00
       5     1     1     2   501     0  2.304495654E+00  5.802062307E+00  2.947272212E+01  3.049882746E+01  4.750000000E+00  0.00000E+00  9.000E+00
      -5     1     1     2     0   503 -4.605084834E+00  1.168615636E+01 -6.972095814E+01  7.100244757E+01  4.750000000E+00  0.00000E+00  9.000E+00
      21     1     1     2   511   502  4.503292781E+00 -2.906767685E+00 -2.454354432E+01  2.512199260E+01  3.371747881E-07  0.00000E+00  9.000E+00
#rwgt            1           9  0.30224112113746426                1     2745071           0
</event>
<event>
      6   9999  3.45752E-01  8.43209E+00 -1.00000E+00  1.95348E-01
      21    -1     0     0   501   502  0.000000000E+00  0.000000000E+00  9.420137256E+00  9.420137256E+00  0.000000000E+00  0.00000E+00  9.000E+00
      21    -1     0     0   502   512  0.000000000E+00  0.000000000E+00 -9.412661333E+02  9.412661333E+02  0.000000000E+00  0.00000E+00  9.000E+00
      25     1     1     2     0     0 -9.600798338E-01 -7.249589223E+00 -6.504848866E+02  6.624273177E+02  1.250035413E+02  0.00000E+00  9.000E+00
       5     1     1     2   501     0 -1.732011862E+00 -1.642590748E+00  1.052031723E+00  5.419154934E+00  4.750000000E+00  0.00000E+00  9.000E+00
      -5     1     1     2     0   503  1.022550312E+00  6.270245708E-01 -4.299490528E+01  4.327312271E+01  4.750000000E+00  0.00000E+00  9.000E+00
      21     1     1     2   503   512  1.669541384E+00  8.265155399E+00 -2.394182360E+02  2.395666752E+02  0.000000000E+00  0.00000E+00  9.000E+00
#rwgt            1           9   9.8195450960057006E-003           1     2750760           0
</event>
<event>
      6   9999  3.45752E-01  1.62409E+01 -1.00000E+00  1.67433E-01
      21    -1     0     0   501   502  0.000000000E+00  0.000000000E+00  7.419954337E+00  7.419954337E+00  0.000000000E+00  0.00000E+00  9.000E+00
      21    -1     0     0   502   511  0.000000000E+00  0.000000000E+00 -9.695540225E+02  9.695540225E+02  0.000000000E+00  0.00000E+00  9.000E+00
      25     1     1     2     0     0  8.878750633E+00 -1.856285458E+01 -6.363887661E+02  6.488733847E+02  1.249903839E+02  0.00000E+00  9.000E+00
       5     1     1     2   501     0  1.153856989E-01 -5.158203332E-01 -9.175390052E+00  1.034551435E+01  4.750000000E+00  0.00000E+00  9.000E+00
      -5     1     1     2     0   503 -8.059161853E+00  2.864752206E+00 -7.429366447E+01  7.493509175E+01  4.750000000E+00  0.00000E+00  9.000E+00
      21     1     1     2   503   511 -9.349744792E-01  1.621392271E+01 -2.422762476E+02  2.428199860E+02  2.697398305E-06  0.00000E+00  9.000E+00
#rwgt            1           9   1.5197175863570581E-004           1     2753387           0
</event>
<event>
      6   9999  3.45752E-01  1.35095E+01 -1.00000E+00  1.74407E-01
      21    -1     0     0   502   503  0.000000000E+00  0.000000000E+00  3.102020792E+02  3.102020792E+02  0.000000000E+00  0.00000E+00  9.000E+00
      21    -1     0     0   501   512  0.000000000E+00  0.000000000E+00 -2.581774856E+02  2.581774856E+02  0.000000000E+00  0.00000E+00  9.000E+00
      25     1     1     2     0     0  2.912142377E+00  1.703707362E+01  2.447436302E+02  2.753577266E+02  1.249947624E+02  0.00000E+00  9.000E+00
       5     1     1     2   501     0 -5.909907437E+00 -9.630546365E-01  2.080147457E+01  2.216118960E+01  4.750000000E+00  0.00000E+00  9.000E+00
      -5     1     1     2     0   503 -7.536416493E+00 -7.616084914E+00  2.727496595E+01  2.968650520E+01  4.750000000E+00  0.00000E+00  9.000E+00
      21     1     1     2   502   512  1.053418155E+01 -8.457934074E+00 -2.407954771E+02  2.411741434E+02  0.000000000E+00  0.00000E+00  9.000E+00
#rwgt            1           9   2.6519370102246816E-002           1     2755613           0
</event>
<event>
      6   9999  3.45752E-01  2.43088E+01 -1.00000E+00  1.54001E-01
      21    -1     0     0   501   502  0.000000000E+00  0.000000000E+00  1.757908392E+01  1.757908392E+01  0.000000000E+00  0.00000E+00  9.000E+00
       2    -1     0     0   502     0  0.000000000E+00  0.000000000E+00 -3.501436669E+03  3.501436669E+03  0.000000000E+00  0.00000E+00  9.000E+00
      25     1     1     2     0     0 -4.372614707E+01  2.786361530E+01 -9.959877890E+02  1.005133730E+03  1.249551228E+02  0.00000E+00  9.000E+00
       5     1     1     2   501     0 -4.523998207E+00  3.406386412E+00  1.070485236E+01  1.300870448E+01  4.750000000E+00  0.00000E+00  9.000E+00
      -5     1     1     2     0   503  3.616416853E+01 -1.017863137E+01 -3.304984969E+02  3.326608943E+02  4.750000000E+00  0.00000E+00  9.000E+00
       2     1     1     2   503     0  1.208597674E+01 -2.109137035E+01 -2.168076152E+03  2.168212424E+03  3.051757812E-05  0.00000E+00  9.000E+00
#rwgt            1           9   3.3579586322926108E-004           1     2757175           0
</event>
<event>
      6   9999  3.45752E-01  1.13045E+02 -1.00000E+00  1.18215E-01
      -2    -1     0     0     0   502  0.000000000E+00  0.000000000E+00  2.326316528E+02  2.326316528E+02  0.000000000E+00  0.00000E+00  9.000E+00
      21    -1     0     0   501   511  0.000000000E+00  0.000000000E+00 -1.603454869E+03  1.603454869E+03  0.000000000E+00  0.00000E+00  9.000E+00
      25     1     1     2     0     0 -3.057863328E+02 -1.342167327E+02 -9.317032846E+02  9.976057011E+02  1.250068469E+02  0.00000E+00  9.000E+00
       5     1     1     2   501     0  3.390950862E+02  3.259183167E+01 -5.536178197E+02  6.500484273E+02  4.750000000E+00  0.00000E+00  9.000E+00
      -5     1     1     2     0   502 -3.715566995E+00 -7.477975520E+00 -1.419493578E+01  1.714013587E+01  4.750000000E+00  0.00000E+00  9.000E+00
      -2     1     1     2     0   511 -2.959318637E+01  1.091028766E+02  1.286928242E+02  1.712922572E+02  2.697398305E-06  0.00000E+00  9.000E+00
#rwgt            1           3   5.9318752838366257E-004           1     2759422           0
</event>
<event>
      6   9999  3.45752E-01  7.56454E+00 -1.00000E+00  2.00937E-01
      21    -1     0     0   512   503  0.000000000E+00  0.000000000E+00  1.376113768E+01  1.376113768E+01  0.000000000E+00  0.00000E+00  9.000E+00
      21    -1     0     0   501   502  0.000000000E+00  0.000000000E+00 -7.962334099E+02  7.962334099E+02  0.000000000E+00  0.00000E+00  9.000E+00
      25     1     1     2     0     0  2.737082073E+01  3.492495379E+01 -5.103698824E+02  5.273238709E+02  1.249965349E+02  0.00000E+00  9.000E+00
       5     1     1     2   501     0 -2.618842709E+01 -2.505903245E+01 -2.231831978E+02  2.261572265E+02  4.750000000E+00  0.00000E+00  9.000E+00
      -5     1     1     2     0   503 -3.644514923E+00 -2.713279684E+00 -4.849347233E+01  4.893693630E+01  4.750000000E+00  0.00000E+00  9.000E+00
      21     1     1     2   512   502  2.462121282E+00 -7.152641652E+00 -4.257195968E-01  7.576513775E+00  2.064765462E-07  0.00000E+00  9.000E+00
#rwgt            1           9   6.8287201571989267E-002           1     2760911           0
</event>
<event>
      6   9999  3.45752E-01  2.57028E+01 -1.00000E+00  1.52316E-01
      21    -1     0     0   511   502  0.000000000E+00  0.000000000E+00  1.415331175E+01  1.415331175E+01  0.000000000E+00  0.00000E+00  9.000E+00
      21    -1     0     0   502   503  0.000000000E+00  0.000000000E+00 -8.488557355E+02  8.488557355E+02  0.000000000E+00  0.00000E+00  9.000E+00
      25     1     1     2     0     0 -3.794774558E+01  2.469214529E+01 -7.040736331E+02  7.165153983E+02  1.249996067E+02  0.00000E+00  9.000E+00
       5     1     1     2   501     0 -2.303214140E+00  3.912831718E-01  1.283750202E+00  5.446871807E+00  4.750000000E+00  0.00000E+00  9.000E+00
      -5     1     1     2     0   503  1.567883275E+01 -1.754374490E+01 -5.701924183E+01  6.186570310E+01  4.750000000E+00  0.00000E+00  9.000E+00
      21     1     1     2   511   501  2.457212698E+01 -7.539683565E+00 -7.489329895E+01  7.918107400E+01  1.651812370E-06  0.00000E+00  9.000E+00
#rwgt            1           9   2.5605609299783770E-005           1     2763767           0
</event>
<event>
      6   9999 -3.45752E-01  2.01002E+00 -1.00000E+00  3.32049E-01
      21    -1     0     0   512   502  0.000000000E+00  0.000000000E+00  8.126730843E+01  8.126730843E+01  0.000000000E+00  0.00000E+00  9.000E+00
      21    -1     0     0   502   503  0.000000000E+00  0.000000000E+00 -7.412339797E+01  7.412339797E+01  0.000000000E+00  0.00000E+00  9.000E+00
      25     1     1     2     0     0 -1.858274511E+00 -2.327982499E+00 -1.327747535E+01  1.257448471E+02  1.250064100E+02  0.00000E+00  9.000E+00
       5     1     1     2   501     0 -4.744832455E-01  3.023294693E-01  8.696817112E+00  9.925405047E+00  4.750000000E+00  0.00000E+00  9.000E+00
      -5     1     1     2     0   503  4.020990209E-01  1.466422409E+00 -2.342743740E+00  5.510265559E+00  4.750000000E+00  0.00000E+00  9.000E+00
      21     1     1     2   512   501  1.930658736E+00  5.592306205E-01  1.406731244E+01  1.421018865E+01  1.685873940E-07  0.00000E+00  9.000E+00
#rwgt            1           9  -7.8946449054547192E-003           1     2764882           0
</event>
<event>
      6   9999  3.45752E-01  8.41654E+00 -1.00000E+00  1.95441E-01
      21    -1     0     0   502   511  0.000000000E+00  0.000000000E+00  1.222246512E+02  1.222246512E+02  0.000000000E+00  0.00000E+00  9.000E+00
      21    -1     0     0   501   502  0.000000000E+00  0.000000000E+00 -1.692165012E+03  1.692165012E+03  0.000000000E+00  0.00000E+00  9.000E+00
      25     1     1     2     0     0  2.118578921E+02  1.779813068E+01 -1.418304747E+03  1.439587950E+03  1.249982824E+02  0.00000E+00  9.000E+00
       5     1     1     2   501     0 -2.371269130E+02 -7.647810730E+01 -1.450964915E+02  2.883637080E+02  4.750000000E+00  0.00000E+00  9.000E+00
      -5     1     1     2     0   503  1.703368418E+01  6.041705597E+01 -2.374717515E+01  6.728192831E+01  4.750000000E+00  0.00000E+00  9.000E+00
      21     1     1     2   503   511  8.235336698E+00 -1.737079344E+00  1.720805259E+01  1.915607708E+01  3.371747881E-07  0.00000E+00  9.000E+00
#rwgt            1           9   1.6275824644913176E-004           1     2771775           0
</event>
<event>
      6   9999  3.45752E-01  6.00798E+00 -1.00000E+00  2.13978E-01
      21    -1     0     0   501   512  0.000000000E+00  0.000000000E+00  1.559240981E+01  1.559240981E+01  0.000000000E+00  0.00000E+00  9.000E+00
      21    -1     0     0   502   503  0.000000000E+00  0.000000000E+00 -8.398479873E+02  8.398479873E+02  0.000000000E+00  0.00000E+00  9.000E+00
      25     1     1     2     0     0 -4.955986896E-01 -8.289657376E+00 -5.386389574E+02  5.530137816E+02  1.249934088E+02  0.00000E+00  9.000E+00
       5     1     1     2   501     0 -1.658888095E-01 -1.945557249E+00  3.468431644E+00  6.197195348E+00  4.750000000E+00  0.00000E+00  9.000E+00
      -5     1     1     2     0   503  4.036080267E+00  5.264510015E+00 -2.900324662E+02  2.901472022E+02  4.750000000E+00  0.00000E+00  9.000E+00
      21     1     1     2   502   512 -3.374592768E+00  4.970704610E+00  9.474144220E-01  6.082217914E+00  3.732733443E-07  0.00000E+00  9.000E+00
#rwgt            1           9   1.7522807233239077E-003           1     2776884           0
</event>
<event>
      6   9999  3.45752E-01  3.07637E+01 -1.00000E+00  1.47135E-01
      21    -1     0     0   501   511  0.000000000E+00  0.000000000E+00  4.380872494E+02  4.380872494E+02  0.000000000E+00  0.00000E+00  9.000E+00
      21    -1     0     0   502   503  0.000000000E+00  0.000000000E+00 -8.492421896E+01  8.492421896E+01  0.000000000E+00  0.00000E+00  9.000E+00
      25     1     1     2     0     0 -3.472685881E+01 -2.414812512E+01  3.279656178E+01  1.359660368E+02  1.249882475E+02  0.00000E+00  9.000E+00
       5     1     1     2   501     0 -1.433136786E+00 -4.411802124E+00  2.869865128E+01  2.945662852E+01  4.750000000E+00  0.00000E+00  9.000E+00
      -5     1     1     2     0   503  1.990955677E+01  2.438466470E+00 -2.892774588E+01  3.552060741E+01  4.750000000E+00  0.00000E+00  9.000E+00
      21     1     1     2   502   511  1.625043882E+01  2.612146077E+01  3.205955633E+02  3.220681957E+02  0.000000000E+00  0.00000E+00  9.000E+00
#rwgt            1           9   2.1959048321578830E-004           1     2781170           0
</event>
<event>
      6   9999 -3.45752E-01  3.73963E+01 -1.00000E+00  1.41902E-01
      21    -1     0     0   501   512  0.000000000E+00  0.000000000E+00  3.637534659E+02  3.637534659E+02  0.000000000E+00  0.00000E+00  9.000E+00
      21    -1     0     0   502   503  0.000000000E+00  0.000000000E+00 -1.653682426E+03  1.653682426E+03  0.000000000E+00  0.00000E+00  9.000E+00
      25     1     1     2     0     0 -2.561538686E+02 -4.151440633E+00 -7.382202589E+02  7.913444575E+02  1.249994436E+02  0.00000E+00  9.000E+00
       5     1     1     2   501     0  7.764122841E+00  4.073929120E+00  4.941574663E+01  5.041187377E+01  4.750000000E+00  0.00000E+00  9.000E+00
      -5     1     1     2     0   503  2.707902754E+02  3.002243132E+01 -8.661638430E+02  9.080149146E+02  4.750000000E+00  0.00000E+00  9.000E+00
      21     1     1     2   502   512 -2.240052964E+01 -2.994491981E+01  2.650393950E+02  2.676646463E+02  7.629394531E-06  0.00000E+00  9.000E+00
#rwgt            1           9  -1.4073347052838991E-003           1     2782155           0
</event>
<event>
      6   9999  3.45752E-01  6.00740E+00 -1.00000E+00  2.13983E-01
      21    -1     0     0   501   502  0.000000000E+00  0.000000000E+00  2.393690585E+01  2.393690585E+01  0.000000000E+00  0.00000E+00  9.000E+00
      21    -1     0     0   511   503  0.000000000E+00  0.000000000E+00 -1.062137528E+03  1.062137528E+03  0.000000000E+00  0.00000E+00  9.000E+00
      25     1     1     2     0     0  1.082660641E+01  4.970333806E+01 -2.620704611E+02  2.947702692E+02  1.249837901E+02  0.00000E+00  9.000E+00
       5     1     1     2   501     0 -6.433271926E-01 -1.593382019E+00  5.176206278E+00  7.232451007E+00  4.750000000E+00  0.00000E+00  9.000E+00
      -5     1     1     2     0   503 -8.538374591E+00 -5.388776689E+01 -7.589139596E+02  7.608874791E+02  4.750000000E+00  0.00000E+00  9.000E+00
      21     1     1     2   511   502 -1.644904628E+00  5.777810839E+00 -2.239240752E+01  2.318423438E+01  3.371747881E-07  0.00000E+00  9.000E+00
#rwgt            1           9   3.3302745486365371E-003           1     2784230           0
</event>
<event>
      6   9999  3.45752E-01  1.02778E+01 -1.00000E+00  1.85949E-01
      21    -1     0     0   501   512  0.000000000E+00  0.000000000E+00  2.974582344E+01  2.974582344E+01  0.000000000E+00  0.00000E+00  9.000E+00
      21    -1     0     0   502   503  0.000000000E+00  0.000000000E+00 -1.136766090E+03  1.136766090E+03  0.000000000E+00  0.00000E+00  9.000E+00
      25     1     1     2     0     0  4.744949499E+01  6.783937463E+01 -6.256730693E+02  6.433859727E+02  1.250003401E+02  0.00000E+00  9.000E+00
       5     1     1     2   501     0 -2.275439568E-01 -5.334971506E+00  1.562237812E+01  1.717949054E+01  4.750000000E+00  0.00000E+00  9.000E+00
      -5     1     1     2     0   503 -4.049146112E+01 -7.027188445E+01 -4.720589271E+02  4.789988407E+02  4.750000000E+00  0.00000E+00  9.000E+00
      21     1     1     2   502   512 -6.730489917E+00  7.767481326E+00 -2.491064871E+01  2.694760991E+01  3.371747881E-07  0.00000E+00  9.000E+00
#rwgt            1           9   1.5601309605128564E-003           1     2788446           0
</event>
<event>
      6   9999  3.45752E-01  5.03655E+00 -1.00000E+00  2.25225E-01
      21    -1     0     0   501   502  0.000000000E+00  0.000000000E+00  1.445699730E+02  1.445699730E+02  0.000000000E+00  0.00000E+00  9.000E+00
      21    -1     0     0   511   503  0.000000000E+00  0.000000000E+00 -2.821704643E+02  2.821704643E+02  0.000000000E+00  0.00000E+00  9.000E+00
      25     1     1     2     0     0  4.790002126E+01 -1.778730545E+01 -1.567115594E+01  1.359466857E+02  1.250004638E+02  0.00000E+00  9.000E+00
       5     1     1     2   501     0  1.747403828E+00  4.117191906E+00  8.079634438E+01  8.105933909E+01  4.750000000E+00  0.00000E+00  9.000E+00
      -5     1     1     2     0   503 -4.520883685E+01  1.605041135E+01 -1.906487507E+02  1.966493409E+02  4.750000000E+00  0.00000E+00  9.000E+00
      21     1     1     2   511   502 -4.438588235E+00 -2.380297810E+00 -1.207692906E+01  1.308507160E+01  1.685873940E-07  0.00000E+00  9.000E+00
#rwgt            1           9   4.0886081005969636E-003           1     2791518           0
</event>
<event>
      6   9999  3.45752E-01  5.80274E+00 -1.00000E+00  2.16100E-01
      21    -1     0     0   501   502  0.000000000E+00  0.000000000E+00  1.281798983E+01  1.281798983E+01  0.000000000E+00  0.00000E+00  9.000E+00
      21    -1     0     0   502   512  0.000000000E+00  0.000000000E+00 -9.264047148E+02  9.264047148E+02  0.000000000E+00  0.00000E+00  9.000E+00
      25     1     1     2     0     0 -1.037907830E+01 -1.720596982E+01 -6.898775885E+02  7.013982806E+02  1.249987610E+02  0.00000E+00  9.000E+00
       5     1     1     2   501     0  5.567200374E-01  1.623221688E+00  5.643519516E+00  7.573413918E+00  4.750000000E+00  0.00000E+00  9.000E+00
      -5     1     1     2     0   503  9.489296620E+00  9.789574245E+00 -1.540230860E+02  1.546982742E+02  4.750000000E+00  0.00000E+00  9.000E+00
      21     1     1     2   503   512  3.330616378E-01  5.793173883E+00 -7.532957002E+01  7.555273597E+01  9.536743164E-07  0.00000E+00  9.000E+00
#rwgt            1           9   8.5879838207659574E-003           1     2796907           0
</event>
<event>
      6   9999  3.45752E-01  5.56627E+00 -1.00000E+00  2.18700E-01
      21    -1     0     0   501   502  0.000000000E+00  0.000000000E+00  1.375541662E+01  1.375541662E+01  0.000000000E+00  0.00000E+00  9.000E+00
      21    -1     0     0   502   511  0.000000000E+00  0.000000000E+00 -9.700223191E+02  9.700223191E+02  0.000000000E+00  0.00000E+00  9.000E+00
      25     1     1     2     0     0 -2.802829210E+01 -6.278117234E+01 -6.029740930E+02  6.196181469E+02  1.249873209E+02  0.00000E+00  9.000E+00
       5     1     1     2   501     0  8.764435104E-01 -5.861975434E-01 -7.785379223E-01  4.927514798E+00  4.750000000E+00  0.00000E+00  9.000E+00
      -5     1     1     2     0   503  2.547380474E+01  5.806005996E+01 -3.236224273E+02  3.298089193E+02  4.750000000E+00  0.00000E+00  9.000E+00
      21     1     1     2   503   511  1.678043846E+00  5.307309928E+00 -2.889184433E+01  2.942315481E+01  3.371747881E-07  0.00000E+00  9.000E+00
#rwgt            1           9   1.0345224038775621E-004           1     2800605           0
</event>
<event>
      6   9999  3.45752E-01  1.78043E+01 -1.00000E+00  1.64163E-01
      21    -1     0     0   512   503  0.000000000E+00  0.000000000E+00  1.251218204E+01  1.251218204E+01  0.000000000E+00  0.00000E+00  9.000E+00
      21    -1     0     0   501   502  0.000000000E+00  0.000000000E+00 -7.521574253E+02  7.521574253E+02  0.000000000E+00  0.00000E+00  9.000E+00
      25     1     1     2     0     0  2.708252345E+01  1.116339283E+01 -5.547844043E+02  5.694459755E+02  1.249995974E+02  0.00000E+00  9.000E+00
       5     1     1     2   501     0 -3.066101709E+00 -1.068409724E+01 -1.123488822E+02  1.129972776E+02  4.750000000E+00  0.00000E+00  9.000E+00
      -5     1     1     2     0   503 -6.488839720E+00 -3.606347981E+00 -5.956208882E+01  6.021059468E+01  4.750000000E+00  0.00000E+00  9.000E+00
      21     1     1     2   512   502 -1.752758202E+01  3.127052386E+00 -1.294986790E+01  2.201575951E+01  3.769728732E-07  0.00000E+00  9.000E+00
#rwgt            1           9   1.0956988670862452E-003           1     2804572           0
</event>
<event>
      6   9999 -3.45752E-01  7.26765E+00 -1.00000E+00  2.03083E-01
      21    -1     0     0   501   502  0.000000000E+00  0.000000000E+00  3.954090970E+03  3.954090970E+03  0.000000000E+00  0.00000E+00  9.000E+00
      21    -1     0     0   502   511  0.000000000E+00  0.000000000E+00 -4.412848935E+01  4.412848935E+01  0.000000000E+00  0.00000E+00  9.000E+00
      25     1     1     2     0     0  2.080764074E+01 -1.199000863E+02  2.773006385E+03  2.778488263E+03  1.249945050E+02  0.00000E+00  9.000E+00
       5     1     1     2   501     0 -1.705988818E+00 -1.567596487E-01  7.770715548E+02  7.770879608E+02  4.750000000E+00  0.00000E+00  9.000E+00
      -5     1     1     2     0   503 -1.527385089E+01  1.138789260E+02  3.926180181E+02  4.091126629E+02  4.750000000E+00  0.00000E+00  9.000E+00
      21     1     1     2   503   511 -3.827801029E+00  6.177919976E+00 -3.273347752E+01  3.353057271E+01  4.768371582E-06  0.00000E+00  9.000E+00
#rwgt            1           9  -4.8980625797196232E-002           1     2805969           0
</event>
<event>
      6   9999  3.45752E-01  7.08047E+00 -1.00000E+00  2.04508E-01
      21    -1     0     0   501   512  0.000000000E+00  0.000000000E+00  7.494160826E+01  7.494160826E+01  0.000000000E+00  0.00000E+00  9.000E+00
      21    -1     0     0   502   503  0.000000000E+00  0.000000000E+00 -1.495300029E+03  1.495300029E+03  0.000000000E+00  0.00000E+00  9.000E+00
      25     1     1     2     0     0 -6.858758531E+01 -1.701371118E+01 -8.363432005E+02  8.485799375E+02  1.249969521E+02  0.00000E+00  9.000E+00
       5     1     1     2   501     0 -1.541269381E+00  4.079665024E+00  6.302226927E+01  6.335130702E+01  4.750000000E+00  0.00000E+00  9.000E+00
      -5     1     1     2     0   503  7.034857330E+01  2.001110594E+01 -6.470921186E+02  6.512297126E+02  4.750000000E+00  0.00000E+00  9.000E+00
      21     1     1     2   502   512 -2.197186087E-01 -7.077059784E+00  5.462879084E-02  7.080680458E+00  1.264388306E-07  0.00000E+00  9.000E+00
#rwgt            1           9   5.5315629800442813E-003           1     2809947           0
</event>
<event>
      6   9999  3.45752E-01  6.34219E+00 -1.00000E+00  2.10757E-01
      21    -1     0     0   501   502  0.000000000E+00  0.000000000E+00  1.177898665E+01  1.177898665E+01  0.000000000E+00  0.00000E+00  9.000E+00
      21    -1     0     0   502   511  0.000000000E+00  0.000000000E+00 -8.541697337E+02  8.541697337E+02  0.000000000E+00  0.00000E+00  9.000E+00
      25     1     1     2     0     0  3.152530535E+01  3.662226733E+01 -4.968542373E+02  5.146090024E+02  1.249930273E+02  0.00000E+00  9.000E+00
       5     1     1     2   501     0 -8.194806823E+00 -2.239364948E+00 -5.777576048E+01  5.858985077E+01  4.750000000E+00  0.00000E+00  9.000E+00
      -5     1     1     2     0   503 -2.899989776E+01 -3.722565973E+01 -2.576016204E+02  2.619311000E+02  4.750000000E+00  0.00000E+00  9.000E+00
      21     1     1     2   503   511  5.669399235E+00  2.842757345E+00 -3.015912882E+01  3.081876714E+01  0.000000000E+00  0.00000E+00  9.000E+00
#rwgt            1           9   1.7110408037577713E-004           1     2814856           0
</event>
<event>
      6   9999  3.45752E-01  1.66331E+01 -1.00000E+00  1.66571E-01
      21    -1     0     0   512   502  0.000000000E+00  0.000000000E+00  1.289409487E+01  1.289409487E+01  0.000000000E+00  0.00000E+00  9.000E+00
      21    -1     0     0   502   503  0.000000000E+00  0.000000000E+00 -8.968905972E+02  8.968905972E+02  0.000000000E+00  0.00000E+00  9.000E+00
      25     1     1     2     0     0  1.657446409E+01 -4.624292282E+01 -4.818363380E+02  5.002042736E+02  1.249997518E+02  0.00000E+00  9.000E+00
       5     1     1     2   501     0  1.995173695E+01  2.736207289E+01 -1.669862581E+02  1.704515407E+02  4.750000000E+00  0.00000E+00  9.000E+00
      -5     1     1     2     0   503 -2.194698872E+01  1.087413866E+01 -1.720824856E+02  1.738817459E+02  4.750000000E+00  0.00000E+00  9.000E+00
      21     1     1     2   512   501 -1.457921233E+01  8.006711271E+00 -6.309142061E+01  6.524713183E+01  6.743495762E-07  0.00000E+00  9.000E+00
#rwgt            1           9   4.6169459533891136E-002           1     2818598           0
</event>
<event>
      6   9999  3.45752E-01  1.51193E+01 -1.00000E+00  1.70074E-01
      21    -1     0     0   501   502  0.000000000E+00  0.000000000E+00  1.615374306E+01  1.615374306E+01  0.000000000E+00  0.00000E+00  9.000E+00
      21    -1     0     0   511   503  0.000000000E+00  0.000000000E+00 -4.576236366E+02  4.576236366E+02  0.000000000E+00  0.00000E+00  9.000E+00
      25     1     1     2     0     0 -1.169985774E+01 -1.781314640E+01 -3.364161319E+02  3.595361842E+02  1.250450284E+02  0.00000E+00  9.000E+00
       5     1     1     2   501     0 -3.286619230E-01 -1.514169751E+00 -9.626673740E-01  5.088217484E+00  4.750000000E+00  0.00000E+00  9.000E+00
      -5     1     1     2     0   503  8.297694132E+00  4.675508205E+00 -1.293154115E+01  1.674811516E+01  4.750000000E+00  0.00000E+00  9.000E+00
      21     1     1     2   511   502  3.730825531E+00  1.465180795E+01 -9.115955311E+01  9.240486275E+01  0.000000000E+00  0.00000E+00  9.000E+00
#rwgt            1           9   4.6928242183714381E-003           1     2820151           0
</event>
<event>
      6   9999 -3.45752E-01  7.41999E+00 -1.00000E+00  2.01966E-01
      21    -1     0     0   512   502  0.000000000E+00  0.000000000E+00  4.950991778E+01  4.950991778E+01  0.000000000E+00  0.00000E+00  9.000E+00
      21    -1     0     0   502   503  0.000000000E+00  0.000000000E+00 -2.362372680E+03  2.362372680E+03  0.000000000E+00  0.00000E+00  9.000E+00
      25     1     1     2     0     0 -1.305306364E+02 -4.289522918E+01 -2.115545643E+03  2.123684909E+03  1.250039129E+02  0.00000E+00  9.000E+00
       5     1     1     2   501     0  3.607462198E+00 -4.731395315E+00  2.558391564E+01  2.669267923E+01  4.750000000E+00  0.00000E+00  9.000E+00
      -5     1     1     2     0   503  1.196453301E+02  4.618120416E+01 -2.019437545E+02  2.392729636E+02  4.750000000E+00  0.00000E+00  9.000E+00
      21     1     1     2   512   501  7.277844143E+00  1.445420335E+00 -2.095727969E+01  2.223204505E+01  2.384185791E-07  0.00000E+00  9.000E+00
#rwgt            1           9  -2.1306741949039937E-004           1     2821930           0
</event>
<event>
      6   9999  3.45752E-01  1.15541E+01 -1.00000E+00  1.80819E-01
      21    -1     0     0   501   502  0.000000000E+00  0.000000000E+00  1.966588450E+01  1.966588450E+01  0.000000000E+00  0.00000E+00  9.000E+00
      21    -1     0     0   502   511  0.000000000E+00  0.000000000E+00 -4.788642165E+02  4.788642165E+02  0.000000000E+00  0.00000E+00  9.000E+00
      25     1     1     2     0     0  1.036121541E-01  1.078488977E+01 -2.150335758E+02  2.489575657E+02  1.249964247E+02  0.00000E+00  9.000E+00
       5     1     1     2   501     0 -3.988430672E-01  3.454730798E-01 -4.135924568E+00  6.320348050E+00  4.750000000E+00  0.00000E+00  9.000E+00
      -5     1     1     2     0   503 -9.804245685E+00 -5.518148255E+00 -2.412866889E+01  2.704308333E+01  4.750000000E+00  0.00000E+00  9.000E+00
      21     1     1     2   503   511  1.009947660E+01 -5.612214591E+00 -2.159001627E+02  2.162091039E+02  2.697398305E-06  0.00000E+00  9.000E+00
#rwgt            1           9   2.5501346678504636E-003           1     2827222           0
</event>
<event>
      6   9999  3.45752E-01  9.75306E+00 -1.00000E+00  1.88345E-01
       2    -1     0     0   501     0  0.000000000E+00  0.000000000E+00  1.246722617E+03  1.246722617E+03  0.000000000E+00  0.00000E+00  9.000E+00
      21    -1     0     0   502   503  0.000000000E+00  0.000000000E+00 -2.271411475E+02  2.271411475E+02  0.000000000E+00  0.00000E+00  9.000E+00
      25     1     1     2     0     0  1.510935442E+02 -2.400234185E+02  7.925992712E+01  3.199176267E+02  1.249986052E+02  0.00000E+00  9.000E+00
       5     1     1     2   501     0 -4.077598441E+00 -6.770479367E-01  1.721077811E+02  1.722229254E+02  4.750000000E+00  0.00000E+00  9.000E+00
      -5     1     1     2     0   503 -1.372659048E+02  2.409431406E+02  7.346533600E+01  2.869063326E+02  4.750000000E+00  0.00000E+00  9.000E+00
       2     1     1     2   502     0 -9.750041029E+00 -2.426740739E-01  6.947484248E+02  6.948168794E+02  1.078959322E-05  0.00000E+00  9.000E+00
#rwgt            1           9   2.3382526092727469E-002           1     2829144           0
</event>
<event>
      6   9999  3.45752E-01  4.43768E+01 -1.00000E+00  1.37620E-01
      21    -1     0     0   501   502  0.000000000E+00  0.000000000E+00  6.673527942E+01  6.673527942E+01  0.000000000E+00  0.00000E+00  9.000E+00
      21    -1     0     0   511   503  0.000000000E+00  0.000000000E+00 -2.325677554E+03  2.325677554E+03  0.000000000E+00  0.00000E+00  9.000E+00
      25     1     1     2     0     0  1.273158696E+01  2.030652437E+02 -9.083284013E+02  9.391926319E+02  1.249989148E+02  0.00000E+00  9.000E+00
       5     1     1     2   501     0  6.757140941E-01  2.058294230E+00  4.331606136E+01  4.362954087E+01  4.750000000E+00  0.00000E+00  9.000E+00
      -5     1     1     2     0   503  4.969583424E+00 -1.647305735E+02 -1.127276407E+03  1.139269731E+03  4.750000000E+00  0.00000E+00  9.000E+00
      21     1     1     2   511   502 -1.837688448E+01 -4.039296440E+01 -2.666535271E+02  2.703209296E+02  5.394796609E-06  0.00000E+00  9.000E+00
#rwgt            1           9   4.4575463442852866E-003           1     2833691           0
</event>
<event>
      6   9999  3.45752E-01  1.74678E+01 -1.00000E+00  1.64831E-01
      21    -1     0     0   501   512  0.000000000E+00  0.000000000E+00  3.295471758E+01  3.295471758E+01  0.000000000E+00  0.00000E+00  9.000E+00
      21    -1     0     0   502   503  0.000000000E+00  0.000000000E+00 -1.068026633E+03  1.068026633E+03  0.000000000E+00  0.00000E+00  9.000E+00
      25     1     1     2     0     0 -5.074195658E+01 -6.892525684E+01 -4.690910844E+02  4.929472509E+02  1.250004381E+02  0.00000E+00  9.000E+00
       5     1     1     2   501     0 -5.709427018E+00 -5.708511495E+00  1.331360198E+01  1.627879474E+01  4.750000000E+00  0.00000E+00  9.000E+00
      -5     1     1     2     0   503  3.944555546E+01  7.064283838E+01 -5.595653365E+02  5.654045373E+02  4.750000000E+00  0.00000E+00  9.000E+00
      21     1     1     2   502   512  1.700582813E+01  3.990929956E+00 -1.972909684E+01  2.635076801E+01  8.596304120E-07  0.00000E+00  9.000E+00
#rwgt            1           9   4.0171400912897011E-002           1     2836335           0
</event>
<event>
      6   9999 -3.45752E-01  4.47356E+00 -1.00000E+00  2.38204E-01
      21    -1     0     0   511   502  0.000000000E+00  0.000000000E+00  1.205999874E+02  1.205999874E+02  0.000000000E+00  0.00000E+00  9.000E+00
      21    -1     0     0   502   503  0.000000000E+00  0.000000000E+00 -6.772310648E+02  6.772310648E+02  0.000000000E+00  0.00000E+00  9.000E+00
      25     1     1     2     0     0 -3.199652426E+00 -2.503888421E+00 -6.275605466E+02  6.399018229E+02  1.250023843E+02  0.00000E+00  9.000E+00
       5     1     1     2   501     0 -2.709949178E-01 -3.708648478E-01 -9.139155002E+00  1.031007435E+01  4.750000000E+00  0.00000E+00  9.000E+00
      -5     1     1     2     0   503  5.858492299E-01 -5.444039363E-01 -3.355928840E+01  3.390321419E+01  4.750000000E+00  0.00000E+00  9.000E+00
      21     1     1     2   511   501  2.884798114E+00  3.419157205E+00  1.136279125E+02  1.137159408E+02  3.568322551E-06  0.00000E+00  9.000E+00
#rwgt            1           9  -8.9130811702503655E-005           1     2838630           0
</event>
<event>
      6   9999  3.45752E-01  6.98165E+00 -1.00000E+00  2.05284E-01
      21    -1     0     0   512   502  0.000000000E+00  0.000000000E+00  1.634840196E+01  1.634840196E+01  0.000000000E+00  0.00000E+00  9.000E+00
      21    -1     0     0   502   503  0.000000000E+00  0.000000000E+00 -8.981929255E+02  8.981929255E+02  0.000000000E+00  0.00000E+00  9.000E+00
      25     1     1     2     0     0  5.348868246E+00  1.421347153E+01 -8.174023676E+02  8.270435055E+02  1.249947847E+02  0.00000E+00  9.000E+00
       5     1     1     2   501     0  2.587594530E+00  3.003288106E+00  7.546031706E+00  9.758098145E+00  4.750000000E+00  0.00000E+00  9.000E+00
      -5     1     1     2     0   503 -9.712593862E-01 -1.673782700E+01 -6.681587947E+01  6.905086855E+01  4.750000000E+00  0.00000E+00  9.000E+00
      21     1     1     2   512   501 -6.965203390E+00 -4.789326357E-01 -5.172308191E+00  8.688855319E+00  2.665600750E-07  0.00000E+00  9.000E+00
#rwgt            1           9   2.8735066970976544E-003           1     2842408           0
</event>
<event>
      6   9999  3.45752E-01  2.57442E+01 -1.00000E+00  1.52268E-01
      21    -1     0     0   501   502  0.000000000E+00  0.000000000E+00  5.437183974E+02  5.437183974E+02  0.000000000E+00  0.00000E+00  9.000E+00
      21    -1     0     0   502   511  0.000000000E+00  0.000000000E+00 -8.302993337E+02  8.302993337E+02  0.000000000E+00  0.00000E+00  9.000E+00
      25     1     1     2     0     0 -8.323227236E+01 -1.694169781E+02 -1.917324550E+02  2.966746384E+02  1.249991325E+02  0.00000E+00  9.000E+00
       5     1     1     2   501     0  1.832411672E+01 -1.475052560E+01  4.746595620E+02  4.752658346E+02  4.750000000E+00  0.00000E+00  9.000E+00
      -5     1     1     2     0   503  5.615745418E+01  1.599561840E+02 -4.936971052E+02  5.220144008E+02  4.750000000E+00  0.00000E+00  9.000E+00
      21     1     1     2   503   511  8.750701462E+00  2.421131970E+01 -7.581093809E+01  8.006285726E+01  0.000000000E+00  0.00000E+00  9.000E+00
#rwgt            1           9   1.1412786035339402                1     2846128           0
</event>
<event>
      6   9999  3.45752E-01  1.36693E+02 -1.00000E+00  1.14936E-01
      21    -1     0     0   512   502  0.000000000E+00  0.000000000E+00  7.118374968E+01  7.118374968E+01  0.000000000E+00  0.00000E+00  9.000E+00
      21    -1     0     0   502   503  0.000000000E+00  0.000000000E+00 -2.541451295E+03  2.541451295E+03  0.000000000E+00  0.00000E+00  9.000E+00
      25     1     1     2     0     0 -2.528265350E+01  1.170365706E+02 -5.480819169E+02  5.747638731E+02  1.249918024E+02  0.00000E+00  9.000E+00
       5     1     1     2   501     0 -2.175819556E+02 -1.209883655E+02 -4.530442084E+02  5.169639342E+02  4.750000000E+00  0.00000E+00  9.000E+00
      -5     1     1     2     0   503  1.558316835E+02 -1.014532419E+02 -1.241662724E+03  1.255517884E+03  4.750000000E+00  0.00000E+00  9.000E+00
      21     1     1     2   512   501  8.703292569E+01  1.054050367E+02 -2.274786964E+02  2.653893541E+02  2.697398305E-06  0.00000E+00  9.000E+00
#rwgt            1           9   2.3797434435160414E-002           1     2850752           0
</event>
<event>
      6   9999  3.45752E-01  8.34585E+00 -1.00000E+00  1.95864E-01
      21    -1     0     0   501   502  0.000000000E+00  0.000000000E+00  1.265645005E+01  1.265645005E+01  0.000000000E+00  0.00000E+00  9.000E+00
      21    -1     0     0   511   503  0.000000000E+00  0.000000000E+00 -1.130465085E+03  1.130465085E+03  0.000000000E+00  0.00000E+00  9.000E+00
      25     1     1     2     0     0  2.530337398E+01  3.310749531E+01 -7.897838405E+02  8.006994091E+02  1.249986482E+02  0.00000E+00  9.000E+00
       5     1     1     2   501     0 -7.928169586E-01  2.178600838E-02  3.583306568E+00  6.002634365E+00  4.750000000E+00  0.00000E+00  9.000E+00
      -5     1     1     2     0   503 -2.022422443E+01 -2.596823428E+01 -1.166061603E+02  1.212556290E+02  4.750000000E+00  0.00000E+00  9.000E+00
      21     1     1     2   511   502 -4.286332593E+00 -7.161047032E+00 -2.150019405E+02  2.151638624E+02  2.697398305E-06  0.00000E+00  9.000E+00
#rwgt            1           9   1.3733946675630318E-003           1     2851265           0
</event>
<event>
      6   9999  3.45752E-01  1.62050E+01 -1.00000E+00  1.67514E-01
      21    -1     0     0   501   512  0.000000000E+00  0.000000000E+00  1.216487077E+01  1.216487077E+01  0.000000000E+00  0.00000E+00  9.000E+00
      21    -1     0     0   502   503  0.000000000E+00  0.000000000E+00 -7.926401246E+02  7.926401246E+02  0.000000000E+00  0.00000E+00  9.000E+00
      25     1     1     2     0     0 -1.306104570E+00  1.701486075E+01 -5.756576937E+02  5.893193453E+02  1.249971962E+02  0.00000E+00  9.000E+00
       5     1     1     2   501     0  1.332568154E+00  8.619168396E-01 -8.002875129E-01  5.071646540E+00  4.750000000E+00  0.00000E+00  9.000E+00
      -5     1     1     2     0   503  1.271294527E+01 -7.861373202E+00 -1.839649349E+02  1.846322830E+02  4.750000000E+00  0.00000E+00  9.000E+00
      21     1     1     2   502   512 -1.273940885E+01 -1.001540439E+01 -2.005233780E+01  2.578172054E+01  6.307962682E-07  0.00000E+00  9.000E+00
#rwgt            1           9   3.3459847727878200E-004           1     2854275           0
</event>
<event>
      6   9999  3.45752E-01  1.12783E+01 -1.00000E+00  1.81853E-01
      21    -1     0     0   501   511  0.000000000E+00  0.000000000E+00  2.794366501E+03  2.794366501E+03  0.000000000E+00  0.00000E+00  9.000E+00
      21    -1     0     0   502   503  0.000000000E+00  0.000000000E+00 -5.767335070E+00  5.767335070E+00  0.000000000E+00  0.00000E+00  9.000E+00
      25     1     1     2     0     0 -4.227293011E+00  3.605053518E+01  8.168555895E+02  8.271611430E+02  1.249999651E+02  0.00000E+00  9.000E+00
       5     1     1     2   501     0  1.607741892E+01 -3.503204973E+01  8.203853595E+02  8.213041024E+02  4.750000000E+00  0.00000E+00  9.000E+00
      -5     1     1     2     0   503 -7.160549403E-01  7.796566830E-01  4.671521238E+01  4.696801217E+01  4.750000000E+00  0.00000E+00  9.000E+00
      21     1     1     2   502   511 -1.113407097E+01 -1.798142134E+00  1.104643005E+03  1.104700579E+03  1.525878906E-05  0.00000E+00  9.000E+00
#rwgt            1           9   4.5373085857521901E-003           1     2856200           0
</event>
<event>
      6   9999  3.45752E-01  1.60308E+01 -1.00000E+00  1.67907E-01
      21    -1     0     0   502   503  0.000000000E+00  0.000000000E+00  3.250658707E+01  3.250658707E+01  0.000000000E+00  0.00000E+00  9.000E+00
      21    -1     0     0   501   512  0.000000000E+00  0.000000000E+00 -1.209343411E+03  1.209343411E+03  0.000000000E+00  0.00000E+00  9.000E+00
      25     1     1     2     0     0  2.885677112E+01 -1.667365117E+02 -5.295974194E+02  5.698529175E+02  1.250005733E+02  0.00000E+00  9.000E+00
       5     1     1     2   501     0  1.936073518E+01  4.815669159E+01 -1.658844337E+02  1.738795930E+02  4.750000000E+00  0.00000E+00  9.000E+00
      -5     1     1     2     0   503 -4.154435920E+01  1.040039852E+02 -4.229988306E+02  4.375995154E+02  4.750000000E+00  0.00000E+00  9.000E+00
      21     1     1     2   502   512 -6.673147100E+00  1.457583497E+01 -5.835614001E+01  6.051797199E+01  9.536743164E-07  0.00000E+00  9.000E+00
#rwgt            1           9   6.9534705899403527E-004           1     2859021           0
</event>
<event>
      6   9999  3.45752E-01  9.96604E+00 -1.00000E+00  1.87349E-01
      21    -1     0     0   502   503  0.000000000E+00  0.000000000E+00  7.493185087E+00  7.493185087E+00  0.000000000E+00  0.00000E+00  9.000E+00
      21    -1     0     0   511   502  0.000000000E+00  0.000000000E+00 -8.742659459E+02  8.742659459E+02  0.000000000E+00  0.00000E+00  9.000E+00
      25     1     1     2     0     0  3.336271291E+00 -6.271654182E-01 -6.256307921E+02  6.380047387E+02  1.249985379E+02  0.00000E+00  9.000E+00
       5     1     1     2   501     0 -4.298036938E+00 -1.305862203E+00 -2.315493607E+01  2.406017377E+01  4.750000000E+00  0.00000E+00  9.000E+00
      -5     1     1     2     0   503  9.701802173E+00  6.721953020E+00 -5.716652233E+01  5.856520633E+01  4.750000000E+00  0.00000E+00  9.000E+00
      21     1     1     2   511   501 -8.740036526E+00 -4.788925398E+00 -1.608205103E+02  1.611290122E+02  1.907348633E-06  0.00000E+00  9.000E+00
#rwgt            1           9   7.5649924882268363E-002           1     2861524           0
</event>
<event>
      6   9999  3.45752E-01  1.67470E+01 -1.00000E+00  1.66327E-01
      21    -1     0     0   501   502  0.000000000E+00  0.000000000E+00  5.023235730E+02  5.023235730E+02  0.000000000E+00  0.00000E+00  9.000E+00
      21    -1     0     0   512   503  0.000000000E+00  0.000000000E+00 -3.346185487E+02  3.346185487E+02  0.000000000E+00  0.00000E+00  9.000E+00
      25     1     1     2     0     0  8.657369651E+01  1.343949674E+02  2.553630213E+02  3.261780541E+02  1.249993526E+02  0.00000E+00  9.000E+00
       5     1     1     2   501     0 -3.543797972E+00 -1.473173579E+00  1.833082915E+02  1.834099806E+02  4.750000000E+00  0.00000E+00  9.000E+00
      -5     1     1     2     0   503 -6.663745858E+01 -1.363496414E+02 -1.829088152E+02  2.377182635E+02  4.750000000E+00  0.00000E+00  9.000E+00
      21     1     1     2   512   502 -1.639243996E+01  3.427847669E+00 -8.805747343E+01  8.963582350E+01  0.000000000E+00  0.00000E+00  9.000E+00
#rwgt            1           9  0.13305841398773172                1     2863675           0
</event>
<event>
      6   9999 -3.45752E-01  2.03591E+01 -1.00000E+00  1.59623E-01
      21    -1     0     0   501   502  0.000000000E+00  0.000000000E+00  3.698877398E+01  3.698877398E+01  0.000000000E+00  0.00000E+00  9.000E+00
      21    -1     0     0   502   511  0.000000000E+00  0.000000000E+00 -1.889694802E+03  1.889694802E+03  0.000000000E+00  0.00000E+00  9.000E+00
      25     1     1     2     0     0 -8.416333139E+01 -8.549503910E+01 -8.187944133E+02  8.369241352E+02  1.249993951E+02  0.00000E+00  9.000E+00
       5     1     1     2   501     0 -6.649882907E+00 -2.900675943E+00  1.877778064E+01  2.068338486E+01  4.750000000E+00  0.00000E+00  9.000E+00
      -5     1     1     2     0   503  8.572995846E+01  6.868144060E+01 -3.677730958E+02  3.838572372E+02  4.750000000E+00  0.00000E+00  9.000E+00
      21     1     1     2   503   511  5.083255837E+00  1.971427444E+01 -6.849162999E+02  6.852188190E+02  0.000000000E+00  0.00000E+00  9.000E+00
#rwgt            1           9  -3.6519553990684361E-005           1     2867202           0
</event>
<event>
      6   9999  3.45752E-01  7.69108E+00 -1.00000E+00  2.00062E-01
      21    -1     0     0   501   502  0.000000000E+00  0.000000000E+00  2.384664510E+01  2.384664510E+01  0.000000000E+00  0.00000E+00  9.000E+00
      21    -1     0     0   512   503  0.000000000E+00  0.000000000E+00 -2.811333351E+02  2.811333351E+02  0.000000000E+00  0.00000E+00  9.000E+00
      25     1     1     2     0     0  3.797125998E+00  8.027847547E+00 -2.236591767E+02  2.563800968E+02  1.250138480E+02  0.00000E+00  9.000E+00
       5     1     1     2   501     0 -4.660812759E-01  5.776277336E-01  4.302059452E+00  6.451441783E+00  4.750000000E+00  0.00000E+00  9.000E+00
      -5     1     1     2     0   503 -2.453398763E-02 -1.661431629E+00 -2.016801932E+00  5.421341809E+00  4.750000000E+00  0.00000E+00  9.000E+00
      21     1     1     2   512   502 -3.306510735E+00 -6.944043652E+00 -3.591277086E+01  3.672709989E+01  0.000000000E+00  0.00000E+00  9.000E+00
#rwgt            1           9   1.9675700166223923E-003           1     2869674           0
</event>
<event>
      6   9999  3.45752E-01  8.72523E+01 -1.00000E+00  1.23007E-01
      21    -1     0     0   501   502  0.000000000E+00  0.000000000E+00  9.963318189E+01  9.963318189E+01  0.000000000E+00  0.00000E+00  9.000E+00
      21    -1     0     0   511   503  0.000000000E+00  0.000000000E+00 -3.180962589E+03  3.180962589E+03  0.000000000E+00  0.00000E+00  9.000E+00
      25     1     1     2     0     0 -1.388899587E+02  5.583629238E+01 -6.961240420E+02  7.229263454E+02  1.250028275E+02  0.00000E+00  9.000E+00
       5     1     1     2   501     0 -1.122145188E+02  5.239313380E+01 -4.850751284E+01  1.330889928E+02  4.750000000E+00  0.00000E+00  9.000E+00
      -5     1     1     2     0   503  3.352273408E+02 -1.313875717E+02 -7.151661751E+02  8.007029940E+02  4.750000000E+00  0.00000E+00  9.000E+00
      21     1     1     2   511   502 -8.412286323E+01  2.315814548E+01 -1.621531677E+03  1.623877438E+03  2.157918644E-05  0.00000E+00  9.000E+00
#rwgt            1           9   4.5046604570151673E-002           1     2872509           0
</event>
<event>
      6   9999  3.45752E-01  3.33622E+01 -1.00000E+00  1.44914E-01
      21    -1     0     0   501   502  0.000000000E+00  0.000000000E+00  5.297741382E+02  5.297741382E+02  0.000000000E+00  0.00000E+00  9.000E+00
      21    -1     0     0   502   512  0.000000000E+00  0.000000000E+00 -4.565999929E+02  4.565999929E+02  0.000000000E+00  0.00000E+00  9.000E+00
      25     1     1     2     0     0  1.079406811E+01  1.112196818E+01 -2.361429132E+02  2.676367137E+02  1.250028999E+02  0.00000E+00  9.000E+00
       5     1     1     2   501     0  2.641827614E+00 -2.434144290E+00  5.038717754E+02  5.039069685E+02  4.750000000E+00  0.00000E+00  9.000E+00
      -5     1     1     2     0   503  1.813002445E+01  2.111772537E+00 -1.506463120E+00  1.892060520E+01  4.750000000E+00  0.00000E+00  9.000E+00
      21     1     1     2   503   512 -3.156592018E+01 -1.079959643E+01 -1.930482537E+02  1.959098437E+02  3.814697266E-06  0.00000E+00  9.000E+00
#rwgt            1           9   1.3007490331165966E-003           1     2874012           0
</event>
<event>
      6   9999  3.45752E-01  6.45167E+00 -1.00000E+00  2.09759E-01
      21    -1     0     0   501   502  0.000000000E+00  0.000000000E+00  3.343649701E+01  3.343649701E+01  0.000000000E+00  0.00000E+00  9.000E+00
      21    -1     0     0   502   511  0.000000000E+00  0.000000000E+00 -1.687912094E+03  1.687912094E+03  0.000000000E+00  0.00000E+00  9.000E+00
      25     1     1     2     0     0  3.086154338E+01 -6.704567026E+00 -1.529969982E+03  1.535392589E+03  1.249994831E+02  0.00000E+00  9.000E+00
       5     1     1     2   501     0 -4.726637991E+00  5.852261630E+00  2.712264890E+01  2.854453812E+01  4.750000000E+00  0.00000E+00  9.000E+00
      -5     1     1     2     0   503 -3.145191049E+01 -2.801936291E+00 -9.097857323E+01  9.641958726E+01  4.750000000E+00  0.00000E+00  9.000E+00
      21     1     1     2   503   511  5.317005095E+00  3.654241687E+00 -6.064969140E+01  6.099187726E+01  0.000000000E+00  0.00000E+00  9.000E+00
#rwgt            1           9   5.0761896927837636E-005           1     2876121           0
</event>
<event>
      6   9999 -3.45752E-01  8.04950E+00 -1.00000E+00  1.97699E-01
      21    -1     0     0   501   502  0.000000000E+00  0.000000000E+00  8.096846280E+00  8.096846280E+00  0.000000000E+00  0.00000E+00  9.000E+00
      21    -1     0     0   502   512  0.000000000E+00  0.000000000E+00 -9.286576568E+02  9.286576568E+02  0.000000000E+00  0.00000E+00  9.000E+00
      25     1     1     2     0     0  1.542215223E-01 -3.138704607E+00 -7.512945754E+02  7.616285859E+02  1.249987544E+02  0.00000E+00  9.000E+00
       5     1     1     2   501     0 -5.924687848E-01 -3.985900385E-02  3.832232194E-01  4.802287792E+00  4.750000000E+00  0.00000E+00  9.000E+00
      -5     1     1     2     0   503  8.485520255E-02 -4.863175318E+00 -9.451961937E+01  9.476380438E+01  4.750000000E+00  0.00000E+00  9.000E+00
      21     1     1     2   503   512  3.533920600E-01  8.041738928E+00 -7.512983895E+01  7.555982498E+01  0.000000000E+00  0.00000E+00  9.000E+00
#rwgt            1           9 -0.28656647244895422                1     2881193           0
</event>
<event>
      6   9999  3.45752E-01  6.73665E+00 -1.00000E+00  2.07284E-01
      21    -1     0     0   501   502  0.000000000E+00  0.000000000E+00  2.393827525E+01  2.393827525E+01  0.000000000E+00  0.00000E+00  9.000E+00
      21    -1     0     0   511   503  0.000000000E+00  0.000000000E+00 -9.907515322E+02  9.907515322E+02  0.000000000E+00  0.00000E+00  9.000E+00
      25     1     1     2     0     0 -5.153281171E+01 -7.924727428E+00 -7.994237835E+02  8.108154513E+02  1.249995135E+02  0.00000E+00  9.000E+00
       5     1     1     2   501     0 -3.686537310E-02 -4.344894092E+00  1.338753631E+01  1.485490128E+01  4.750000000E+00  0.00000E+00  9.000E+00
      -5     1     1     2     0   503  4.732476985E+01  7.038630502E+00 -1.501485800E+02  1.576589190E+02  4.750000000E+00  0.00000E+00  9.000E+00
      21     1     1     2   511   502  4.244907233E+00  5.230991019E+00 -3.062842973E+01  3.136053590E+01  4.768371582E-07  0.00000E+00  9.000E+00
#rwgt            1           9   1.1796003030469180E-004           1     2883904           0
</event>
<event>
      6   9999  3.45752E-01  3.60687E+00 -1.00000E+00  2.57532E-01
      21    -1     0     0   512   502  0.000000000E+00  0.000000000E+00  4.156324208E+01  4.156324208E+01  0.000000000E+00  0.00000E+00  9.000E+00
      21    -1     0     0   502   503  0.000000000E+00  0.000000000E+00 -3.521860442E+02  3.521860442E+02  0.000000000E+00  0.00000E+00  9.000E+00
      25     1     1     2     0     0 -1.654224799E+00  1.042496000E+01 -1.922067617E+02  2.294871940E+02  1.249380516E+02  0.00000E+00  9.000E+00
       5     1     1     2   501     0 -3.958894630E-01 -3.771890734E-02  6.474638505E+00  8.039999686E+00  4.750000000E+00  0.00000E+00  9.000E+00
      -5     1     1     2     0   503 -8.384088990E-01 -8.227162428E+00 -1.401845925E+02  1.405086176E+02  4.750000000E+00  0.00000E+00  9.000E+00
      21     1     1     2   512   501  2.888523161E+00 -2.160078664E+00  1.529391356E+01  1.571347504E+01  4.768371582E-07  0.00000E+00  9.000E+00
#rwgt            1           9   308.48016643829550                1     2888189           0
</event>
<event>
      6   9999  3.45752E-01  3.74975E+00 -1.00000E+00  2.53804E-01
      21    -1     0     0   501   502  0.000000000E+00  0.000000000E+00  1.119646603E+01  1.119646603E+01  0.000000000E+00  0.00000E+00  9.000E+00
      21    -1     0     0   511   503  0.000000000E+00  0.000000000E+00 -8.578190720E+02  8.578190720E+02  0.000000000E+00  0.00000E+00  9.000E+00
      25     1     1     2     0     0  3.676430556E+00  1.484392080E+01 -7.154780297E+02  7.264779030E+02  1.250098972E+02  0.00000E+00  9.000E+00
       5     1     1     2   501     0 -2.647797892E+00  6.053487136E-01  3.604806038E+00  6.552435220E+00  4.750000000E+00  0.00000E+00  9.000E+00
      -5     1     1     2     0   503 -2.805446277E+00 -1.214721459E+01 -7.975623969E+01  8.086436558E+01  4.750000000E+00  0.00000E+00  9.000E+00
      21     1     1     2   511   502  1.776813613E+00 -3.302054927E+00 -5.499314261E+01  5.512083424E+01  9.536743164E-07  0.00000E+00  9.000E+00
#rwgt            1           9   1.5141330812391653E-004           1     2893261           0
</event>
<event>
      6   9999  3.45752E-01  1.81972E+02 -1.00000E+00  1.10332E-01
      21    -1     0     0   512   502  0.000000000E+00  0.000000000E+00  5.609776206E+01  5.609776206E+01  0.000000000E+00  0.00000E+00  9.000E+00
       1    -1     0     0   501     0  0.000000000E+00  0.000000000E+00 -1.737338655E+03  1.737338655E+03  0.000000000E+00  0.00000E+00  9.000E+00
      25     1     1     2     0     0 -9.776710752E+01  2.150197017E+01 -1.217942790E+03  1.228425828E+03  1.249985335E+02  0.00000E+00  9.000E+00
       5     1     1     2   501     0 -7.256014001E+01  2.064608625E+01 -1.365786881E+01  7.681363600E+01  4.750000000E+00  0.00000E+00  9.000E+00
      -5     1     1     2     0   502 -6.510771930E+00  7.714421084E-01 -2.237982905E+01  2.379925466E+01  4.750000000E+00  0.00000E+00  9.000E+00
       1     1     1     2   512     0  1.768380195E+02 -4.291949853E+01 -4.272604055E+02  4.643976987E+02  5.394796609E-06  0.00000E+00  9.000E+00
#rwgt            1           1   1.8759667878459208E-006           1     2898723           0
</event>
<event>
      6   9999  3.45752E-01  7.26468E+00 -1.00000E+00  2.03106E-01
      21    -1     0     0   501   511  0.000000000E+00  0.000000000E+00  9.703573086E+02  9.703573086E+02  0.000000000E+00  0.00000E+00  9.000E+00
      21    -1     0     0   502   503  0.000000000E+00  0.000000000E+00 -7.969014470E+00  7.969014470E+00  0.000000000E+00  0.00000E+00  9.000E+00
      25     1     1     2     0     0  6.546103865E+00 -8.766150005E+00  5.555972634E+02  5.695741978E+02  1.249269820E+02  0.00000E+00  9.000E+00
       5     1     1     2   501     0  1.220011711E+00  1.825053200E-02  1.451751042E+02  1.452579160E+02  4.750000000E+00  0.00000E+00  9.000E+00
      -5     1     1     2     0   503 -1.938647486E+00  4.410137098E+00  1.202430514E+01  1.379688651E+01  4.750000000E+00  0.00000E+00  9.000E+00
      21     1     1     2   502   511 -5.827468089E+00  4.337762374E+00  2.495916214E+02  2.496973229E+02  2.697398305E-06  0.00000E+00  9.000E+00
#rwgt            1           9   9.7746431193956147E-005           1     2899046           0
</event>
<event>
      6   9999  3.45752E-01  3.26217E+01 -1.00000E+00  1.45522E-01
      21    -1     0     0   501   512  0.000000000E+00  0.000000000E+00  3.733281882E+02  3.733281882E+02  0.000000000E+00  0.00000E+00  9.000E+00
      21    -1     0     0   502   503  0.000000000E+00  0.000000000E+00 -1.070366479E+03  1.070366479E+03  0.000000000E+00  0.00000E+00  9.000E+00
      25     1     1     2     0     0 -3.496450227E+01  3.349737415E+01 -8.641043900E+02  8.744372904E+02  1.249783486E+02  0.00000E+00  9.000E+00
       5     1     1     2   501     0  1.470043041E+01  6.818198086E+00  2.569451280E+01  3.074672287E+01  4.750000000E+00  0.00000E+00  9.000E+00
      -5     1     1     2     0   503  5.236232631E+01 -3.449511672E+01 -1.927767742E+02  2.027737001E+02  4.750000000E+00  0.00000E+00  9.000E+00
      21     1     1     2   502   512 -3.209825444E+01 -5.820455509E+00  3.341483603E+02  3.357369540E+02  0.000000000E+00  0.00000E+00  9.000E+00
#rwgt            1           9   2.2114380456730545                1     2901569           0
</event>
<event>
      6   9999 -3.45752E-01  3.20288E+01 -1.00000E+00  1.46023E-01
      21    -1     0     0   511   502  0.000000000E+00  0.000000000E+00  3.555805092E+01  3.555805092E+01  0.000000000E+00  0.00000E+00  9.000E+00
      21    -1     0     0   502   503  0.000000000E+00  0.000000000E+00 -1.107498695E+03  1.107498695E+03  0.000000000E+00  0.00000E+00  9.000E+00
      25     1     1     2     0     0  1.238075263E+02  6.312010128E+01 -5.257459756E+02  5.579842254E+02  1.250004569E+02  0.00000E+00  9.000E+00
       5     1     1     2   501     0 -1.325020582E+02 -3.606588848E+01 -4.880101777E+02  5.069852461E+02  4.750000000E+00  0.00000E+00  9.000E+00
      -5     1     1     2     0   503  6.147564101E+00  4.873169950E+00 -4.044964268E+01  4.147621515E+01  4.750000000E+00  0.00000E+00  9.000E+00
      21     1     1     2   511   501  2.546967806E+00 -3.192738275E+01 -1.773484792E+01  3.661105905E+01  1.011524364E-06  0.00000E+00  9.000E+00
#rwgt            1           9  -6.5635024199829531E-004           1     2903842           0
</event>
<event>
      6   9999  3.45752E-01  5.76247E+01 -1.00000E+00  1.31570E-01
      21    -1     0     0   512   502  0.000000000E+00  0.000000000E+00  6.486756784E+01  6.486756784E+01  0.000000000E+00  0.00000E+00  9.000E+00
      21    -1     0     0   502   503  0.000000000E+00  0.000000000E+00 -1.234634416E+03  1.234634416E+03  0.000000000E+00  0.00000E+00  9.000E+00
      25     1     1     2     0     0 -3.409657316E+01 -4.556990502E+01 -9.303635805E+02  9.404482574E+02  1.250093618E+02  0.00000E+00  9.000E+00
       5     1     1     2   501     0 -2.714182190E+01 -3.919667751E+00  2.863740343E+01  3.993376599E+01  4.750000000E+00  0.00000E+00  9.000E+00
      -5     1     1     2     0   503  1.084698250E+01  2.153754099E+01 -2.597402043E+02  2.609004771E+02  4.750000000E+00  0.00000E+00  9.000E+00
      21     1     1     2   512   501  5.039141256E+01  2.795203178E+01 -8.300467302E+00  5.821948383E+01  7.817075878E-07  0.00000E+00  9.000E+00
#rwgt            1           9   1.3439730735803649E-003           1     2906127           0
</event>
<event>
      6   9999  3.45752E-01  6.08988E+00 -1.00000E+00  2.13162E-01
      21    -1     0     0   502   511  0.000000000E+00  0.000000000E+00  3.006012203E+01  3.006012203E+01  0.000000000E+00  0.00000E+00  9.000E+00
      21    -1     0     0   501   502  0.000000000E+00  0.000000000E+00 -7.653814496E+02  7.653814496E+02  0.000000000E+00  0.00000E+00  9.000E+00
      25     1     1     2     0     0  1.125723494E+01 -2.218264460E+01 -7.087168665E+02  7.200854894E+02  1.249988806E+02  0.00000E+00  9.000E+00
       5     1     1     2   501     0  5.225980377E-01 -5.296227728E-01 -5.252767596E+00  7.120932271E+00  4.750000000E+00  0.00000E+00  9.000E+00
      -5     1     1     2     0   503 -7.172949495E+00  1.872939982E+01 -4.195845126E+01  4.674736093E+01  4.750000000E+00  0.00000E+00  9.000E+00
      21     1     1     2   503   511 -4.606883481E+00  3.982867547E+00  2.060675779E+01  2.148778900E+01  1.563415176E-06  0.00000E+00  9.000E+00
#rwgt            1           9   7.4513498535024118E-005           1     2907563           0
</event>
<event>
      6   9999  3.45752E-01  9.53307E+00 -1.00000E+00  1.89408E-01
      21    -1     0     0   501   512  0.000000000E+00  0.000000000E+00  1.187083780E+02  1.187083780E+02  0.000000000E+00  0.00000E+00  9.000E+00
      21    -1     0     0   502   503  0.000000000E+00  0.000000000E+00 -1.090004841E+03  1.090004841E+03  0.000000000E+00  0.00000E+00  9.000E+00
      25     1     1     2     0     0 -2.716556933E+01  1.708464940E+01 -7.395716717E+02  7.507471325E+02  1.250005837E+02  0.00000E+00  9.000E+00
       5     1     1     2   501     0 -4.760539926E+00 -4.293812088E+00  1.475521491E+01  1.677433843E+01  4.750000000E+00  0.00000E+00  9.000E+00
      -5     1     1     2     0   503  2.239509114E+01 -1.298850203E+01 -3.430972181E+02  3.441053688E+02  4.750000000E+00  0.00000E+00  9.000E+00
      21     1     1     2   502   512  9.531018111E+00  1.976647234E-01  9.661721198E+01  9.708637921E+01  2.336015456E-06  0.00000E+00  9.000E+00
#rwgt            1           9   6.7836102319661698E-004           1     2911339           0
</event>
<event>
      6   9999  3.45752E-01  9.96858E+00 -1.00000E+00  1.87338E-01
      21    -1     0     0   511   502  0.000000000E+00  0.000000000E+00  2.372477589E+01  2.372477589E+01  0.000000000E+00  0.00000E+00  9.000E+00
      21    -1     0     0   502   503  0.000000000E+00  0.000000000E+00 -1.042679343E+03  1.042679343E+03  0.000000000E+00  0.00000E+00  9.000E+00
      25     1     1     2     0     0 -1.700754756E+01 -1.310330616E+01 -1.956233886E+02  2.331400498E+02  1.249992774E+02  0.00000E+00  9.000E+00
       5     1     1     2   501     0 -4.706011305E-01 -1.693215035E+00  1.755052649E+00  5.360144810E+00  4.750000000E+00  0.00000E+00  9.000E+00
      -5     1     1     2     0   503  1.652564529E+01  4.873553835E+00 -8.074314085E+02  8.076291787E+02  4.750000000E+00  0.00000E+00  9.000E+00
      21     1     1     2   511   501  9.525034026E-01  9.922967362E+00 -1.765482293E+01  2.027474579E+01  3.371747881E-07  0.00000E+00  9.000E+00
#rwgt            1           9   2.1728654785515760E-002           1     2914372           0
</event>
<event>
      6   9999  3.45752E-01  8.98766E+00 -1.00000E+00  1.92212E-01
      21    -1     0     0   502   503  0.000000000E+00  0.000000000E+00  2.257801947E+03  2.257801947E+03  0.000000000E+00  0.00000E+00  9.000E+00
      21    -1     0     0   501   512  0.000000000E+00  0.000000000E+00 -3.251962227E+00  3.251962227E+00  0.000000000E+00  0.00000E+00  9.000E+00
      25     1     1     2     0     0 -8.173174459E+00  1.575212429E+01  1.972885560E+03  1.976915572E+03  1.249112318E+02  0.00000E+00  9.000E+00
       5     1     1     2   501     0 -3.574951390E-02  2.649131408E-01  1.060405018E+02  1.061471714E+02  4.750000000E+00  0.00000E+00  9.000E+00
      -5     1     1     2     0   503  5.009852239E+00 -7.617995776E+00  1.567475533E+02  1.570843418E+02  4.750000000E+00  0.00000E+00  9.000E+00
      21     1     1     2   502   512  3.199071734E+00 -8.399041656E+00  1.887636967E+01  2.090682407E+01  4.768371582E-07  0.00000E+00  9.000E+00
#rwgt            1           9   6.2266890683952301E-004           1     2917520           0
</event>
<event>
      6   9999  3.45752E-01  2.71708E+01 -1.00000E+00  1.50676E-01
      21    -1     0     0   501   502  0.000000000E+00  0.000000000E+00  5.812608550E+00  5.812608550E+00  0.000000000E+00  0.00000E+00  9.000E+00
      21    -1     0     0   502   511  0.000000000E+00  0.000000000E+00 -2.727820595E+03  2.727820595E+03  0.000000000E+00  0.00000E+00  9.000E+00
      25     1     1     2     0     0  1.046083106E+01  3.804828082E+00 -9.625918825E+02  9.707385012E+02  1.250047992E+02  0.00000E+00  9.000E+00
       5     1     1     2   501     0  1.898050209E+00  2.009444772E+00 -6.120948068E+00  8.226115009E+00  4.750000000E+00  0.00000E+00  9.000E+00
      -5     1     1     2     0   503  9.037922457E+00  1.093181913E+01 -9.665459238E+01  9.780522195E+01  4.750000000E+00  0.00000E+00  9.000E+00
      21     1     1     2   503   511 -2.139680372E+01 -1.674609199E+01 -1.656640563E+03  1.656863365E+03  3.051757812E-05  0.00000E+00  9.000E+00
#rwgt            1           9   4.3719831768161193E-003           1     2919470           0
</event>
<event>
      6   9999  3.45752E-01  1.51030E+01 -1.00000E+00  1.70114E-01
      21    -1     0     0   501   502  0.000000000E+00  0.000000000E+00  2.884449882E+01  2.884449882E+01  0.000000000E+00  0.00000E+00  9.000E+00
      21    -1     0     0   512   503  0.000000000E+00  0.000000000E+00 -2.988878297E+02  2.988878297E+02  0.000000000E+00  0.00000E+00  9.000E+00
      25     1     1     2     0     0 -6.145406852E+00  4.493176823E-01 -1.799862502E+02  2.192186434E+02  1.249951816E+02  0.00000E+00  9.000E+00
       5     1     1     2   501     0  1.054294378E+00 -1.925839408E+00  4.808378036E+00  7.106573956E+00  4.750000000E+00  0.00000E+00  9.000E+00
      -5     1     1     2     0   503  1.643495167E+01 -8.494272835E+00 -3.746427279E+01  4.205228345E+01  4.750000000E+00  0.00000E+00  9.000E+00
      21     1     1     2   512   502 -1.134383920E+01  9.970794561E+00 -5.740118596E+01  5.935482779E+01  1.168007728E-06  0.00000E+00  9.000E+00
#rwgt            1           9   7.4440905590802121E-005           1     2920420           0
</event>
<event>
      6   9999 -3.45752E-01  1.13045E+01 -1.00000E+00  1.81754E-01
      21    -1     0     0   511   502  0.000000000E+00  0.000000000E+00  5.055159822E+01  5.055159822E+01  0.000000000E+00  0.00000E+00  9.000E+00
      21    -1     0     0   502   503  0.000000000E+00  0.000000000E+00 -9.745052381E+02  9.745052381E+02  0.000000000E+00  0.00000E+00  9.000E+00
      25     1     1     2     0     0  7.716289070E+00  2.240196746E+01 -9.226440270E+02  9.313747403E+02  1.250020684E+02  0.00000E+00  9.000E+00
       5     1     1     2   501     0  1.888646548E-01  6.750608625E+00  6.673101826E+00  1.061598675E+01  4.750000000E+00  0.00000E+00  9.000E+00
      -5     1     1     2     0   503 -7.257978630E+00 -1.786662089E+01 -4.241010092E+01  4.683026325E+01  4.750000000E+00  0.00000E+00  9.000E+00
      21     1     1     2   511   501 -6.471750948E-01 -1.128595520E+01  3.442738616E+01  3.623584604E+01  1.784161275E-06  0.00000E+00  9.000E+00
#rwgt            1           9  -3.4757797733052917E-002           1     2922407           0
</event>
<event>
      6   9999  3.45752E-01  1.05940E+01 -1.00000E+00  1.84592E-01
      21    -1     0     0   501   502  0.000000000E+00  0.000000000E+00  8.054695242E+02  8.054695242E+02  0.000000000E+00  0.00000E+00  9.000E+00
      21    -1     0     0   502   512  0.000000000E+00  0.000000000E+00 -3.993585105E+02  3.993585105E+02  0.000000000E+00  0.00000E+00  9.000E+00
      25     1     1     2     0     0 -6.017993068E+00  2.355555839E+00  1.537825646E+02  1.982817902E+02  1.249993050E+02  0.00000E+00  9.000E+00
       5     1     1     2   501     0  1.691470107E+00  3.898356427E+00  6.192637245E+02  6.192965212E+02  4.750000000E+00  0.00000E+00  9.000E+00
      -5     1     1     2     0   503  5.672570498E-01  3.650687313E+00  9.184764460E+00  1.098051440E+01  4.750000000E+00  0.00000E+00  9.000E+00
      21     1     1     2   503   512  3.759265911E+00 -9.904599579E+00 -3.761200399E+02  3.762692089E+02  0.000000000E+00  0.00000E+00  9.000E+00
#rwgt            1           9   9.7077739085023637E-002           1     2925031           0
</event>
<event>
      6   9999  3.45752E-01  6.16848E+00 -1.00000E+00  2.12396E-01
      21    -1     0     0   501   502  0.000000000E+00  0.000000000E+00  7.240335806E+00  7.240335806E+00  0.000000000E+00  0.00000E+00  9.000E+00
      21    -1     0     0   511   503  0.000000000E+00  0.000000000E+00 -7.984625227E+02  7.984625227E+02  0.000000000E+00  0.00000E+00  9.000E+00
      25     1     1     2     0     0 -1.442437851E+00 -3.890718111E+00 -6.818396623E+02  6.932176753E+02  1.250128071E+02  0.00000E+00  9.000E+00
       5     1     1     2   501     0  2.360619636E-01  5.016415594E-02 -9.854209734E+00  1.094194641E+01  4.750000000E+00  0.00000E+00  9.000E+00
      -5     1     1     2     0   503  7.015322350E+00  1.765403664E+00 -2.020386266E+01  2.197930764E+01  4.750000000E+00  0.00000E+00  9.000E+00
      21     1     1     2   511   502 -5.808946462E+00  2.075150291E+00 -7.932445220E+01  7.956392917E+01  9.536743164E-07  0.00000E+00  9.000E+00
#rwgt            1           9   8.3974554836633360E-004           1     2927886           0
</event>
<event>
      6   9999  3.45752E-01  9.04636E+00 -1.00000E+00  1.91898E-01
      21    -1     0     0   501   502  0.000000000E+00  0.000000000E+00  4.777715298E+01  4.777715298E+01  0.000000000E+00  0.00000E+00  9.000E+00
      21    -1     0     0   502   512  0.000000000E+00  0.000000000E+00 -1.546648791E+02  1.546648791E+02  0.000000000E+00  0.00000E+00  9.000E+00
      25     1     1     2     0     0  8.046904369E+00 -7.899712875E+00 -8.479673572E+01  1.514673483E+02  1.249988524E+02  0.00000E+00  9.000E+00
       5     1     1     2   501     0 -6.573882276E-01 -1.649103121E-01  6.736069022E+00  8.270216476E+00  4.750000000E+00  0.00000E+00  9.000E+00
      -5     1     1     2     0   503 -1.312440967E+01  1.068364391E+00 -1.690872200E+00  1.410010923E+01  4.750000000E+00  0.00000E+00  9.000E+00
      21     1     1     2   503   512  5.734893524E+00  6.996258796E+00 -2.713618725E+01  2.860435805E+01  0.000000000E+00  0.00000E+00  9.000E+00
#rwgt            1           9   6.2365063822070796                1     2931547           0
</event>
<event>
      6   9999  3.45752E-01  2.84210E+01 -1.00000E+00  1.49373E-01
      21    -1     0     0   501   502  0.000000000E+00  0.000000000E+00  8.883858584E+01  8.883858584E+01  0.000000000E+00  0.00000E+00  9.000E+00
      21    -1     0     0   502   511  0.000000000E+00  0.000000000E+00 -1.666261242E+03  1.666261242E+03  0.000000000E+00  0.00000E+00  9.000E+00
      25     1     1     2     0     0 -6.712422562E+01 -1.135950845E+02 -1.552124151E+02  2.390083655E+02  1.249984003E+02  0.00000E+00  9.000E+00
       5     1     1     2   501     0  1.390989761E+00  1.175293163E+00  3.991380707E+01  4.023668303E+01  4.750000000E+00  0.00000E+00  9.000E+00
      -5     1     1     2     0   503  9.287091631E+01  1.208637534E+02 -1.389884399E+03  1.398225396E+03  4.750000000E+00  0.00000E+00  9.000E+00
      21     1     1     2   503   511 -2.713768045E+01 -8.443962081E+00 -7.223964966E+01  7.762938347E+01  1.348699152E-06  0.00000E+00  9.000E+00
#rwgt            1           9   2.6985699321316819E-004           1     2933920           0
</event>
<event>
      6   9999  3.45752E-01  1.85655E+01 -1.00000E+00  1.62717E-01
      21    -1     0     0   501   502  0.000000000E+00  0.000000000E+00  6.956557824E+02  6.956557824E+02  0.000000000E+00  0.00000E+00  9.000E+00
      21    -1     0     0   502   512  0.000000000E+00  0.000000000E+00 -1.247136124E+02  1.247136124E+02  0.000000000E+00  0.00000E+00  9.000E+00
      25     1     1     2     0     0  8.545795243E+00  5.603257071E+00  4.917690417E+02  5.075097378E+02  1.249996658E+02  0.00000E+00  9.000E+00
       5     1     1     2   501     0 -2.370886069E+00 -8.063783070E-01  1.629207205E+02  1.630091869E+02  4.750000000E+00  0.00000E+00  9.000E+00
      -5     1     1     2     0   503 -2.151194264E+01 -1.525888366E+01  2.671427830E+01  3.783929666E+01  4.750000000E+00  0.00000E+00  9.000E+00
      21     1     1     2   503   512  1.533703347E+01  1.046200489E+01 -1.104618705E+02  1.120111735E+02  4.046097457E-06  0.00000E+00  9.000E+00
#rwgt            1           9   3.8509952800711997                1     2936686           0
</event>
<event>
      6   9999  3.45752E-01  2.93548E+01 -1.00000E+00  1.48451E-01
      21    -1     0     0   511   502  0.000000000E+00  0.000000000E+00  7.706329627E+01  7.706329627E+01  0.000000000E+00  0.00000E+00  9.000E+00
      21    -1     0     0   502   503  0.000000000E+00  0.000000000E+00 -4.880039244E+03  4.880039244E+03  0.000000000E+00  0.00000E+00  9.000E+00
      25     1     1     2     0     0  6.458588646E+01  1.187502883E+02 -1.274228613E+02  2.239064590E+02  1.249981963E+02  0.00000E+00  9.000E+00
       5     1     1     2   501     0  4.472714967E+00  2.003026700E+00  6.920953039E+00  9.720050725E+00  4.750000000E+00  0.00000E+00  9.000E+00
      -5     1     1     2     0   503 -6.232059458E+01 -9.218226655E+01 -4.691456010E+03  4.692777800E+03  4.750000000E+00  0.00000E+00  9.000E+00
      21     1     1     2   511   501 -6.738006846E+00 -2.857104844E+01  8.981970574E+00  3.069823026E+01  1.545128989E-06  0.00000E+00  9.000E+00
#rwgt            1           9   2.2320735249617193E-002           1     2938511           0
</event>
<event>
      6   9999  3.45752E-01  4.94045E+01 -1.00000E+00  1.35067E-01
      21    -1     0     0   512   502  0.000000000E+00  0.000000000E+00  2.892786034E+02  2.892786034E+02  0.000000000E+00  0.00000E+00  9.000E+00
      21    -1     0     0   502   503  0.000000000E+00  0.000000000E+00 -1.338458071E+02  1.338458071E+02  0.000000000E+00  0.00000E+00  9.000E+00
      25     1     1     2     0     0  1.906478549E+01 -5.188645470E+01  1.495645904E+02  2.026055855E+02  1.249951452E+02  0.00000E+00  9.000E+00
       5     1     1     2   501     0  4.634669257E+00 -5.154314754E+00  6.422606611E+01  6.477342964E+01  4.750000000E+00  0.00000E+00  9.000E+00
      -5     1     1     2     0   503 -5.094997814E+00  1.127310890E+01 -9.393433210E+01  9.486444663E+01  4.750000000E+00  0.00000E+00  9.000E+00
      21     1     1     2   512   501 -1.860445693E+01  4.576766056E+01  3.557647180E+01  6.088094872E+01  8.259061849E-07  0.00000E+00  9.000E+00
#rwgt            1           9   2.1012954508329185E-002           1     2940729           0
</event>
<event>
      6   9999  3.45752E-01  1.12230E+01 -1.00000E+00  1.82066E-01
      21    -1     0     0   511   502  0.000000000E+00  0.000000000E+00  8.123998335E+01  8.123998335E+01  0.000000000E+00  0.00000E+00  9.000E+00
      21    -1     0     0   502   503  0.000000000E+00  0.000000000E+00 -7.385829232E+02  7.385829232E+02  0.000000000E+00  0.00000E+00  9.000E+00
      25     1     1     2     0     0  1.116172268E+01  1.031781252E+01 -6.422875889E+02  6.545137852E+02  1.249956273E+02  0.00000E+00  9.000E+00
       5     1     1     2   501     0 -2.089045764E+00 -9.958863988E+00  6.872558371E+01  6.963699764E+01  4.750000000E+00  0.00000E+00  9.000E+00
      -5     1     1     2     0   503  1.694716888E+00 -3.524230301E+00 -8.421623447E+01  8.444068280E+01  4.750000000E+00  0.00000E+00  9.000E+00
      21     1     1     2   511   501 -1.076739381E+01  3.165281769E+00  4.352998423E-01  1.123144087E+01  1.293700587E-07  0.00000E+00  9.000E+00
#rwgt            1           9   3.9361711582469447                1     2941706           0
</event>
<event>
      6   9999  3.45752E-01  1.66181E+01 -1.00000E+00  1.66604E-01
      21    -1     0     0   512   502  0.000000000E+00  0.000000000E+00  3.044733339E+01  3.044733339E+01  0.000000000E+00  0.00000E+00  9.000E+00
      21    -1     0     0   502   503  0.000000000E+00  0.000000000E+00 -9.484860937E+02  9.484860937E+02  0.000000000E+00  0.00000E+00  9.000E+00
      25     1     1     2     0     0  3.257702125E+01 -1.787080387E+00 -5.957111387E+02  6.095336402E+02  1.248801095E+02  0.00000E+00  9.000E+00
       5     1     1     2   501     0  8.331736810E+00  4.789098452E-01  7.543884131E+00  1.221146513E+01  4.750000000E+00  0.00000E+00  9.000E+00
      -5     1     1     2     0   503 -2.477229448E+01  5.280250442E+00 -3.377959045E+02  3.387774834E+02  4.750000000E+00  0.00000E+00  9.000E+00
      21     1     1     2   512   501 -1.613646358E+01 -3.972079900E+00  7.924398779E+00  1.841083843E+01  3.674277069E-07  0.00000E+00  9.000E+00
#rwgt            1           9   6.6801827793986322E-004           1     2945294           0
</event>
<event>
      6   9999  3.45752E-01  2.49463E+01 -1.00000E+00  1.53214E-01
      21    -1     0     0   501   502  0.000000000E+00  0.000000000E+00  2.483863928E+02  2.483863928E+02  0.000000000E+00  0.00000E+00  9.000E+00
      21    -1     0     0   511   503  0.000000000E+00  0.000000000E+00 -7.585192806E+01  7.585192806E+01  0.000000000E+00  0.00000E+00  9.000E+00
      25     1     1     2     0     0 -2.007615043E+01  2.017848082E+01  1.705273307E+02  2.133427814E+02  1.250013958E+02  0.00000E+00  9.000E+00
       5     1     1     2   501     0 -1.191574721E+00  6.636144519E-01  2.059977123E+01  2.118427032E+01  4.750000000E+00  0.00000E+00  9.000E+00
      -5     1     1     2     0   503  1.995366734E+00 -5.002522305E+00  3.227053528E+01  3.305989512E+01  4.750000000E+00  0.00000E+00  9.000E+00
      21     1     1     2   511   502  1.927235841E+01 -1.583957296E+01 -5.086317246E+01  5.665137406E+01  1.168007728E-06  0.00000E+00  9.000E+00
#rwgt            1           9   4.5090884965859352E-003           1     2947226           0
</event>
<event>
      6   9999  3.45752E-01  4.52853E+00 -1.00000E+00  2.37198E-01
      21    -1     0     0   501   502  0.000000000E+00  0.000000000E+00  2.473664970E+03  2.473664970E+03  0.000000000E+00  0.00000E+00  9.000E+00
      21    -1     0     0   512   503  0.000000000E+00  0.000000000E+00 -4.161162498E+01  4.161162498E+01  0.000000000E+00  0.00000E+00  9.000E+00
      25     1     1     2     0     0  1.120647985E+02  1.669471018E+01  6.483138601E+02  6.699048198E+02  1.249974963E+02  0.00000E+00  9.000E+00
       5     1     1     2   501     0  3.943767424E+00 -5.758079972E-01  8.806618913E+02  8.806837197E+02  4.750000000E+00  0.00000E+00  9.000E+00
      -5     1     1     2     0   503 -1.124110349E+02 -1.336838712E+01  9.302582053E+02  9.371327790E+02  4.750000000E+00  0.00000E+00  9.000E+00
      21     1     1     2   512   502 -3.597530932E+00 -2.750515068E+00 -2.718061206E+01  2.755527598E+01  3.071808511E-06  0.00000E+00  9.000E+00
#rwgt            1           9   1.6220368803430544E-003           1     2948211           0
</event>
<event>
      6   9999  3.45752E-01  1.16817E+01 -1.00000E+00  1.80353E-01
      21    -1     0     0   511   502  0.000000000E+00  0.000000000E+00  2.727435391E+01  2.727435391E+01  0.000000000E+00  0.00000E+00  9.000E+00
      21    -1     0     0   502   503  0.000000000E+00  0.000000000E+00 -7.200705729E+02  7.200705729E+02  0.000000000E+00  0.00000E+00  9.000E+00
      25     1     1     2     0     0  7.350268750E+00 -5.389483949E+00 -5.356306855E+02  5.501006830E+02  1.250098285E+02  0.00000E+00  9.000E+00
       5     1     1     2   501     0  2.907151711E-02  2.563647933E-01 -7.893991568E+00  9.216516204E+00  4.750000000E+00  0.00000E+00  9.000E+00
      -5     1     1     2     0   503 -5.439286572E+00  1.665259760E+01 -1.663494276E+02  1.673367545E+02  4.750000000E+00  0.00000E+00  9.000E+00
      21     1     1     2   511   501 -1.940053695E+00 -1.151947844E+01  1.707788563E+01  2.069097314E+01  1.192092896E-06  0.00000E+00  9.000E+00
#rwgt            1           9   2.5437138330517252E-003           1     2954043           0
</event>
<event>
      6   9999  3.45752E-01  5.99203E+00 -1.00000E+00  2.14138E-01
      21    -1     0     0   512   502  0.000000000E+00  0.000000000E+00  2.955874886E+02  2.955874886E+02  0.000000000E+00  0.00000E+00  9.000E+00
      21    -1     0     0   502   503  0.000000000E+00  0.000000000E+00 -1.152096323E+03  1.152096323E+03  0.000000000E+00  0.00000E+00  9.000E+00
      25     1     1     2     0     0 -3.774327735E+01 -6.033401918E+01 -3.051725282E+02  3.373726334E+02  1.250010918E+02  0.00000E+00  9.000E+00
       5     1     1     2   501     0 -1.116837985E+00 -7.256328568E+00  2.095009137E+01  2.270177217E+01  4.750000000E+00  0.00000E+00  9.000E+00
      -5     1     1     2     0   503  4.150439622E+01  6.221334186E+01 -8.282211878E+02  8.316044813E+02  4.750000000E+00  0.00000E+00  9.000E+00
      21     1     1     2   512   501 -2.644280883E+00  5.377005891E+00  2.559347905E+02  2.560049245E+02  4.672030912E-06  0.00000E+00  9.000E+00
#rwgt            1           9   9.4567637285263018E-004           1     2956099           0
</event>
<event>
      6   9999  3.45752E-01  1.84341E+01 -1.00000E+00  1.62961E-01
      21    -1     0     0   501   502  0.000000000E+00  0.000000000E+00  4.106836000E+01  4.106836000E+01  0.000000000E+00  0.00000E+00  9.000E+00
       2    -1     0     0   502     0  0.000000000E+00  0.000000000E+00 -5.980239101E+02  5.980239101E+02  0.000000000E+00  0.00000E+00  9.000E+00
      25     1     1     2     0     0 -4.133694199E+01 -9.279089588E+00 -3.517116628E+02  3.756617758E+02  1.250033272E+02  0.00000E+00  9.000E+00
       5     1     1     2   501     0  2.399653477E+00  2.437139298E+00  2.215618021E+01  2.291630002E+01  4.750000000E+00  0.00000E+00  9.000E+00
      -5     1     1     2     0   503  3.810439256E+01  2.525724187E+01 -8.243712425E+01  9.438387020E+01  4.750000000E+00  0.00000E+00  9.000E+00
       2     1     1     2   503     0  8.328959509E-01 -1.841529158E+01 -1.449629433E+02  1.461303241E+02  1.907348633E-06  0.00000E+00  9.000E+00
#rwgt            1           9   4.9532771773132143E-003           1     2961410           0
</event>
<event>
      6   9999  3.45752E-01  1.57304E+01 -1.00000E+00  1.68601E-01
      21    -1     0     0   501   511  0.000000000E+00  0.000000000E+00  1.204904388E+01  1.204904388E+01  0.000000000E+00  0.00000E+00  9.000E+00
      21    -1     0     0   502   503  0.000000000E+00  0.000000000E+00 -8.874840944E+02  8.874840944E+02  0.000000000E+00  0.00000E+00  9.000E+00
      25     1     1     2     0     0 -2.897846658E+01  2.331684801E+01 -6.571626019E+02  6.699802289E+02  1.250095790E+02  0.00000E+00  9.000E+00
       5     1     1     2   501     0  7.378987854E-01  1.022912537E+00 -4.478517405E+00  6.649094887E+00  4.750000000E+00  0.00000E+00  9.000E+00
      -5     1     1     2     0   503  4.091047347E+01 -1.501671542E+01 -1.846848211E+02  1.898162643E+02  4.750000000E+00  0.00000E+00  9.000E+00
      21     1     1     2   502   511 -1.266990567E+01 -9.323045134E+00 -2.910911014E+01  3.308755013E+01  4.768371582E-07  0.00000E+00  9.000E+00
#rwgt            1           9   3.0141714137061444E-003           1     2963339           0
</event>
<event>
      6   9999 -3.45752E-01  4.46243E+00 -1.00000E+00  2.38410E-01
      21    -1     0     0   501   502  0.000000000E+00  0.000000000E+00  4.422505474E+01  4.422505474E+01  0.000000000E+00  0.00000E+00  9.000E+00
      21    -1     0     0   502   512  0.000000000E+00  0.000000000E+00 -1.375865275E+03  1.375865275E+03  0.000000000E+00  0.00000E+00  9.000E+00
      25     1     1     2     0     0 -3.063088561E+00 -4.526360756E+00 -1.090400891E+03  1.097555981E+03  1.250006311E+02  0.00000E+00  9.000E+00
       5     1     1     2   501     0  1.885318127E+00 -2.554935821E+00  4.034426223E+01  4.074682953E+01  4.750000000E+00  0.00000E+00  9.000E+00
      -5     1     1     2     0   503  2.630799930E+00  2.862054181E+00 -1.831604223E+02  1.832632403E+02  4.750000000E+00  0.00000E+00  9.000E+00
      21     1     1     2   503   512 -1.453029496E+00  4.219242396E+00 -9.842316950E+01  9.852427922E+01  0.000000000E+00  0.00000E+00  9.000E+00
#rwgt            1           9  -2.3878660353094605E-005           1     2965348           0
</event>
<event>
      6   9999  3.45752E-01  1.14406E+01 -1.00000E+00  1.81240E-01
      21    -1     0     0   511   502  0.000000000E+00  0.000000000E+00  1.245396171E+01  1.245396171E+01  0.000000000E+00  0.00000E+00  9.000E+00
      21    -1     0     0   502   503  0.000000000E+00  0.000000000E+00 -7.005118836E+02  7.005118836E+02  0.000000000E+00  0.00000E+00  9.000E+00
      25     1     1     2     0     0  2.773290395E+00 -2.391218157E+00 -4.982519219E+02  5.137044655E+02  1.249955647E+02  0.00000E+00  9.000E+00
       5     1     1     2   501     0 -3.260185910E+00 -9.137137249E+00 -8.214861837E+01  8.285574264E+01  4.750000000E+00  0.00000E+00  9.000E+00
      -5     1     1     2     0   503  1.148127924E+01  8.364423917E+00 -1.029509274E+02  1.040347985E+02  4.750000000E+00  0.00000E+00  9.000E+00
      21     1     1     2   511   501 -1.099438372E+01  3.163931489E+00 -4.706454293E+00  1.237083861E+01  3.576278687E-07  0.00000E+00  9.000E+00
#rwgt            1           9   230.63358328110411                1     2971986           0
</event>
<event>
      6   9999  3.45752E-01  1.49250E+02 -1.00000E+00  1.13481E-01
      -2    -1     0     0     0   502  0.000000000E+00  0.000000000E+00  2.945095350E+02  2.945095350E+02  0.000000000E+00  0.00000E+00  9.000E+00
      21    -1     0     0   501   512  0.000000000E+00  0.000000000E+00 -3.733121370E+02  3.733121370E+02  0.000000000E+00  0.00000E+00  9.000E+00
      25     1     1     2     0     0 -3.018461211E+01 -5.437900407E+01 -2.280615029E+02  2.674030996E+02  1.249967265E+02  0.00000E+00  9.000E+00
       5     1     1     2   501     0  7.945153016E+00 -5.706837769E+00 -1.643840148E-01  1.087579771E+01  4.750000000E+00  0.00000E+00  9.000E+00
      -5     1     1     2     0   502  1.487463507E+02 -1.910717904E+01 -3.321669545E+01  1.536765190E+02  4.750000000E+00  0.00000E+00  9.000E+00
      -2     1     1     2     0   512 -1.265068916E+02  7.919302088E+01  1.826399804E+02  2.358662558E+02  3.814697266E-06  0.00000E+00  9.000E+00
#rwgt            1           3   7.0173788674437720E-006           1     2974360           0
</event>
<event>
      6   9999  3.45752E-01  7.07303E+01 -1.00000E+00  1.27193E-01
      21    -1     0     0   501   511  0.000000000E+00  0.000000000E+00  1.151303695E+02  1.151303695E+02  0.000000000E+00  0.00000E+00  9.000E+00
      21    -1     0     0   502   503  0.000000000E+00  0.000000000E+00 -1.159329611E+03  1.159329611E+03  0.000000000E+00  0.00000E+00  9.000E+00
      25     1     1     2     0     0  1.422331054E+02 -4.716534533E+01 -7.668506841E+02  7.912905301E+02  1.250036208E+02  0.00000E+00  9.000E+00
       5     1     1     2   501     0 -3.334638536E+01  1.676306531E+01 -1.449852664E+01  4.032060949E+01  4.750000000E+00  0.00000E+00  9.000E+00
      -5     1     1     2     0   503 -6.049601509E+01 -2.118376345E+01 -3.354137089E+02  3.415163807E+02  4.750000000E+00  0.00000E+00  9.000E+00
      21     1     1     2   502   511 -4.839070490E+01  5.158604347E+01  7.256367792E+01  1.013324605E+02  9.536743164E-07  0.00000E+00  9.000E+00
#rwgt            1           9  0.54863310784657648                1     2975048           0
</event>
<event>
      6   9999 -3.45752E-01  2.44138E+01 -1.00000E+00  1.53870E-01
      21    -1     0     0   502   512  0.000000000E+00  0.000000000E+00  1.710969744E+01  1.710969744E+01  0.000000000E+00  0.00000E+00  9.000E+00
      21    -1     0     0   501   502  0.000000000E+00  0.000000000E+00 -8.420719658E+02  8.420719658E+02  0.000000000E+00  0.00000E+00  9.000E+00
      25     1     1     2     0     0 -1.807477561E+01 -2.734578535E+01 -7.592696463E+02  7.701890969E+02  1.250054386E+02  0.00000E+00  9.000E+00
       5     1     1     2   501     0 -4.484956145E+00  6.787437242E-01  8.392161419E-01  6.621352460E+00  4.750000000E+00  0.00000E+00  9.000E+00
      -5     1     1     2     0   503 -1.637446287E+00  2.342224351E+01 -3.664815189E+01  4.378278495E+01  4.750000000E+00  0.00000E+00  9.000E+00
      21     1     1     2   503   512  2.419717804E+01  3.244798120E+00 -2.988368633E+01  3.858842894E+01  6.743495762E-07  0.00000E+00  9.000E+00
#rwgt            1           9  -7.8526771895913840E-004           1     2975712           0
</event>
<event>
      6   9999  3.45752E-01  9.66715E+00 -1.00000E+00  1.88756E-01
      21    -1     0     0   511   502  0.000000000E+00  0.000000000E+00  1.885660026E+01  1.885660026E+01  0.000000000E+00  0.00000E+00  9.000E+00
      21    -1     0     0   502   503  0.000000000E+00  0.000000000E+00 -8.604907929E+02  8.604907929E+02  0.000000000E+00  0.00000E+00  9.000E+00
      25     1     1     2     0     0 -4.560976516E-01 -4.316333155E+00 -8.229727630E+02  8.324230303E+02  1.250003760E+02  0.00000E+00  9.000E+00
       5     1     1     2   501     0 -2.349160543E+00 -2.033404885E+00  6.893944450E+00  8.929852225E+00  4.750000000E+00  0.00000E+00  9.000E+00
      -5     1     1     2     0   503 -3.989586750E+00 -5.265914305E-01 -2.744687387E+01  2.814404886E+01  4.750000000E+00  0.00000E+00  9.000E+00
      21     1     1     2   511   501  6.794844944E+00  6.876329471E+00  1.891499812E+00  9.850461732E+00  4.354607819E-07  0.00000E+00  9.000E+00
#rwgt            1           9   1.0896968488430455E-005           1     2977118           0
</event>
<event>
      6   9999  3.45752E-01  8.11875E+00 -1.00000E+00  1.97261E-01
      21    -1     0     0   501   512  0.000000000E+00  0.000000000E+00  8.442320201E+02  8.442320201E+02  0.000000000E+00  0.00000E+00  9.000E+00
      21    -1     0     0   502   503  0.000000000E+00  0.000000000E+00 -3.156231116E+02  3.156231116E+02  0.000000000E+00  0.00000E+00  9.000E+00
      25     1     1     2     0     0 -1.070659049E+02 -3.033357040E+01  1.516356872E+02  2.258305318E+02  1.249912556E+02  0.00000E+00  9.000E+00
       5     1     1     2   501     0  6.064557663E+00 -6.988393734E+00  2.337514812E+02  2.339827643E+02  4.750000000E+00  0.00000E+00  9.000E+00
      -5     1     1     2     0   503  1.056374556E+02  4.398683824E+01 -2.665899410E+02  2.901497425E+02  4.750000000E+00  0.00000E+00  9.000E+00
      21     1     1     2   502   512 -4.636108346E+00 -6.664874102E+00  4.098116811E+02  4.098920931E+02  5.394796609E-06  0.00000E+00  9.000E+00
#rwgt            1           9   1.2938880587489043                1     2980443           0
</event>
<event>
      6   9999  3.45752E-01  1.41279E+01 -1.00000E+00  1.72657E-01
      21    -1     0     0   501   502  0.000000000E+00  0.000000000E+00  2.216873400E+03  2.216873400E+03  0.000000000E+00  0.00000E+00  9.000E+00
      21    -1     0     0   502   511  0.000000000E+00  0.000000000E+00 -6.041219940E+01  6.041219940E+01  0.000000000E+00  0.00000E+00  9.000E+00
      25     1     1     2     0     0  4.139619391E+01 -5.199730860E+01  9.888679611E+02  9.989516463E+02  1.250087285E+02  0.00000E+00  9.000E+00
       5     1     1     2   501     0 -5.304443579E-01  8.779272374E-01  1.864316479E+02  1.864949704E+02  4.750000000E+00  0.00000E+00  9.000E+00
      -5     1     1     2     0   503 -5.200943210E+01  5.980367500E+01  1.034051206E+03  1.037094942E+03  4.750000000E+00  0.00000E+00  9.000E+00
      21     1     1     2   503   511  1.114368255E+01 -8.684293633E+00 -5.288961448E+01  5.474404019E+01  4.862803949E-06  0.00000E+00  9.000E+00
#rwgt            1           9   1.0921036010570842E-003           1     2985926           0
</event>
<event>
      6   9999  3.45752E-01  8.18154E+00 -1.00000E+00  1.96868E-01
      -4    -1     0     0     0   502  0.000000000E+00  0.000000000E+00  4.699418805E+01  4.699418805E+01  0.000000000E+00  0.00000E+00  9.000E+00
      21    -1     0     0   502   503  0.000000000E+00  0.000000000E+00 -7.540558623E+02  7.540558623E+02  0.000000000E+00  0.00000E+00  9.000E+00
      25     1     1     2     0     0 -2.570412866E+00 -5.207671037E-01 -6.946268957E+02  7.057868065E+02  1.249864546E+02  0.00000E+00  9.000E+00
       5     1     1     2   501     0 -2.017186401E+00 -1.700141694E+00  1.562870454E-02  5.433439704E+00  4.750000000E+00  0.00000E+00  9.000E+00
      -5     1     1     2     0   503 -2.242845465E+00 -2.282718437E+00 -5.054402584E+01  5.086749657E+01  4.750000000E+00  0.00000E+00  9.000E+00
      -4     1     1     2     0   501  6.830444733E+00  4.503627235E+00  3.809361857E+01  3.896230755E+01  1.261592536E-06  0.00000E+00  9.000E+00
#rwgt            1           9   1.3731025132142799E-002           1     2988338           0
</event>
<event>
      6   9999  3.45752E-01  5.52012E+00 -1.00000E+00  2.19228E-01
      21    -1     0     0   501   502  0.000000000E+00  0.000000000E+00  1.056789127E+01  1.056789127E+01  0.000000000E+00  0.00000E+00  9.000E+00
      21    -1     0     0   511   503  0.000000000E+00  0.000000000E+00 -8.565330240E+02  8.565330240E+02  0.000000000E+00  0.00000E+00  9.000E+00
      25     1     1     2     0     0 -6.186736614E+00  1.273592067E-01 -6.308369930E+02  6.431318788E+02  1.250000396E+02  0.00000E+00  9.000E+00
       5     1     1     2   501     0  2.819372358E+00 -2.012156225E-01  2.287141183E+00  5.981877883E+00  4.750000000E+00  0.00000E+00  9.000E+00
      -5     1     1     2     0   503  8.347468654E+00 -2.307368601E+00 -1.609085286E+02  1.612114178E+02  4.750000000E+00  0.00000E+00  9.000E+00
      21     1     1     2   511   502 -4.980104398E+00  2.381225017E+00 -5.650675232E+01  5.677574068E+01  9.536743164E-07  0.00000E+00  9.000E+00
#rwgt            1           9   4.6460005448960591E-005           1     2991306           0
</event>
<event>
      6   9999 -3.45752E-01  4.31458E+00 -1.00000E+00  2.41236E-01
      21    -1     0     0   512   502  0.000000000E+00  0.000000000E+00  2.444156504E+02  2.444156504E+02  0.000000000E+00  0.00000E+00  9.000E+00
      21    -1     0     0   502   503  0.000000000E+00  0.000000000E+00 -1.120261618E+03  1.120261618E+03  0.000000000E+00  0.00000E+00  9.000E+00
      25     1     1     2     0     0  2.829960173E+00 -1.447353451E+01 -1.050993449E+03  1.058503543E+03  1.250001139E+02  0.00000E+00  9.000E+00
       5     1     1     2   501     0  2.348442712E+00  4.850748852E+00  1.022900011E+01  1.249959563E+01  4.750000000E+00  0.00000E+00  9.000E+00
      -5     1     1     2     0   503 -8.268141781E+00  1.263428176E+01 -6.338416721E+01  6.533071557E+01  4.750000000E+00  0.00000E+00  9.000E+00
      21     1     1     2   512   501  3.089738895E+00 -3.011496103E+00  2.283026484E+02  2.283434144E+02  6.031565972E-06  0.00000E+00  9.000E+00
#rwgt            1           9  -1.4441092523108988E-003           1     2995105           0
</event>
<event>
      6   9999  3.45752E-01  1.33191E+01 -1.00000E+00  1.74969E-01
      21    -1     0     0   501   511  0.000000000E+00  0.000000000E+00  1.685765081E+01  1.685765081E+01  0.000000000E+00  0.00000E+00  9.000E+00
      21    -1     0     0   502   503  0.000000000E+00  0.000000000E+00 -8.334406635E+02  8.334406635E+02  0.000000000E+00  0.00000E+00  9.000E+00
      25     1     1     2     0     0  1.576647011E+01 -3.662121088E+00 -6.666402499E+02  6.784513594E+02  1.250001262E+02  0.00000E+00  9.000E+00
       5     1     1     2   501     0 -2.809338344E-01 -2.236129311E+00  3.878065300E+00  6.533076502E+00  4.750000000E+00  0.00000E+00  9.000E+00
      -5     1     1     2     0   503 -1.144516162E+01 -6.793269364E+00 -1.510499711E+02  1.517095795E+02  4.750000000E+00  0.00000E+00  9.000E+00
      21     1     1     2   502   511 -4.040374658E+00  1.269151976E+01 -2.770856983E+00  1.360429894E+01  5.982774466E-07  0.00000E+00  9.000E+00
#rwgt            1           9   8.1539434576363245E-004           1     3000369           0
</event>
<event>
      6   9999  3.45752E-01  4.36332E+01 -1.00000E+00  1.38031E-01
      21    -1     0     0   501   502  0.000000000E+00  0.000000000E+00  1.600976988E+03  1.600976988E+03  0.000000000E+00  0.00000E+00  9.000E+00
      21    -1     0     0   502   512  0.000000000E+00  0.000000000E+00 -6.547148210E+01  6.547148210E+01  0.000000000E+00  0.00000E+00  9.000E+00
      25     1     1     2     0     0  1.688958640E+01  3.870161341E+01  1.235146980E+03  1.242174141E+03  1.250018463E+02  0.00000E+00  9.000E+00
       5     1     1     2   501     0  9.688895025E-01  3.634400342E+00  3.047172436E+02  3.047774740E+02  4.750000000E+00  0.00000E+00  9.000E+00
      -5     1     1     2     0   503 -2.554575351E+00 -1.474677588E+00  4.970702427E+01  5.002050871E+01  4.750000000E+00  0.00000E+00  9.000E+00
      21     1     1     2   503   512 -1.530390055E+01 -4.086133617E+01 -5.406574228E+01  6.947634600E+01  3.568322551E-06  0.00000E+00  9.000E+00
#rwgt            1           9   5.8276154580793917E-003           1     3002864           0
</event>
<event>
      6   9999  3.45752E-01  6.98009E+00 -1.00000E+00  2.05296E-01
      21    -1     0     0   501   511  0.000000000E+00  0.000000000E+00  9.182333834E+00  9.182333834E+00  0.000000000E+00  0.00000E+00  9.000E+00
      21    -1     0     0   502   503  0.000000000E+00  0.000000000E+00 -3.103803020E+03  3.103803020E+03  0.000000000E+00  0.00000E+00  9.000E+00
      25     1     1     2     0     0  5.612376686E-02  2.390835141E+00 -2.858192939E+03  2.860925965E+03  1.249991180E+02  0.00000E+00  9.000E+00
       5     1     1     2   501     0 -4.318939327E+00 -4.732395411E+00 -1.922449136E+00  8.204091291E+00  4.750000000E+00  0.00000E+00  9.000E+00
      -5     1     1     2     0   503 -1.950318344E+00 -8.394161216E-01 -2.365302112E+02  2.365874292E+02  4.750000000E+00  0.00000E+00  9.000E+00
      21     1     1     2   502   511  6.213133904E+00  3.180976391E+00  2.024913040E+00  7.267868775E+00  7.171159634E-07  0.00000E+00  9.000E+00
#rwgt            1           9  0.23876555165432473                1     3003579           0
</event>
<event>
      6   9999  3.45752E-01  1.22903E+01 -1.00000E+00  1.78228E-01
      21    -1     0     0   501   502  0.000000000E+00  0.000000000E+00  4.301769254E+01  4.301769254E+01  0.000000000E+00  0.00000E+00  9.000E+00
      21    -1     0     0   512   503  0.000000000E+00  0.000000000E+00 -1.924110783E+03  1.924110783E+03  0.000000000E+00  0.00000E+00  9.000E+00
      25     1     1     2     0     0  1.036712829E+01 -9.032179427E+01 -9.667919747E+02  9.790697349E+02  1.250012784E+02  0.00000E+00  9.000E+00
       5     1     1     2   501     0  3.433132177E+00  3.322423349E+00  3.114953827E+01  3.186975256E+01  4.750000000E+00  0.00000E+00  9.000E+00
      -5     1     1     2     0   503 -2.004453325E+01  7.641350277E+01 -2.894849204E+02  3.001081277E+02  4.750000000E+00  0.00000E+00  9.000E+00
      21     1     1     2   512   502  6.244272787E+00  1.058586814E+01 -6.559657332E+02  6.560808598E+02  1.321449896E-05  0.00000E+00  9.000E+00
#rwgt            1           9   2.4310939584292870E-004           1     3007450           0
</event>
<event>
      6   9999 -3.45752E-01  4.27352E+00 -1.00000E+00  2.42051E-01
      21    -1     0     0   501   502  0.000000000E+00  0.000000000E+00  9.147821518E+00  9.147821518E+00  0.000000000E+00  0.00000E+00  9.000E+00
      21    -1     0     0   502   511  0.000000000E+00  0.000000000E+00 -3.161908751E+03  3.161908751E+03  0.000000000E+00  0.00000E+00  9.000E+00
      25     1     1     2     0     0 -3.183914538E+01  6.922874537E+01 -1.417507445E+03  1.425046889E+03  1.249997128E+02  0.00000E+00  9.000E+00
       5     1     1     2   501     0  1.238147548E+00 -1.012929176E+00  3.195287548E+00  5.944021987E+00  4.750000000E+00  0.00000E+00  9.000E+00
      -5     1     1     2     0   503  2.819577594E+01 -6.468340767E+01 -1.641414212E+03  1.642937041E+03  4.750000000E+00  0.00000E+00  9.000E+00
      21     1     1     2   503   511  2.405221892E+00 -3.532408520E+00 -9.703456029E+01  9.712862036E+01  1.348699152E-06  0.00000E+00  9.000E+00
#rwgt            1           9  -8.0005133407454339E-004           1     3012107           0
</event>
<event>
      6   9999  3.45752E-01  5.02142E+01 -1.00000E+00  1.34688E-01
      21    -1     0     0   512   503  0.000000000E+00  0.000000000E+00  4.863285140E+01  4.863285140E+01  0.000000000E+00  0.00000E+00  9.000E+00
      21    -1     0     0   501   502  0.000000000E+00  0.000000000E+00 -8.664176199E+02  8.664176199E+02  0.000000000E+00  0.00000E+00  9.000E+00
      25     1     1     2     0     0 -4.352733883E+01 -5.140348850E+01 -6.088231409E+02  6.251618473E+02  1.249990823E+02  0.00000E+00  9.000E+00
       5     1     1     2   501     0 -6.826662097E-01 -9.162576983E+00 -7.085780324E+01  7.160872593E+01  4.750000000E+00  0.00000E+00  9.000E+00
      -5     1     1     2     0   503  4.394426550E+01  1.035257535E+01 -1.579061671E+02  1.643021436E+02  4.750000000E+00  0.00000E+00  9.000E+00
      21     1     1     2   512   502  2.657395372E-01  5.021349013E+01  1.980234265E+01  5.397775453E+01  1.488923549E-06  0.00000E+00  9.000E+00
#rwgt            1           9   2.0382121348243355E-003           1     3017610           0
</event>
<event>
      6   9999 -3.45752E-01  8.02323E+00 -1.00000E+00  1.97866E-01
      21    -1     0     0   502   511  0.000000000E+00  0.000000000E+00  2.976408612E+01  2.976408612E+01  0.000000000E+00  0.00000E+00  9.000E+00
      21    -1     0     0   501   502  0.000000000E+00  0.000000000E+00 -1.234079898E+03  1.234079898E+03  0.000000000E+00  0.00000E+00  9.000E+00
      25     1     1     2     0     0  2.686915293E+01 -1.617572201E+02 -8.042054309E+02  8.302158759E+02  1.249987036E+02  0.00000E+00  9.000E+00
       5     1     1     2   501     0 -8.199717844E-01  2.573777111E+00 -8.952286939E+00  1.048821356E+01  4.750000000E+00  0.00000E+00  9.000E+00
      -5     1     1     2     0   503 -2.461400785E+01  1.512896214E+02 -3.712574259E+02  4.016827576E+02  4.750000000E+00  0.00000E+00  9.000E+00
      21     1     1     2   503   511 -1.435173298E+00  7.893821533E+00 -1.990066864E+01  2.145713758E+01  3.371747881E-07  0.00000E+00  9.000E+00
#rwgt            1           9  -3.5366828751965009E-004           1     3018193           0
</event>
<event>
      6   9999  3.45752E-01  6.49217E+00 -1.00000E+00  2.09397E-01
      21    -1     0     0   502   512  0.000000000E+00  0.000000000E+00  4.223206061E+01  4.223206061E+01  0.000000000E+00  0.00000E+00  9.000E+00
      21    -1     0     0   501   502  0.000000000E+00  0.000000000E+00 -1.894756023E+02  1.894756023E+02  0.000000000E+00  0.00000E+00  9.000E+00
      25     1     1     2     0     0  1.370055363E+00 -1.838635041E+00 -1.629773600E+02  2.054054762E+02  1.249981286E+02  0.00000E+00  9.000E+00
       5     1     1     2   501     0  1.386428358E-01  3.508918407E-01 -1.877063744E-01  4.768656058E+00  4.750000000E+00  0.00000E+00  9.000E+00
      -5     1     1     2     0   503  3.840819313E+00  5.166190236E+00  9.091070277E+00  1.210997413E+01  4.750000000E+00  0.00000E+00  9.000E+00
      21     1     1     2   503   512 -5.349517512E+00 -3.678447035E+00  6.830454391E+00  9.423556514E+00  2.665600750E-07  0.00000E+00  9.000E+00
#rwgt            1           9   1.4130460364699560                1     3021879           0
</event>
<event>
      6   9999  3.45752E-01  2.17141E+00 -1.00000E+00  3.19656E-01
      -1    -1     0     0     0   502  0.000000000E+00  0.000000000E+00  9.103410482E+01  9.103410482E+01  0.000000000E+00  0.00000E+00  9.000E+00
      21    -1     0     0   502   503  0.000000000E+00  0.000000000E+00 -9.052886911E+02  9.052886911E+02  0.000000000E+00  0.00000E+00  9.000E+00
      25     1     1     2     0     0 -1.072475520E+01  8.316994170E+00 -8.079754295E+02  8.177001387E+02  1.250001173E+02  0.00000E+00  9.000E+00
       5     1     1     2   501     0 -1.911070897E+00 -4.103767244E+00  8.822522554E+00  1.099511263E+01  4.750000000E+00  0.00000E+00  9.000E+00
      -5     1     1     2     0   503  1.258359393E+01 -6.384009896E+00 -9.074238873E+01  9.195567427E+01  4.750000000E+00  0.00000E+00  9.000E+00
      -1     1     1     2     0   501  5.223217251E-02  2.170782969E+00  7.564070945E+01  7.567187029E+01  2.697398305E-06  0.00000E+00  9.000E+00
#rwgt            1           9   1.2821888748357078E-004           1     3025188           0
</event>
<event>
      6   9999  3.45752E-01  2.57529E+01 -1.00000E+00  1.52258E-01
      21    -1     0     0   501   511  0.000000000E+00  0.000000000E+00  2.458425912E+01  2.458425912E+01  0.000000000E+00  0.00000E+00  9.000E+00
      21    -1     0     0   502   503  0.000000000E+00  0.000000000E+00 -9.594227951E+02  9.594227951E+02  0.000000000E+00  0.00000E+00  9.000E+00
      25     1     1     2     0     0 -1.044025667E+01  3.595535486E+01 -7.609175763E+02  7.719514121E+02  1.245457276E+02  0.00000E+00  9.000E+00
       5     1     1     2   501     0  3.137678191E+01 -5.116176657E+01 -7.008148184E+01  9.239050491E+01  4.750000000E+00  0.00000E+00  9.000E+00
      -5     1     1     2     0   503  3.514119080E+00  7.120731335E+00 -8.991301206E+01  9.038786471E+01  4.750000000E+00  0.00000E+00  9.000E+00
      21     1     1     2   502   511 -2.445064431E+01  8.085680380E+00 -1.392646577E+01  2.927727247E+01  1.685873940E-07  0.00000E+00  9.000E+00
#rwgt            1           9   3.2722855959742530E-004           1     3033367           0
</event>
<event>
      6   9999  3.45752E-01  1.28317E+01 -1.00000E+00  1.76465E-01
      21    -1     0     0   501   512  0.000000000E+00  0.000000000E+00  9.459861932E+01  9.459861932E+01  0.000000000E+00  0.00000E+00  9.000E+00
      21    -1     0     0   502   503  0.000000000E+00  0.000000000E+00 -1.590638547E+03  1.590638547E+03  0.000000000E+00  0.00000E+00  9.000E+00
      25     1     1     2     0     0  1.463330500E+01  4.600370588E+01 -5.776626864E+02  5.930004257E+02  1.249994039E+02  0.00000E+00  9.000E+00
       5     1     1     2   501     0 -1.121393203E+00 -8.423147877E+00  7.717550605E+01  7.778706947E+01  4.750000000E+00  0.00000E+00  9.000E+00
      -5     1     1     2     0   503 -2.497365641E+01 -4.334944164E+01 -9.997016488E+02  1.000963939E+03  4.750000000E+00  0.00000E+00  9.000E+00
      21     1     1     2   502   512  1.146174461E+01  5.768883639E+00  4.148901131E+00  1.348573278E+01  2.731427965E-07  0.00000E+00  9.000E+00
#rwgt            1           9   4.6059873724012421E-002           1     3034840           0
</event>
<event>
      6   9999  3.45752E-01  7.05303E+00 -1.00000E+00  2.04722E-01
      21    -1     0     0   501   502  0.000000000E+00  0.000000000E+00  2.829556530E+01  2.829556530E+01  0.000000000E+00  0.00000E+00  9.000E+00
      21    -1     0     0   502   511  0.000000000E+00  0.000000000E+00 -1.199524316E+03  1.199524316E+03  0.000000000E+00  0.00000E+00  9.000E+00
      25     1     1     2     0     0  8.214228230E+00 -3.819529332E+00 -9.826947770E+02  9.906539772E+02  1.249968624E+02  0.00000E+00  9.000E+00
       5     1     1     2   501     0 -3.234364492E-01 -5.901821172E+00  2.288217254E+01  2.410585871E+01  4.750000000E+00  0.00000E+00  9.000E+00
      -5     1     1     2     0   503 -1.523782529E+00  6.687144117E+00 -2.225345657E+01  2.376591338E+01  4.750000000E+00  0.00000E+00  9.000E+00
      21     1     1     2   503   511 -6.367009251E+00  3.034206388E+00 -1.891626901E+02  1.892941323E+02  0.000000000E+00  0.00000E+00  9.000E+00
#rwgt            1           9   1.4565493897262820E-003           1     3038726           0
</event>
<event>
      6   9999  3.45752E-01  1.43276E+01 -1.00000E+00  1.72116E-01
      21    -1     0     0   501   502  0.000000000E+00  0.000000000E+00  2.069044970E+02  2.069044970E+02  0.000000000E+00  0.00000E+00  9.000E+00
      21    -1     0     0   502   512  0.000000000E+00  0.000000000E+00 -4.497163785E+01  4.497163785E+01  0.000000000E+00  0.00000E+00  9.000E+00
      25     1     1     2     0     0 -3.327876836E+00  8.412880197E+00  1.616608093E+02  2.045577849E+02  1.250112746E+02  0.00000E+00  9.000E+00
       5     1     1     2   501     0  4.878247060E-01  7.608452369E-02  1.311954953E+01  1.396169193E+01  4.750000000E+00  0.00000E+00  9.000E+00
      -5     1     1     2     0   503  1.506340565E+01 -1.014288428E+00 -3.381236281E+00  1.618425870E+01  4.750000000E+00  0.00000E+00  9.000E+00
      21     1     1     2   503   512 -1.222335352E+01 -7.474676292E+00 -9.466263361E+00  1.717239934E+01  0.000000000E+00  0.00000E+00  9.000E+00
#rwgt            1           9   1.0425478052740306E-003           1     3043814           0
</event>
</LesHouchesEvents>
 #Random number generator exit values:            1       3045445             0
