<LesHouchesEvents version="3.0">
<!--
file generated with POWHEG-BOX-V2
Input file powheg.input contained:
numevts 1000    ! number of events to be generated

! Production parameters for ttH production
hmass 125.d0      ! mass of the HIggs boson [GeV]
hwidth 0.00498d0  ! width of the Higgs boson [GeV]

hdecaymode -1    ! -1 no decay
                ! 0 all decay channels open
                ! 1-6 d dbar, u ubar,..., t tbar
                ! 7-9 e+ e-, mu+ mu-, tau+ tau-
                ! 10  W+W-
                ! 11  ZZ
                ! 12  gamma gamma

#pythiatune 320	! PYTHIA tune


ih1   1           ! hadron 1 (1 for protons, -1 for antiprotons)
ih2   1           ! hadron 2 (1 for protons, -1 for antiprotons)
ebeam1 6500d0     ! energy of beam 1
ebeam2 6500d0     ! energy of beam 2

! To be set only if using 'native' pdfs
!ndns1 131         ! pdf set for hadron 1 (mlm numbering)
!ndns2 131         ! pdf set for hadron 2 (mlm numbering)
! To be set only if using LHA pdfs
! 10050 cteq6m
! 10042 cteq6l with LO alphas (corr. to vbfnlo LO set)
! 10041 cteq6l with NLO alphas
! 21000 MSTW2008 LO
! 21100 MSTW2008 NLO
! 23300 MSTW2008 NLO, NF=4
! 11082 CT10 Nf4

lhans1  23300      ! pdf set for hadron 1 (LHA numbering)
lhans2  23300      ! pdf set for hadron 2 (LHA numbering)

#bornktmin 1d0    ! Generation cut; minimum kt in underlying born
#bornsuppfact 1d0 ! (default 0d0) switch for Born suppression factor. If < 0 suppfact = 1
delta_mbbmin 0d0 ! generation cut on mbb (no gencut used, if set to 0)

use-old-grid    1 ! if 1 use old grid if file pwggrids.dat is present (<> 1 regenerate)
use-old-ubound  1 ! if 1 use norm of upper bounding function stored in pwgubound.dat, if present; <>

ncall1  500000  ! number of calls for initializing the integration grid
itmx1    2     ! number of iterations for initializing the integration grid
ncall2  50000  ! number of calls for computing the integral and finding upper bound
itmx2     1     ! number of iterations for computing the integral and finding upper bound
foldcsi   1    ! number of folds on csi integration
foldy     1    ! number of folds on  y  integration
foldphi   1    ! number of folds on phi integration
nubound 10000  ! number of bbarra calls to setup norm of upper bounding function
icsimax  1     ! <= 100, number of csi subdivision when computing the upper bounds
iymax    1     ! <= 100, number of y subdivision when computing the upper bounds
xupbound 2d0   ! increase upper bound for radiation generation

#runningscales 2	   ! default 0 (no running scales); 1,2: use running scales
renscfact 1d0   ! (default 1d0) ren scale factor: muren  = muref * renscfact
facscfact 1d0   ! (default 1d0) fac scale factor: mufact = muref * facscfact
testplots  1       ! (default 0, do not) do NLO and PWHG distributions

#bornonly   1      ! (default 0) if 1 do Born only
#fakevirt   1      ! (default 0) if 1 use Born for virtuals

iseed    2

manyseeds  1       ! Used to perform multiple runs with different random
                   ! seeds in the same directory.
                   ! If set to 1, the program asks for an integer j;
                   ! The file pwgseeds.dat at line j is read, and the
                   ! integer at line j is used to initialize the random
                   ! sequence for the generation of the event.
                   ! The event file is called pwgevents-'j'.lhe

#storeinfo_rwgt 1   ! store info for reweighting events
#compute_rwgt 1   ! store info for reweighting events
#xgriditeration 1   ! identifier for grid generation
#parallelstage  4   ! identifier for parallel running stages


toploop 1	! 1 include top loop effects; 0 disregard top loop effects
msbar  1	! 1 MSbar renormalization; 0 On-Shell renormalization
parallelstage 4
End of powheg.input content
PDF package: lha
 Random number generator initialized with:            7             0             0
-->
<init>
     2212     2212  6.50000E+03  6.50000E+03     -1     -1     -1     -1     -4      1
  3.37328E-01  1.60874E-01  1.00000E+00   9999
</init>
<event>
      6   9999  3.45752E-01  1.06198E+01 -1.00000E+00  1.84484E-01
      21    -1     0     0   501   502  0.000000000E+00  0.000000000E+00  1.133017044E+02  1.133017044E+02  0.000000000E+00  0.00000E+00  9.000E+00
      21    -1     0     0   502   511  0.000000000E+00  0.000000000E+00 -2.011177579E+02  2.011177579E+02  0.000000000E+00  0.00000E+00  9.000E+00
      25     1     1     2     0     0  2.411520107E+01  8.800613759E+00 -4.399429285E+01  1.349824893E+02  1.250031236E+02  0.00000E+00  9.000E+00
       5     1     1     2   501     0 -2.429139349E-01  6.048383440E+00  6.552765348E+01  6.597785856E+01  4.750000000E+00  0.00000E+00  9.000E+00
      -5     1     1     2     0   503 -1.809798560E+01 -5.936227573E+00 -6.953536521E+01  7.225306495E+01  4.750000000E+00  0.00000E+00  9.000E+00
      21     1     1     2   503   511 -5.774301533E+00 -8.912769626E+00 -3.981404896E+01  4.120604950E+01  6.743495762E-07  0.00000E+00  9.000E+00
#rwgt            1           9   6.5129811174600488E-003           7         121           0
</event>
<event>
      6   9999  3.45752E-01  1.38385E+01 -1.00000E+00  1.73462E-01
      21    -1     0     0   501   502  0.000000000E+00  0.000000000E+00  1.647261929E+01  1.647261929E+01  0.000000000E+00  0.00000E+00  9.000E+00
      21    -1     0     0   512   503  0.000000000E+00  0.000000000E+00 -9.246562230E+02  9.246562230E+02  0.000000000E+00  0.00000E+00  9.000E+00
      25     1     1     2     0     0  6.867358937E+01  2.178697629E+01 -6.584912658E+02  6.741119606E+02  1.250018166E+02  0.00000E+00  9.000E+00
       5     1     1     2   501     0 -5.814996589E+01 -3.435447266E+01 -1.415889517E+02  1.569447102E+02  4.750000000E+00  0.00000E+00  9.000E+00
      -5     1     1     2     0   503 -1.316153712E+00  2.236696840E+00 -1.501546557E+01  1.596125871E+01  4.750000000E+00  0.00000E+00  9.000E+00
      21     1     1     2   512   502 -9.207469771E+00  1.033079953E+01 -9.308792076E+01  9.411091281E+01  1.907348633E-06  0.00000E+00  9.000E+00
#rwgt            1           9   3.5797836482859391E-002           7        2985           0
</event>
<event>
      6   9999  3.45752E-01  2.88347E+00 -1.00000E+00  2.81490E-01
      21    -1     0     0   501   502  0.000000000E+00  0.000000000E+00  6.949414997E+00  6.949414997E+00  0.000000000E+00  0.00000E+00  9.000E+00
      21    -1     0     0   511   503  0.000000000E+00  0.000000000E+00 -1.487343339E+03  1.487343339E+03  0.000000000E+00  0.00000E+00  9.000E+00
      25     1     1     2     0     0  2.224633459E-01 -5.543005303E+00 -6.558965520E+02  6.677241322E+02  1.249978218E+02  0.00000E+00  9.000E+00
       5     1     1     2   501     0 -7.345941276E-02 -4.577146028E-01 -5.690028537E+00  7.426562038E+00  4.750000000E+00  0.00000E+00  9.000E+00
      -5     1     1     2     0   503  6.736620333E-01  3.237098699E+00 -5.069279440E+01  5.102209847E+01  4.750000000E+00  0.00000E+00  9.000E+00
      21     1     1     2   511   502 -8.226659664E-01  2.763621207E+00 -7.681145489E+02  7.681199610E+02  1.078959322E-05  0.00000E+00  9.000E+00
#rwgt            1           9   1.6335400051770309E-004           7        5287           0
</event>
<event>
      6   9999  3.45752E-01  8.54750E+00 -1.00000E+00  1.94671E-01
      21    -1     0     0   501   502  0.000000000E+00  0.000000000E+00  1.935800774E+01  1.935800774E+01  0.000000000E+00  0.00000E+00  9.000E+00
      21    -1     0     0   502   512  0.000000000E+00  0.000000000E+00 -1.094486070E+03  1.094486070E+03  0.000000000E+00  0.00000E+00  9.000E+00
      25     1     1     2     0     0  3.237644631E+01  2.498903456E+01 -7.682079204E+02  7.793845516E+02  1.249967368E+02  0.00000E+00  9.000E+00
       5     1     1     2   501     0  2.683385679E+00 -3.532392283E+00  1.134669225E+01  1.307624865E+01  4.750000000E+00  0.00000E+00  9.000E+00
      -5     1     1     2     0   503 -2.665095284E+01 -1.992352356E+01 -1.997174488E+02  2.025261513E+02  4.750000000E+00  0.00000E+00  9.000E+00
      21     1     1     2   503   512 -8.408879155E+00 -1.533118708E+00 -1.185493857E+02  1.188571267E+02  1.348699152E-06  0.00000E+00  9.000E+00
#rwgt            1           9   1.6614197852415351E-002           7       10468           0
</event>
<event>
      6   9999  3.45752E-01  4.66552E+01 -1.00000E+00  1.36416E-01
      21    -1     0     0   501   502  0.000000000E+00  0.000000000E+00  7.913531491E+01  7.913531491E+01  0.000000000E+00  0.00000E+00  9.000E+00
      21    -1     0     0   511   503  0.000000000E+00  0.000000000E+00 -1.666051785E+03  1.666051785E+03  0.000000000E+00  0.00000E+00  9.000E+00
      25     1     1     2     0     0  4.158849172E+01 -9.721402939E+00 -1.189028863E+03  1.196344114E+03  1.250019820E+02  0.00000E+00  9.000E+00
       5     1     1     2   501     0  7.335734421E+00  3.660013443E+00  7.271630906E+01  7.333098118E+01  4.750000000E+00  0.00000E+00  9.000E+00
      -5     1     1     2     0   503 -2.454700140E+00  1.902797125E+00 -2.483091686E+02  2.483740162E+02  4.750000000E+00  0.00000E+00  9.000E+00
      21     1     1     2   511   502 -4.646952600E+01  4.158592372E+00 -2.222947480E+02  2.271379883E+02  2.697398305E-06  0.00000E+00  9.000E+00
#rwgt            1           9   1.4737275786420923E-003           7       13746           0
</event>
<event>
      6   9999  3.45752E-01  4.47945E+00 -1.00000E+00  2.38095E-01
      21    -1     0     0   501   502  0.000000000E+00  0.000000000E+00  1.211983091E+01  1.211983091E+01  0.000000000E+00  0.00000E+00  9.000E+00
      21    -1     0     0   502   512  0.000000000E+00  0.000000000E+00 -8.641805661E+02  8.641805661E+02  0.000000000E+00  0.00000E+00  9.000E+00
      25     1     1     2     0     0  2.840174896E+00 -1.266095085E+01 -6.654342138E+02  6.771970128E+02  1.249989403E+02  0.00000E+00  9.000E+00
       5     1     1     2   501     0  3.527370439E+00 -3.471161192E-01  4.255809571E+00  7.296385881E+00  4.750000000E+00  0.00000E+00  9.000E+00
      -5     1     1     2     0   503 -1.889080917E+00  1.291393597E+01 -1.599703191E+02  1.605721142E+02  4.750000000E+00  0.00000E+00  9.000E+00
      21     1     1     2   503   512 -4.478464418E+00  9.413099285E-02 -3.091201194E+01  3.123488412E+01  0.000000000E+00  0.00000E+00  9.000E+00
#rwgt            1           9   1.1868803119393571E-004           7       15420           0
</event>
<event>
      6   9999  3.45752E-01  1.06457E+01 -1.00000E+00  1.84376E-01
      21    -1     0     0   511   502  0.000000000E+00  0.000000000E+00  1.352348650E+01  1.352348650E+01  0.000000000E+00  0.00000E+00  9.000E+00
      21    -1     0     0   502   503  0.000000000E+00  0.000000000E+00 -8.140135692E+02  8.140135692E+02  0.000000000E+00  0.00000E+00  9.000E+00
      25     1     1     2     0     0  1.315463942E+01 -6.081043983E+00 -6.829443762E+02  6.944424447E+02  1.250090571E+02  0.00000E+00  9.000E+00
       5     1     1     2   501     0  2.558669276E-01 -9.622986376E-01  3.518586024E+00  5.994533690E+00  4.750000000E+00  0.00000E+00  9.000E+00
      -5     1     1     2     0   503 -3.065788043E+00  4.529953439E+00 -1.142080798E+02  1.144376141E+02  4.750000000E+00  0.00000E+00  9.000E+00
      21     1     1     2   511   501 -1.034471830E+01  2.513389182E+00 -6.856212750E+00  1.266246324E+01  3.862822472E-07  0.00000E+00  9.000E+00
#rwgt            1           9   1.2975047576467343E-003           7       19743           0
</event>
<event>
      6   9999  3.45752E-01  5.64459E+00 -1.00000E+00  2.17820E-01
      -2    -1     0     0     0   502  0.000000000E+00  0.000000000E+00  7.565459864E+01  7.565459864E+01  0.000000000E+00  0.00000E+00  9.000E+00
       2    -1     0     0   512     0  0.000000000E+00  0.000000000E+00 -1.627018110E+03  1.627018110E+03  0.000000000E+00  0.00000E+00  9.000E+00
      25     1     1     2     0     0  1.225072572E+02 -1.746321389E+02 -1.972696667E+02  3.163020371E+02  1.250089806E+02  0.00000E+00  9.000E+00
       5     1     1     2   501     0 -6.800713397E+01 -2.424331906E+01 -2.272712691E+02  2.385110082E+02  4.750000000E+00  0.00000E+00  9.000E+00
      -5     1     1     2     0   502 -4.962846000E+01  2.017264719E+02 -1.023382991E+03  1.044266184E+03  4.750000000E+00  0.00000E+00  9.000E+00
      21     1     1     2   512   501 -4.871663269E+00 -2.851013876E+00 -1.034395841E+02  1.035934792E+02  0.000000000E+00  0.00000E+00  9.000E+00
#rwgt            1           3   9.0662291940583762E-005           7       21909           0
</event>
<event>
      6   9999  3.45752E-01  7.73411E+01 -1.00000E+00  1.25376E-01
      21    -1     0     0   511   502  0.000000000E+00  0.000000000E+00  4.153503608E+01  4.153503608E+01  0.000000000E+00  0.00000E+00  9.000E+00
       1    -1     0     0   501     0  0.000000000E+00  0.000000000E+00 -1.291182343E+03  1.291182343E+03  0.000000000E+00  0.00000E+00  9.000E+00
      25     1     1     2     0     0  4.596838528E+01  1.376972591E+01 -1.478888381E+02  1.994963050E+02  1.249998779E+02  0.00000E+00  9.000E+00
       5     1     1     2   501     0 -7.807127729E+00  6.335113003E+01 -8.559050679E+02  8.582950336E+02  4.750000000E+00  0.00000E+00  9.000E+00
      -5     1     1     2     0   502  8.930518505E+00 -1.576926759E+01 -1.527261862E+02  1.538709667E+02  4.750000000E+00  0.00000E+00  9.000E+00
       1     1     1     2   511     0 -4.709177606E+01 -6.135158835E+01 -9.312721479E+01  1.210550738E+02  3.303624740E-06  0.00000E+00  9.000E+00
#rwgt            1           1   2.5237566008576877E-005           7       34596           0
</event>
<event>
      6   9999 -3.45752E-01  1.88454E+00 -1.00000E+00  3.43208E-01
       2    -1     0     0   501     0  0.000000000E+00  0.000000000E+00  1.746162153E+03  1.746162153E+03  0.000000000E+00  0.00000E+00  9.000E+00
      21    -1     0     0   502   503  0.000000000E+00  0.000000000E+00 -9.690218072E+02  9.690218072E+02  0.000000000E+00  0.00000E+00  9.000E+00
      25     1     1     2     0     0  3.001878201E+00  2.778943306E+00 -9.413348847E+02  9.496066092E+02  1.249984532E+02  0.00000E+00  9.000E+00
       5     1     1     2   501     0  3.489716310E+00  1.885582359E+00  6.526502355E+00  8.993957624E+00  4.750000000E+00  0.00000E+00  9.000E+00
      -5     1     1     2     0   503 -7.220698536E+00 -2.926741950E+00 -2.138403957E+01  2.324960116E+01  4.750000000E+00  0.00000E+00  9.000E+00
       2     1     1     2   502     0  7.291040245E-01 -1.737783715E+00  1.733332768E+03  1.733333792E+03  2.157918644E-05  0.00000E+00  9.000E+00
#rwgt            1           9  -2.4289530284228971E-004           7       35763           0
</event>
<event>
      6   9999  3.45752E-01  3.93656E+00 -1.00000E+00  2.49296E-01
      21    -1     0     0   501   511  0.000000000E+00  0.000000000E+00  3.387876381E+02  3.387876381E+02  0.000000000E+00  0.00000E+00  9.000E+00
      21    -1     0     0   502   503  0.000000000E+00  0.000000000E+00 -8.807934056E+02  8.807934056E+02  0.000000000E+00  0.00000E+00  9.000E+00
      25     1     1     2     0     0 -4.507143853E+00 -4.478317700E+00 -8.340246613E+02  8.433644011E+02  1.250040308E+02  0.00000E+00  9.000E+00
       5     1     1     2   501     0  2.371547817E+00 -1.184766270E+00  8.396202189E+00  1.000433013E+01  4.750000000E+00  0.00000E+00  9.000E+00
      -5     1     1     2     0   503  1.214519275E+00  1.835794780E+00 -4.111690590E+01  4.144885584E+01  4.750000000E+00  0.00000E+00  9.000E+00
      21     1     1     2   502   511  9.210767617E-01  3.827289190E+00  3.247395976E+02  3.247634566E+02  3.814697266E-06  0.00000E+00  9.000E+00
#rwgt            1           9   2.2596723002960760E-004           7       44541           0
</event>
<event>
      6   9999  3.45752E-01  9.95842E+00 -1.00000E+00  1.87384E-01
      21    -1     0     0   501   512  0.000000000E+00  0.000000000E+00  1.675885361E+01  1.675885361E+01  0.000000000E+00  0.00000E+00  9.000E+00
      21    -1     0     0   502   503  0.000000000E+00  0.000000000E+00 -8.243867552E+02  8.243867552E+02  0.000000000E+00  0.00000E+00  9.000E+00
      25     1     1     2     0     0  4.223261661E+00 -2.341478972E+01 -5.295405020E+02  5.446140037E+02  1.250007259E+02  0.00000E+00  9.000E+00
       5     1     1     2   501     0 -1.740139686E+00 -7.593314386E-01  5.511691515E+00  7.519701704E+00  4.750000000E+00  0.00000E+00  9.000E+00
      -5     1     1     2     0   503 -4.918759071E+00  1.451814557E+01 -2.760486741E+02  2.765147441E+02  4.750000000E+00  0.00000E+00  9.000E+00
      21     1     1     2   502   512  2.435637096E+00  9.655975596E+00 -7.550416982E+00  1.249715925E+01  1.460009660E-07  0.00000E+00  9.000E+00
#rwgt            1           9   3.0389827000332058E-002           7       49946           0
</event>
<event>
      6   9999  3.45752E-01  1.83393E+01 -1.00000E+00  1.63138E-01
      21    -1     0     0   511   502  0.000000000E+00  0.000000000E+00  2.191662323E+01  2.191662323E+01  0.000000000E+00  0.00000E+00  9.000E+00
      21    -1     0     0   502   503  0.000000000E+00  0.000000000E+00 -3.203872217E+02  3.203872217E+02  0.000000000E+00  0.00000E+00  9.000E+00
      25     1     1     2     0     0 -1.588322477E+01  1.049573696E+01 -2.770510912E+02  3.045336368E+02  1.249839648E+02  0.00000E+00  9.000E+00
       5     1     1     2   501     0 -4.563811120E-01  5.190525744E-01 -5.010092405E+00  6.938387795E+00  4.750000000E+00  0.00000E+00  9.000E+00
      -5     1     1     2     0   503  1.782730598E+00  1.399144146E-01 -1.033274686E+01  1.151198776E+01  4.750000000E+00  0.00000E+00  9.000E+00
      21     1     1     2   511   501  1.455687529E+01 -1.115470394E+01 -6.076668015E+00  1.931983262E+01  4.986882368E-07  0.00000E+00  9.000E+00
#rwgt            1           9   4.8822969486126213E-005           7       52664           0
</event>
<event>
      6   9999  3.45752E-01  9.30403E+00 -1.00000E+00  1.90555E-01
      21    -1     0     0   512   502  0.000000000E+00  0.000000000E+00  1.304644195E+02  1.304644195E+02  0.000000000E+00  0.00000E+00  9.000E+00
      21    -1     0     0   502   503  0.000000000E+00  0.000000000E+00 -1.013905164E+03  1.013905164E+03  0.000000000E+00  0.00000E+00  9.000E+00
      25     1     1     2     0     0  2.326620794E+01 -1.841262472E+02 -3.047445627E+02  3.780704798E+02  1.249969916E+02  0.00000E+00  9.000E+00
       5     1     1     2   501     0  3.949359238E+00 -1.223775559E+00  7.223444475E+01  7.250843105E+01  4.750000000E+00  0.00000E+00  9.000E+00
      -5     1     1     2     0   503 -2.058809362E+01  1.788199721E+02 -6.579443867E+02  6.821391578E+02  4.750000000E+00  0.00000E+00  9.000E+00
      21     1     1     2   512   501 -6.627473560E+00  6.530050684E+00  7.013760109E+00  1.165151486E+01  8.429369702E-08  0.00000E+00  9.000E+00
#rwgt            1           9  0.10014360361158225                7       53900           0
</event>
<event>
      6   9999  3.45752E-01  1.81921E+01 -1.00000E+00  1.63416E-01
      21    -1     0     0   501   511  0.000000000E+00  0.000000000E+00  8.062019706E+01  8.062019706E+01  0.000000000E+00  0.00000E+00  9.000E+00
      21    -1     0     0   502   503  0.000000000E+00  0.000000000E+00 -8.870564190E+02  8.870564190E+02  0.000000000E+00  0.00000E+00  9.000E+00
      25     1     1     2     0     0 -1.040999298E+01  2.819395251E+00 -8.509790984E+02  8.601785143E+02  1.250013340E+02  0.00000E+00  9.000E+00
       5     1     1     2   501     0  5.312426208E-01 -1.598025175E+01  1.912156468E+00  1.678896981E+01  4.750000000E+00  0.00000E+00  9.000E+00
      -5     1     1     2     0   503 -2.760075128E+00  7.598940177E-02 -2.246089015E+01  2.312310263E+01  4.750000000E+00  0.00000E+00  9.000E+00
      21     1     1     2   502   511  1.263882549E+01  1.308486710E+01  6.509161014E+01  6.758602938E+01  9.536743164E-07  0.00000E+00  9.000E+00
#rwgt            1           9   2.3200083568914967E-002           7       58736           0
</event>
<event>
      6   9999  3.45752E-01  1.40962E+01 -1.00000E+00  1.72744E-01
      21    -1     0     0   501   502  0.000000000E+00  0.000000000E+00  8.351408492E+02  8.351408492E+02  0.000000000E+00  0.00000E+00  9.000E+00
      21    -1     0     0   512   503  0.000000000E+00  0.000000000E+00 -1.403786136E+02  1.403786136E+02  0.000000000E+00  0.00000E+00  9.000E+00
      25     1     1     2     0     0 -1.441735426E+01  4.043891915E+00  9.669057638E+01  1.587404758E+02  1.250010317E+02  0.00000E+00  9.000E+00
       5     1     1     2   501     0  1.648756716E+00 -1.107099932E+00  6.942432976E+02  6.942623876E+02  4.750000000E+00  0.00000E+00  9.000E+00
      -5     1     1     2     0   503 -1.105983191E+00 -4.468715769E-01  1.224465295E+01  1.318775640E+01  4.750000000E+00  0.00000E+00  9.000E+00
      21     1     1     2   512   502  1.387458074E+01 -2.489920406E+00 -1.084162913E+02  1.093288430E+02  3.303624740E-06  0.00000E+00  9.000E+00
#rwgt            1           9   1.9942529871354218E-002           7       60512           0
</event>
<event>
      6   9999  3.45752E-01  1.97896E+01 -1.00000E+00  1.60562E-01
      21    -1     0     0   511   503  0.000000000E+00  0.000000000E+00  8.652641180E+02  8.652641180E+02  0.000000000E+00  0.00000E+00  9.000E+00
      21    -1     0     0   501   502  0.000000000E+00  0.000000000E+00 -7.856310198E+00  7.856310198E+00  0.000000000E+00  0.00000E+00  9.000E+00
      25     1     1     2     0     0 -5.105573465E+00 -3.726205354E+00  6.348405273E+02  6.470606701E+02  1.250002566E+02  0.00000E+00  9.000E+00
       5     1     1     2   501     0 -4.413442178E+00 -6.101476987E-02  2.043528244E+01  2.143934381E+01  4.750000000E+00  0.00000E+00  9.000E+00
      -5     1     1     2     0   503 -1.013636555E+01  1.486510054E+00  5.365758216E+01  5.483296674E+01  4.750000000E+00  0.00000E+00  9.000E+00
      21     1     1     2   511   502  1.965538119E+01  2.300710071E+00  1.484744159E+02  1.497874476E+02  1.907348633E-06  0.00000E+00  9.000E+00
#rwgt            1           9  0.13141271943853017                7       63101           0
</event>
<event>
      6   9999  3.45752E-01  4.00112E+00 -1.00000E+00  2.47825E-01
      21    -1     0     0   501   502  0.000000000E+00  0.000000000E+00  1.089963800E+01  1.089963800E+01  0.000000000E+00  0.00000E+00  9.000E+00
      21    -1     0     0   512   503  0.000000000E+00  0.000000000E+00 -8.621253908E+02  8.621253908E+02  0.000000000E+00  0.00000E+00  9.000E+00
      25     1     1     2     0     0  2.102804415E+01 -2.338979736E-01 -4.729175782E+02  4.896104368E+02  1.250004426E+02  0.00000E+00  9.000E+00
       5     1     1     2   501     0  6.019210706E-01 -8.044776636E-01 -4.481713030E-01  4.875741052E+00  4.750000000E+00  0.00000E+00  9.000E+00
      -5     1     1     2     0   503 -1.780169086E+01  2.201688444E+00 -3.235659417E+02  3.240975606E+02  4.750000000E+00  0.00000E+00  9.000E+00
      21     1     1     2   512   502 -3.828274368E+00 -1.163312807E+00 -5.429406152E+01  5.444129038E+01  6.743495762E-07  0.00000E+00  9.000E+00
#rwgt            1           9   1.8050657974910553E-004           7       64863           0
</event>
<event>
      6   9999  3.45752E-01  1.50370E+01 -1.00000E+00  1.70279E-01
      21    -1     0     0   502   511  0.000000000E+00  0.000000000E+00  4.237193826E+01  4.237193826E+01  0.000000000E+00  0.00000E+00  9.000E+00
      21    -1     0     0   501   502  0.000000000E+00  0.000000000E+00 -7.514828745E+02  7.514828745E+02  0.000000000E+00  0.00000E+00  9.000E+00
      25     1     1     2     0     0  8.781547403E+00 -1.932813161E+01 -6.124659487E+02  6.254538152E+02  1.250089771E+02  0.00000E+00  9.000E+00
       5     1     1     2   501     0 -1.195541778E+01 -4.279472912E+00 -1.055782998E+02  1.064452243E+02  4.750000000E+00  0.00000E+00  9.000E+00
      -5     1     1     2     0   503  6.008770857E+00  8.840241068E+00 -2.347564749E+01  2.622829988E+01  4.750000000E+00  0.00000E+00  9.000E+00
      21     1     1     2   503   511 -2.834900475E+00  1.476736346E+01  3.240895970E+01  3.572747337E+01  1.784161275E-06  0.00000E+00  9.000E+00
#rwgt            1           9   106.84930638468161                7       69343           0
</event>
<event>
      6   9999  3.45752E-01  1.06206E+01 -1.00000E+00  1.84481E-01
      21    -1     0     0   501   502  0.000000000E+00  0.000000000E+00  1.694389136E+02  1.694389136E+02  0.000000000E+00  0.00000E+00  9.000E+00
      21    -1     0     0   512   503  0.000000000E+00  0.000000000E+00 -9.867971803E+01  9.867971803E+01  0.000000000E+00  0.00000E+00  9.000E+00
      25     1     1     2     0     0  9.037096047E+00 -1.457066959E+01  1.029158416E+02  1.628264874E+02  1.250072839E+02  0.00000E+00  9.000E+00
       5     1     1     2   501     0 -6.294914698E-01  2.738993017E-01  2.984370577E+01  3.022714930E+01  4.750000000E+00  0.00000E+00  9.000E+00
      -5     1     1     2     0   503 -1.836803746E+01  1.061060096E+01 -1.389066445E+01  2.579695160E+01  4.750000000E+00  0.00000E+00  9.000E+00
      21     1     1     2   512   502  9.960432884E+00  3.686169329E+00 -4.810968739E+01  4.926804327E+01  6.743495762E-07  0.00000E+00  9.000E+00
#rwgt            1           9  0.10445754827799338                7       70841           0
</event>
<event>
      6   9999  3.45752E-01  4.39578E+00 -1.00000E+00  2.39663E-01
      21    -1     0     0   501   502  0.000000000E+00  0.000000000E+00  3.621950489E+02  3.621950489E+02  0.000000000E+00  0.00000E+00  9.000E+00
      21    -1     0     0   502   511  0.000000000E+00  0.000000000E+00 -2.097317138E+01  2.097317138E+01  0.000000000E+00  0.00000E+00  9.000E+00
      25     1     1     2     0     0 -3.706740486E+00 -2.508830875E+00  3.265135931E+02  3.496515348E+02  1.250001407E+02  0.00000E+00  9.000E+00
       5     1     1     2   501     0  8.506033205E-01 -3.538963031E-01  1.075713119E+01  1.179521683E+01  4.750000000E+00  0.00000E+00  9.000E+00
      -5     1     1     2     0   503  4.396432187E-01 -8.092551116E-01  1.178445077E+01  1.273907218E+01  4.750000000E+00  0.00000E+00  9.000E+00
      21     1     1     2   503   511  2.416493946E+00  3.671982290E+00 -7.833297498E+00  8.982396485E+00  3.153981341E-07  0.00000E+00  9.000E+00
#rwgt            1           9   1.7147741482530636E-004           7       74043           0
</event>
<event>
      6   9999  3.45752E-01  2.87784E+00 -1.00000E+00  2.81720E-01
      21    -1     0     0   501   502  0.000000000E+00  0.000000000E+00  7.445977597E+00  7.445977597E+00  0.000000000E+00  0.00000E+00  9.000E+00
      21    -1     0     0   502   512  0.000000000E+00  0.000000000E+00 -8.636986601E+02  8.636986601E+02  0.000000000E+00  0.00000E+00  9.000E+00
      25     1     1     2     0     0  1.462130088E+00  7.423419170E+00 -6.679960384E+02  6.796352419E+02  1.250124387E+02  0.00000E+00  9.000E+00
       5     1     1     2   501     0 -3.662418166E-01 -5.100662430E-02 -3.086954717E+00  5.677017190E+00  4.750000000E+00  0.00000E+00  9.000E+00
      -5     1     1     2     0   503 -1.457785923E+00 -4.517413302E+00 -3.518547373E+01  3.582055589E+01  4.750000000E+00  0.00000E+00  9.000E+00
      21     1     1     2   503   512  3.618976512E-01 -2.854999243E+00 -1.499842157E+02  1.500118227E+02  2.697398305E-06  0.00000E+00  9.000E+00
#rwgt            1           9   9.8556147027832576E-006           7       78064           0
</event>
<event>
      6   9999 -3.45752E-01  5.12740E+00 -1.00000E+00  2.24029E-01
      21    -1     0     0   502   503  0.000000000E+00  0.000000000E+00  1.068269347E+01  1.068269347E+01  0.000000000E+00  0.00000E+00  9.000E+00
      21    -1     0     0   501   511  0.000000000E+00  0.000000000E+00 -1.114503937E+03  1.114503937E+03  0.000000000E+00  0.00000E+00  9.000E+00
      25     1     1     2     0     0 -9.768546822E+00 -3.243087998E+01 -5.093303949E+02  5.255446326E+02  1.250300888E+02  0.00000E+00  9.000E+00
       5     1     1     2   501     0 -5.632922632E-02  1.365380748E-01 -2.005088487E+02  2.005651583E+02  4.750000000E+00  0.00000E+00  9.000E+00
      -5     1     1     2     0   503  1.086033768E+01  2.727258131E+01 -8.498874141E+01  9.004104227E+01  4.750000000E+00  0.00000E+00  9.000E+00
      21     1     1     2   502   511 -1.035461632E+00  5.021760596E+00 -3.089932582E+02  3.090357970E+02  5.394796609E-06  0.00000E+00  9.000E+00
#rwgt            1           9 -0.56433932087084115                7       83238           0
</event>
<event>
      6   9999  3.45752E-01  2.48289E+01 -1.00000E+00  1.53357E-01
      21    -1     0     0   501   502  0.000000000E+00  0.000000000E+00  7.057367625E+02  7.057367625E+02  0.000000000E+00  0.00000E+00  9.000E+00
      21    -1     0     0   512   503  0.000000000E+00  0.000000000E+00 -4.001621374E+01  4.001621374E+01  0.000000000E+00  0.00000E+00  9.000E+00
      25     1     1     2     0     0 -5.438684328E+01  3.936911015E+01  4.066462095E+02  4.306926376E+02  1.250086112E+02  0.00000E+00  9.000E+00
       5     1     1     2   501     0 -1.338200437E+00  3.273925373E+00  2.118056615E+02  2.118884379E+02  4.750000000E+00  0.00000E+00  9.000E+00
      -5     1     1     2     0   503  4.748829147E+01 -1.922014832E+01  5.674407070E+01  7.659637059E+01  4.750000000E+00  0.00000E+00  9.000E+00
      21     1     1     2   512   502  8.236752256E+00 -2.342288720E+01 -9.475392885E+00  2.657553016E+01  1.209842153E-06  0.00000E+00  9.000E+00
#rwgt            1           9   2.0559336245884490                7       87536           0
</event>
<event>
      6   9999  3.45752E-01  1.08890E+01 -1.00000E+00  1.83380E-01
      21    -1     0     0   501   502  0.000000000E+00  0.000000000E+00  1.400971516E+01  1.400971516E+01  0.000000000E+00  0.00000E+00  9.000E+00
      21    -1     0     0   511   503  0.000000000E+00  0.000000000E+00 -9.520030068E+02  9.520030068E+02  0.000000000E+00  0.00000E+00  9.000E+00
      25     1     1     2     0     0  1.133796363E-02 -2.074215020E+01 -7.521160654E+02  7.626845917E+02  1.248157588E+02  0.00000E+00  9.000E+00
       5     1     1     2   501     0 -1.905504766E-01  4.957625966E+00  5.258718782E+00  8.650490618E+00  4.750000000E+00  0.00000E+00  9.000E+00
      -5     1     1     2     0   503 -5.597263162E+00  2.501508545E+01 -1.331773359E+02  1.357050078E+02  4.750000000E+00  0.00000E+00  9.000E+00
      21     1     1     2   511   502  5.776475675E+00 -9.230561219E+00 -5.795860911E+01  5.897263180E+01  6.743495762E-07  0.00000E+00  9.000E+00
#rwgt            1           9   1.5720610665202227E-003           7       89011           0
</event>
<event>
      6   9999  3.45752E-01  2.53286E+01 -1.00000E+00  1.52756E-01
      21    -1     0     0   501   502  0.000000000E+00  0.000000000E+00  9.781960937E+01  9.781960937E+01  0.000000000E+00  0.00000E+00  9.000E+00
       2    -1     0     0   502     0  0.000000000E+00  0.000000000E+00 -5.033941471E+03  5.033941471E+03  0.000000000E+00  0.00000E+00  9.000E+00
      25     1     1     2     0     0 -6.835419575E+01  1.667055859E+01 -1.107859893E+03  1.117107319E+03  1.250000646E+02  0.00000E+00  9.000E+00
       5     1     1     2   501     0  2.309325972E+00 -2.723811021E+00  9.089604150E+01  9.109009273E+01  4.750000000E+00  0.00000E+00  9.000E+00
      -5     1     1     2     0   503  5.687434472E+01 -3.755691960E+01 -5.392551080E+02  5.435658629E+02  4.750000000E+00  0.00000E+00  9.000E+00
       2     1     1     2   503     0  9.170525061E+00  2.361017203E+01 -3.379902902E+03  3.379997805E+03  4.315837288E-05  0.00000E+00  9.000E+00
#rwgt            1           9   1.4599964946381008E-004           7       91709           0
</event>
<event>
      6   9999  3.45752E-01  3.95867E+01 -1.00000E+00  1.40448E-01
      21    -1     0     0   511   502  0.000000000E+00  0.000000000E+00  5.024425830E+01  5.024425830E+01  0.000000000E+00  0.00000E+00  9.000E+00
      21    -1     0     0   502   503  0.000000000E+00  0.000000000E+00 -8.307299869E+02  8.307299869E+02  0.000000000E+00  0.00000E+00  9.000E+00
      25     1     1     2     0     0  3.194538008E+01  2.048738559E+01 -2.631622509E+02  2.938014854E+02  1.249988089E+02  0.00000E+00  9.000E+00
       5     1     1     2   501     0  7.268234618E+00  6.962421067E+00  2.873965921E+01  3.081936166E+01  4.750000000E+00  0.00000E+00  9.000E+00
      -5     1     1     2     0   503 -1.120358901E+00 -1.667894654E+01 -4.724633770E+02  4.727828758E+02  4.750000000E+00  0.00000E+00  9.000E+00
      21     1     1     2   511   501 -3.809325580E+01 -1.077086012E+01 -7.359975983E+01  8.357052239E+01  0.000000000E+00  0.00000E+00  9.000E+00
#rwgt            1           9   9.2635118134962136E-004           7       94558           0
</event>
<event>
      6   9999 -3.45752E-01  8.26307E+00 -1.00000E+00  1.96366E-01
      21    -1     0     0   502   512  0.000000000E+00  0.000000000E+00  1.434027384E+01  1.434027384E+01  0.000000000E+00  0.00000E+00  9.000E+00
      21    -1     0     0   501   502  0.000000000E+00  0.000000000E+00 -7.802460658E+02  7.802460658E+02  0.000000000E+00  0.00000E+00  9.000E+00
      25     1     1     2     0     0  7.418526042E+00 -2.023740508E+01 -4.587689431E+02  4.759820339E+02  1.250014653E+02  0.00000E+00  9.000E+00
       5     1     1     2   501     0 -1.148834071E+01  4.061495594E+01 -2.445006310E+02  2.481626033E+02  4.750000000E+00  0.00000E+00  9.000E+00
      -5     1     1     2     0   503 -3.747526024E+00 -1.770032524E+01 -5.805382302E+01  6.099306790E+01  4.750000000E+00  0.00000E+00  9.000E+00
      21     1     1     2   503   512  7.817340688E+00 -2.677225616E+00 -4.582394830E+00  9.448634547E+00  4.878850443E-07  0.00000E+00  9.000E+00
#rwgt            1           9  -1.1574467474637544E-003           7       95695           0
</event>
<event>
      6   9999  3.45752E-01  9.18983E+00 -1.00000E+00  1.91143E-01
      21    -1     0     0   501   511  0.000000000E+00  0.000000000E+00  1.374301663E+01  1.374301663E+01  0.000000000E+00  0.00000E+00  9.000E+00
      21    -1     0     0   502   503  0.000000000E+00  0.000000000E+00 -8.300388348E+02  8.300388348E+02  0.000000000E+00  0.00000E+00  9.000E+00
      25     1     1     2     0     0 -2.578772375E+00 -1.303819408E+01 -7.872295982E+02  7.972022767E+02  1.249975402E+02  0.00000E+00  9.000E+00
       5     1     1     2   501     0 -1.042078334E-01  3.083271440E-01  5.537821751E+00  7.303142792E+00  4.750000000E+00  0.00000E+00  9.000E+00
      -5     1     1     2     0   503 -9.866033055E-01  4.304479587E+00 -2.560725258E+01  2.641582509E+01  4.750000000E+00  0.00000E+00  9.000E+00
      21     1     1     2   502   511  3.669583514E+00  8.425387348E+00 -8.996789146E+00  1.286060691E+01  0.000000000E+00  0.00000E+00  9.000E+00
#rwgt            1           9   1.6797768975801142E-003           7       98688           0
</event>
<event>
      6   9999  3.45752E-01  1.78495E+01 -1.00000E+00  1.64075E-01
      21    -1     0     0   512   502  0.000000000E+00  0.000000000E+00  4.546662528E+00  4.546662528E+00  0.000000000E+00  0.00000E+00  9.000E+00
      21    -1     0     0   502   503  0.000000000E+00  0.000000000E+00 -1.885586619E+03  1.885586619E+03  0.000000000E+00  0.00000E+00  9.000E+00
      25     1     1     2     0     0  1.583878693E+01  8.537228382E+00 -1.630857731E+03  1.635740359E+03  1.250033378E+02  0.00000E+00  9.000E+00
       5     1     1     2   501     0  3.227447935E+00  1.988923345E+00 -8.146538099E+00  1.016370106E+01  4.750000000E+00  0.00000E+00  9.000E+00
      -5     1     1     2     0   503 -3.582268923E+00 -1.646245525E+00 -1.664545340E+02  1.665689562E+02  4.750000000E+00  0.00000E+00  9.000E+00
      21     1     1     2   512   501 -1.548396594E+01 -8.879906202E+00 -7.558115353E+01  7.766026464E+01  1.348699152E-06  0.00000E+00  9.000E+00
#rwgt            1           9  0.23117916543862363                7      101213           0
</event>
<event>
      6   9999  3.45752E-01  1.49377E+01 -1.00000E+00  1.70528E-01
      21    -1     0     0   501   502  0.000000000E+00  0.000000000E+00  1.146422549E+01  1.146422549E+01  0.000000000E+00  0.00000E+00  9.000E+00
       2    -1     0     0   502     0  0.000000000E+00  0.000000000E+00 -1.969183141E+03  1.969183141E+03  0.000000000E+00  0.00000E+00  9.000E+00
      25     1     1     2     0     0 -5.585676290E-01 -1.656965801E+01 -5.047681528E+02  5.202796358E+02  1.250005830E+02  0.00000E+00  9.000E+00
       5     1     1     2   501     0  4.206315574E-01  2.809749637E+00  4.077476315E-01  5.549809192E+00  4.750000000E+00  0.00000E+00  9.000E+00
      -5     1     1     2     0   503  3.102722896E+00  2.840047244E+01 -3.072233617E+02  3.085854342E+02  4.750000000E+00  0.00000E+00  9.000E+00
       2     1     1     2   503     0 -2.964786824E+00 -1.464056406E+01 -1.146135148E+03  1.146232487E+03  1.525878906E-05  0.00000E+00  9.000E+00
#rwgt            1           9   9.2509615237699010E-003           7      102478           0
</event>
<event>
      6   9999  3.45752E-01  1.30341E+02 -1.00000E+00  1.15740E-01
      21    -1     0     0   502   503  0.000000000E+00  0.000000000E+00  3.886580474E+02  3.886580474E+02  0.000000000E+00  0.00000E+00  9.000E+00
      21    -1     0     0   501   511  0.000000000E+00  0.000000000E+00 -1.098518758E+03  1.098518758E+03  0.000000000E+00  0.00000E+00  9.000E+00
      25     1     1     2     0     0 -2.070613751E+02 -4.041954235E+02 -1.443169026E+01  4.712604420E+02  1.250191070E+02  0.00000E+00  9.000E+00
       5     1     1     2   501     0 -6.434848946E-01  1.580243257E+02 -1.058613715E+02  1.902663767E+02  4.750000000E+00  0.00000E+00  9.000E+00
      -5     1     1     2     0   503  1.189874594E+02  1.506827672E+02  2.834736690E+01  1.941377025E+02  4.750000000E+00  0.00000E+00  9.000E+00
      21     1     1     2   502   511  8.871740056E+01  9.548833056E+01 -6.179150153E+02  6.315122837E+02  7.629394531E-06  0.00000E+00  9.000E+00
#rwgt            1           9   8.7830458018377570E-004           7      104725           0
</event>
<event>
      6   9999  3.45752E-01  1.68222E+01 -1.00000E+00  1.66166E-01
      21    -1     0     0   501   502  0.000000000E+00  0.000000000E+00  2.122991761E+01  2.122991761E+01  0.000000000E+00  0.00000E+00  9.000E+00
      21    -1     0     0   502   512  0.000000000E+00  0.000000000E+00 -1.202557086E+03  1.202557086E+03  0.000000000E+00  0.00000E+00  9.000E+00
      25     1     1     2     0     0 -5.583765100E-01 -6.272840004E+01 -7.085087243E+02  7.221810789E+02  1.250029375E+02  0.00000E+00  9.000E+00
       5     1     1     2   501     0  3.757357778E-01  3.448672069E+00  8.547417148E+00  1.037570992E+01  4.750000000E+00  0.00000E+00  9.000E+00
      -5     1     1     2     0   503  4.953096138E+00  7.541129669E+01 -3.131467193E+02  3.221720458E+02  4.750000000E+00  0.00000E+00  9.000E+00
      21     1     1     2   503   512 -4.770455406E+00 -1.613156872E+01 -1.682191417E+02  1.690581686E+02  2.697398305E-06  0.00000E+00  9.000E+00
#rwgt            1           9   2.6101770215976909                7      107210           0
</event>
<event>
      6   9999  3.45752E-01  1.14405E+01 -1.00000E+00  1.81240E-01
      21    -1     0     0   501   502  0.000000000E+00  0.000000000E+00  2.955792571E+01  2.955792571E+01  0.000000000E+00  0.00000E+00  9.000E+00
      21    -1     0     0   502   511  0.000000000E+00  0.000000000E+00 -1.087758732E+03  1.087758732E+03  0.000000000E+00  0.00000E+00  9.000E+00
      25     1     1     2     0     0  7.594276411E+00  1.538045904E+01 -8.273766906E+02  8.369410489E+02  1.249955981E+02  0.00000E+00  9.000E+00
       5     1     1     2   501     0  5.511635994E+00 -1.954705104E+00  2.242974462E+01  2.366125413E+01  4.750000000E+00  0.00000E+00  9.000E+00
      -5     1     1     2     0   503 -1.545329101E+01 -2.462288499E+01 -1.529858753E+02  1.557957997E+02  4.750000000E+00  0.00000E+00  9.000E+00
      21     1     1     2   503   511  2.347378608E+00  1.119713106E+01 -1.002679850E+02  1.009185550E+02  1.348699152E-06  0.00000E+00  9.000E+00
#rwgt            1           9  0.14642236339895362                7      109746           0
</event>
<event>
      6   9999 -3.45752E-01  6.20883E+00 -1.00000E+00  2.12009E-01
      21    -1     0     0   502   503  0.000000000E+00  0.000000000E+00  4.284735986E+00  4.284735986E+00  0.000000000E+00  0.00000E+00  9.000E+00
      21    -1     0     0   512   502  0.000000000E+00  0.000000000E+00 -2.265223306E+03  2.265223306E+03  0.000000000E+00  0.00000E+00  9.000E+00
      25     1     1     2     0     0 -9.389915664E+00  3.191628428E+01 -1.996784057E+03  2.000969736E+03  1.250059771E+02  0.00000E+00  9.000E+00
       5     1     1     2   501     0  2.005140630E-02  1.049091879E-03 -1.918019343E+01  1.975962356E+01  4.750000000E+00  0.00000E+00  9.000E+00
      -5     1     1     2     0   503  1.436620130E+01 -2.823139694E+01 -1.398511505E+02  1.434723190E+02  4.750000000E+00  0.00000E+00  9.000E+00
      21     1     1     2   512   501 -4.996337047E+00 -3.685936431E+00 -1.051231683E+02  1.053063627E+02  0.000000000E+00  0.00000E+00  9.000E+00
#rwgt            1           9  -4.3484056659865724E-004           7      112612           0
</event>
<event>
      6   9999 -3.45752E-01  1.55976E+01 -1.00000E+00  1.68914E-01
      21    -1     0     0   511   502  0.000000000E+00  0.000000000E+00  7.065528498E+01  7.065528498E+01  0.000000000E+00  0.00000E+00  9.000E+00
      21    -1     0     0   502   503  0.000000000E+00  0.000000000E+00 -1.759242291E+02  1.759242291E+02  0.000000000E+00  0.00000E+00  9.000E+00
      25     1     1     2     0     0 -1.594738599E+01 -1.315493887E+01 -8.984520337E+01  1.553152457E+02  1.249931736E+02  0.00000E+00  9.000E+00
       5     1     1     2   501     0  7.660475974E-01  2.287356101E+00  2.122792920E+01  2.188621267E+01  4.750000000E+00  0.00000E+00  9.000E+00
      -5     1     1     2     0   503  9.234456475E+00  2.528698107E+01 -4.426191006E+01  5.202293513E+01  4.750000000E+00  0.00000E+00  9.000E+00
      21     1     1     2   511   501  5.946881914E+00 -1.441939830E+01  7.610240154E+00  1.735512049E+01  3.769728732E-07  0.00000E+00  9.000E+00
#rwgt            1           9  -4.4310054947508401E-004           7      116005           0
</event>
<event>
      6   9999  3.45752E-01  5.58716E+00 -1.00000E+00  2.18463E-01
      21    -1     0     0   512   503  0.000000000E+00  0.000000000E+00  4.538398500E+00  4.538398500E+00  0.000000000E+00  0.00000E+00  9.000E+00
      21    -1     0     0   501   502  0.000000000E+00  0.000000000E+00 -1.656451682E+03  1.656451682E+03  0.000000000E+00  0.00000E+00  9.000E+00
      25     1     1     2     0     0  8.950851230E+00  7.310964251E+00 -1.530962995E+03  1.536101146E+03  1.250018785E+02  0.00000E+00  9.000E+00
       5     1     1     2   501     0  1.345173900E-01  1.562213734E-01 -4.326965706E+01  4.353008410E+01  4.750000000E+00  0.00000E+00  9.000E+00
      -5     1     1     2     0   503 -4.800720786E+00 -3.881366445E+00 -7.454713888E+01  7.495298754E+01  4.750000000E+00  0.00000E+00  9.000E+00
      21     1     1     2   512   502 -4.284647833E+00 -3.585819179E+00 -3.133492292E+00  6.405862954E+00  5.040030040E-07  0.00000E+00  9.000E+00
#rwgt            1           9   4.9685988241526032E-004           7      117616           0
</event>
<event>
      6   9999 -3.45752E-01  2.30103E+01 -1.00000E+00  1.55697E-01
      21    -1     0     0   501   511  0.000000000E+00  0.000000000E+00  4.645580859E+01  4.645580859E+01  0.000000000E+00  0.00000E+00  9.000E+00
      21    -1     0     0   502   503  0.000000000E+00  0.000000000E+00 -9.783026697E+02  9.783026697E+02  0.000000000E+00  0.00000E+00  9.000E+00
      25     1     1     2     0     0  4.516469725E+00  2.899298537E+01 -4.731230600E+02  4.902414678E+02  1.250210988E+02  0.00000E+00  9.000E+00
       5     1     1     2   501     0  2.904079087E+01  1.807438557E+01 -3.075230170E+01  4.624194533E+01  4.750000000E+00  0.00000E+00  9.000E+00
      -5     1     1     2     0   503 -1.055100198E+01 -4.663398232E+01 -4.522671944E+02  4.548123015E+02  4.750000000E+00  0.00000E+00  9.000E+00
      21     1     1     2   502   511 -2.300625862E+01 -4.333886224E-01  2.429569495E+01  3.346276370E+01  1.066240300E-06  0.00000E+00  9.000E+00
#rwgt            1           9  -19.362974716237947                7      120476           0
</event>
<event>
      6   9999 -3.45752E-01  4.67538E+00 -1.00000E+00  2.34613E-01
      21    -1     0     0   501   502  0.000000000E+00  0.000000000E+00  8.859573694E+00  8.859573694E+00  0.000000000E+00  0.00000E+00  9.000E+00
      21    -1     0     0   502   512  0.000000000E+00  0.000000000E+00 -8.766525827E+02  8.766525827E+02  0.000000000E+00  0.00000E+00  9.000E+00
      25     1     1     2     0     0 -1.090828796E+01 -2.763149627E-01 -6.591481602E+02  6.709850750E+02  1.250024266E+02  0.00000E+00  9.000E+00
       5     1     1     2   501     0  9.415987049E-02 -8.610832990E-01 -1.572855360E+00  5.078061098E+00  4.750000000E+00  0.00000E+00  9.000E+00
      -5     1     1     2     0   503  7.898808131E+00 -2.517747610E+00 -1.852352211E+01  2.084259088E+01  4.750000000E+00  0.00000E+00  9.000E+00
      21     1     1     2   503   512  2.915319962E+00  3.655145872E+00 -1.885484713E+02  1.886064294E+02  2.697398305E-06  0.00000E+00  9.000E+00
#rwgt            1           9  -3.2338783521064521E-002           7      122504           0
</event>
<event>
      6   9999  3.45752E-01  1.02225E+01 -1.00000E+00  1.86193E-01
      21    -1     0     0   501   511  0.000000000E+00  0.000000000E+00  3.422707931E+01  3.422707931E+01  0.000000000E+00  0.00000E+00  9.000E+00
      21    -1     0     0   502   503  0.000000000E+00  0.000000000E+00 -1.179173547E+03  1.179173547E+03  0.000000000E+00  0.00000E+00  9.000E+00
      25     1     1     2     0     0  4.185287271E+01 -1.155929499E+01 -8.568449073E+02  8.670015961E+02  1.249931681E+02  0.00000E+00  9.000E+00
       5     1     1     2   501     0  3.839032152E+00 -2.624929647E+00  2.455103991E+01  2.543510338E+01  4.750000000E+00  0.00000E+00  9.000E+00
      -5     1     1     2     0   503 -5.586302509E+01  1.520764944E+01 -2.940934131E+02  2.997756633E+02  4.750000000E+00  0.00000E+00  9.000E+00
      21     1     1     2   502   511  1.017112022E+01 -1.023424800E+00 -1.855918705E+01  2.118826347E+01  0.000000000E+00  0.00000E+00  9.000E+00
#rwgt            1           9   7.8596489741225844E-004           7      126089           0
</event>
<event>
      6   9999  3.45752E-01  1.56505E+01 -1.00000E+00  1.68789E-01
      21    -1     0     0   512   502  0.000000000E+00  0.000000000E+00  7.811225795E+01  7.811225795E+01  0.000000000E+00  0.00000E+00  9.000E+00
      21    -1     0     0   502   503  0.000000000E+00  0.000000000E+00 -1.500755265E+03  1.500755265E+03  0.000000000E+00  0.00000E+00  9.000E+00
      25     1     1     2     0     0  9.097232733E+01  4.205813347E+00 -2.435556849E+02  2.885102833E+02  1.250006347E+02  0.00000E+00  9.000E+00
       5     1     1     2   501     0  2.182749223E+00 -6.746837821E-01  4.602190117E+01  4.632275337E+01  4.750000000E+00  0.00000E+00  9.000E+00
      -5     1     1     2     0   503 -1.087753325E+02 -2.559167591E+00 -1.223459477E+03  1.228297308E+03  4.750000000E+00  0.00000E+00  9.000E+00
      21     1     1     2   512   501  1.562025594E+01 -9.719619738E-01 -1.649745763E+00  1.573717785E+01  4.156328941E-07  0.00000E+00  9.000E+00
#rwgt            1           9   6.2295274539874801E-004           7      129926           0
</event>
<event>
      6   9999  3.45752E-01  6.38602E+00 -1.00000E+00  2.10354E-01
      21    -1     0     0   501   511  0.000000000E+00  0.000000000E+00  6.187902880E+00  6.187902880E+00  0.000000000E+00  0.00000E+00  9.000E+00
      21    -1     0     0   502   503  0.000000000E+00  0.000000000E+00 -1.405507579E+03  1.405507579E+03  0.000000000E+00  0.00000E+00  9.000E+00
      25     1     1     2     0     0 -2.068525813E+01 -1.595625324E+01 -1.117146856E+03  1.124422325E+03  1.250039462E+02  0.00000E+00  9.000E+00
       5     1     1     2   501     0  2.507626957E-01 -1.479761330E+00 -1.769505859E+00  5.286419063E+00  4.750000000E+00  0.00000E+00  9.000E+00
      -5     1     1     2     0   503  1.677281462E+01  1.220405641E+01 -2.508690602E+02  2.517699628E+02  4.750000000E+00  0.00000E+00  9.000E+00
      21     1     1     2   502   511  3.661680817E+00  5.231958155E+00 -2.953425477E+01  3.021677510E+01  6.743495762E-07  0.00000E+00  9.000E+00
#rwgt            1           9   1.6479735511948753E-002           7      133009           0
</event>
<event>
      6   9999 -3.45752E-01  1.46119E+01 -1.00000E+00  1.71364E-01
      21    -1     0     0   501   502  0.000000000E+00  0.000000000E+00  1.176640597E+01  1.176640597E+01  0.000000000E+00  0.00000E+00  9.000E+00
       2    -1     0     0   502     0  0.000000000E+00  0.000000000E+00 -1.049372717E+03  1.049372717E+03  0.000000000E+00  0.00000E+00  9.000E+00
      25     1     1     2     0     0  1.169971006E+01  7.947706302E+00 -6.036308823E+02  6.165994948E+02  1.249985826E+02  0.00000E+00  9.000E+00
       5     1     1     2   501     0 -2.130598306E+00  1.789128123E-01  2.527095063E+00  5.789660473E+00  4.750000000E+00  0.00000E+00  9.000E+00
      -5     1     1     2     0   503 -2.103928027E+01 -1.717892460E+01 -2.141634041E+02  2.159312227E+02  4.750000000E+00  0.00000E+00  9.000E+00
       2     1     1     2   503     0  1.147016852E+01  9.052305486E+00 -2.223391193E+02  2.228187447E+02  2.697398305E-06  0.00000E+00  9.000E+00
#rwgt            1           9  -1.7422764395787983E-004           7      136076           0
</event>
<event>
      6   9999  3.45752E-01  1.72252E+01 -1.00000E+00  1.65325E-01
      21    -1     0     0   501   502  0.000000000E+00  0.000000000E+00  6.698181827E+01  6.698181827E+01  0.000000000E+00  0.00000E+00  9.000E+00
       2    -1     0     0   502     0  0.000000000E+00  0.000000000E+00 -4.592498341E+03  4.592498341E+03  0.000000000E+00  0.00000E+00  9.000E+00
      25     1     1     2     0     0 -1.765466213E+02  5.624771678E+01 -1.965747117E+02  2.976497540E+02  1.249849738E+02  0.00000E+00  9.000E+00
       5     1     1     2   501     0 -2.146516100E+00  1.055546079E+00  1.174968540E+01  1.289726002E+01  4.750000000E+00  0.00000E+00  9.000E+00
      -5     1     1     2     0   503  1.750129288E+02 -7.413070739E+01 -2.207550891E+03  2.215722994E+03  4.750000000E+00  0.00000E+00  9.000E+00
       2     1     1     2   503     0  3.680208543E+00  1.682744453E+01 -2.133140606E+03  2.133210151E+03  3.051757812E-05  0.00000E+00  9.000E+00
#rwgt            1           9   8.0537044971747934E-002           7      137640           0
</event>
<event>
      6   9999  3.45752E-01  4.68608E+00 -1.00000E+00  2.34430E-01
      21    -1     0     0   501   511  0.000000000E+00  0.000000000E+00  3.776430262E+02  3.776430262E+02  0.000000000E+00  0.00000E+00  9.000E+00
      21    -1     0     0   502   503  0.000000000E+00  0.000000000E+00 -8.671464927E+02  8.671464927E+02  0.000000000E+00  0.00000E+00  9.000E+00
      25     1     1     2     0     0 -1.460907729E+01 -4.131888383E+01 -3.959568541E+02  4.175252528E+02  1.249993245E+02  0.00000E+00  9.000E+00
       5     1     1     2   501     0 -3.916980629E-01 -1.059954028E+00 -1.811695768E-01  4.885923897E+00  4.750000000E+00  0.00000E+00  9.000E+00
      -5     1     1     2     0   503  1.052950204E+01  4.097632754E+01 -4.568671293E+02  4.588464517E+02  4.750000000E+00  0.00000E+00  9.000E+00
      21     1     1     2   502   511  4.471273313E+00  1.402510317E+00  3.635016866E+02  3.635318906E+02  7.629394531E-06  0.00000E+00  9.000E+00
#rwgt            1           9   2.0488864046559443E-002           7      140994           0
</event>
<event>
      6   9999  3.45752E-01  1.23610E+02 -1.00000E+00  1.16649E-01
      21    -1     0     0   512   502  0.000000000E+00  0.000000000E+00  2.509831764E+01  2.509831764E+01  0.000000000E+00  0.00000E+00  9.000E+00
       2    -1     0     0   501     0  0.000000000E+00  0.000000000E+00 -2.110654281E+03  2.110654281E+03  0.000000000E+00  0.00000E+00  9.000E+00
      25     1     1     2     0     0  1.372622176E+02 -4.188549026E+01 -1.451830831E+03  1.464251541E+03  1.249980199E+02  0.00000E+00  9.000E+00
       5     1     1     2   501     0  2.842732852E+01 -6.506849512E+00 -2.950318715E+01  4.175467219E+01  4.750000000E+00  0.00000E+00  9.000E+00
      -5     1     1     2     0   502 -4.430749513E+01  2.502876508E+01 -2.310301564E+02  2.366159100E+02  4.750000000E+00  0.00000E+00  9.000E+00
       2     1     1     2   512     0 -1.213820509E+02  2.336357468E+01 -3.731917893E+02  3.931304751E+02  9.344061824E-06  0.00000E+00  9.000E+00
#rwgt            1           3   1.0651020189396965E-004           7      146383           0
</event>
<event>
      6   9999  3.45752E-01  5.90848E+00 -1.00000E+00  2.14992E-01
      -1    -1     0     0     0   502  0.000000000E+00  0.000000000E+00  2.175822497E+02  2.175822497E+02  0.000000000E+00  0.00000E+00  9.000E+00
      21    -1     0     0   502   503  0.000000000E+00  0.000000000E+00 -1.036370153E+03  1.036370153E+03  0.000000000E+00  0.00000E+00  9.000E+00
      25     1     1     2     0     0 -3.934267076E+01 -2.407484435E+01 -2.287204256E+02  2.646984809E+02  1.249992353E+02  0.00000E+00  9.000E+00
       5     1     1     2   501     0  4.811027635E+00  1.672244149E+00  1.078079843E+01  1.283473810E+01  4.750000000E+00  0.00000E+00  9.000E+00
      -5     1     1     2     0   503  4.025771610E+01  2.094580052E+01 -7.879270569E+02  7.892471221E+02  4.750000000E+00  0.00000E+00  9.000E+00
      -1     1     1     2     0   501 -5.726072974E+00  1.456799685E+00  1.870787811E+02  1.871720613E+02  4.672030912E-06  0.00000E+00  9.000E+00
#rwgt            1           9   43.833268648283905                7      146875           0
</event>
<event>
      6   9999  3.45752E-01  2.74941E+01 -1.00000E+00  1.50331E-01
      21    -1     0     0   501   511  0.000000000E+00  0.000000000E+00  4.661908967E+01  4.661908967E+01  0.000000000E+00  0.00000E+00  9.000E+00
      21    -1     0     0   502   503  0.000000000E+00  0.000000000E+00 -1.089060711E+03  1.089060711E+03  0.000000000E+00  0.00000E+00  9.000E+00
      25     1     1     2     0     0  4.372289415E+01  7.619470673E+01 -5.712895310E+02  5.913661403E+02  1.249994358E+02  0.00000E+00  9.000E+00
       5     1     1     2   501     0 -2.957453909E+00  8.218679132E+00  1.005275221E+01  1.413907873E+01  4.750000000E+00  0.00000E+00  9.000E+00
      -5     1     1     2     0   503 -6.168032206E+01 -6.656701388E+01 -4.922329799E+02  5.005511947E+02  4.750000000E+00  0.00000E+00  9.000E+00
      21     1     1     2   502   511  2.091488182E+01 -1.784637198E+01  1.102813692E+01  2.962338735E+01  9.830249847E-07  0.00000E+00  9.000E+00
#rwgt            1           9   1.9028266257805600E-003           7      151892           0
</event>
<event>
      6   9999  3.45752E-01  2.16647E+00 -1.00000E+00  3.20007E-01
      21    -1     0     0   501   502  0.000000000E+00  0.000000000E+00  1.227325417E+01  1.227325417E+01  0.000000000E+00  0.00000E+00  9.000E+00
      21    -1     0     0   502   512  0.000000000E+00  0.000000000E+00 -1.606790334E+03  1.606790334E+03  0.000000000E+00  0.00000E+00  9.000E+00
      25     1     1     2     0     0  7.515156075E+01 -1.431387152E+01 -9.187245776E+02  9.303405987E+02  1.250045438E+02  0.00000E+00  9.000E+00
       5     1     1     2   501     0  7.422607392E-01 -1.183123785E+00  9.394286819E-01  5.039420517E+00  4.750000000E+00  0.00000E+00  9.000E+00
      -5     1     1     2     0   503 -7.793430497E+01  1.622502880E+01 -4.546410070E+02  4.615820785E+02  4.750000000E+00  0.00000E+00  9.000E+00
      21     1     1     2   503   512  2.040483483E+00 -7.280334871E-01 -2.220909243E+02  2.221014909E+02  3.814697266E-06  0.00000E+00  9.000E+00
#rwgt            1           9   2.8026403888528791E-003           7      153193           0
</event>
<event>
      6   9999  3.45752E-01  1.25481E+01 -1.00000E+00  1.77375E-01
      21    -1     0     0   511   502  0.000000000E+00  0.000000000E+00  8.651918019E+00  8.651918019E+00  0.000000000E+00  0.00000E+00  9.000E+00
      21    -1     0     0   502   503  0.000000000E+00  0.000000000E+00 -7.709128153E+02  7.709128153E+02  0.000000000E+00  0.00000E+00  9.000E+00
      25     1     1     2     0     0 -3.709796210E+00  6.306984817E+00 -5.706893961E+02  5.842681640E+02  1.250174387E+02  0.00000E+00  9.000E+00
       5     1     1     2   501     0 -3.678059104E+00  6.363176740E+00 -2.023694673E+01  2.204800784E+01  4.750000000E+00  0.00000E+00  9.000E+00
      -5     1     1     2     0   503  2.724080657E+00 -1.020979835E+00 -1.283275079E+02  1.284483351E+02  4.750000000E+00  0.00000E+00  9.000E+00
      21     1     1     2   511   501  4.663774657E+00 -1.164918172E+01 -4.300704660E+01  4.480022640E+01  4.768371582E-07  0.00000E+00  9.000E+00
#rwgt            1           9  0.92313626853125963                7      161303           0
</event>
<event>
      6   9999  3.45752E-01  3.32049E+01 -1.00000E+00  1.45042E-01
      21    -1     0     0   512   502  0.000000000E+00  0.000000000E+00  6.036714655E+02  6.036714655E+02  0.000000000E+00  0.00000E+00  9.000E+00
      21    -1     0     0   502   503  0.000000000E+00  0.000000000E+00 -2.554046578E+02  2.554046578E+02  0.000000000E+00  0.00000E+00  9.000E+00
      25     1     1     2     0     0 -2.226157611E+01 -6.342503199E-01 -2.133080065E+02  2.482001559E+02  1.249281061E+02  0.00000E+00  9.000E+00
       5     1     1     2   501     0 -7.225634214E+00  1.699844818E+01  3.056842898E+02  3.062786388E+02  4.750000000E+00  0.00000E+00  9.000E+00
      -5     1     1     2     0   503 -1.959783090E+00 -5.703294905E+00 -2.273712967E+01  2.399808092E+01  4.750000000E+00  0.00000E+00  9.000E+00
      21     1     1     2   512   501  3.144699342E+01 -1.066090295E+01  2.786276540E+02  2.805992478E+02  3.814697266E-06  0.00000E+00  9.000E+00
#rwgt            1           9   8.8434234387152286E-003           7      162998           0
</event>
<event>
      6   9999  3.45752E-01  2.56851E+01 -1.00000E+00  1.52337E-01
      21    -1     0     0   502   503  0.000000000E+00  0.000000000E+00  1.854912032E+03  1.854912032E+03  0.000000000E+00  0.00000E+00  9.000E+00
       4    -1     0     0   501     0  0.000000000E+00  0.000000000E+00 -6.743862453E+01  6.743862453E+01  0.000000000E+00  0.00000E+00  9.000E+00
      25     1     1     2     0     0 -2.199095655E+01  1.865087331E+01  3.019659389E+02  3.280853479E+02  1.250004399E+02  0.00000E+00  9.000E+00
       5     1     1     2   501     0 -3.222507327E+00  1.914600822E-01  6.940569584E+01  6.964290578E+01  4.750000000E+00  0.00000E+00  9.000E+00
      -5     1     1     2     0   503  4.525814434E+00 -3.619066588E+00  1.467312349E+03  1.467331481E+03  4.750000000E+00  0.00000E+00  9.000E+00
       4     1     1     2   502     0  2.068764945E+01 -1.522326680E+01 -5.121057633E+01  5.729092266E+01  2.939421655E-06  0.00000E+00  9.000E+00
#rwgt            1           9   282.69270786276223                7      165000           0
</event>
<event>
      6   9999  3.45752E-01  2.00320E+02 -1.00000E+00  1.08870E-01
      21    -1     0     0   502   511  0.000000000E+00  0.000000000E+00  4.396003930E+02  4.396003930E+02  0.000000000E+00  0.00000E+00  9.000E+00
      21    -1     0     0   501   502  0.000000000E+00  0.000000000E+00 -1.922293096E+03  1.922293096E+03  0.000000000E+00  0.00000E+00  9.000E+00
      25     1     1     2     0     0  8.786762081E+01 -9.657163497E+01 -9.939152724E+01  2.062482255E+02  1.249514120E+02  0.00000E+00  9.000E+00
       5     1     1     2   501     0 -1.781100193E-01 -6.042862415E+00 -1.610098354E+03  1.610116711E+03  4.750000000E+00  0.00000E+00  9.000E+00
      -5     1     1     2     0   503 -9.114763080E+01 -9.767532837E+01 -9.672829708E+01  1.650069281E+02  4.750000000E+00  0.00000E+00  9.000E+00
      21     1     1     2   503   511  3.458120007E+00  2.002898258E+02  3.235254763E+02  3.805216245E+02  1.206313194E-05  0.00000E+00  9.000E+00
#rwgt            1           9   1.4779255861879998E-004           7      167022           0
</event>
<event>
      6   9999  3.45752E-01  5.37020E+00 -1.00000E+00  2.20994E-01
      21    -1     0     0   501   512  0.000000000E+00  0.000000000E+00  5.224070397E+01  5.224070397E+01  0.000000000E+00  0.00000E+00  9.000E+00
      21    -1     0     0   502   503  0.000000000E+00  0.000000000E+00 -1.892503236E+02  1.892503236E+02  0.000000000E+00  0.00000E+00  9.000E+00
      25     1     1     2     0     0  8.152997024E-01 -3.384464976E-01 -1.164924079E+02  1.708650157E+02  1.249943727E+02  0.00000E+00  9.000E+00
       5     1     1     2   501     0 -4.011832538E-02  3.924833514E-01  3.629125393E-02  4.766494489E+00  4.750000000E+00  0.00000E+00  9.000E+00
      -5     1     1     2     0   503 -4.598922264E+00  3.716639612E+00 -4.254809625E+01  4.321882102E+01  4.750000000E+00  0.00000E+00  9.000E+00
      21     1     1     2   502   512  3.823740887E+00 -3.770676466E+00  2.199459334E+01  2.264069636E+01  4.768371582E-07  0.00000E+00  9.000E+00
#rwgt            1           9   6.3516739827021126E-004           7      167374           0
</event>
<event>
      6   9999 -3.45752E-01  1.79898E+01 -1.00000E+00  1.63803E-01
      21    -1     0     0   511   502  0.000000000E+00  0.000000000E+00  1.017260809E+01  1.017260809E+01  0.000000000E+00  0.00000E+00  9.000E+00
      21    -1     0     0   502   503  0.000000000E+00  0.000000000E+00 -7.549463199E+02  7.549463199E+02  0.000000000E+00  0.00000E+00  9.000E+00
      25     1     1     2     0     0 -1.280267464E+01 -4.421264077E+00 -6.040219418E+02  6.169695542E+02  1.250018742E+02  0.00000E+00  9.000E+00
       5     1     1     2   501     0 -1.083667506E+00 -1.276995625E+00 -5.196040731E-01  5.063352791E+00  4.750000000E+00  0.00000E+00  9.000E+00
      -5     1     1     2     0   503  2.564827954E+00 -8.282296217E+00 -6.405744253E+01  6.481584079E+01  4.750000000E+00  0.00000E+00  9.000E+00
      21     1     1     2   511   501  1.132151419E+01  1.398055592E+01 -7.617472344E+01  7.827018026E+01  1.651812370E-06  0.00000E+00  9.000E+00
#rwgt            1           9 -0.60637092256721170                7      171117           0
</event>
<event>
      6   9999  3.45752E-01  4.11814E+00 -1.00000E+00  2.45262E-01
      21    -1     0     0   512   502  0.000000000E+00  0.000000000E+00  8.245619496E+00  8.245619496E+00  0.000000000E+00  0.00000E+00  9.000E+00
      21    -1     0     0   502   503  0.000000000E+00  0.000000000E+00 -7.177904099E+02  7.177904099E+02  0.000000000E+00  0.00000E+00  9.000E+00
      25     1     1     2     0     0 -1.359934039E+01 -3.583386933E+00 -5.931889986E+02  6.063790836E+02  1.249984890E+02  0.00000E+00  9.000E+00
       5     1     1     2   501     0  1.158139838E-01  3.432591008E-01 -8.253890102E+00  9.529975945E+00  4.750000000E+00  0.00000E+00  9.000E+00
      -5     1     1     2     0   503  1.444625679E+01  7.244152801E+00 -8.997542929E+01  9.153858455E+01  4.750000000E+00  0.00000E+00  9.000E+00
      21     1     1     2   512   501 -9.627303882E-01 -4.004024969E+00 -1.812647240E+01  1.858838528E+01  0.000000000E+00  0.00000E+00  9.000E+00
#rwgt            1           9   5.0955572435576750E-004           7      172667           0
</event>
<event>
      6   9999  3.45752E-01  1.22416E+01 -1.00000E+00  1.78392E-01
      21    -1     0     0   501   511  0.000000000E+00  0.000000000E+00  2.551048121E+01  2.551048121E+01  0.000000000E+00  0.00000E+00  9.000E+00
      21    -1     0     0   502   503  0.000000000E+00  0.000000000E+00 -1.067963139E+03  1.067963139E+03  0.000000000E+00  0.00000E+00  9.000E+00
      25     1     1     2     0     0  1.005912142E+01  7.885541817E+00 -9.886577693E+02  9.966111887E+02  1.250052359E+02  0.00000E+00  9.000E+00
       5     1     1     2   501     0 -2.155569703E+00  3.139824043E+00  1.921382525E+01  2.015536049E+01  4.750000000E+00  0.00000E+00  9.000E+00
      -5     1     1     2     0   503 -3.298780870E+00  3.171512884E-01 -5.253080607E+01  5.284913080E+01  4.750000000E+00  0.00000E+00  9.000E+00
      21     1     1     2   502   511 -4.604770842E+00 -1.134251715E+01 -2.047790797E+01  2.385794049E+01  2.384185791E-07  0.00000E+00  9.000E+00
#rwgt            1           9   6.8900633409754871E-004           7      177610           0
</event>
<event>
      6   9999  3.45752E-01  2.54229E+00 -1.00000E+00  2.97175E-01
      21    -1     0     0   501   512  0.000000000E+00  0.000000000E+00  1.539173014E+01  1.539173014E+01  0.000000000E+00  0.00000E+00  9.000E+00
      21    -1     0     0   502   503  0.000000000E+00  0.000000000E+00 -7.578181515E+02  7.578181515E+02  0.000000000E+00  0.00000E+00  9.000E+00
      25     1     1     2     0     0 -8.722528670E+00  2.260805164E+00 -6.690657883E+02  6.807021990E+02  1.250010435E+02  0.00000E+00  9.000E+00
       5     1     1     2   501     0  1.835749073E-01  5.939087284E-01  4.888984421E-01  4.815386694E+00  4.750000000E+00  0.00000E+00  9.000E+00
      -5     1     1     2     0   503  9.036465105E+00 -5.347844535E+00 -8.011030558E+01  8.093504001E+01  4.750000000E+00  0.00000E+00  9.000E+00
      21     1     1     2   502   512 -4.975113419E-01  2.493130642E+00  6.260773999E+00  6.757256026E+00  5.331201500E-07  0.00000E+00  9.000E+00
#rwgt            1           9   1.6798886512199760E-004           7      180497           0
</event>
<event>
      6   9999 -3.45752E-01  6.99528E+00 -1.00000E+00  2.05176E-01
      21    -1     0     0   502   503  0.000000000E+00  0.000000000E+00  2.243960276E+01  2.243960276E+01  0.000000000E+00  0.00000E+00  9.000E+00
      21    -1     0     0   511   502  0.000000000E+00  0.000000000E+00 -5.399931340E+02  5.399931340E+02  0.000000000E+00  0.00000E+00  9.000E+00
      25     1     1     2     0     0  3.873353578E+01  3.940028960E+01 -2.928299786E+02  3.231482524E+02  1.249909079E+02  0.00000E+00  9.000E+00
       5     1     1     2   501     0 -3.492171320E+01 -2.249324619E+01 -8.022756472E+01  9.046820888E+01  4.750000000E+00  0.00000E+00  9.000E+00
      -5     1     1     2     0   503  1.762768386E+00 -2.113290689E+01 -5.638367883E+01  6.042672293E+01  4.750000000E+00  0.00000E+00  9.000E+00
      21     1     1     2   511   501 -5.574590970E+00  4.225863487E+00 -8.811230908E+01  8.838955254E+01  1.348699152E-06  0.00000E+00  9.000E+00
#rwgt            1           9  -1.1434070007914573E-002           7      186222           0
</event>
<event>
      6   9999  3.45752E-01  1.38352E+01 -1.00000E+00  1.73471E-01
      21    -1     0     0   512   502  0.000000000E+00  0.000000000E+00  4.228580295E+01  4.228580295E+01  0.000000000E+00  0.00000E+00  9.000E+00
      21    -1     0     0   502   503  0.000000000E+00  0.000000000E+00 -1.069249728E+03  1.069249728E+03  0.000000000E+00  0.00000E+00  9.000E+00
      25     1     1     2     0     0 -1.680873451E+01 -8.219986062E+01 -3.687369637E+02  3.982857273E+02  1.250008858E+02  0.00000E+00  9.000E+00
       5     1     1     2   501     0 -3.451102559E-02 -5.493118983E-01  8.798701064E+00  1.001411878E+01  4.750000000E+00  0.00000E+00  9.000E+00
      -5     1     1     2     0   503  3.743903399E+00  7.829727427E+01 -6.798502708E+02  6.843708302E+02  4.750000000E+00  0.00000E+00  9.000E+00
      21     1     1     2   512   501  1.309934213E+01  4.451898244E+00  1.282460845E+01  1.886485473E+01  9.536743164E-07  0.00000E+00  9.000E+00
#rwgt            1           9   2.5563303965333449E-005           7      189428           0
</event>
<event>
      6   9999  3.45752E-01  5.37434E+00 -1.00000E+00  2.20944E-01
      21    -1     0     0   501   502  0.000000000E+00  0.000000000E+00  2.236804060E+00  2.236804060E+00  0.000000000E+00  0.00000E+00  9.000E+00
      21    -1     0     0   511   503  0.000000000E+00  0.000000000E+00 -4.002963333E+03  4.002963333E+03  0.000000000E+00  0.00000E+00  9.000E+00
      25     1     1     2     0     0  1.364297635E+01 -7.878681060E+00 -3.145155563E+03  3.147678002E+03  1.250003331E+02  0.00000E+00  9.000E+00
       5     1     1     2   501     0 -1.295973209E+00 -7.092144770E-01 -6.827571869E+00  8.447530371E+00  4.750000000E+00  0.00000E+00  9.000E+00
      -5     1     1     2     0   503 -1.058531983E+01  3.510494631E+00 -2.387366914E+02  2.390442278E+02  4.750000000E+00  0.00000E+00  9.000E+00
      21     1     1     2   511   502 -1.761683314E+00  5.077400906E+00 -6.100067025E+02  6.100303768E+02  1.321449896E-05  0.00000E+00  9.000E+00
#rwgt            1           9   1.6655335587016384E-002           7      192611           0
</event>
<event>
      6   9999  3.45752E-01  1.45580E+01 -1.00000E+00  1.71505E-01
      21    -1     0     0   501   502  0.000000000E+00  0.000000000E+00  2.089662567E+02  2.089662567E+02  0.000000000E+00  0.00000E+00  9.000E+00
      21    -1     0     0   502   512  0.000000000E+00  0.000000000E+00 -4.929768824E+02  4.929768824E+02  0.000000000E+00  0.00000E+00  9.000E+00
      25     1     1     2     0     0 -2.031647228E+01  5.327511853E+01 -3.566868768E+02  3.822325542E+02  1.250008007E+02  0.00000E+00  9.000E+00
       5     1     1     2   501     0 -4.766627738E+00 -2.928648210E+00  1.872633195E+02  1.874070731E+02  4.750000000E+00  0.00000E+00  9.000E+00
      -5     1     1     2     0   503  2.159218251E+01 -3.621322196E+01 -4.765188714E+01  6.380348453E+01  4.750000000E+00  0.00000E+00  9.000E+00
      21     1     1     2   503   512  3.490917499E+00 -1.413324836E+01 -6.693518138E+01  6.850002716E+01  0.000000000E+00  0.00000E+00  9.000E+00
#rwgt            1           9   1.4210492164271860                7      196297           0
</event>
<event>
      6   9999 -3.45752E-01  1.01509E+01 -1.00000E+00  1.86511E-01
      21    -1     0     0   501   502  0.000000000E+00  0.000000000E+00  7.416441416E+01  7.416441416E+01  0.000000000E+00  0.00000E+00  9.000E+00
      21    -1     0     0   502   511  0.000000000E+00  0.000000000E+00 -1.907195834E+03  1.907195834E+03  0.000000000E+00  0.00000E+00  9.000E+00
      25     1     1     2     0     0  1.460898291E+01 -8.433911633E-01 -1.422547686E+03  1.428103990E+03  1.249998121E+02  0.00000E+00  9.000E+00
       5     1     1     2   501     0 -2.148695127E+00  1.121682892E+01  7.038192157E+01  7.146055923E+01  4.750000000E+00  0.00000E+00  9.000E+00
      -5     1     1     2     0   503 -3.313634703E+00 -5.971152409E+00 -4.217044628E+01  4.298306499E+01  4.750000000E+00  0.00000E+00  9.000E+00
      21     1     1     2   503   511 -9.146653084E+00 -4.402285344E+00 -4.386952094E+02  4.388126344E+02  0.000000000E+00  0.00000E+00  9.000E+00
#rwgt            1           9  -8.5352708952050882E-003           7      199569           0
</event>
<event>
      6   9999  3.45752E-01  8.66704E+00 -1.00000E+00  1.93985E-01
      21    -1     0     0   501   502  0.000000000E+00  0.000000000E+00  1.280585834E+01  1.280585834E+01  0.000000000E+00  0.00000E+00  9.000E+00
      21    -1     0     0   512   503  0.000000000E+00  0.000000000E+00 -8.928883017E+02  8.928883017E+02  0.000000000E+00  0.00000E+00  9.000E+00
      25     1     1     2     0     0 -8.584656682E+00  2.223902868E+01 -7.240562444E+02  7.351534203E+02  1.249993426E+02  0.00000E+00  9.000E+00
       5     1     1     2   501     0 -7.238705572E+00 -3.560604177E+00  2.534043266E+00  9.698486260E+00  4.750000000E+00  0.00000E+00  9.000E+00
      -5     1     1     2     0   503  7.589519430E+00 -1.597261129E+01 -1.104606970E+02  1.119680900E+02  4.750000000E+00  0.00000E+00  9.000E+00
      21     1     1     2   512   502  8.233842824E+00 -2.705813206E+00 -4.809954529E+01  4.887416341E+01  6.743495762E-07  0.00000E+00  9.000E+00
#rwgt            1           9   7.2252536526305159E-004           7      203802           0
</event>
<event>
      6   9999  3.45752E-01  2.75055E+01 -1.00000E+00  1.50319E-01
      21    -1     0     0   501   502  0.000000000E+00  0.000000000E+00  3.892506496E+01  3.892506496E+01  0.000000000E+00  0.00000E+00  9.000E+00
      21    -1     0     0   511   503  0.000000000E+00  0.000000000E+00 -1.536862991E+03  1.536862991E+03  0.000000000E+00  0.00000E+00  9.000E+00
      25     1     1     2     0     0  1.054418342E+02 -3.609605495E+01 -5.587587430E+02  5.833161811E+02  1.250021148E+02  0.00000E+00  9.000E+00
       5     1     1     2   501     0  8.286769401E+00  3.646502872E-01  2.153189540E+01  2.355819468E+01  4.750000000E+00  0.00000E+00  9.000E+00
      -5     1     1     2     0   503 -8.653655309E+01  3.987233929E+01 -6.464589711E+02  6.534601305E+02  4.750000000E+00  0.00000E+00  9.000E+00
      21     1     1     2   511   502 -2.719205055E+01 -4.140934625E+00 -3.142521074E+02  3.154535496E+02  3.814697266E-06  0.00000E+00  9.000E+00
#rwgt            1           9   1.4762819817872243E-003           7      206517           0
</event>
<event>
      6   9999  3.45752E-01  4.70833E+00 -1.00000E+00  2.34051E-01
      21    -1     0     0   501   512  0.000000000E+00  0.000000000E+00  1.079027535E+02  1.079027535E+02  0.000000000E+00  0.00000E+00  9.000E+00
      21    -1     0     0   502   503  0.000000000E+00  0.000000000E+00 -7.931390113E+02  7.931390113E+02  0.000000000E+00  0.00000E+00  9.000E+00
      25     1     1     2     0     0  1.054597955E+01  1.768227614E+01 -6.242755994E+02  6.370006374E+02  1.250036302E+02  0.00000E+00  9.000E+00
       5     1     1     2   501     0  1.723076374E+00 -1.333764807E+00  5.346696852E+00  7.476468951E+00  4.750000000E+00  0.00000E+00  9.000E+00
      -5     1     1     2     0   503 -9.855304496E+00 -1.230596662E+01 -1.609574708E+02  1.617975084E+02  4.750000000E+00  0.00000E+00  9.000E+00
      21     1     1     2   502   512 -2.413751433E+00 -4.042544712E+00  9.465011545E+01  9.476715000E+01  5.223489356E-06  0.00000E+00  9.000E+00
#rwgt            1           9   2.6064627357778061E-004           7      208846           0
</event>
<event>
      6   9999 -3.45752E-01  1.95243E+01 -1.00000E+00  1.61012E-01
      21    -1     0     0   501   511  0.000000000E+00  0.000000000E+00  2.422129042E+01  2.422129042E+01  0.000000000E+00  0.00000E+00  9.000E+00
      21    -1     0     0   502   503  0.000000000E+00  0.000000000E+00 -1.528726824E+03  1.528726824E+03  0.000000000E+00  0.00000E+00  9.000E+00
      25     1     1     2     0     0 -1.076633412E+02  3.560270843E+01 -7.742732320E+02  7.924562012E+02  1.250153802E+02  0.00000E+00  9.000E+00
       5     1     1     2   501     0  1.030440192E+02 -7.162698590E+01 -3.345638071E+02  3.573569623E+02  4.750000000E+00  0.00000E+00  9.000E+00
      -5     1     1     2     0   503  9.196737196E+00  5.500440859E+01 -3.265488118E+02  3.313106607E+02  4.750000000E+00  0.00000E+00  9.000E+00
      21     1     1     2   502   511 -4.577415207E+00 -1.898013111E+01 -6.911968259E+01  7.182428996E+01  9.536743164E-07  0.00000E+00  9.000E+00
#rwgt            1           9  -1.1748483200243846E-002           7      213397           0
</event>
<event>
      6   9999 -3.45752E-01  3.66829E+01 -1.00000E+00  1.42402E-01
      21    -1     0     0   501   512  0.000000000E+00  0.000000000E+00  9.139989580E+01  9.139989580E+01  0.000000000E+00  0.00000E+00  9.000E+00
      21    -1     0     0   502   503  0.000000000E+00  0.000000000E+00 -1.284783516E+03  1.284783516E+03  0.000000000E+00  0.00000E+00  9.000E+00
      25     1     1     2     0     0 -2.049313099E+02 -1.180765183E+02 -8.214407434E+02  8.638567670E+02  1.246784383E+02  0.00000E+00  9.000E+00
       5     1     1     2   501     0  1.401394735E+02  7.972227372E+01 -2.885674848E+02  3.305880650E+02  4.750000000E+00  0.00000E+00  9.000E+00
      -5     1     1     2     0   503  2.904507575E+01  4.658867144E+01 -1.186654724E+02  1.308364536E+02  4.750000000E+00  0.00000E+00  9.000E+00
      21     1     1     2   502   512  3.574676069E+01 -8.234426869E+00  3.529008038E+01  5.090212627E+01  1.719260824E-06  0.00000E+00  9.000E+00
#rwgt            1           9  -5.1661638917295717E-005           7      215311           0
</event>
<event>
      6   9999  3.45752E-01  9.90289E+00 -1.00000E+00  1.87641E-01
      21    -1     0     0   501   502  0.000000000E+00  0.000000000E+00  8.336107668E+01  8.336107668E+01  0.000000000E+00  0.00000E+00  9.000E+00
      21    -1     0     0   502   511  0.000000000E+00  0.000000000E+00 -1.681978661E+03  1.681978661E+03  0.000000000E+00  0.00000E+00  9.000E+00
      25     1     1     2     0     0  1.163543808E+00  3.149494526E+01 -1.180992071E+03  1.188006747E+03  1.249978956E+02  0.00000E+00  9.000E+00
       5     1     1     2   501     0 -1.815207886E+01 -9.311108709E+00  7.767812071E+01  8.045276657E+01  4.750000000E+00  0.00000E+00  9.000E+00
      -5     1     1     2     0   503  8.304386711E+00 -2.694333369E+01 -4.118164029E+02  4.128077255E+02  4.750000000E+00  0.00000E+00  9.000E+00
      21     1     1     2   503   511  8.684148336E+00  4.759497139E+00 -8.348723174E+01  8.407249912E+01  9.536743164E-07  0.00000E+00  9.000E+00
#rwgt            1           9   3.1341071135901461E-003           7      216646           0
</event>
<event>
      6   9999 -3.45752E-01  7.07146E+01 -1.00000E+00  1.27197E-01
      21    -1     0     0   501   512  0.000000000E+00  0.000000000E+00  2.237192837E+02  2.237192837E+02  0.000000000E+00  0.00000E+00  9.000E+00
      21    -1     0     0   502   503  0.000000000E+00  0.000000000E+00 -9.752510071E+02  9.752510071E+02  0.000000000E+00  0.00000E+00  9.000E+00
      25     1     1     2     0     0  8.698662024E+01  1.361208840E+02 -1.991568081E+02  2.852799224E+02  1.250025310E+02  0.00000E+00  9.000E+00
       5     1     1     2   501     0 -1.800860965E+00 -5.564139539E+01 -2.054941609E+02  2.129545037E+02  4.750000000E+00  0.00000E+00  9.000E+00
      -5     1     1     2     0   503 -3.739175289E+01 -2.836144647E+01 -5.156226431E+02  5.177758081E+02  4.750000000E+00  0.00000E+00  9.000E+00
      21     1     1     2   502   512 -4.779400639E+01 -5.211804216E+01  1.687418886E+02  1.829600567E+02  4.264961200E-06  0.00000E+00  9.000E+00
#rwgt            1           9 -0.70003532459014295                7      221391           0
</event>
<event>
      6   9999  3.45752E-01  1.11106E+01 -1.00000E+00  1.82501E-01
      21    -1     0     0   501   511  0.000000000E+00  0.000000000E+00  1.657337727E+03  1.657337727E+03  0.000000000E+00  0.00000E+00  9.000E+00
      21    -1     0     0   502   503  0.000000000E+00  0.000000000E+00 -9.360796895E+00  9.360796895E+00  0.000000000E+00  0.00000E+00  9.000E+00
      25     1     1     2     0     0 -1.699605818E+00 -6.210312746E+00  4.344443683E+02  4.521154099E+02  1.249999124E+02  0.00000E+00  9.000E+00
       5     1     1     2   501     0  2.433914389E+00  5.228128858E+00  9.309327473E+02  9.309627274E+02  4.750000000E+00  0.00000E+00  9.000E+00
      -5     1     1     2     0   503  3.006812095E+00  1.144397318E+01  1.336760296E+02  1.342827197E+02  4.750000000E+00  0.00000E+00  9.000E+00
      21     1     1     2   502   511 -3.741120667E+00 -1.046178929E+01  1.489237853E+02  1.493376672E+02  1.907348633E-06  0.00000E+00  9.000E+00
#rwgt            1           9   2.7072195466461119E-003           7      222516           0
</event>
<event>
      6   9999  3.45752E-01  7.09700E+00 -1.00000E+00  2.04380E-01
      21    -1     0     0   501   512  0.000000000E+00  0.000000000E+00  1.686569856E+02  1.686569856E+02  0.000000000E+00  0.00000E+00  9.000E+00
      21    -1     0     0   502   503  0.000000000E+00  0.000000000E+00 -1.680561733E+03  1.680561733E+03  0.000000000E+00  0.00000E+00  9.000E+00
      25     1     1     2     0     0  6.297532413E+01  6.210073720E+01 -1.663361665E+02  2.260807188E+02  1.249895120E+02  0.00000E+00  9.000E+00
       5     1     1     2   501     0 -1.211081279E+01  1.012033971E+01  6.298534801E+01  6.510614123E+01  4.750000000E+00  0.00000E+00  9.000E+00
      -5     1     1     2     0   503 -5.325174821E+01 -6.553762421E+01 -1.481915836E+03  1.484327470E+03  4.750000000E+00  0.00000E+00  9.000E+00
      21     1     1     2   502   512  2.387236872E+00 -6.683452698E+00  7.336190759E+01  7.370438878E+01  2.697398305E-06  0.00000E+00  9.000E+00
#rwgt            1           9   2.7669795179592930E-005           7      225226           0
</event>
<event>
      6   9999  3.45752E-01  1.22747E+01 -1.00000E+00  1.78281E-01
      21    -1     0     0   501   502  0.000000000E+00  0.000000000E+00  1.817252755E+01  1.817252755E+01  0.000000000E+00  0.00000E+00  9.000E+00
      21    -1     0     0   502   511  0.000000000E+00  0.000000000E+00 -1.015936089E+03  1.015936089E+03  0.000000000E+00  0.00000E+00  9.000E+00
      25     1     1     2     0     0 -3.813269096E+01  5.637938541E+01 -7.146851479E+02  7.287196234E+02  1.249987668E+02  0.00000E+00  9.000E+00
       5     1     1     2   501     0  4.317840729E-01  7.539046745E-01  6.172574892E+00  7.836963094E+00  4.750000000E+00  0.00000E+00  9.000E+00
      -5     1     1     2     0   503  2.844792706E+01 -4.906787363E+01 -2.213500318E+02  2.285505192E+02  4.750000000E+00  0.00000E+00  9.000E+00
      21     1     1     2   503   511  9.252979825E+00 -8.065416458E+00 -6.790095658E+01  6.900151073E+01  1.348699152E-06  0.00000E+00  9.000E+00
#rwgt            1           9   2.7955233782748991E-003           7      231198           0
</event>
<event>
      6   9999  3.45752E-01  2.74340E+01 -1.00000E+00  1.50395E-01
      21    -1     0     0   512   503  0.000000000E+00  0.000000000E+00  2.030754037E+02  2.030754037E+02  0.000000000E+00  0.00000E+00  9.000E+00
      21    -1     0     0   501   502  0.000000000E+00  0.000000000E+00 -4.467882027E+02  4.467882027E+02  0.000000000E+00  0.00000E+00  9.000E+00
      25     1     1     2     0     0  5.841074445E+01 -1.741579086E+01 -3.659864818E+02  3.915170244E+02  1.249974029E+02  0.00000E+00  9.000E+00
       5     1     1     2   501     0 -2.000136889E+01  3.681101997E+01 -2.300826811E+01  4.803174836E+01  4.750000000E+00  0.00000E+00  9.000E+00
      -5     1     1     2     0   503 -2.202864139E+01  2.611464615E+00 -2.734010762E+01  3.552639545E+01  4.750000000E+00  0.00000E+00  9.000E+00
      21     1     1     2   512   502 -1.638073417E+01 -2.200669372E+01  1.726220585E+02  1.747884381E+02  2.697398305E-06  0.00000E+00  9.000E+00
#rwgt            1           9   2.4878467785629712E-003           7      233460           0
</event>
<event>
      6   9999  3.45752E-01  1.22178E+02 -1.00000E+00  1.16851E-01
      21    -1     0     0   501   511  0.000000000E+00  0.000000000E+00  3.098836611E+01  3.098836611E+01  0.000000000E+00  0.00000E+00  9.000E+00
      -3    -1     0     0     0   502  0.000000000E+00  0.000000000E+00 -1.961009116E+03  1.961009116E+03  0.000000000E+00  0.00000E+00  9.000E+00
      25     1     1     2     0     0  1.521804992E+02 -5.593513822E+01 -6.287749889E+02  6.612641127E+02  1.249983841E+02  0.00000E+00  9.000E+00
       5     1     1     2   501     0  4.577695225E+00 -1.004293617E+01 -2.220802774E+00  1.221926043E+01  4.750000000E+00  0.00000E+00  9.000E+00
      -5     1     1     2     0   502 -9.358851516E+01 -3.860281987E+01 -4.960865762E+02  5.063333303E+02  4.750000000E+00  0.00000E+00  9.000E+00
      -3     1     1     2     0   511 -6.316967925E+01  1.045808943E+02 -8.029383816E+02  8.121807782E+02  0.000000000E+00  0.00000E+00  9.000E+00
#rwgt            1           8   2.4885469637464002E-007           7      234707           0
</event>
<event>
      6   9999  3.45752E-01  1.07153E+01 -1.00000E+00  1.84088E-01
      21    -1     0     0   501   512  0.000000000E+00  0.000000000E+00  9.216657760E+01  9.216657760E+01  0.000000000E+00  0.00000E+00  9.000E+00
      21    -1     0     0   502   503  0.000000000E+00  0.000000000E+00 -9.065179145E+02  9.065179145E+02  0.000000000E+00  0.00000E+00  9.000E+00
      25     1     1     2     0     0 -1.667926476E+01 -2.426932751E+01 -4.859328022E+02  5.026162577E+02  1.250008646E+02  0.00000E+00  9.000E+00
       5     1     1     2   501     0 -2.381282130E-01 -3.522855416E-01 -6.384982322E+00  7.969398308E+00  4.750000000E+00  0.00000E+00  9.000E+00
      -5     1     1     2     0   503  8.573045947E+00  1.789936327E+01 -4.044621780E+02  4.049766663E+02  4.750000000E+00  0.00000E+00  9.000E+00
      21     1     1     2   502   512  8.344347031E+00  6.722249782E+00  8.242862566E+01  8.312216971E+01  2.132480600E-06  0.00000E+00  9.000E+00
#rwgt            1           9   1.2014730911479351E-004           7      234960           0
</event>
<event>
      6   9999  3.45752E-01  6.81898E+01 -1.00000E+00  1.27952E-01
      21    -1     0     0   511   502  0.000000000E+00  0.000000000E+00  6.798874779E+01  6.798874779E+01  0.000000000E+00  0.00000E+00  9.000E+00
      21    -1     0     0   502   503  0.000000000E+00  0.000000000E+00 -1.240947085E+03  1.240947085E+03  0.000000000E+00  0.00000E+00  9.000E+00
      25     1     1     2     0     0  1.704704813E+01  4.772538127E+01 -7.650243627E+02  7.768239835E+02  1.249996479E+02  0.00000E+00  9.000E+00
       5     1     1     2   501     0 -2.081140951E+01  1.815408337E+01  4.405171350E+01  5.220920868E+01  4.750000000E+00  0.00000E+00  9.000E+00
      -5     1     1     2     0   503 -2.690549222E+01 -4.976150819E+00 -3.790104827E+02  3.800265465E+02  4.750000000E+00  0.00000E+00  9.000E+00
      21     1     1     2   511   501  3.066985360E+01 -6.090331382E+01 -7.297520503E+01  9.987609376E+01  1.651812370E-06  0.00000E+00  9.000E+00
#rwgt            1           9   1.8986875858905242E-002           7      237459           0
</event>
<event>
      6   9999  3.45752E-01  9.80548E+00 -1.00000E+00  1.88097E-01
      21    -1     0     0   512   502  0.000000000E+00  0.000000000E+00  6.824866683E+02  6.824866683E+02  0.000000000E+00  0.00000E+00  9.000E+00
      21    -1     0     0   502   503  0.000000000E+00  0.000000000E+00 -6.046931263E+02  6.046931263E+02  0.000000000E+00  0.00000E+00  9.000E+00
      25     1     1     2     0     0  6.068017955E+00  4.043484299E-02 -5.911941678E+02  6.042952811E+02  1.250016812E+02  0.00000E+00  9.000E+00
       5     1     1     2   501     0  1.818630191E+00  1.732469784E-01 -9.971101097E-01  5.185957853E+00  4.750000000E+00  0.00000E+00  9.000E+00
      -5     1     1     2     0   503  1.909212116E+00  2.205983471E-01 -2.103261043E+00  5.538949499E+00  4.750000000E+00  0.00000E+00  9.000E+00
      21     1     1     2   512   501 -9.795860263E+00 -4.342801686E-01  6.720880810E+02  6.721596061E+02  0.000000000E+00  0.00000E+00  9.000E+00
#rwgt            1           9   3.7142949828677212E-003           7      238273           0
</event>
<event>
      6   9999  3.45752E-01  9.05043E+00 -1.00000E+00  1.91877E-01
      21    -1     0     0   501   502  0.000000000E+00  0.000000000E+00  2.923834404E+01  2.923834404E+01  0.000000000E+00  0.00000E+00  9.000E+00
      21    -1     0     0   502   511  0.000000000E+00  0.000000000E+00 -1.244662829E+03  1.244662829E+03  0.000000000E+00  0.00000E+00  9.000E+00
      25     1     1     2     0     0  1.979794852E+01  8.612939371E+01 -7.531157964E+02  7.685180710E+02  1.250055654E+02  0.00000E+00  9.000E+00
       5     1     1     2   501     0  2.079789129E+00  8.694714500E-01  1.584117883E+01  1.669092419E+01  4.750000000E+00  0.00000E+00  9.000E+00
      -5     1     1     2     0   503 -2.807940257E+01 -8.040723470E+01 -3.508391674E+02  3.610601891E+02  4.750000000E+00  0.00000E+00  9.000E+00
      21     1     1     2   503   511  6.201664923E+00 -6.591630460E+00 -1.273107001E+02  1.276319889E+02  1.348699152E-06  0.00000E+00  9.000E+00
#rwgt            1           9   1.4630437379420836E-004           7      240403           0
</event>
<event>
      6   9999  3.45752E-01  3.28932E+00 -1.00000E+00  2.66856E-01
      21    -1     0     0   512   502  0.000000000E+00  0.000000000E+00  8.175715377E+00  8.175715377E+00  0.000000000E+00  0.00000E+00  9.000E+00
      21    -1     0     0   502   503  0.000000000E+00  0.000000000E+00 -2.824405884E+03  2.824405884E+03  0.000000000E+00  0.00000E+00  9.000E+00
      25     1     1     2     0     0 -1.118658255E+01 -5.050833784E+00 -2.332450811E+03  2.335830043E+03  1.249982175E+02  0.00000E+00  9.000E+00
       5     1     1     2   501     0  5.529378589E-01 -1.756622085E+00 -2.654985693E-01  5.101416560E+00  4.750000000E+00  0.00000E+00  9.000E+00
      -5     1     1     2     0   503  7.659891781E+00  5.401614423E+00 -4.868510127E+02  4.869643954E+02  4.750000000E+00  0.00000E+00  9.000E+00
      21     1     1     2   512   501  2.973752906E+00  1.405841446E+00  3.337154109E+00  4.685743705E+00  2.665600750E-07  0.00000E+00  9.000E+00
#rwgt            1           9   3.9253690580725665E-004           7      243686           0
</event>
<event>
      6   9999  3.45752E-01  1.63847E+01 -1.00000E+00  1.67114E-01
      21    -1     0     0   501   511  0.000000000E+00  0.000000000E+00  3.252528031E+02  3.252528031E+02  0.000000000E+00  0.00000E+00  9.000E+00
      21    -1     0     0   502   503  0.000000000E+00  0.000000000E+00 -3.080584509E+02  3.080584509E+02  0.000000000E+00  0.00000E+00  9.000E+00
      25     1     1     2     0     0 -2.812845806E-01  1.563153866E+00 -2.242974132E+02  2.567826936E+02  1.250019982E+02  0.00000E+00  9.000E+00
       5     1     1     2   501     0  6.751136432E+00 -1.591417127E+01  1.398494357E+02  1.409938504E+02  4.750000000E+00  0.00000E+00  9.000E+00
      -5     1     1     2     0   503  2.722956018E+00  7.881180716E-01 -6.643287127E+01  6.666276700E+01  4.750000000E+00  0.00000E+00  9.000E+00
      21     1     1     2   502   511 -9.192807869E+00  1.356289933E+01  1.680752010E+02  1.688719430E+02  2.697398305E-06  0.00000E+00  9.000E+00
#rwgt            1           9  0.89458808622799013                7      249229           0
</event>
<event>
      6   9999  3.45752E-01  3.14024E+00 -1.00000E+00  2.71823E-01
      21    -1     0     0   501   512  0.000000000E+00  0.000000000E+00  6.463128145E+01  6.463128145E+01  0.000000000E+00  0.00000E+00  9.000E+00
      21    -1     0     0   502   503  0.000000000E+00  0.000000000E+00 -8.913135198E+02  8.913135198E+02  0.000000000E+00  0.00000E+00  9.000E+00
      25     1     1     2     0     0  8.312401506E+00 -2.476150404E+01 -8.013383810E+02  8.114490753E+02  1.249966908E+02  0.00000E+00  9.000E+00
       5     1     1     2   501     0  1.030727768E+00  4.751720215E-01 -6.300836578E-01  4.924194716E+00  4.750000000E+00  0.00000E+00  9.000E+00
      -5     1     1     2     0   503 -9.333780878E+00  2.742656244E+01 -7.947305645E+01  8.472228157E+01  4.750000000E+00  0.00000E+00  9.000E+00
      21     1     1     2   502   512 -9.348395793E-03 -3.140230417E+00  5.475928283E+01  5.484924968E+01  1.651812370E-06  0.00000E+00  9.000E+00
#rwgt            1           9   3.5836724509064131E-004           7      251754           0
</event>
<event>
      6   9999 -3.45752E-01  1.50573E+00 -1.00000E+00  3.89263E-01
      21    -1     0     0   511   502  0.000000000E+00  0.000000000E+00  1.992796910E+02  1.992796910E+02  0.000000000E+00  0.00000E+00  9.000E+00
      21    -1     0     0   502   503  0.000000000E+00  0.000000000E+00 -7.620728303E+02  7.620728303E+02  0.000000000E+00  0.00000E+00  9.000E+00
      25     1     1     2     0     0  8.568689553E+00  1.752140693E+00 -7.014933252E+02  7.125963960E+02  1.249969833E+02  0.00000E+00  9.000E+00
       5     1     1     2   501     0 -4.648846645E-01  1.124391238E+00  9.209083563E-01  4.989082642E+00  4.750000000E+00  0.00000E+00  9.000E+00
      -5     1     1     2     0   503 -9.019887861E+00 -4.071531739E+00 -5.242241702E+01  5.355938811E+01  4.750000000E+00  0.00000E+00  9.000E+00
      21     1     1     2   511   501  9.160829719E-01  1.194999808E+00  1.902016946E+02  1.902076545E+02  4.672030912E-06  0.00000E+00  9.000E+00
#rwgt            1           9  -7.5385487859400493E-004           7      256780           0
</event>
<event>
      6   9999  3.45752E-01  2.32366E+01 -1.00000E+00  1.55392E-01
      21    -1     0     0   502   512  0.000000000E+00  0.000000000E+00  1.200358615E+02  1.200358615E+02  0.000000000E+00  0.00000E+00  9.000E+00
      21    -1     0     0   501   502  0.000000000E+00  0.000000000E+00 -1.481974498E+03  1.481974498E+03  0.000000000E+00  0.00000E+00  9.000E+00
      25     1     1     2     0     0  1.634216640E+02  8.172115159E+01 -6.431938910E+02  6.802266578E+02  1.249997506E+02  0.00000E+00  9.000E+00
       5     1     1     2   501     0 -1.102170452E+00 -1.660616061E+02 -5.675309324E+02  5.913472698E+02  4.750000000E+00  0.00000E+00  9.000E+00
      -5     1     1     2     0   503 -1.597398962E+02  1.074333844E+02 -1.992375374E+02  2.770864943E+02  4.750000000E+00  0.00000E+00  9.000E+00
      21     1     1     2   503   512 -2.579597373E+00 -2.309292990E+01  4.802372431E+01  5.334993750E+01  2.611744678E-06  0.00000E+00  9.000E+00
#rwgt            1           9   2.4268434228043704E-002           7      265531           0
</event>
<event>
      6   9999 -3.45752E-01  2.02896E+01 -1.00000E+00  1.59735E-01
      21    -1     0     0   511   502  0.000000000E+00  0.000000000E+00  8.855358998E+01  8.855358998E+01  0.000000000E+00  0.00000E+00  9.000E+00
      21    -1     0     0   502   503  0.000000000E+00  0.000000000E+00 -8.713317501E+02  8.713317501E+02  0.000000000E+00  0.00000E+00  9.000E+00
      25     1     1     2     0     0 -4.372107714E+00  1.976402677E+01 -8.300791749E+02  8.396811250E+02  1.249928915E+02  0.00000E+00  9.000E+00
       5     1     1     2   501     0 -1.117439754E-01  3.014245723E+00  7.436660446E+00  9.325480287E+00  4.750000000E+00  0.00000E+00  9.000E+00
      -5     1     1     2     0   503 -2.716834144E-01 -3.053840920E+00 -3.390340308E+01  3.437154341E+01  4.750000000E+00  0.00000E+00  9.000E+00
      21     1     1     2   511   501  4.755535103E+00 -1.972443157E+01  7.376775738E+01  7.650719145E+01  2.523185073E-06  0.00000E+00  9.000E+00
#rwgt            1           9  -1.9469235136616012E-005           7      268144           0
</event>
<event>
      6   9999  3.45752E-01  2.28939E+01 -1.00000E+00  1.55856E-01
      21    -1     0     0   501   502  0.000000000E+00  0.000000000E+00  3.904980145E+01  3.904980145E+01  0.000000000E+00  0.00000E+00  9.000E+00
      21    -1     0     0   512   503  0.000000000E+00  0.000000000E+00 -1.405926769E+03  1.405926769E+03  0.000000000E+00  0.00000E+00  9.000E+00
      25     1     1     2     0     0 -1.203198995E+02  3.870412945E+01 -3.748005244E+02  4.148169603E+02  1.249911581E+02  0.00000E+00  9.000E+00
       5     1     1     2   501     0 -4.370070749E-01 -6.607376210E-01  1.468388715E+01  1.545336829E+01  4.750000000E+00  0.00000E+00  9.000E+00
      -5     1     1     2     0   503  9.867476289E+01 -3.200115663E+01 -8.235633674E+02  8.300843123E+02  4.750000000E+00  0.00000E+00  9.000E+00
      21     1     1     2   512   502  2.208214368E+01 -6.042235197E+00 -1.831969628E+02  1.846219295E+02  2.697398305E-06  0.00000E+00  9.000E+00
#rwgt            1           9   1.8559945453944600E-003           7      269726           0
</event>
<event>
      6   9999  3.45752E-01  3.31299E+00 -1.00000E+00  2.66105E-01
      21    -1     0     0   511   502  0.000000000E+00  0.000000000E+00  4.265512838E+00  4.265512838E+00  0.000000000E+00  0.00000E+00  9.000E+00
      21    -1     0     0   502   503  0.000000000E+00  0.000000000E+00 -5.144378735E+03  5.144378735E+03  0.000000000E+00  0.00000E+00  9.000E+00
      25     1     1     2     0     0 -2.283254522E+01 -1.149679312E+01 -4.165537054E+03  4.167490455E+03  1.249969521E+02  0.00000E+00  9.000E+00
       5     1     1     2   501     0  3.812658875E+00 -1.927540116E+00 -4.088913197E-01  6.401677179E+00  4.750000000E+00  0.00000E+00  9.000E+00
      -5     1     1     2     0   503  2.189019853E+01  1.507878570E+01 -9.468111883E+02  9.471961462E+02  4.750000000E+00  0.00000E+00  9.000E+00
      21     1     1     2   511   501 -2.870312183E+00 -1.654452465E+00 -2.735608816E+01  2.755596967E+01  9.536743164E-07  0.00000E+00  9.000E+00
#rwgt            1           9   3.9856346172719118E-005           7      271639           0
</event>
<event>
      6   9999 -3.45752E-01  3.26738E+00 -1.00000E+00  2.67560E-01
      21    -1     0     0   512   502  0.000000000E+00  0.000000000E+00  2.013869665E+03  2.013869665E+03  0.000000000E+00  0.00000E+00  9.000E+00
      21    -1     0     0   502   503  0.000000000E+00  0.000000000E+00 -8.834054510E+02  8.834054510E+02  0.000000000E+00  0.00000E+00  9.000E+00
      25     1     1     2     0     0  2.231120772E+01  2.289120471E+01 -8.289054355E+02  8.388861274E+02  1.249956654E+02  0.00000E+00  9.000E+00
       5     1     1     2   501     0 -1.902366466E-01 -1.926170665E+00  1.999085134E+00  5.505012696E+00  4.750000000E+00  0.00000E+00  9.000E+00
      -5     1     1     2     0   503 -2.105291124E+01 -2.405291885E+01 -4.228828723E+01  5.322245498E+01  4.750000000E+00  0.00000E+00  9.000E+00
      21     1     1     2   512   501 -1.068059836E+00  3.087884813E+00  1.999658851E+03  1.999661521E+03  3.737624730E-05  0.00000E+00  9.000E+00
#rwgt            1           9  -4.6631953041284245E-005           7      277476           0
</event>
<event>
      6   9999  3.45752E-01  2.42957E+01 -1.00000E+00  1.54018E-01
      21    -1     0     0   501   502  0.000000000E+00  0.000000000E+00  4.263095365E+01  4.263095365E+01  0.000000000E+00  0.00000E+00  9.000E+00
      21    -1     0     0   511   503  0.000000000E+00  0.000000000E+00 -2.960265898E+03  2.960265898E+03  0.000000000E+00  0.00000E+00  9.000E+00
      25     1     1     2     0     0 -3.407679998E+00  2.032025650E+01 -2.264852796E+03  2.268393372E+03  1.250031000E+02  0.00000E+00  9.000E+00
       5     1     1     2   501     0  5.702585874E+00 -1.291290773E+00  3.953334121E+01  4.024468269E+01  4.750000000E+00  0.00000E+00  9.000E+00
      -5     1     1     2     0   503  9.004943870E+00  2.479059060E+00 -5.328583744E+02  5.329613912E+02  4.750000000E+00  0.00000E+00  9.000E+00
      21     1     1     2   511   502 -1.129984975E+01 -2.150802479E+01 -1.594571149E+02  1.612974061E+02  2.697398305E-06  0.00000E+00  9.000E+00
#rwgt            1           9   2.1463544352308690E-004           7      283275           0
</event>
<event>
      6   9999  3.45752E-01  5.16657E+00 -1.00000E+00  2.23524E-01
      21    -1     0     0   501   502  0.000000000E+00  0.000000000E+00  3.496340735E+00  3.496340735E+00  0.000000000E+00  0.00000E+00  9.000E+00
      21    -1     0     0   502   512  0.000000000E+00  0.000000000E+00 -3.131191082E+03  3.131191082E+03  0.000000000E+00  0.00000E+00  9.000E+00
      25     1     1     2     0     0 -4.853395592E+00 -3.435406547E+00 -2.506878724E+03  2.510000191E+03  1.249986454E+02  0.00000E+00  9.000E+00
       5     1     1     2   501     0  1.745700630E+00 -3.501418328E+00 -3.147995444E+00  6.912291683E+00  4.750000000E+00  0.00000E+00  9.000E+00
      -5     1     1     2     0   503  2.805986733E+00  1.779073775E+00 -4.175567781E+02  4.175970116E+02  4.750000000E+00  0.00000E+00  9.000E+00
      21     1     1     2   503   512  3.017082295E-01  5.157751100E+00 -2.001112441E+02  2.001779294E+02  0.000000000E+00  0.00000E+00  9.000E+00
#rwgt            1           9   2.6951694760055323E-004           7      285425           0
</event>
<event>
      6   9999  3.45752E-01  1.12087E+01 -1.00000E+00  1.82120E-01
       1    -1     0     0   501     0  0.000000000E+00  0.000000000E+00  1.243597057E+02  1.243597057E+02  0.000000000E+00  0.00000E+00  9.000E+00
      21    -1     0     0   502   503  0.000000000E+00  0.000000000E+00 -1.338678671E+03  1.338678671E+03  0.000000000E+00  0.00000E+00  9.000E+00
      25     1     1     2     0     0  3.865392000E+00 -1.153828086E+00 -1.298344565E+03  1.304354057E+03  1.249984946E+02  0.00000E+00  9.000E+00
       5     1     1     2   501     0 -8.796257308E+00  4.147074860E+00  4.432132814E+01  4.562362327E+01  4.750000000E+00  0.00000E+00  9.000E+00
      -5     1     1     2     0   503 -4.946345965E+00 -8.291963351E+00 -3.546442228E+01  3.706090585E+01  4.750000000E+00  0.00000E+00  9.000E+00
       1     1     1     2   502     0  9.877211273E+00  5.298716577E+00  7.516869368E+01  7.599979085E+01  3.568322551E-06  0.00000E+00  9.000E+00
#rwgt            1           9   5.5274692929859772E-004           7      289295           0
</event>
<event>
      6   9999  3.45752E-01  6.33971E+00 -1.00000E+00  2.10780E-01
      21    -1     0     0   501   511  0.000000000E+00  0.000000000E+00  1.198372679E+01  1.198372679E+01  0.000000000E+00  0.00000E+00  9.000E+00
      21    -1     0     0   502   503  0.000000000E+00  0.000000000E+00 -8.431728711E+02  8.431728711E+02  0.000000000E+00  0.00000E+00  9.000E+00
      25     1     1     2     0     0  7.903164441E+00 -6.706732088E+00 -7.260125423E+02  7.367677682E+02  1.250003698E+02  0.00000E+00  9.000E+00
       5     1     1     2   501     0 -1.110309221E+00 -3.293156369E-02  4.979658798E+00  6.970894691E+00  4.750000000E+00  0.00000E+00  9.000E+00
      -5     1     1     2     0   503 -1.673939523E+00  2.999534755E+00 -9.200199182E+01  9.218854745E+01  4.750000000E+00  0.00000E+00  9.000E+00
      21     1     1     2   502   511 -5.118915697E+00  3.740128897E+00 -1.815426892E+01  1.922938746E+01  4.129530925E-07  0.00000E+00  9.000E+00
#rwgt            1           9   5.5733815519089095E-004           7      293113           0
</event>
<event>
      6   9999  3.45752E-01  2.17798E+01 -1.00000E+00  1.57435E-01
      21    -1     0     0   501   502  0.000000000E+00  0.000000000E+00  7.422277719E+01  7.422277719E+01  0.000000000E+00  0.00000E+00  9.000E+00
      21    -1     0     0   512   503  0.000000000E+00  0.000000000E+00 -1.596436139E+03  1.596436139E+03  0.000000000E+00  0.00000E+00  9.000E+00
      25     1     1     2     0     0 -5.656516667E+00 -2.698372694E+01 -1.257423745E+02  1.794330951E+02  1.249998927E+02  0.00000E+00  9.000E+00
       5     1     1     2   501     0 -6.671692974E-01 -4.094809028E+00  4.580812062E+01  4.624023130E+01  4.750000000E+00  0.00000E+00  9.000E+00
      -5     1     1     2     0   503 -8.828300696E-01  5.163155351E+01 -1.301407402E+03  1.302440165E+03  4.750000000E+00  0.00000E+00  9.000E+00
      21     1     1     2   512   502  7.206516034E+00 -2.055301755E+01 -1.408717064E+02  1.425454245E+02  0.000000000E+00  0.00000E+00  9.000E+00
#rwgt            1           9   1.5407078573267299E-002           7      296473           0
</event>
<event>
      6   9999  3.45752E-01  5.77834E+01 -1.00000E+00  1.31509E-01
      21    -1     0     0   511   503  0.000000000E+00  0.000000000E+00  1.185553883E+02  1.185553883E+02  0.000000000E+00  0.00000E+00  9.000E+00
      21    -1     0     0   501   502  0.000000000E+00  0.000000000E+00 -1.054870243E+03  1.054870243E+03  0.000000000E+00  0.00000E+00  9.000E+00
      25     1     1     2     0     0  2.196271010E-01 -1.200938060E+02 -3.548353358E+02  3.949139888E+02  1.250054902E+02  0.00000E+00  9.000E+00
       5     1     1     2   501     0 -3.387584025E+01  2.450691440E+01 -4.242749750E+02  4.263566328E+02  4.750000000E+00  0.00000E+00  9.000E+00
      -5     1     1     2     0   503  1.107720667E+01  4.239755782E+01 -2.439642885E+02  2.479140859E+02  4.750000000E+00  0.00000E+00  9.000E+00
      21     1     1     2   511   502  2.257900648E+01  5.318933375E+01  8.675974504E+01  1.042409234E+02  2.697398305E-06  0.00000E+00  9.000E+00
#rwgt            1           9   2.2109374097803480E-004           7      299169           0
</event>
<event>
      6   9999  3.45752E-01  7.54709E+00 -1.00000E+00  2.01060E-01
      21    -1     0     0   501   512  0.000000000E+00  0.000000000E+00  2.251274034E+01  2.251274034E+01  0.000000000E+00  0.00000E+00  9.000E+00
      21    -1     0     0   502   503  0.000000000E+00  0.000000000E+00 -7.496872314E+02  7.496872314E+02  0.000000000E+00  0.00000E+00  9.000E+00
      25     1     1     2     0     0 -1.978709162E+01 -1.817563865E+01 -6.479207351E+02  6.604153251E+02  1.250009595E+02  0.00000E+00  9.000E+00
       5     1     1     2   501     0  7.351145826E+00  1.773465881E+00 -2.479719201E+01  2.635617115E+01  4.750000000E+00  0.00000E+00  9.000E+00
      -5     1     1     2     0   503  1.086299577E+01  9.020821778E+00 -6.816815828E+01  6.977707507E+01  4.750000000E+00  0.00000E+00  9.000E+00
      21     1     1     2   502   512  1.572950018E+00  7.381350991E+00  1.371159434E+01  1.565140037E+01  1.203954809E-06  0.00000E+00  9.000E+00
#rwgt            1           9   2.5569518469763033E-003           7      299923           0
</event>
<event>
      6   9999  3.45752E-01  1.53550E+01 -1.00000E+00  1.69496E-01
      21    -1     0     0   501   502  0.000000000E+00  0.000000000E+00  4.917491316E+01  4.917491316E+01  0.000000000E+00  0.00000E+00  9.000E+00
      21    -1     0     0   511   503  0.000000000E+00  0.000000000E+00 -1.501747507E+03  1.501747507E+03  0.000000000E+00  0.00000E+00  9.000E+00
      25     1     1     2     0     0  4.086860423E+01 -6.736686187E-01 -5.051433544E+02  5.219828304E+02  1.250022804E+02  0.00000E+00  9.000E+00
       5     1     1     2   501     0  8.210228228E-01  1.607709372E+00  4.000471044E+01  4.032614742E+01  4.750000000E+00  0.00000E+00  9.000E+00
      -5     1     1     2     0   503 -2.784943060E+01 -7.584182215E+00 -8.060882172E+02  8.066187991E+02  4.750000000E+00  0.00000E+00  9.000E+00
      21     1     1     2   511   502 -1.384019645E+01  6.650141461E+00 -1.813457324E+02  1.819946430E+02  0.000000000E+00  0.00000E+00  9.000E+00
#rwgt            1           9   1.9183955598729850E-003           7      302954           0
</event>
<event>
      6   9999  3.45752E-01  4.84821E+00 -1.00000E+00  2.31742E-01
      21    -1     0     0   512   502  0.000000000E+00  0.000000000E+00  5.135888989E+01  5.135888989E+01  0.000000000E+00  0.00000E+00  9.000E+00
      21    -1     0     0   502   503  0.000000000E+00  0.000000000E+00 -2.272507002E+02  2.272507002E+02  0.000000000E+00  0.00000E+00  9.000E+00
      25     1     1     2     0     0  1.210899014E+01  1.011811909E+01 -1.521913196E+02  1.975712659E+02  1.249928133E+02  0.00000E+00  9.000E+00
       5     1     1     2   501     0 -2.521828059E+00  2.554012326E+00  2.095933924E+01  2.178850607E+01  4.750000000E+00  0.00000E+00  9.000E+00
      -5     1     1     2     0   503 -1.273059052E+01 -8.981064391E+00 -4.967335481E+01  5.227554046E+01  4.750000000E+00  0.00000E+00  9.000E+00
      21     1     1     2   512   501  3.143428432E+00 -3.691067025E+00  5.013524805E+00  6.974277673E+00  1.460009660E-07  0.00000E+00  9.000E+00
#rwgt            1           9   3.2019283861635823E-004           7      306113           0
</event>
<event>
      6   9999 -3.45752E-01  1.96454E+01 -1.00000E+00  1.60806E-01
      21    -1     0     0   501   502  0.000000000E+00  0.000000000E+00  4.959342154E+01  4.959342154E+01  0.000000000E+00  0.00000E+00  9.000E+00
      21    -1     0     0   502   511  0.000000000E+00  0.000000000E+00 -1.827378003E+03  1.827378003E+03  0.000000000E+00  0.00000E+00  9.000E+00
      25     1     1     2     0     0 -7.073441555E+01  1.432671460E+02 -1.110325082E+03  1.128705148E+03  1.249987590E+02  0.00000E+00  9.000E+00
       5     1     1     2   501     0  4.912259404E-01  3.561009985E-01  1.018454326E+01  1.125413401E+01  4.750000000E+00  0.00000E+00  9.000E+00
      -5     1     1     2     0   503  5.843711105E+01 -1.593253782E+02 -2.149811151E+02  2.739323173E+02  4.750000000E+00  0.00000E+00  9.000E+00
      21     1     1     2   503   511  1.180607856E+01  1.570213117E+01 -4.626629277E+02  4.630798258E+02  7.629394531E-06  0.00000E+00  9.000E+00
#rwgt            1           9 -0.12275894129851782                7      310478           0
</event>
<event>
      6   9999  3.45752E-01  1.82586E+01 -1.00000E+00  1.63290E-01
      21    -1     0     0   501   512  0.000000000E+00  0.000000000E+00  3.034297218E+01  3.034297218E+01  0.000000000E+00  0.00000E+00  9.000E+00
      21    -1     0     0   502   503  0.000000000E+00  0.000000000E+00 -1.672627692E+03  1.672627692E+03  0.000000000E+00  0.00000E+00  9.000E+00
      25     1     1     2     0     0 -4.227122495E+00 -1.598629482E+02 -1.290383074E+03  1.306250191E+03  1.250082107E+02  0.00000E+00  9.000E+00
       5     1     1     2   501     0  7.087425452E-01  5.307510731E-01  2.462463128E+00  5.423120629E+00  4.750000000E+00  0.00000E+00  9.000E+00
      -5     1     1     2     0   503  1.498977408E+01  1.451271890E+02 -2.942165595E+02  3.284395541E+02  4.750000000E+00  0.00000E+00  9.000E+00
      21     1     1     2   502   512 -1.147139413E+01  1.420500813E+01 -6.014754985E+01  6.285779898E+01  6.743495762E-07  0.00000E+00  9.000E+00
#rwgt            1           9   4.9453971448831574E-004           7      313175           0
</event>
<event>
      6   9999  3.45752E-01  8.01474E+00 -1.00000E+00  1.97921E-01
      21    -1     0     0   501   511  0.000000000E+00  0.000000000E+00  1.752302164E+02  1.752302164E+02  0.000000000E+00  0.00000E+00  9.000E+00
      21    -1     0     0   502   503  0.000000000E+00  0.000000000E+00 -5.128086799E+01  5.128086799E+01  0.000000000E+00  0.00000E+00  9.000E+00
      25     1     1     2     0     0 -1.789804850E+01 -1.506996164E+01  5.367238964E+01  1.380355039E+02  1.250025241E+02  0.00000E+00  9.000E+00
       5     1     1     2   501     0  2.642146991E+01  4.399227213E+00  4.074253358E+01  4.898942555E+01  4.750000000E+00  0.00000E+00  9.000E+00
      -5     1     1     2     0   503 -5.856860120E+00  3.112593829E+00 -7.184681279E-01  8.189612156E+00  4.750000000E+00  0.00000E+00  9.000E+00
      21     1     1     2   502   511 -2.666561296E+00  7.558140600E+00  3.025289333E+01  3.129654284E+01  0.000000000E+00  0.00000E+00  9.000E+00
#rwgt            1           9  0.88848331378822631                7      315786           0
</event>
<event>
      6   9999  3.45752E-01  3.60104E+01 -1.00000E+00  1.42885E-01
      21    -1     0     0   512   503  0.000000000E+00  0.000000000E+00  1.183340091E+01  1.183340091E+01  0.000000000E+00  0.00000E+00  9.000E+00
      21    -1     0     0   501   502  0.000000000E+00  0.000000000E+00 -3.269317150E+03  3.269317150E+03  0.000000000E+00  0.00000E+00  9.000E+00
      25     1     1     2     0     0 -8.610167517E+00  2.581924598E+01 -4.094162062E+02  4.289379410E+02  1.250014355E+02  0.00000E+00  9.000E+00
       5     1     1     2   501     0  2.718741457E+01  2.585044990E+01 -1.933279753E+03  1.933649546E+03  4.750000000E+00  0.00000E+00  9.000E+00
      -5     1     1     2     0   503 -2.532604111E+01 -1.629733359E+01 -7.085062324E+02  7.091619386E+02  4.750000000E+00  0.00000E+00  9.000E+00
      21     1     1     2   512   502  6.748794058E+00 -3.537236229E+01 -2.062815578E+02  2.094011254E+02  3.814697266E-06  0.00000E+00  9.000E+00
#rwgt            1           9   4.9500769067677760E-004           7      318765           0
</event>
<event>
      6   9999 -3.45752E-01  6.79962E+00 -1.00000E+00  2.06759E-01
       2    -1     0     0   502     0  0.000000000E+00  0.000000000E+00  2.262891811E+00  2.262891811E+00  0.000000000E+00  0.00000E+00  9.000E+00
      21    -1     0     0   501   502  0.000000000E+00  0.000000000E+00 -5.757360100E+03  5.757360100E+03  0.000000000E+00  0.00000E+00  9.000E+00
      25     1     1     2     0     0 -1.403096495E+00 -2.692695358E+01 -4.662939174E+03  4.664691149E+03  1.249589514E+02  0.00000E+00  9.000E+00
       5     1     1     2   501     0  8.756093078E+00  2.909135116E+01 -8.867497214E+02  8.872827096E+02  4.750000000E+00  0.00000E+00  9.000E+00
      -5     1     1     2     0   503 -1.304811894E+01  1.550494669E+00 -1.929567019E+02  1.934619052E+02  4.750000000E+00  0.00000E+00  9.000E+00
       2     1     1     2   503     0  5.695122360E+00 -3.714892248E+00 -1.245161063E+01  1.418722842E+01  1.823551481E-06  0.00000E+00  9.000E+00
#rwgt            1           9  -3.0699192309721124E-002           7      320503           0
</event>
<event>
      6   9999  3.45752E-01  4.81631E+01 -1.00000E+00  1.35663E-01
      21    -1     0     0   501   511  0.000000000E+00  0.000000000E+00  3.602736084E+01  3.602736084E+01  0.000000000E+00  0.00000E+00  9.000E+00
      21    -1     0     0   502   503  0.000000000E+00  0.000000000E+00 -1.913987421E+03  1.913987421E+03  0.000000000E+00  0.00000E+00  9.000E+00
      25     1     1     2     0     0  5.392830588E+01 -3.879930896E+01 -1.308708011E+03  1.316341970E+03  1.250035051E+02  0.00000E+00  9.000E+00
       5     1     1     2   501     0  3.570676037E+00 -5.755705658E+00 -5.087741295E+00  9.712130892E+00  4.750000000E+00  0.00000E+00  9.000E+00
      -5     1     1     2     0   503 -2.917569945E+01  5.600206359E+00 -5.740130196E+02  5.748009159E+02  4.750000000E+00  0.00000E+00  9.000E+00
      21     1     1     2   502   511 -2.832328247E+01  3.895480825E+01  9.848711112E+00  4.915976532E+01  2.915148559E-06  0.00000E+00  9.000E+00
#rwgt            1           9   3.1509107115645865                7      323182           0
</event>
<event>
      6   9999 -3.45752E-01  6.96803E+00 -1.00000E+00  2.05392E-01
      21    -1     0     0   512   502  0.000000000E+00  0.000000000E+00  1.353606233E+02  1.353606233E+02  0.000000000E+00  0.00000E+00  9.000E+00
      21    -1     0     0   502   503  0.000000000E+00  0.000000000E+00 -9.184004245E+02  9.184004245E+02  0.000000000E+00  0.00000E+00  9.000E+00
      25     1     1     2     0     0  3.169448726E+01  2.601261482E+01 -7.435473527E+02  7.550947829E+02  1.249970752E+02  0.00000E+00  9.000E+00
       5     1     1     2   501     0 -1.461719191E+00 -1.634894149E+00  6.772142012E+00  8.557681304E+00  4.750000000E+00  0.00000E+00  9.000E+00
      -5     1     1     2     0   503 -3.553530695E+01 -1.985704726E+01 -1.655867704E+02  1.705831217E+02  4.750000000E+00  0.00000E+00  9.000E+00
      21     1     1     2   512   501  5.302538881E+00 -4.520673417E+00  1.193221800E+02  1.195254619E+02  3.015782986E-06  0.00000E+00  9.000E+00
#rwgt            1           9  -1.8281274456305027E-003           7      323834           0
</event>
<event>
      6   9999  3.45752E-01  4.95675E+00 -1.00000E+00  2.30028E-01
      21    -1     0     0   501   511  0.000000000E+00  0.000000000E+00  1.075682580E+01  1.075682580E+01  0.000000000E+00  0.00000E+00  9.000E+00
      21    -1     0     0   502   503  0.000000000E+00  0.000000000E+00 -9.515861498E+02  9.515861498E+02  0.000000000E+00  0.00000E+00  9.000E+00
      25     1     1     2     0     0  3.930610644E+00  3.867213440E+00 -8.843376039E+02  8.931459083E+02  1.250048430E+02  0.00000E+00  9.000E+00
       5     1     1     2   501     0 -2.652320838E+00  1.114157504E+00  4.369567205E+00  7.066241598E+00  4.750000000E+00  0.00000E+00  9.000E+00
      -5     1     1     2     0   503 -8.179613304E-01 -4.604724436E-02 -4.951529704E+01  4.974935499E+01  4.750000000E+00  0.00000E+00  9.000E+00
      21     1     1     2   502   511 -4.603284759E-01 -4.935323700E+00 -1.134599024E+01  1.238147071E+01  2.384185791E-07  0.00000E+00  9.000E+00
#rwgt            1           9   1.4611655409251256E-002           7      327552           0
</event>
<event>
      6   9999  3.45752E-01  2.12176E+01 -1.00000E+00  1.58276E-01
      21    -1     0     0   501   512  0.000000000E+00  0.000000000E+00  7.793390408E+01  7.793390408E+01  0.000000000E+00  0.00000E+00  9.000E+00
      21    -1     0     0   502   503  0.000000000E+00  0.000000000E+00 -1.084003823E+02  1.084003823E+02  0.000000000E+00  0.00000E+00  9.000E+00
      25     1     1     2     0     0  1.172443836E+01 -1.493298209E+01 -5.782206415E+01  1.390268781E+02  1.249985013E+02  0.00000E+00  9.000E+00
       5     1     1     2   501     0  1.618258531E-01 -1.720054010E+00  1.417287125E+01  1.504717757E+01  4.750000000E+00  0.00000E+00  9.000E+00
      -5     1     1     2     0   503 -5.607547955E+00 -3.614273524E+00  2.957510240E+00  8.707292001E+00  4.750000000E+00  0.00000E+00  9.000E+00
      21     1     1     2   502   512 -6.278716254E+00  2.026730962E+01  1.022520439E+01  2.355293871E+01  5.196212463E-07  0.00000E+00  9.000E+00
#rwgt            1           9   6.2122756641943788E-005           7      331894           0
</event>
<event>
      6   9999  3.45752E-01  1.02802E+01 -1.00000E+00  1.85938E-01
      21    -1     0     0   501   502  0.000000000E+00  0.000000000E+00  8.887654294E+02  8.887654294E+02  0.000000000E+00  0.00000E+00  9.000E+00
      21    -1     0     0   511   503  0.000000000E+00  0.000000000E+00 -5.558471455E+01  5.558471455E+01  0.000000000E+00  0.00000E+00  9.000E+00
      25     1     1     2     0     0 -7.126810902E+01  3.237201194E+01  2.313602491E+02  2.743702291E+02  1.249974688E+02  0.00000E+00  9.000E+00
       5     1     1     2   501     0 -3.502392183E+00 -4.706877800E+00  5.867538362E+02  5.868023929E+02  4.750000000E+00  0.00000E+00  9.000E+00
      -5     1     1     2     0   503  6.746980419E+01 -2.042760465E+01  1.710946456E+01  7.269633957E+01  4.750000000E+00  0.00000E+00  9.000E+00
      21     1     1     2   511   502  7.300697012E+00 -7.237529491E+00 -2.042835064E+00  1.048118243E+01  1.931411236E-07  0.00000E+00  9.000E+00
#rwgt            1           9   5.7443327566821184E-004           7      333184           0
</event>
<event>
      6   9999  3.45752E-01  1.19040E+01 -1.00000E+00  1.79558E-01
      21    -1     0     0   512   503  0.000000000E+00  0.000000000E+00  7.285961930E+00  7.285961930E+00  0.000000000E+00  0.00000E+00  9.000E+00
      21    -1     0     0   501   502  0.000000000E+00  0.000000000E+00 -9.030243842E+02  9.030243842E+02  0.000000000E+00  0.00000E+00  9.000E+00
      25     1     1     2     0     0  5.542725185E+00 -8.774173598E+00 -6.279947846E+02  6.403978031E+02  1.249967550E+02  0.00000E+00  9.000E+00
       5     1     1     2   501     0 -1.291493244E-01 -3.187208359E-01 -1.137548195E+02  1.138544673E+02  4.750000000E+00  0.00000E+00  9.000E+00
      -5     1     1     2     0   503 -6.360526941E+00 -2.773387459E+00 -1.146413367E+02  1.149493217E+02  4.750000000E+00  0.00000E+00  9.000E+00
      21     1     1     2   512   502  9.469510810E-01  1.186628189E+01 -3.934748150E+01  4.110875409E+01  0.000000000E+00  0.00000E+00  9.000E+00
#rwgt            1           9   3.2747874872243705E-004           7      336782           0
</event>
<event>
      6   9999  3.45752E-01  1.55611E+01 -1.00000E+00  1.69001E-01
      21    -1     0     0   511   502  0.000000000E+00  0.000000000E+00  4.879451831E+01  4.879451831E+01  0.000000000E+00  0.00000E+00  9.000E+00
      21    -1     0     0   502   503  0.000000000E+00  0.000000000E+00 -1.739904289E+03  1.739904289E+03  0.000000000E+00  0.00000E+00  9.000E+00
      25     1     1     2     0     0  5.410146264E+00  3.634476264E+01 -7.269378443E+02  7.385226676E+02  1.250075582E+02  0.00000E+00  9.000E+00
       5     1     1     2   501     0 -1.665772416E+01 -7.508857867E+00  3.846731826E+01  4.285043517E+01  4.750000000E+00  0.00000E+00  9.000E+00
      -5     1     1     2     0   503  1.913772971E+00 -4.128694663E+01 -9.726519688E+02  9.735413136E+02  4.750000000E+00  0.00000E+00  9.000E+00
      21     1     1     2   511   501  9.333804926E+00  1.245104186E+01 -2.998727626E+01  3.378439130E+01  6.743495762E-07  0.00000E+00  9.000E+00
#rwgt            1           9   2.5041253126557092E-005           7      338375           0
</event>
<event>
      6   9999  3.45752E-01  1.07787E+01 -1.00000E+00  1.83827E-01
      21    -1     0     0   501   502  0.000000000E+00  0.000000000E+00  1.561394992E+01  1.561394992E+01  0.000000000E+00  0.00000E+00  9.000E+00
       1    -1     0     0   502     0  0.000000000E+00  0.000000000E+00 -3.812465167E+03  3.812465167E+03  0.000000000E+00  0.00000E+00  9.000E+00
      25     1     1     2     0     0 -2.807026456E+00 -4.612907380E+00 -8.734563695E+02  8.823705250E+02  1.249902218E+02  0.00000E+00  9.000E+00
       5     1     1     2   501     0 -2.815835788E+00 -2.438997965E+00  1.019523761E+01  1.184833373E+01  4.750000000E+00  0.00000E+00  9.000E+00
      -5     1     1     2     0   503 -1.831338547E+00 -7.336938674E-01 -5.278240237E+01  5.303241091E+01  4.750000000E+00  0.00000E+00  9.000E+00
       1     1     1     2   503     0  7.454200791E+00  7.785599212E+00 -2.880807683E+03  2.880827847E+03  3.051757812E-05  0.00000E+00  9.000E+00
#rwgt            1           9   2.5109539740946415E-003           7      341564           0
</event>
<event>
      6   9999  3.45752E-01  2.36192E+01 -1.00000E+00  1.54886E-01
      21    -1     0     0   511   502  0.000000000E+00  0.000000000E+00  9.514753342E+01  9.514753342E+01  0.000000000E+00  0.00000E+00  9.000E+00
      21    -1     0     0   502   503  0.000000000E+00  0.000000000E+00 -4.382474191E+02  4.382474191E+02  0.000000000E+00  0.00000E+00  9.000E+00
      25     1     1     2     0     0 -1.550540766E+00  7.369671692E+01 -2.677868406E+02  3.045791487E+02  1.250002224E+02  0.00000E+00  9.000E+00
       5     1     1     2   501     0  1.329767722E+00  4.547205566E+00  4.842816249E+01  4.889064105E+01  4.750000000E+00  0.00000E+00  9.000E+00
      -5     1     1     2     0   503 -1.337337587E+01 -5.892906188E+01 -1.391127407E+02  1.517445177E+02  4.750000000E+00  0.00000E+00  9.000E+00
      21     1     1     2   511   501  1.359414891E+01 -1.931486061E+01  1.537153311E+01  2.818064505E+01  0.000000000E+00  0.00000E+00  9.000E+00
#rwgt            1           9  0.80983512475355468                7      344241           0
</event>
<event>
      6   9999  3.45752E-01  8.23845E+00 -1.00000E+00  1.96517E-01
      21    -1     0     0   501   502  0.000000000E+00  0.000000000E+00  9.378663522E+00  9.378663522E+00  0.000000000E+00  0.00000E+00  9.000E+00
      21    -1     0     0   512   503  0.000000000E+00  0.000000000E+00 -8.616659701E+02  8.616659701E+02  0.000000000E+00  0.00000E+00  9.000E+00
      25     1     1     2     0     0 -1.986512067E-01  5.251959035E+00 -7.370282060E+02  7.475719732E+02  1.250026242E+02  0.00000E+00  9.000E+00
       5     1     1     2   501     0 -5.434682407E-01  2.205549436E+00  1.366705274E+00  5.439686512E+00  4.750000000E+00  0.00000E+00  9.000E+00
      -5     1     1     2     0   503  5.074887105E+00 -4.504279371E-01 -2.265347815E+01  2.370020963E+01  4.750000000E+00  0.00000E+00  9.000E+00
      21     1     1     2   512   502 -4.332767658E+00 -7.007080534E+00 -9.397232773E+01  9.433276436E+01  1.907348633E-06  0.00000E+00  9.000E+00
#rwgt            1           9   5.7769403957302293E-004           7      346099           0
</event>
<event>
      6   9999  3.45752E-01  1.78628E+01 -1.00000E+00  1.64049E-01
      21    -1     0     0   502   511  0.000000000E+00  0.000000000E+00  1.252621607E+01  1.252621607E+01  0.000000000E+00  0.00000E+00  9.000E+00
      21    -1     0     0   501   502  0.000000000E+00  0.000000000E+00 -7.985520032E+02  7.985520032E+02  0.000000000E+00  0.00000E+00  9.000E+00
      25     1     1     2     0     0 -9.457787419E+00  2.479706811E+01 -4.448782326E+02  4.628666267E+02  1.249981117E+02  0.00000E+00  9.000E+00
       5     1     1     2   501     0 -1.404723740E-01  1.734819171E+00 -1.141785044E+02  1.142905188E+02  4.750000000E+00  0.00000E+00  9.000E+00
      -5     1     1     2     0   503 -2.956014731E+00 -1.382486620E+01 -2.052893164E+02  2.058303449E+02  4.750000000E+00  0.00000E+00  9.000E+00
      21     1     1     2   503   511  1.255427452E+01 -1.270702108E+01 -2.167973378E+01  2.809072890E+01  6.743495762E-07  0.00000E+00  9.000E+00
#rwgt            1           9   4.9854408545263592E-004           7      349659           0
</event>
<event>
      6   9999  3.45752E-01  1.15167E+01 -1.00000E+00  1.80957E-01
      21    -1     0     0   501   502  0.000000000E+00  0.000000000E+00  1.335250000E+01  1.335250000E+01  0.000000000E+00  0.00000E+00  9.000E+00
      21    -1     0     0   502   512  0.000000000E+00  0.000000000E+00 -2.979274144E+03  2.979274144E+03  0.000000000E+00  0.00000E+00  9.000E+00
      25     1     1     2     0     0 -7.900416158E-01 -2.201807630E+00 -3.072538580E+02  3.317160974E+02  1.250006556E+02  0.00000E+00  9.000E+00
       5     1     1     2   501     0  4.555004539E+00  9.142898442E-01 -2.375597500E+01  2.466764765E+01  4.750000000E+00  0.00000E+00  9.000E+00
      -5     1     1     2     0   503  6.150552604E+00  7.145622178E+00 -4.203232518E+01  4.333783651E+01  4.750000000E+00  0.00000E+00  9.000E+00
      21     1     1     2   503   512 -9.915515527E+00 -5.858104392E+00 -2.592879486E+03  2.592905062E+03  4.315837288E-05  0.00000E+00  9.000E+00
#rwgt            1           9   681.37327609599038                7      351205           0
</event>
<event>
      6   9999  3.45752E-01  1.77123E+01 -1.00000E+00  1.64344E-01
      21    -1     0     0   502   503  0.000000000E+00  0.000000000E+00  8.814940542E+00  8.814940542E+00  0.000000000E+00  0.00000E+00  9.000E+00
      21    -1     0     0   511   502  0.000000000E+00  0.000000000E+00 -1.525700006E+03  1.525700006E+03  0.000000000E+00  0.00000E+00  9.000E+00
      25     1     1     2     0     0 -1.507760178E+01 -4.874834980E+00 -5.718596024E+02  5.855762975E+02  1.250003891E+02  0.00000E+00  9.000E+00
       5     1     1     2   501     0  3.987157471E+00 -4.355477928E+00 -5.450102008E+01  5.502536963E+01  4.750000000E+00  0.00000E+00  9.000E+00
      -5     1     1     2     0   503  7.583851611E+00  2.659204460E+01 -1.219986429E+02  1.251833975E+02  4.750000000E+00  0.00000E+00  9.000E+00
      21     1     1     2   511   501  3.506592698E+00 -1.736173169E+01 -7.685258003E+02  7.687298821E+02  1.078959322E-05  0.00000E+00  9.000E+00
#rwgt            1           9   5.5676625250083457E-004           7      353020           0
</event>
<event>
      6   9999  3.45752E-01  1.42841E+01 -1.00000E+00  1.72233E-01
      21    -1     0     0   512   502  0.000000000E+00  0.000000000E+00  3.033888949E+01  3.033888949E+01  0.000000000E+00  0.00000E+00  9.000E+00
      21    -1     0     0   502   503  0.000000000E+00  0.000000000E+00 -1.052350152E+03  1.052350152E+03  0.000000000E+00  0.00000E+00  9.000E+00
      25     1     1     2     0     0 -1.097206664E+01  8.743948404E+00 -9.405039044E+02  9.488780694E+02  1.250006143E+02  0.00000E+00  9.000E+00
       5     1     1     2   501     0  5.889255976E-01 -2.206514437E+00  2.389548191E+01  2.446982009E+01  4.750000000E+00  0.00000E+00  9.000E+00
      -5     1     1     2     0   503 -3.365562328E+00 -2.663441240E+00 -7.952929580E+01  7.978654222E+01  4.750000000E+00  0.00000E+00  9.000E+00
      21     1     1     2   512   501  1.374870337E+01 -3.873992727E+00 -2.587354389E+01  2.955460941E+01  3.371747881E-07  0.00000E+00  9.000E+00
#rwgt            1           9   6.0323100671435398E-004           7      354495           0
</event>
<event>
      6   9999  3.45752E-01  3.31446E+01 -1.00000E+00  1.45091E-01
      21    -1     0     0   511   502  0.000000000E+00  0.000000000E+00  2.035543206E+01  2.035543206E+01  0.000000000E+00  0.00000E+00  9.000E+00
      21    -1     0     0   502   503  0.000000000E+00  0.000000000E+00 -8.444877115E+02  8.444877115E+02  0.000000000E+00  0.00000E+00  9.000E+00
      25     1     1     2     0     0  1.056612316E+01  2.877859415E+01 -5.507054066E+02  5.655462893E+02  1.250052399E+02  0.00000E+00  9.000E+00
       5     1     1     2   501     0  5.442349572E+00  5.053674501E+00  3.449719171E-01  8.822715027E+00  4.750000000E+00  0.00000E+00  9.000E+00
      -5     1     1     2     0   503  2.375574892E+00 -6.253476505E+00 -2.489004697E+02  2.490356513E+02  4.750000000E+00  0.00000E+00  9.000E+00
      21     1     1     2   511   501 -1.838404762E+01 -2.757879214E+01 -2.487137499E+01  4.143848787E+01  1.011524364E-06  0.00000E+00  9.000E+00
#rwgt            1           9   2.9371917901821743E-002           7      357229           0
</event>
<event>
      6   9999 -3.45752E-01  2.16113E+01 -1.00000E+00  1.57684E-01
      21    -1     0     0   512   502  0.000000000E+00  0.000000000E+00  2.401700922E+01  2.401700922E+01  0.000000000E+00  0.00000E+00  9.000E+00
      21    -1     0     0   502   503  0.000000000E+00  0.000000000E+00 -2.568172506E+03  2.568172506E+03  0.000000000E+00  0.00000E+00  9.000E+00
      25     1     1     2     0     0 -3.767215487E+01 -6.994959590E+01 -5.821263384E+02  6.006709816E+02  1.249896681E+02  0.00000E+00  9.000E+00
       5     1     1     2   501     0 -2.344885471E+00 -7.356574405E+00  4.368362745E+00  1.006294032E+01  4.750000000E+00  0.00000E+00  9.000E+00
      -5     1     1     2     0   503  3.526154972E+01  5.622452831E+01 -1.956593324E+03  1.957724335E+03  4.750000000E+00  0.00000E+00  9.000E+00
      21     1     1     2   512   501  4.755490616E+00  2.108164200E+01 -9.804196829E+00  2.373125778E+01  1.018524616E-06  0.00000E+00  9.000E+00
#rwgt            1           9  -8.2233259641807024                7      358247           0
</event>
<event>
      6   9999  3.45752E-01  5.05439E+00 -1.00000E+00  2.24988E-01
      21    -1     0     0   501   502  0.000000000E+00  0.000000000E+00  1.370077116E+01  1.370077116E+01  0.000000000E+00  0.00000E+00  9.000E+00
      21    -1     0     0   502   511  0.000000000E+00  0.000000000E+00 -9.314933359E+02  9.314933359E+02  0.000000000E+00  0.00000E+00  9.000E+00
      25     1     1     2     0     0  1.138710576E+01  1.109105953E+01 -5.111020734E+02  5.264094186E+02  1.250154743E+02  0.00000E+00  9.000E+00
       5     1     1     2   501     0 -2.690749964E+00  4.577686931E-01  4.323010340E+00  6.978581944E+00  4.750000000E+00  0.00000E+00  9.000E+00
      -5     1     1     2     0   503 -1.210771246E+01 -1.527837414E+01 -3.543561842E+02  3.549237850E+02  4.750000000E+00  0.00000E+00  9.000E+00
      21     1     1     2   503   511  3.411356659E+00  3.729545914E+00 -5.665731756E+01  5.688232151E+01  6.743495762E-07  0.00000E+00  9.000E+00
#rwgt            1           9   3.7721708652053369E-004           7      360896           0
</event>
<event>
      6   9999  3.45752E-01  1.19835E+01 -1.00000E+00  1.79279E-01
      21    -1     0     0   501   512  0.000000000E+00  0.000000000E+00  2.057113149E+02  2.057113149E+02  0.000000000E+00  0.00000E+00  9.000E+00
      21    -1     0     0   502   503  0.000000000E+00  0.000000000E+00 -3.017376015E+02  3.017376015E+02  0.000000000E+00  0.00000E+00  9.000E+00
      25     1     1     2     0     0 -5.995366586E+01 -8.205461691E+00 -2.103984074E+02  2.521032919E+02  1.250072330E+02  0.00000E+00  9.000E+00
       5     1     1     2   501     0  2.107470030E+00 -9.944860185E+00  7.106108308E+01  7.194151584E+01  4.750000000E+00  0.00000E+00  9.000E+00
      -5     1     1     2     0   503  5.733781302E+01  6.177583243E+00 -5.768110129E+01  8.170348391E+01  4.750000000E+00  0.00000E+00  9.000E+00
      21     1     1     2   502   512  5.083828032E-01  1.197273863E+01  1.009921390E+02  1.017006247E+02  0.000000000E+00  0.00000E+00  9.000E+00
#rwgt            1           9   1.0642172037711498E-003           7      365404           0
</event>
<event>
      6   9999  3.45752E-01  1.66952E+01 -1.00000E+00  1.66438E-01
      21    -1     0     0   501   502  0.000000000E+00  0.000000000E+00  4.843223362E+01  4.843223362E+01  0.000000000E+00  0.00000E+00  9.000E+00
      21    -1     0     0   502   511  0.000000000E+00  0.000000000E+00 -1.420422278E+03  1.420422278E+03  0.000000000E+00  0.00000E+00  9.000E+00
      25     1     1     2     0     0 -6.103025429E+00  1.820562258E+01 -1.182660130E+03  1.189402913E+03  1.250024591E+02  0.00000E+00  9.000E+00
       5     1     1     2   501     0 -7.598070256E+00  4.475518553E+00  4.100253625E+01  4.220819135E+01  4.750000000E+00  0.00000E+00  9.000E+00
      -5     1     1     2     0   503  4.690999795E+00 -3.673636223E+01 -1.205865670E+02  1.262348939E+02  4.750000000E+00  0.00000E+00  9.000E+00
      21     1     1     2   503   511  9.010095890E+00  1.405522109E+01 -1.097458838E+02  1.110085136E+02  1.348699152E-06  0.00000E+00  9.000E+00
#rwgt            1           9   4.9185033122110905E-006           7      368902           0
</event>
<event>
      6   9999  3.45752E-01  1.09571E+01 -1.00000E+00  1.83107E-01
      21    -1     0     0   501   512  0.000000000E+00  0.000000000E+00  6.838712404E+01  6.838712404E+01  0.000000000E+00  0.00000E+00  9.000E+00
      21    -1     0     0   502   503  0.000000000E+00  0.000000000E+00 -1.493663953E+03  1.493663953E+03  0.000000000E+00  0.00000E+00  9.000E+00
      25     1     1     2     0     0 -1.622016132E+00 -1.748066622E+00 -1.324922368E+03  1.330808051E+03  1.250004014E+02  0.00000E+00  9.000E+00
       5     1     1     2   501     0  5.237574105E+00  4.082822372E+00  6.206654510E+01  6.260127907E+01  4.750000000E+00  0.00000E+00  9.000E+00
      -5     1     1     2     0   503  1.157295863E+00 -1.219766982E+01 -1.546534282E+02  1.552107207E+02  4.750000000E+00  0.00000E+00  9.000E+00
      21     1     1     2   502   512 -4.772853836E+00  9.862914071E+00 -7.767578297E+00  1.343102678E+01  3.039252468E-07  0.00000E+00  9.000E+00
#rwgt            1           9   5.8675187603958055E-004           7      371490           0
</event>
<event>
      6   9999  3.45752E-01  9.27185E+00 -1.00000E+00  1.90720E-01
      21    -1     0     0   501   502  0.000000000E+00  0.000000000E+00  8.635402189E+01  8.635402189E+01  0.000000000E+00  0.00000E+00  9.000E+00
      21    -1     0     0   511   503  0.000000000E+00  0.000000000E+00 -4.593309628E+02  4.593309628E+02  0.000000000E+00  0.00000E+00  9.000E+00
      25     1     1     2     0     0  1.189165556E+01  3.739300902E+00 -3.002438243E+02  3.254638413E+02  1.249998564E+02  0.00000E+00  9.000E+00
       5     1     1     2   501     0 -3.770691915E+00  7.632345310E-01  7.320226486E+01  7.345702638E+01  4.750000000E+00  0.00000E+00  9.000E+00
      -5     1     1     2     0   503  7.386608641E-01 -1.768617588E+00 -2.798623809E+01  2.845110982E+01  4.750000000E+00  0.00000E+00  9.000E+00
      21     1     1     2   511   502 -8.859624508E+00 -2.733917845E+00 -1.179491434E+02  1.183130072E+02  0.000000000E+00  0.00000E+00  9.000E+00
#rwgt            1           9   3.5268559800586997E-002           7      376484           0
</event>
<event>
      6   9999 -3.45752E-01  2.24421E+01 -1.00000E+00  1.56483E-01
      21    -1     0     0   501   512  0.000000000E+00  0.000000000E+00  2.561630067E+01  2.561630067E+01  0.000000000E+00  0.00000E+00  9.000E+00
      21    -1     0     0   502   503  0.000000000E+00  0.000000000E+00 -1.705568096E+03  1.705568096E+03  0.000000000E+00  0.00000E+00  9.000E+00
      25     1     1     2     0     0  8.965041027E+00 -1.587221285E+01 -1.391065335E+03  1.396789091E+03  1.249988021E+02  0.00000E+00  9.000E+00
       5     1     1     2   501     0 -4.433721252E+00 -1.009436362E+01  1.255207555E+01  1.736868336E+01  4.750000000E+00  0.00000E+00  9.000E+00
      -5     1     1     2     0   503  2.628478137E+00  4.697200494E+00 -2.929420054E+02  2.930299535E+02  4.750000000E+00  0.00000E+00  9.000E+00
      21     1     1     2   502   512 -7.159797912E+00  2.126937597E+01 -8.496530262E+00  2.399666825E+01  4.298152060E-07  0.00000E+00  9.000E+00
#rwgt            1           9 -0.32265675574460528                7      380549           0
</event>
<event>
      6   9999  3.45752E-01  5.52349E+00 -1.00000E+00  2.19189E-01
      21    -1     0     0   501   502  0.000000000E+00  0.000000000E+00  1.520032225E+01  1.520032225E+01  0.000000000E+00  0.00000E+00  9.000E+00
       2    -1     0     0   502     0  0.000000000E+00  0.000000000E+00 -1.321934802E+03  1.321934802E+03  0.000000000E+00  0.00000E+00  9.000E+00
      25     1     1     2     0     0 -2.691456843E+01  8.971017883E+00 -6.197835233E+02  6.328990108E+02  1.249986760E+02  0.00000E+00  9.000E+00
       5     1     1     2   501     0  2.273493328E+00  8.143863475E-01  7.015864983E+00  8.810043047E+00  4.750000000E+00  0.00000E+00  9.000E+00
      -5     1     1     2     0   503  2.708592981E+01 -4.832459332E+00 -2.732044902E+02  2.746274863E+02  4.750000000E+00  0.00000E+00  9.000E+00
       2     1     1     2   503     0 -2.444854706E+00 -4.952944898E+00 -4.207623311E+02  4.207985839E+02  0.000000000E+00  0.00000E+00  9.000E+00
#rwgt            1           9   1.6141234327851584E-002           7      382814           0
</event>
<event>
      6   9999  3.45752E-01  4.12790E+01 -1.00000E+00  1.39398E-01
      21    -1     0     0   501   502  0.000000000E+00  0.000000000E+00  5.634354908E+01  5.634354908E+01  0.000000000E+00  0.00000E+00  9.000E+00
      21    -1     0     0   511   503  0.000000000E+00  0.000000000E+00 -2.578928772E+02  2.578928772E+02  0.000000000E+00  0.00000E+00  9.000E+00
      25     1     1     2     0     0 -1.808842565E+01 -1.448557661E-01 -1.054445812E+02  1.645468180E+02  1.250195324E+02  0.00000E+00  9.000E+00
       5     1     1     2   501     0 -8.511613458E+00 -3.131984371E+00  1.577297243E+01  1.880441568E+01  4.750000000E+00  0.00000E+00  9.000E+00
      -5     1     1     2     0   503 -1.016862071E+01 -1.548543753E+01 -6.801709023E+01  7.065470038E+01  4.750000000E+00  0.00000E+00  9.000E+00
      21     1     1     2   511   502  3.676865982E+01  1.876227767E+01 -4.386062907E+01  6.023049220E+01  9.536743164E-07  0.00000E+00  9.000E+00
#rwgt            1           9   3.0302582963062159E-004           7      387429           0
</event>
<event>
      6   9999  3.45752E-01  8.36787E+00 -1.00000E+00  1.95731E-01
      21    -1     0     0   512   502  0.000000000E+00  0.000000000E+00  2.879068121E+02  2.879068121E+02  0.000000000E+00  0.00000E+00  9.000E+00
      21    -1     0     0   502   503  0.000000000E+00  0.000000000E+00 -7.842416361E+02  7.842416361E+02  0.000000000E+00  0.00000E+00  9.000E+00
      25     1     1     2     0     0  4.887832429E+00  7.391026478E+00 -6.428851694E+02  6.549839094E+02  1.249962494E+02  0.00000E+00  9.000E+00
       5     1     1     2   501     0 -6.132026686E-01  8.728946035E-01  1.551705614E+00  5.109623549E+00  4.750000000E+00  0.00000E+00  9.000E+00
      -5     1     1     2     0   503  1.001584941E+00 -1.769089942E+00 -1.334152725E+02  1.335152811E+02  4.750000000E+00  0.00000E+00  9.000E+00
      21     1     1     2   512   501 -5.276214701E+00 -6.494831139E+00  2.784139123E+02  2.785396342E+02  0.000000000E+00  0.00000E+00  9.000E+00
#rwgt            1           9   1.8271370878833140E-004           7      388790           0
</event>
<event>
      6   9999  3.45752E-01  5.34378E+00 -1.00000E+00  2.21313E-01
      21    -1     0     0   511   502  0.000000000E+00  0.000000000E+00  1.196594992E+01  1.196594992E+01  0.000000000E+00  0.00000E+00  9.000E+00
      21    -1     0     0   502   503  0.000000000E+00  0.000000000E+00 -1.303975609E+03  1.303975609E+03  0.000000000E+00  0.00000E+00  9.000E+00
      25     1     1     2     0     0 -1.477311261E+01  2.844717566E+01 -6.102535105E+02  6.237477068E+02  1.249974716E+02  0.00000E+00  9.000E+00
       5     1     1     2   501     0 -1.504824746E+00 -1.272059582E+00  9.439900009E-02  5.143349518E+00  4.750000000E+00  0.00000E+00  9.000E+00
      -5     1     1     2     0   503  1.274433118E+01 -3.118381259E+01 -6.807437202E+02  6.815932975E+02  4.750000000E+00  0.00000E+00  9.000E+00
      21     1     1     2   511   501  3.533606176E+00  4.008696507E+00 -1.106827284E+00  5.457205048E+00  4.246177330E-07  0.00000E+00  9.000E+00
#rwgt            1           9   1.3626025262462855E-002           7      391997           0
</event>
<event>
      6   9999  3.45752E-01  1.48271E+01 -1.00000E+00  1.70809E-01
      21    -1     0     0   501   502  0.000000000E+00  0.000000000E+00  1.152240219E+02  1.152240219E+02  0.000000000E+00  0.00000E+00  9.000E+00
      21    -1     0     0   512   503  0.000000000E+00  0.000000000E+00 -4.719291589E+02  4.719291589E+02  0.000000000E+00  0.00000E+00  9.000E+00
      25     1     1     2     0     0  1.725720653E+01 -1.121836343E+02 -1.175476130E+02  2.057287861E+02  1.249956524E+02  0.00000E+00  9.000E+00
       5     1     1     2   501     0  2.642483328E+00  6.238235890E+00  5.265668637E+01  5.330279003E+01  4.750000000E+00  0.00000E+00  9.000E+00
      -5     1     1     2     0   503 -2.535929459E+01  1.197307570E+02 -1.956758327E+02  2.308465767E+02  4.750000000E+00  0.00000E+00  9.000E+00
      21     1     1     2   512   502  5.459604736E+00 -1.378535858E+01 -9.613837771E+01  9.727502796E+01  1.348699152E-06  0.00000E+00  9.000E+00
#rwgt            1           9  0.60850478371071381                7      395828           0
</event>
<event>
      6   9999  3.45752E-01  1.85802E+01 -1.00000E+00  1.62690E-01
      21    -1     0     0   502   503  0.000000000E+00  0.000000000E+00  8.748780226E+00  8.748780226E+00  0.000000000E+00  0.00000E+00  9.000E+00
      21    -1     0     0   501   511  0.000000000E+00  0.000000000E+00 -9.413924479E+02  9.413924479E+02  0.000000000E+00  0.00000E+00  9.000E+00
      25     1     1     2     0     0  9.051022536E+00  5.202494506E+00 -5.072704803E+02  5.225506017E+02  1.250072167E+02  0.00000E+00  9.000E+00
       5     1     1     2   501     0 -1.194299146E+01  1.238806347E+01 -2.087528126E+02  2.095146736E+02  4.750000000E+00  0.00000E+00  9.000E+00
      -5     1     1     2     0   503  1.144242338E+00  9.073080726E-01 -2.121670543E+01  2.179090607E+01  4.750000000E+00  0.00000E+00  9.000E+00
      21     1     1     2   502   511  1.747726589E+00 -1.849786605E+01 -1.954036692E+02  1.962850467E+02  0.000000000E+00  0.00000E+00  9.000E+00
#rwgt            1           9   5.3372762762629953E-003           7      398730           0
</event>
<event>
      6   9999  3.45752E-01  4.75874E+01 -1.00000E+00  1.35947E-01
      21    -1     0     0   501   502  0.000000000E+00  0.000000000E+00  7.877069600E+01  7.877069600E+01  0.000000000E+00  0.00000E+00  9.000E+00
      21    -1     0     0   512   503  0.000000000E+00  0.000000000E+00 -2.023699506E+03  2.023699506E+03  0.000000000E+00  0.00000E+00  9.000E+00
      25     1     1     2     0     0  4.366004971E+01  1.541567347E+01 -1.312696170E+03  1.319446896E+03  1.250001374E+02  0.00000E+00  9.000E+00
       5     1     1     2   501     0  2.154017750E+00  2.558003748E+00  7.408530137E+01  7.431270116E+01  4.750000000E+00  0.00000E+00  9.000E+00
      -5     1     1     2     0   503 -1.695496335E+00 -1.380294536E-01 -2.226755048E+02  2.227326575E+02  4.750000000E+00  0.00000E+00  9.000E+00
      21     1     1     2   512   502 -4.411857113E+01 -1.783564777E+01 -4.836424360E+02  4.859779465E+02  5.394796609E-06  0.00000E+00  9.000E+00
#rwgt            1           9   2.3189858832890976E-003           7      400022           0
</event>
<event>
      6   9999  3.45752E-01  4.21157E+01 -1.00000E+00  1.38900E-01
      21    -1     0     0   501   502  0.000000000E+00  0.000000000E+00  6.158319474E+01  6.158319474E+01  0.000000000E+00  0.00000E+00  9.000E+00
       2    -1     0     0   502     0  0.000000000E+00  0.000000000E+00 -3.736614303E+03  3.736614303E+03  0.000000000E+00  0.00000E+00  9.000E+00
      25     1     1     2     0     0 -2.763072181E+00  2.741283415E+01 -1.243360050E+03  1.249931047E+03  1.249972368E+02  0.00000E+00  9.000E+00
       5     1     1     2   501     0 -6.229443666E+00 -1.441221184E-01  5.179734270E+01  5.238658178E+01  4.750000000E+00  0.00000E+00  9.000E+00
      -5     1     1     2     0   503 -3.263564872E+01 -3.365820857E+01 -8.618175445E+01  9.822330616E+01  4.750000000E+00  0.00000E+00  9.000E+00
       2     1     1     2   503     0  4.162816457E+01  6.389496538E+00 -2.397286646E+03  2.397656563E+03  0.000000000E+00  0.00000E+00  9.000E+00
#rwgt            1           9   1.5783690009557973E-005           7      401921           0
</event>
<event>
      6   9999 -3.45752E-01  1.29931E+01 -1.00000E+00  1.75961E-01
      21    -1     0     0   501   502  0.000000000E+00  0.000000000E+00  1.792195840E+01  1.792195840E+01  0.000000000E+00  0.00000E+00  9.000E+00
      21    -1     0     0   511   503  0.000000000E+00  0.000000000E+00 -1.879888427E+03  1.879888427E+03  0.000000000E+00  0.00000E+00  9.000E+00
      25     1     1     2     0     0  3.924250686E+01  5.362001901E+01 -5.868012230E+02  6.036360641E+02  1.250029668E+02  0.00000E+00  9.000E+00
       5     1     1     2   501     0  3.507895185E-01  1.996313520E-01  5.443136629E+00  7.235547133E+00  4.750000000E+00  0.00000E+00  9.000E+00
      -5     1     1     2     0   503 -4.639431892E+01 -4.274864634E+01 -3.174454820E+02  3.236882391E+02  4.750000000E+00  0.00000E+00  9.000E+00
      21     1     1     2   511   502  6.801022541E+00 -1.107100403E+01 -9.631629000E+02  9.632505349E+02  1.525878906E-05  0.00000E+00  9.000E+00
#rwgt            1           9  -8.4901160316823340E-005           7      403663           0
</event>
<event>
      6   9999  3.45752E-01  1.18556E+01 -1.00000E+00  1.79729E-01
      21    -1     0     0   502   512  0.000000000E+00  0.000000000E+00  1.140885934E+00  1.140885934E+00  0.000000000E+00  0.00000E+00  9.000E+00
      21    -1     0     0   501   502  0.000000000E+00  0.000000000E+00 -5.389281440E+03  5.389281440E+03  0.000000000E+00  0.00000E+00  9.000E+00
      25     1     1     2     0     0 -1.381958013E+01 -2.065590360E+00 -4.948251759E+03  4.949850550E+03  1.250190016E+02  0.00000E+00  9.000E+00
       5     1     1     2   501     0 -7.211244149E-01  2.473142734E+00 -1.732257954E+02  1.733100550E+02  4.750000000E+00  0.00000E+00  9.000E+00
      -5     1     1     2     0   503  2.923504369E+00  1.957971542E+00 -7.516498928E+01  7.539707318E+01  4.750000000E+00  0.00000E+00  9.000E+00
      21     1     1     2   503   512  1.161720017E+01 -2.365523916E+00 -1.914980105E+02  1.918646478E+02  2.697398305E-06  0.00000E+00  9.000E+00
#rwgt            1           9  0.17128260419432012                7      406002           0
</event>
<event>
      6   9999  3.45752E-01  1.90810E+01 -1.00000E+00  1.61785E-01
      21    -1     0     0   501   511  0.000000000E+00  0.000000000E+00  8.005591730E+01  8.005591730E+01  0.000000000E+00  0.00000E+00  9.000E+00
      21    -1     0     0   502   503  0.000000000E+00  0.000000000E+00 -1.621137740E+03  1.621137740E+03  0.000000000E+00  0.00000E+00  9.000E+00
      25     1     1     2     0     0 -2.139824166E+01 -1.388161749E+02 -7.948780747E+01  2.041402080E+02  1.250083911E+02  0.00000E+00  9.000E+00
       5     1     1     2   501     0 -2.733964648E+00 -1.012002563E+00  1.078404240E+01  1.213906019E+01  4.750000000E+00  0.00000E+00  9.000E+00
      -5     1     1     2     0   503  2.315376464E+01  1.207722547E+02 -1.451198881E+03  1.456407494E+03  4.750000000E+00  0.00000E+00  9.000E+00
      21     1     1     2   502   511  9.784416775E-01  1.905592274E+01 -2.117917697E+01  2.850689525E+01  3.371747881E-07  0.00000E+00  9.000E+00
#rwgt            1           9   2.9636512174031743E-003           7      407706           0
</event>
<event>
      6   9999 -3.45752E-01  3.87161E+01 -1.00000E+00  1.41013E-01
      21    -1     0     0   512   502  0.000000000E+00  0.000000000E+00  4.857427493E+01  4.857427493E+01  0.000000000E+00  0.00000E+00  9.000E+00
      21    -1     0     0   502   503  0.000000000E+00  0.000000000E+00 -9.693994482E+02  9.693994482E+02  0.000000000E+00  0.00000E+00  9.000E+00
      25     1     1     2     0     0  4.659480611E+01  7.191351789E+00 -9.100216497E+02  9.197759056E+02  1.250020888E+02  0.00000E+00  9.000E+00
       5     1     1     2   501     0  2.581812602E+00 -7.170220417E+00  5.758075928E+00  1.066750934E+01  4.750000000E+00  0.00000E+00  9.000E+00
      -5     1     1     2     0   503 -2.399933347E+01 -2.943275510E+01 -2.769838619E+01  4.724423962E+01  4.750000000E+00  0.00000E+00  9.000E+00
      21     1     1     2   512   501 -2.517728525E+01  2.941162373E+01  1.113678665E+01  4.028606856E+01  6.194296387E-07  0.00000E+00  9.000E+00
#rwgt            1           9  -8.0846318721736521E-005           7      411409           0
</event>
<event>
      6   9999 -3.45752E-01  2.41425E+01 -1.00000E+00  1.54211E-01
      21    -1     0     0   511   502  0.000000000E+00  0.000000000E+00  4.295449496E+01  4.295449496E+01  0.000000000E+00  0.00000E+00  9.000E+00
      21    -1     0     0   502   503  0.000000000E+00  0.000000000E+00 -1.293364695E+03  1.293364695E+03  0.000000000E+00  0.00000E+00  9.000E+00
      25     1     1     2     0     0 -2.171425404E+00  1.537106712E+01 -1.074975169E+03  1.082329772E+03  1.250005431E+02  0.00000E+00  9.000E+00
       5     1     1     2   501     0  1.923582569E+01  1.807111339E+00 -1.635134775E+02  1.647194660E+02  4.750000000E+00  0.00000E+00  9.000E+00
      -5     1     1     2     0   503 -1.634053241E+00  1.389596917E+00 -4.666876209E+01  4.695888590E+01  4.750000000E+00  0.00000E+00  9.000E+00
      21     1     1     2   511   501 -1.543034705E+01 -1.856777537E+01  3.474720825E+01  4.231106680E+01  1.846782373E-06  0.00000E+00  9.000E+00
#rwgt            1           9  -5.5559743585369088E-002           7      412378           0
</event>
<event>
      6   9999 -3.45752E-01  2.70749E+01 -1.00000E+00  1.50779E-01
      21    -1     0     0   512   502  0.000000000E+00  0.000000000E+00  1.430856259E+02  1.430856259E+02  0.000000000E+00  0.00000E+00  9.000E+00
      21    -1     0     0   502   503  0.000000000E+00  0.000000000E+00 -7.387446079E+02  7.387446079E+02  0.000000000E+00  0.00000E+00  9.000E+00
      25     1     1     2     0     0  1.784787550E+01  6.247546477E-01 -6.847003757E+02  6.962468185E+02  1.250043631E+02  0.00000E+00  9.000E+00
       5     1     1     2   501     0  7.131449783E+00 -1.067572998E+01 -3.172908750E+01  3.455613231E+01  4.750000000E+00  0.00000E+00  9.000E+00
      -5     1     1     2     0   503 -1.219005629E+00 -2.929620875E+00 -1.318171882E+01  1.436624043E+01  4.750000000E+00  0.00000E+00  9.000E+00
      21     1     1     2   512   501 -2.376031965E+01  1.298059620E+01  1.339522000E+02  1.366610426E+02  3.814697266E-06  0.00000E+00  9.000E+00
#rwgt            1           9  -12.576543006952296                7      413343           0
</event>
<event>
      6   9999  3.45752E-01  1.35003E+01 -1.00000E+00  1.74434E-01
      21    -1     0     0   501   511  0.000000000E+00  0.000000000E+00  5.209401369E+01  5.209401369E+01  0.000000000E+00  0.00000E+00  9.000E+00
      21    -1     0     0   502   503  0.000000000E+00  0.000000000E+00 -6.864181015E+02  6.864181015E+02  0.000000000E+00  0.00000E+00  9.000E+00
      25     1     1     2     0     0  1.588284446E+01 -9.403934227E+00 -5.436352120E+02  5.581268906E+02  1.250027342E+02  0.00000E+00  9.000E+00
       5     1     1     2   501     0 -1.946593848E-01  1.349456997E+01 -9.044027658E+01  9.156499024E+01  4.750000000E+00  0.00000E+00  9.000E+00
      -5     1     1     2     0   503 -4.047393031E+00  2.746754514E+00 -4.323211887E+01  4.376647864E+01  4.750000000E+00  0.00000E+00  9.000E+00
      21     1     1     2   502   511 -1.164079205E+01 -6.837390258E+00  4.298351962E+01  4.505375571E+01  2.654916936E-06  0.00000E+00  9.000E+00
#rwgt            1           9   1.0173224457910288E-003           7      414521           0
</event>
<event>
      6   9999 -3.45752E-01  7.38255E+00 -1.00000E+00  2.02237E-01
      21    -1     0     0   501   502  0.000000000E+00  0.000000000E+00  8.855827878E+00  8.855827878E+00  0.000000000E+00  0.00000E+00  9.000E+00
      21    -1     0     0   502   512  0.000000000E+00  0.000000000E+00 -8.188385013E+02  8.188385013E+02  0.000000000E+00  0.00000E+00  9.000E+00
      25     1     1     2     0     0  1.132215082E+01 -7.715198539E+00 -6.857947442E+02  6.972292914E+02  1.250061529E+02  0.00000E+00  9.000E+00
       5     1     1     2   501     0  1.779236487E-01 -9.748537129E-01 -1.933032664E+00  5.223132381E+00  4.750000000E+00  0.00000E+00  9.000E+00
      -5     1     1     2     0   503 -1.484295012E+01  2.107708842E+00 -4.566656058E+01  4.829858031E+01  4.750000000E+00  0.00000E+00  9.000E+00
      21     1     1     2   503   512  3.342875648E+00  6.582343409E+00 -7.658833598E+01  7.694332505E+01  9.536743164E-07  0.00000E+00  9.000E+00
#rwgt            1           9  -3.0658182750826287E-004           7      416165           0
</event>
<event>
      6   9999  3.45752E-01  1.20045E+01 -1.00000E+00  1.79206E-01
      21    -1     0     0   501   502  0.000000000E+00  0.000000000E+00  3.395804758E+02  3.395804758E+02  0.000000000E+00  0.00000E+00  9.000E+00
      21    -1     0     0   502   511  0.000000000E+00  0.000000000E+00 -4.949557281E+01  4.949557281E+01  0.000000000E+00  0.00000E+00  9.000E+00
      25     1     1     2     0     0 -4.227389012E+00 -8.126656833E+00  4.757096643E+01  1.340585573E+02  1.249991463E+02  0.00000E+00  9.000E+00
       5     1     1     2   501     0 -2.985149804E+00  1.079614581E+00  2.352921650E+02  2.353615136E+02  4.750000000E+00  0.00000E+00  9.000E+00
      -5     1     1     2     0   503  2.350754588E-01 -2.721373354E+00 -3.035681014E-01  5.487785254E+00  4.750000000E+00  0.00000E+00  9.000E+00
      21     1     1     2   503   511  6.977463357E+00  9.768415606E+00  7.525339633E+00  1.416819237E+01  1.192092896E-07  0.00000E+00  9.000E+00
#rwgt            1           9   2.9253693455425611E-002           7      418925           0
</event>
<event>
      6   9999  3.45752E-01  4.52275E+00 -1.00000E+00  2.37303E-01
      21    -1     0     0   512   502  0.000000000E+00  0.000000000E+00  2.280618536E+01  2.280618536E+01  0.000000000E+00  0.00000E+00  9.000E+00
      21    -1     0     0   502   503  0.000000000E+00  0.000000000E+00 -1.033162446E+03  1.033162446E+03  0.000000000E+00  0.00000E+00  9.000E+00
      25     1     1     2     0     0 -2.778706815E+01  1.122956522E+01 -9.050058999E+02  9.140897642E+02  1.250047754E+02  0.00000E+00  9.000E+00
       5     1     1     2   501     0 -1.797528322E+00 -5.002270747E+00  1.547085229E+01  1.703418889E+01  4.750000000E+00  0.00000E+00  9.000E+00
      -5     1     1     2     0   503  2.507010550E+01 -6.500518121E+00 -1.101713011E+02  1.132742028E+02  4.750000000E+00  0.00000E+00  9.000E+00
      21     1     1     2   512   501  4.514490979E+00  2.732236431E-01 -1.064991224E+01  1.157047582E+01  2.064765462E-07  0.00000E+00  9.000E+00
#rwgt            1           9   7.8143174879937057E-005           7      421723           0
</event>
<event>
      6   9999  3.45752E-01  1.16530E+01 -1.00000E+00  1.80457E-01
      21    -1     0     0   501   502  0.000000000E+00  0.000000000E+00  2.575674620E+01  2.575674620E+01  0.000000000E+00  0.00000E+00  9.000E+00
      21    -1     0     0   511   503  0.000000000E+00  0.000000000E+00 -1.018587377E+03  1.018587377E+03  0.000000000E+00  0.00000E+00  9.000E+00
      25     1     1     2     0     0  8.703244586E+00 -5.618633668E+00 -8.563986185E+02  8.655349283E+02  1.249992112E+02  0.00000E+00  9.000E+00
       5     1     1     2   501     0 -1.760621720E+00 -2.603551517E+00  2.033971363E+01  2.112213815E+01  4.750000000E+00  0.00000E+00  9.000E+00
      -5     1     1     2     0   503 -3.755420757E-01 -1.404146864E+00 -3.358100141E+01  3.394641094E+01  4.750000000E+00  0.00000E+00  9.000E+00
      21     1     1     2   511   502 -6.567080790E+00  9.626332049E+00 -1.231907249E+02  1.237406462E+02  1.348699152E-06  0.00000E+00  9.000E+00
#rwgt            1           9   2.8749447943288836E-004           7      427252           0
</event>
<event>
      6   9999  3.45752E-01  5.00820E+00 -1.00000E+00  2.25606E-01
      21    -1     0     0   512   502  0.000000000E+00  0.000000000E+00  3.500562267E+01  3.500562267E+01  0.000000000E+00  0.00000E+00  9.000E+00
      21    -1     0     0   502   503  0.000000000E+00  0.000000000E+00 -2.227291448E+02  2.227291448E+02  0.000000000E+00  0.00000E+00  9.000E+00
      25     1     1     2     0     0  1.226783078E+00  1.026732313E+01 -1.942593326E+02  2.312367636E+02  1.250073183E+02  0.00000E+00  9.000E+00
       5     1     1     2   501     0 -2.210927379E-01 -6.587389829E-01  7.539966372E+00  8.938479286E+00  4.750000000E+00  0.00000E+00  9.000E+00
      -5     1     1     2     0   503  4.002507624E+00 -9.609309625E+00  2.147929381E+00  1.164194998E+01  4.750000000E+00  0.00000E+00  9.000E+00
      21     1     1     2   512   501 -5.008197964E+00  7.254782500E-04 -3.152085334E+00  5.917574615E+00  1.397852826E-07  0.00000E+00  9.000E+00
#rwgt            1           9   1.0982442800180892E-003           7      430438           0
</event>
<event>
      6   9999 -3.45752E-01  4.81853E+00 -1.00000E+00  2.32223E-01
      21    -1     0     0   502   503  0.000000000E+00  0.000000000E+00  1.151461482E+01  1.151461482E+01  0.000000000E+00  0.00000E+00  9.000E+00
      21    -1     0     0   501   511  0.000000000E+00  0.000000000E+00 -1.097575897E+03  1.097575897E+03  0.000000000E+00  0.00000E+00  9.000E+00
      25     1     1     2     0     0 -1.885875892E+01 -8.721793561E-01 -6.171529291E+02  6.299631413E+02  1.249776303E+02  0.00000E+00  9.000E+00
       5     1     1     2   501     0  1.904207652E+01  5.911378292E+00 -1.934897979E+02  1.945723759E+02  4.750000000E+00  0.00000E+00  9.000E+00
      -5     1     1     2     0   503  3.320932283E+00 -8.346533648E+00 -1.130001225E+00  1.022411942E+01  4.750000000E+00  0.00000E+00  9.000E+00
      21     1     1     2   502   511 -3.504249882E+00  3.307334712E+00 -2.742885542E+02  2.743308754E+02  5.394796609E-06  0.00000E+00  9.000E+00
#rwgt            1           9  -5.3386184123268059                7      434503           0
</event>
<event>
      6   9999 -3.45752E-01  1.29041E+01 -1.00000E+00  1.76238E-01
      21    -1     0     0   501   502  0.000000000E+00  0.000000000E+00  2.667544669E+01  2.667544669E+01  0.000000000E+00  0.00000E+00  9.000E+00
       2    -1     0     0   502     0  0.000000000E+00  0.000000000E+00 -1.162036420E+03  1.162036420E+03  0.000000000E+00  0.00000E+00  9.000E+00
      25     1     1     2     0     0  8.497884275E+00  2.196448699E+00 -4.813640502E+02  4.974071329E+02  1.250018745E+02  0.00000E+00  9.000E+00
       5     1     1     2   501     0  1.775259779E-01 -4.242478121E+00  1.068827730E+01  1.244314702E+01  4.750000000E+00  0.00000E+00  9.000E+00
      -5     1     1     2     0   503 -6.698919575E-01 -8.074625050E+00  3.887175281E+00  1.016469166E+01  4.750000000E+00  0.00000E+00  9.000E+00
       2     1     1     2   503     0 -8.005518295E+00  1.012065447E+01 -6.685723753E+02  6.686968947E+02  7.629394531E-06  0.00000E+00  9.000E+00
#rwgt            1           9  -1.6403587531909524E-002           7      439113           0
</event>
<event>
      6   9999  3.45752E-01  9.24314E+00 -1.00000E+00  1.90867E-01
      21    -1     0     0   501   502  0.000000000E+00  0.000000000E+00  2.435397704E+01  2.435397704E+01  0.000000000E+00  0.00000E+00  9.000E+00
      21    -1     0     0   511   503  0.000000000E+00  0.000000000E+00 -1.134799266E+03  1.134799266E+03  0.000000000E+00  0.00000E+00  9.000E+00
      25     1     1     2     0     0  7.060253183E+01  3.453871690E+01 -6.306520279E+02  6.477071923E+02  1.249999449E+02  0.00000E+00  9.000E+00
       5     1     1     2   501     0  3.403005096E+00 -2.000617580E+00  1.162749129E+01  1.316601565E+01  4.750000000E+00  0.00000E+00  9.000E+00
      -5     1     1     2     0   503 -6.484322584E+01 -3.131839252E+01 -4.063465344E+02  4.127051661E+02  4.750000000E+00  0.00000E+00  9.000E+00
      21     1     1     2   511   502 -9.162311077E+00 -1.219706803E+00 -8.507421764E+01  8.557486860E+01  9.536743164E-07  0.00000E+00  9.000E+00
#rwgt            1           9   2.5157839286558118E-004           7      441497           0
</event>
<event>
      6   9999  3.45752E-01  2.62158E+01 -1.00000E+00  1.51728E-01
      21    -1     0     0   501   502  0.000000000E+00  0.000000000E+00  6.355633980E+01  6.355633980E+01  0.000000000E+00  0.00000E+00  9.000E+00
      21    -1     0     0   512   503  0.000000000E+00  0.000000000E+00 -1.898992376E+03  1.898992376E+03  0.000000000E+00  0.00000E+00  9.000E+00
      25     1     1     2     0     0  1.409154575E+01 -3.018315038E+01 -1.334545035E+03  1.340800139E+03  1.249998801E+02  0.00000E+00  9.000E+00
       5     1     1     2   501     0 -1.582510147E+01 -2.084936831E+00  5.836995642E+01  6.069921837E+01  4.750000000E+00  0.00000E+00  9.000E+00
      -5     1     1     2     0   503 -8.244622716E+00  8.025513371E+00 -7.083760185E+01  7.192295186E+01  4.750000000E+00  0.00000E+00  9.000E+00
      21     1     1     2   512   502  9.978178440E+00  2.424257384E+01 -4.884233556E+02  4.891264057E+02  7.629394531E-06  0.00000E+00  9.000E+00
#rwgt            1           9   6.1141293201735455E-004           7      445178           0
</event>
<event>
      6   9999  3.45752E-01  1.12646E+01 -1.00000E+00  1.81906E-01
      21    -1     0     0   501   502  0.000000000E+00  0.000000000E+00  3.710312824E+03  3.710312824E+03  0.000000000E+00  0.00000E+00  9.000E+00
      21    -1     0     0   502   511  0.000000000E+00  0.000000000E+00 -2.419527949E+02  2.419527949E+02  0.000000000E+00  0.00000E+00  9.000E+00
      25     1     1     2     0     0 -2.272965095E+01 -8.248881338E+01  1.025107742E+03  1.036238936E+03  1.249968297E+02  0.00000E+00  9.000E+00
       5     1     1     2   501     0  6.194014960E-01 -1.481303072E+00  9.373469606E+02  9.373603710E+02  4.750000000E+00  0.00000E+00  9.000E+00
      -5     1     1     2     0   503  1.238738600E+01  7.828187672E+01  1.741246465E+03  1.743055740E+03  4.750000000E+00  0.00000E+00  9.000E+00
      21     1     1     2   503   511  9.722863455E+00  5.688239733E+00 -2.353411385E+02  2.356105720E+02  8.946258087E-06  0.00000E+00  9.000E+00
#rwgt            1           9   1.0143984728738981E-003           7      447229           0
</event>
<event>
      6   9999  3.45752E-01  1.30401E+01 -1.00000E+00  1.75816E-01
      21    -1     0     0   501   502  0.000000000E+00  0.000000000E+00  2.237711735E+01  2.237711735E+01  0.000000000E+00  0.00000E+00  9.000E+00
      21    -1     0     0   502   512  0.000000000E+00  0.000000000E+00 -1.064143654E+03  1.064143654E+03  0.000000000E+00  0.00000E+00  9.000E+00
      25     1     1     2     0     0  9.211306493E+00  6.988332169E+00 -7.890319309E+02  7.989553822E+02  1.249985194E+02  0.00000E+00  9.000E+00
       5     1     1     2   501     0  8.730752185E-01  5.554701586E-01  1.620470499E+01  1.691820828E+01  4.750000000E+00  0.00000E+00  9.000E+00
      -5     1     1     2     0   503  2.405679512E+00 -3.796615430E+00 -2.169132039E+02  2.170117557E+02  4.750000000E+00  0.00000E+00  9.000E+00
      21     1     1     2   503   512 -1.249006122E+01 -3.747186897E+00 -5.202610695E+01  5.363542527E+01  9.536743164E-07  0.00000E+00  9.000E+00
#rwgt            1           9   4.8577212270646567E-003           7      449904           0
</event>
<event>
      6   9999  3.45752E-01  1.22336E+01 -1.00000E+00  1.78419E-01
      21    -1     0     0   511   502  0.000000000E+00  0.000000000E+00  6.917883712E+01  6.917883712E+01  0.000000000E+00  0.00000E+00  9.000E+00
      21    -1     0     0   502   503  0.000000000E+00  0.000000000E+00 -9.188804753E+02  9.188804753E+02  0.000000000E+00  0.00000E+00  9.000E+00
      25     1     1     2     0     0 -2.326522836E+01  7.753865693E+01 -3.999756213E+02  4.267995559E+02  1.249953963E+02  0.00000E+00  9.000E+00
       5     1     1     2   501     0 -7.956262806E-01  1.020037300E+00  2.880162614E+00  5.703624633E+00  4.750000000E+00  0.00000E+00  9.000E+00
      -5     1     1     2     0   503  1.497939781E+01 -7.036181679E+01 -5.007341650E+02  5.058976518E+02  4.750000000E+00  0.00000E+00  9.000E+00
      21     1     1     2   511   501  9.081456825E+00 -8.196877439E+00  4.812798549E+01  4.965848010E+01  2.611744678E-06  0.00000E+00  9.000E+00
#rwgt            1           9   7.7389430618026289E-003           7      452633           0
</event>
<event>
      6   9999  3.45752E-01  1.32902E+01 -1.00000E+00  1.75056E-01
      21    -1     0     0   501   502  0.000000000E+00  0.000000000E+00  3.669246080E+01  3.669246080E+01  0.000000000E+00  0.00000E+00  9.000E+00
      21    -1     0     0   512   503  0.000000000E+00  0.000000000E+00 -2.257956657E+03  2.257956657E+03  0.000000000E+00  0.00000E+00  9.000E+00
      25     1     1     2     0     0  9.182422497E+01 -8.855626072E+01 -1.356442691E+03  1.368150492E+03  1.250003823E+02  0.00000E+00  9.000E+00
       5     1     1     2   501     0 -3.558349777E+00  1.156439404E+01  2.339103487E+01  2.676004624E+01  4.750000000E+00  0.00000E+00  9.000E+00
      -5     1     1     2     0   503 -1.006072686E+02  8.192328472E+01 -7.831175587E+02  7.938066014E+02  4.750000000E+00  0.00000E+00  9.000E+00
      21     1     1     2   512   502  1.234139337E+01 -4.931418043E+00 -1.050949815E+02  1.059319782E+02  1.907348633E-06  0.00000E+00  9.000E+00
#rwgt            1           9   1.6943514745273664E-003           7      455035           0
</event>
<event>
      6   9999  3.45752E-01  5.13373E+00 -1.00000E+00  2.23947E-01
      21    -1     0     0   501   502  0.000000000E+00  0.000000000E+00  1.253046858E+01  1.253046858E+01  0.000000000E+00  0.00000E+00  9.000E+00
      21    -1     0     0   502   511  0.000000000E+00  0.000000000E+00 -1.474260678E+03  1.474260678E+03  0.000000000E+00  0.00000E+00  9.000E+00
      25     1     1     2     0     0 -2.864992740E+00 -3.194498887E+00 -4.270202137E+02  4.449601816E+02  1.249995492E+02  0.00000E+00  9.000E+00
       5     1     1     2   501     0 -3.388990950E-01  7.929692654E-01  1.343235801E+00  5.011031358E+00  4.750000000E+00  0.00000E+00  9.000E+00
      -5     1     1     2     0   503 -1.676886833E+00  8.099237888E-01 -1.688988268E+01  1.764365504E+01  4.750000000E+00  0.00000E+00  9.000E+00
      21     1     1     2   503   511  4.880778668E+00  1.591605833E+00 -1.019163349E+03  1.019176279E+03  1.078959322E-05  0.00000E+00  9.000E+00
#rwgt            1           9   1.1103904798464559E-005           7      458361           0
</event>
<event>
      6   9999  3.45752E-01  6.95221E+00 -1.00000E+00  2.05518E-01
      21    -1     0     0   501   512  0.000000000E+00  0.000000000E+00  1.819003493E+01  1.819003493E+01  0.000000000E+00  0.00000E+00  9.000E+00
      21    -1     0     0   502   503  0.000000000E+00  0.000000000E+00 -7.459527215E+02  7.459527215E+02  0.000000000E+00  0.00000E+00  9.000E+00
      25     1     1     2     0     0 -7.589504970E+00 -4.225606417E+00 -6.300654731E+02  6.424036700E+02  1.249980738E+02  0.00000E+00  9.000E+00
       5     1     1     2   501     0 -4.069145390E+00 -4.977764747E+00 -9.554289582E+00  1.245724831E+01  4.750000000E+00  0.00000E+00  9.000E+00
      -5     1     1     2     0   503  7.726326203E+00  1.493660890E+01 -9.669450950E+01  9.826082164E+01  4.750000000E+00  0.00000E+00  9.000E+00
      21     1     1     2   502   512  3.932324158E+00 -5.733237732E+00  8.551585618E+00  1.102101650E+01  4.616955931E-07  0.00000E+00  9.000E+00
#rwgt            1           9   2.9452126016142133                7      462184           0
</event>
<event>
      6   9999  3.45752E-01  1.13642E+01 -1.00000E+00  1.81527E-01
      21    -1     0     0   501   502  0.000000000E+00  0.000000000E+00  1.598852541E+01  1.598852541E+01  0.000000000E+00  0.00000E+00  9.000E+00
      21    -1     0     0   511   503  0.000000000E+00  0.000000000E+00 -9.014777636E+02  9.014777636E+02  0.000000000E+00  0.00000E+00  9.000E+00
      25     1     1     2     0     0 -9.578041986E+00 -1.701603376E+01 -3.800420635E+02  4.005468513E+02  1.249981030E+02  0.00000E+00  9.000E+00
       5     1     1     2   501     0  3.408946413E-03 -2.827849388E-01  3.589593217E+00  5.960508234E+00  4.750000000E+00  0.00000E+00  9.000E+00
      -5     1     1     2     0   503  2.085814701E+01  1.865047384E+01 -4.462814525E+02  4.471829601E+02  4.750000000E+00  0.00000E+00  9.000E+00
      21     1     1     2   511   502 -1.128351397E+01 -1.351655134E+00 -6.275531537E+01  6.377596935E+01  1.348699152E-06  0.00000E+00  9.000E+00
#rwgt            1           9   5.0781380520711081E-003           7      464918           0
</event>
<event>
      6   9999  3.45752E-01  9.35482E+00 -1.00000E+00  1.90297E-01
      21    -1     0     0   501   502  0.000000000E+00  0.000000000E+00  9.553825003E+00  9.553825003E+00  0.000000000E+00  0.00000E+00  9.000E+00
      21    -1     0     0   502   512  0.000000000E+00  0.000000000E+00 -1.070509864E+03  1.070509864E+03  0.000000000E+00  0.00000E+00  9.000E+00
      25     1     1     2     0     0 -7.136676009E+00 -1.001738246E+01 -4.397708799E+02  4.573557367E+02  1.249982518E+02  0.00000E+00  9.000E+00
       5     1     1     2   501     0  9.732559418E-01  3.816610639E-01 -1.626474732E+01  1.697637763E+01  4.750000000E+00  0.00000E+00  9.000E+00
      -5     1     1     2     0   503  1.194561396E+00  1.709621720E+00 -1.789889711E+01  1.863552524E+01  4.750000000E+00  0.00000E+00  9.000E+00
      21     1     1     2   503   512  4.968858672E+00  7.926099673E+00 -5.870215148E+02  5.870960496E+02  1.078959322E-05  0.00000E+00  9.000E+00
#rwgt            1           9   1.0628059903494674E-002           7      468559           0
</event>
<event>
      6   9999  3.45752E-01  1.59225E+00 -1.00000E+00  3.76593E-01
      21    -1     0     0   501   502  0.000000000E+00  0.000000000E+00  8.856898818E+00  8.856898818E+00  0.000000000E+00  0.00000E+00  9.000E+00
      21    -1     0     0   502   511  0.000000000E+00  0.000000000E+00 -7.792231031E+02  7.792231031E+02  0.000000000E+00  0.00000E+00  9.000E+00
      25     1     1     2     0     0 -3.470312246E+00 -1.331653521E+01 -7.238691454E+02  7.347113009E+02  1.249991317E+02  0.00000E+00  9.000E+00
       5     1     1     2   501     0 -3.860170550E-02  9.833085120E-02 -2.400013721E+00  5.322943256E+00  4.750000000E+00  0.00000E+00  9.000E+00
      -5     1     1     2     0   503  3.552220944E+00  1.162654410E+01 -1.991294352E+01  2.380929694E+01  4.750000000E+00  0.00000E+00  9.000E+00
      21     1     1     2   503   511 -4.330699312E-02  1.591660259E+00 -2.418410164E+01  2.423646076E+01  3.371747881E-07  0.00000E+00  9.000E+00
#rwgt            1           9   1.8320497605076383E-004           7      470832           0
</event>
<event>
      6   9999  3.45752E-01  6.95671E+01 -1.00000E+00  1.27536E-01
       1    -1     0     0   502     0  0.000000000E+00  0.000000000E+00  4.178641604E+02  4.178641604E+02  0.000000000E+00  0.00000E+00  9.000E+00
      21    -1     0     0   501   502  0.000000000E+00  0.000000000E+00 -1.183637620E+03  1.183637620E+03  0.000000000E+00  0.00000E+00  9.000E+00
      25     1     1     2     0     0  1.511059252E+01 -1.393830100E+02 -4.356788712E+02  4.744480377E+02  1.250156318E+02  0.00000E+00  9.000E+00
       5     1     1     2   501     0 -1.441959589E+02  1.252046603E+02 -5.514054407E+02  5.835573700E+02  4.750000000E+00  0.00000E+00  9.000E+00
      -5     1     1     2     0   503  6.272834963E+01 -6.710054539E+00 -1.515375590E+02  1.642134738E+02  4.750000000E+00  0.00000E+00  9.000E+00
       1     1     1     2   503     0  6.635701674E+01  2.088840420E+01  3.728484116E+02  3.792828986E+02  9.344061824E-06  0.00000E+00  9.000E+00
#rwgt            1           9   5.9843760722365227                7      479016           0
</event>
<event>
      6   9999  3.45752E-01  2.15198E+01 -1.00000E+00  1.57820E-01
      21    -1     0     0   501   502  0.000000000E+00  0.000000000E+00  2.581469903E+03  2.581469903E+03  0.000000000E+00  0.00000E+00  9.000E+00
      21    -1     0     0   502   511  0.000000000E+00  0.000000000E+00 -7.663423155E+01  7.663423155E+01  0.000000000E+00  0.00000E+00  9.000E+00
      25     1     1     2     0     0 -3.003886930E+01 -9.513980136E-01  7.329646252E+01  1.479814928E+02  1.249916476E+02  0.00000E+00  9.000E+00
       5     1     1     2   501     0 -2.152588472E-01  1.045144664E+00  2.421220534E+03  2.421225429E+03  4.750000000E+00  0.00000E+00  9.000E+00
      -5     1     1     2     0   503  1.333395220E+01  1.320318238E+01  4.448763795E+01  4.851629352E+01  4.750000000E+00  0.00000E+00  9.000E+00
      21     1     1     2   503   511  1.692017595E+01 -1.329692903E+01 -3.416896284E+01  4.038091997E+01  2.697398305E-06  0.00000E+00  9.000E+00
#rwgt            1           9   4.5428291120386579E-005           7      480197           0
</event>
<event>
      6   9999  3.45752E-01  2.18094E+01 -1.00000E+00  1.57392E-01
      21    -1     0     0   501   502  0.000000000E+00  0.000000000E+00  1.704311618E+01  1.704311618E+01  0.000000000E+00  0.00000E+00  9.000E+00
      21    -1     0     0   512   503  0.000000000E+00  0.000000000E+00 -3.236197603E+03  3.236197603E+03  0.000000000E+00  0.00000E+00  9.000E+00
      25     1     1     2     0     0 -8.629855706E+01  9.465445469E+00 -6.840362334E+02  7.007612448E+02  1.249948715E+02  0.00000E+00  9.000E+00
       5     1     1     2   501     0  1.030873971E+00 -6.091255040E-01  6.887013915E+00  8.451461157E+00  4.750000000E+00  0.00000E+00  9.000E+00
      -5     1     1     2     0   503  7.439705328E+01 -2.776338734E+01 -2.032542227E+03  2.034098374E+03  4.750000000E+00  0.00000E+00  9.000E+00
      21     1     1     2   512   502  1.087062981E+01  1.890706737E+01 -5.094630403E+02  5.099296395E+02  7.629394531E-06  0.00000E+00  9.000E+00
#rwgt            1           9  0.18345519224958956                7      483028           0
</event>
<event>
      6   9999  3.45752E-01  4.04805E+00 -1.00000E+00  2.46782E-01
      21    -1     0     0   501   502  0.000000000E+00  0.000000000E+00  9.704439010E+00  9.704439010E+00  0.000000000E+00  0.00000E+00  9.000E+00
       2    -1     0     0   502     0  0.000000000E+00  0.000000000E+00 -1.657290049E+03  1.657290049E+03  0.000000000E+00  0.00000E+00  9.000E+00
      25     1     1     2     0     0 -2.979372729E+01 -1.181558089E+01 -6.434837456E+02  6.562953377E+02  1.249998611E+02  0.00000E+00  9.000E+00
       5     1     1     2   501     0  3.088180217E-01 -2.320111834E-01 -2.037986118E+00  5.183153980E+00  4.750000000E+00  0.00000E+00  9.000E+00
      -5     1     1     2     0   503  2.566480989E+01  1.338681793E+01 -1.232427462E+02  1.266855412E+02  4.750000000E+00  0.00000E+00  9.000E+00
       2     1     1     2   503     0  3.820099383E+00 -1.339225851E+00 -8.788211321E+02  8.788304551E+02  1.078959322E-05  0.00000E+00  9.000E+00
#rwgt            1           9   3.4454829159435047E-005           7      485440           0
</event>
<event>
      6   9999  3.45752E-01  4.38361E+00 -1.00000E+00  2.39896E-01
      21    -1     0     0   501   502  0.000000000E+00  0.000000000E+00  4.236740504E+01  4.236740504E+01  0.000000000E+00  0.00000E+00  9.000E+00
      21    -1     0     0   502   511  0.000000000E+00  0.000000000E+00 -2.925684298E+03  2.925684298E+03  0.000000000E+00  0.00000E+00  9.000E+00
      25     1     1     2     0     0 -3.069606468E+01  2.249055135E+01 -6.636707690E+02  6.764111726E+02  1.250004465E+02  0.00000E+00  9.000E+00
       5     1     1     2   501     0 -3.604726401E+00 -1.149458975E+01  3.423943266E+01  3.660629584E+01  4.750000000E+00  0.00000E+00  9.000E+00
      -5     1     1     2     0   503  3.276291165E+01 -1.510095462E+01 -5.786394649E+02  5.797824075E+02  4.750000000E+00  0.00000E+00  9.000E+00
      21     1     1     2   503   511  1.537879438E+00  4.104993019E+00 -1.675246091E+03  1.675251827E+03  3.051757812E-05  0.00000E+00  9.000E+00
#rwgt            1           9   6.8286145878355888E-004           7      490281           0
</event>
<event>
      6   9999  3.45752E-01  9.83689E+00 -1.00000E+00  1.87949E-01
      21    -1     0     0   501   512  0.000000000E+00  0.000000000E+00  8.038594741E+01  8.038594741E+01  0.000000000E+00  0.00000E+00  9.000E+00
      21    -1     0     0   502   503  0.000000000E+00  0.000000000E+00 -7.652003539E+02  7.652003539E+02  0.000000000E+00  0.00000E+00  9.000E+00
      25     1     1     2     0     0  3.433302112E+00 -1.950342792E+00 -7.158757027E+02  7.267159676E+02  1.249899377E+02  0.00000E+00  9.000E+00
       5     1     1     2   501     0  5.598570412E-01 -5.813333065E-01  1.764763879E+00  5.131109029E+00  4.750000000E+00  0.00000E+00  9.000E+00
      -5     1     1     2     0   503  3.308059190E+00 -4.060485232E+00 -4.158325653E+01  4.218009625E+01  4.750000000E+00  0.00000E+00  9.000E+00
      21     1     1     2   502   512 -7.301218343E+00  6.592161330E+00  7.087978887E+01  7.155912835E+01  1.651812370E-06  0.00000E+00  9.000E+00
#rwgt            1           9   1.5044398472539928E-004           7      496115           0
</event>
<event>
      6   9999  3.45752E-01  1.69128E+01 -1.00000E+00  1.65975E-01
      21    -1     0     0   501   502  0.000000000E+00  0.000000000E+00  6.707358103E+01  6.707358103E+01  0.000000000E+00  0.00000E+00  9.000E+00
      21    -1     0     0   511   503  0.000000000E+00  0.000000000E+00 -8.016521743E+02  8.016521743E+02  0.000000000E+00  0.00000E+00  9.000E+00
      25     1     1     2     0     0 -5.813238352E+01  4.218575543E+01 -2.297071043E+02  2.712018484E+02  1.250043073E+02  0.00000E+00  9.000E+00
       5     1     1     2   501     0 -2.131540558E-02  4.217776604E-01  3.172849587E+01  3.208486093E+01  4.750000000E+00  0.00000E+00  9.000E+00
      -5     1     1     2     0   503  6.115293728E+01 -2.596278286E+01 -6.346099648E+01  9.199787174E+01  4.750000000E+00  0.00000E+00  9.000E+00
      21     1     1     2   511   502 -2.999238349E+00 -1.664475024E+01 -4.731389883E+02  4.734411742E+02  0.000000000E+00  0.00000E+00  9.000E+00
#rwgt            1           9   7.8731105305992252E-004           7      498589           0
</event>
<event>
      6   9999  3.45752E-01  5.85161E+01 -1.00000E+00  1.31232E-01
      21    -1     0     0   512   502  0.000000000E+00  0.000000000E+00  7.831553772E+01  7.831553772E+01  0.000000000E+00  0.00000E+00  9.000E+00
      21    -1     0     0   502   503  0.000000000E+00  0.000000000E+00 -1.111290206E+03  1.111290206E+03  0.000000000E+00  0.00000E+00  9.000E+00
      25     1     1     2     0     0  9.002543460E+00  4.075520995E+01 -9.488670110E+02  9.579763978E+02  1.250125646E+02  0.00000E+00  9.000E+00
       5     1     1     2   501     0 -6.768724725E+01 -2.347156032E+01 -2.635230551E+01  7.648192002E+01  4.750000000E+00  0.00000E+00  9.000E+00
      -5     1     1     2     0   503  3.002821245E+00  7.068338365E-01 -8.874937027E+01  8.892991495E+01  4.750000000E+00  0.00000E+00  9.000E+00
      21     1     1     2   512   501  5.568188254E+01 -1.799048348E+01  3.099401865E+01  6.621751076E+01  2.185142372E-06  0.00000E+00  9.000E+00
#rwgt            1           9   2.7320608673946350E-004           7      500751           0
</event>
<event>
      6   9999  3.45752E-01  1.01299E+01 -1.00000E+00  1.86605E-01
      21    -1     0     0   501   511  0.000000000E+00  0.000000000E+00  9.862132553E+01  9.862132553E+01  0.000000000E+00  0.00000E+00  9.000E+00
      21    -1     0     0   502   503  0.000000000E+00  0.000000000E+00 -7.323435461E+02  7.323435461E+02  0.000000000E+00  0.00000E+00  9.000E+00
      25     1     1     2     0     0 -1.027541677E+01  3.222595154E+00 -6.863267128E+02  6.976966927E+02  1.249813945E+02  0.00000E+00  9.000E+00
       5     1     1     2   501     0  1.792817485E+00  2.507973390E+00  1.062531589E+00  5.761562153E+00  4.750000000E+00  0.00000E+00  9.000E+00
      -5     1     1     2     0   503  1.267047974E+01  3.493155556E+00 -3.639614277E+01  3.898698374E+01  4.750000000E+00  0.00000E+00  9.000E+00
      21     1     1     2   502   511 -4.187880462E+00 -9.223724100E+00  8.793810334E+01  8.851963312E+01  2.861022949E-06  0.00000E+00  9.000E+00
#rwgt            1           9   2.5175042046830543E-004           7      501946           0
</event>
<event>
      6   9999 -3.45752E-01  1.50660E+02 -1.00000E+00  1.13327E-01
      21    -1     0     0   502   512  0.000000000E+00  0.000000000E+00  8.615466633E+02  8.615466633E+02  0.000000000E+00  0.00000E+00  9.000E+00
      21    -1     0     0   501   502  0.000000000E+00  0.000000000E+00 -1.485006462E+03  1.485006462E+03  0.000000000E+00  0.00000E+00  9.000E+00
      25     1     1     2     0     0  2.430196589E+02 -1.573276551E+02 -7.733586234E+02  8.351773632E+02  1.250084876E+02  0.00000E+00  9.000E+00
       5     1     1     2   501     0 -3.309553882E+01  3.802767835E+01 -3.279025018E+02  3.317891382E+02  4.750000000E+00  0.00000E+00  9.000E+00
      -5     1     1     2     0   503 -1.135739770E+02  3.476278641E+00 -3.345660076E+02  3.533668189E+02  4.750000000E+00  0.00000E+00  9.000E+00
      21     1     1     2   503   512 -9.635014311E+01  1.158236981E+02  8.123673346E+02  8.262198045E+02  0.000000000E+00  0.00000E+00  9.000E+00
#rwgt            1           9  -4.7404585016117828E-003           7      504082           0
</event>
<event>
      6   9999  3.45752E-01  1.69048E+01 -1.00000E+00  1.65992E-01
      21    -1     0     0   501   511  0.000000000E+00  0.000000000E+00  6.289466815E+02  6.289466815E+02  0.000000000E+00  0.00000E+00  9.000E+00
      21    -1     0     0   502   503  0.000000000E+00  0.000000000E+00 -1.012814417E+01  1.012814417E+01  0.000000000E+00  0.00000E+00  9.000E+00
      25     1     1     2     0     0 -1.520018275E+01 -2.468084890E+00  4.256393455E+02  4.438815931E+02  1.249995170E+02  0.00000E+00  9.000E+00
       5     1     1     2   501     0 -7.249904585E-01 -2.019929102E-01  3.803633063E+01  3.833916222E+01  4.750000000E+00  0.00000E+00  9.000E+00
      -5     1     1     2     0   503 -6.579677004E-01 -6.118559500E-01  1.678423299E+01  1.746654706E+01  4.750000000E+00  0.00000E+00  9.000E+00
      21     1     1     2   502   511  1.658314091E+01  3.281933750E+00  1.383586283E+02  1.393875234E+02  1.907348633E-06  0.00000E+00  9.000E+00
#rwgt            1           9   3.8501039605047175E-003           7      504592           0
</event>
<event>
      6   9999 -3.45752E-01  3.54294E+01 -1.00000E+00  1.43312E-01
      21    -1     0     0   512   502  0.000000000E+00  0.000000000E+00  2.528032756E+01  2.528032756E+01  0.000000000E+00  0.00000E+00  9.000E+00
      21    -1     0     0   502   503  0.000000000E+00  0.000000000E+00 -9.383768930E+02  9.383768930E+02  0.000000000E+00  0.00000E+00  9.000E+00
      25     1     1     2     0     0  6.077141854E+01  3.576133878E+01 -8.178654182E+02  8.303616904E+02  1.249986237E+02  0.00000E+00  9.000E+00
       5     1     1     2   501     0  3.969754134E+00  1.956408144E+00  1.181298814E+00  6.598821683E+00  4.750000000E+00  0.00000E+00  9.000E+00
      -5     1     1     2     0   503 -3.347006664E+01 -2.106350817E+01 -7.600718257E+01  8.581125241E+01  4.750000000E+00  0.00000E+00  9.000E+00
      21     1     1     2   512   501 -3.127110604E+01 -1.665423875E+01 -2.040526350E+01  4.088545609E+01  1.066240300E-06  0.00000E+00  9.000E+00
#rwgt            1           9  -1.1295702131478406E-003           7      506050           0
</event>
<event>
      6   9999  3.45752E-01  3.70630E+00 -1.00000E+00  2.54910E-01
      21    -1     0     0   501   502  0.000000000E+00  0.000000000E+00  8.001274980E+02  8.001274980E+02  0.000000000E+00  0.00000E+00  9.000E+00
      -2    -1     0     0     0   503  0.000000000E+00  0.000000000E+00 -1.352079114E+01  1.352079114E+01  0.000000000E+00  0.00000E+00  9.000E+00
      25     1     1     2     0     0  7.620899181E+00  4.266300796E+00  6.922724220E+02  7.035196008E+02  1.249897722E+02  0.00000E+00  9.000E+00
       5     1     1     2   501     0 -4.797328790E-01  3.275427200E-01  9.102816172E+01  9.115385979E+01  4.750000000E+00  0.00000E+00  9.000E+00
      -5     1     1     2     0   503 -1.052515538E+01 -6.105558324E+00  6.018557353E+00  1.438201206E+01  4.750000000E+00  0.00000E+00  9.000E+00
      -2     1     1     2     0   502  3.383989081E+00  1.511714808E+00 -2.712434166E+00  4.592816442E+00  2.779775576E-07  0.00000E+00  9.000E+00
#rwgt            1           9   1.9074256895229624E-002           7      507067           0
</event>
<event>
      6   9999  3.45752E-01  1.77815E+01 -1.00000E+00  1.64208E-01
      21    -1     0     0   502   503  0.000000000E+00  0.000000000E+00  5.372010238E+01  5.372010238E+01  0.000000000E+00  0.00000E+00  9.000E+00
      21    -1     0     0   511   502  0.000000000E+00  0.000000000E+00 -2.312420746E+02  2.312420746E+02  0.000000000E+00  0.00000E+00  9.000E+00
      25     1     1     2     0     0 -3.487284187E+01 -5.438709328E+01 -7.782872231E+01  1.608009856E+02  1.250023038E+02  0.00000E+00  9.000E+00
       5     1     1     2   501     0  5.350692597E+00  2.365962939E+01 -5.918880881E+01  6.414269687E+01  4.750000000E+00  0.00000E+00  9.000E+00
      -5     1     1     2     0   503  2.080267310E+01  1.523058711E+01 -2.070378009E+01  3.340555346E+01  4.750000000E+00  0.00000E+00  9.000E+00
      21     1     1     2   511   501  8.719476172E+00  1.549687678E+01 -1.980066104E+01  2.661294106E+01  0.000000000E+00  0.00000E+00  9.000E+00
#rwgt            1           9   2877.1815136885971                7      511843           0
</event>
<event>
      6   9999  3.45752E-01  4.63117E+00 -1.00000E+00  2.35376E-01
      21    -1     0     0   501   512  0.000000000E+00  0.000000000E+00  1.489479137E+01  1.489479137E+01  0.000000000E+00  0.00000E+00  9.000E+00
      21    -1     0     0   502   503  0.000000000E+00  0.000000000E+00 -7.356170206E+02  7.356170206E+02  0.000000000E+00  0.00000E+00  9.000E+00
      25     1     1     2     0     0 -6.363887362E+00  2.444115959E+01 -4.876068173E+02  5.040074366E+02  1.250008742E+02  0.00000E+00  9.000E+00
       5     1     1     2   501     0  2.645733549E+00  2.304005716E+00 -5.754201388E+00  8.245100483E+00  4.750000000E+00  0.00000E+00  9.000E+00
      -5     1     1     2     0   503  6.470829504E+00 -3.046948318E+01 -2.305135210E+02  2.326570586E+02  4.750000000E+00  0.00000E+00  9.000E+00
      21     1     1     2   502   512 -2.752675691E+00  3.724317871E+00  3.152310396E+00  5.602216337E+00  3.125693942E-07  0.00000E+00  9.000E+00
#rwgt            1           9   3.2716150394310564                7      513554           0
</event>
<event>
      6   9999  3.45752E-01  4.04141E+00 -1.00000E+00  2.46928E-01
      21    -1     0     0   501   502  0.000000000E+00  0.000000000E+00  1.760896121E+01  1.760896121E+01  0.000000000E+00  0.00000E+00  9.000E+00
      21    -1     0     0   502   511  0.000000000E+00  0.000000000E+00 -4.881941709E+02  4.881941709E+02  0.000000000E+00  0.00000E+00  9.000E+00
      25     1     1     2     0     0  1.365507427E+01  2.148212778E+01 -3.479413642E+02  3.705889318E+02  1.250000825E+02  0.00000E+00  9.000E+00
       5     1     1     2   501     0 -1.490738574E-01  3.027212573E-01  2.507595022E+00  5.381858040E+00  4.750000000E+00  0.00000E+00  9.000E+00
      -5     1     1     2     0   503 -9.762680779E+00 -2.026151350E+01 -5.561171210E+01  6.017527638E+01  4.750000000E+00  0.00000E+00  9.000E+00
      21     1     1     2   503   511 -3.743319633E+00 -1.523335539E+00 -6.953972844E+01  6.965706587E+01  9.536743164E-07  0.00000E+00  9.000E+00
#rwgt            1           9   5.6748182268283893E-003           7      517683           0
</event>
<event>
      6   9999  3.45752E-01  5.96470E+00 -1.00000E+00  2.14416E-01
      -4    -1     0     0     0   502  0.000000000E+00  0.000000000E+00  3.242808293E+02  3.242808293E+02  0.000000000E+00  0.00000E+00  9.000E+00
      21    -1     0     0   502   503  0.000000000E+00  0.000000000E+00 -9.199336926E+02  9.199336926E+02  0.000000000E+00  0.00000E+00  9.000E+00
      25     1     1     2     0     0 -4.836432847E+00 -5.217413359E+00 -8.221835825E+02  8.316668884E+02  1.250334251E+02  0.00000E+00  9.000E+00
       5     1     1     2   501     0  5.542831788E+00 -4.585309621E+00  1.367724405E+01  1.616717518E+01  4.750000000E+00  0.00000E+00  9.000E+00
      -5     1     1     2     0   503  1.797312614E+00  4.388941278E+00 -9.161149267E+01  9.185706956E+01  4.750000000E+00  0.00000E+00  9.000E+00
      -4     1     1     2     0   501 -2.503711555E+00  5.413781703E+00  3.044649679E+02  3.045233887E+02  6.607249480E-06  0.00000E+00  9.000E+00
#rwgt            1           9   9.4700660152940020E-004           7      522229           0
</event>
<event>
      6   9999 -3.45752E-01  9.12097E+00 -1.00000E+00  1.91503E-01
      21    -1     0     0   501   502  0.000000000E+00  0.000000000E+00  1.113785825E+02  1.113785825E+02  0.000000000E+00  0.00000E+00  9.000E+00
      21    -1     0     0   502   511  0.000000000E+00  0.000000000E+00 -6.659042886E+01  6.659042886E+01  0.000000000E+00  0.00000E+00  9.000E+00
      25     1     1     2     0     0 -5.656398125E-01 -8.757033064E+00  7.572461119E+00  1.256515408E+02  1.251157942E+02  0.00000E+00  9.000E+00
       5     1     1     2   501     0 -6.804353690E-01 -2.547557746E+00  3.302607014E+01  3.346993952E+01  4.750000000E+00  0.00000E+00  9.000E+00
      -5     1     1     2     0   503 -2.648908515E+00  3.057091010E+00  6.929113836E+00  9.324035624E+00  4.750000000E+00  0.00000E+00  9.000E+00
      21     1     1     2   503   511  3.894983696E+00  8.247499800E+00 -2.739491459E+00  9.523495388E+00  5.960464478E-08  0.00000E+00  9.000E+00
#rwgt            1           9  -5.0300605417149216E-002           7      527195           0
</event>
<event>
      6   9999  3.45752E-01  6.40359E+00 -1.00000E+00  2.10194E-01
      21    -1     0     0   512   502  0.000000000E+00  0.000000000E+00  6.476427312E+01  6.476427312E+01  0.000000000E+00  0.00000E+00  9.000E+00
      21    -1     0     0   502   503  0.000000000E+00  0.000000000E+00 -2.288502091E+03  2.288502091E+03  0.000000000E+00  0.00000E+00  9.000E+00
      25     1     1     2     0     0  6.477608443E+01  1.948167403E+01 -1.799929421E+03  1.805532998E+03  1.250120421E+02  0.00000E+00  9.000E+00
       5     1     1     2   501     0 -1.053429517E+01 -2.761967950E-01  3.215421081E+01  3.416874935E+01  4.750000000E+00  0.00000E+00  9.000E+00
      -5     1     1     2     0   503 -4.804888262E+01 -1.757639882E+01 -4.830273581E+02  4.857526285E+02  4.750000000E+00  0.00000E+00  9.000E+00
      21     1     1     2   512   501 -6.192906642E+00 -1.629078415E+00  2.706475014E+01  2.781198823E+01  2.132480600E-06  0.00000E+00  9.000E+00
#rwgt            1           9   1.1514482739693124E-002           7      529724           0
</event>
<event>
      6   9999  3.45752E-01  6.74828E+00 -1.00000E+00  2.07187E-01
      21    -1     0     0   501   502  0.000000000E+00  0.000000000E+00  1.197149299E+02  1.197149299E+02  0.000000000E+00  0.00000E+00  9.000E+00
      21    -1     0     0   502   511  0.000000000E+00  0.000000000E+00 -6.828689414E+01  6.828689414E+01  0.000000000E+00  0.00000E+00  9.000E+00
      25     1     1     2     0     0 -3.254684369E+00  3.679192120E+00  4.037646217E+01  1.314458450E+02  1.249944881E+02  0.00000E+00  9.000E+00
       5     1     1     2   501     0 -1.898195471E+00  4.877372520E-02  3.064392470E+01  3.106796012E+01  4.750000000E+00  0.00000E+00  9.000E+00
      -5     1     1     2     0   503 -1.571386291E+00 -4.296782217E+00 -2.399048640E+00  7.017800701E+00  4.750000000E+00  0.00000E+00  9.000E+00
      21     1     1     2   503   511  6.724266131E+00  5.688163714E-01 -1.719330251E+01  1.847021814E+01  2.384185791E-07  0.00000E+00  9.000E+00
#rwgt            1           9   1.8930505406246082E-002           7      535651           0
</event>
<event>
      6   9999  3.45752E-01  7.73378E+00 -1.00000E+00  1.99771E-01
       1    -1     0     0   501     0  0.000000000E+00  0.000000000E+00  7.771119676E+02  7.771119676E+02  0.000000000E+00  0.00000E+00  9.000E+00
      21    -1     0     0   502   503  0.000000000E+00  0.000000000E+00 -8.935018798E+02  8.935018798E+02  0.000000000E+00  0.00000E+00  9.000E+00
      25     1     1     2     0     0  2.051912555E+01 -7.132077527E+00 -4.330864834E+02  4.512877414E+02  1.249992897E+02  0.00000E+00  9.000E+00
       5     1     1     2   501     0 -5.565147834E-01  3.132067785E+00  3.551869674E+00  6.730366668E+00  4.750000000E+00  0.00000E+00  9.000E+00
      -5     1     1     2     0   503 -2.471751591E+01  1.009937518E+01 -4.492970208E+02  4.501147946E+02  4.750000000E+00  0.00000E+00  9.000E+00
       1     1     1     2   502     0  4.754905144E+00 -6.099365436E+00  7.624417222E+02  7.624809448E+02  1.078959322E-05  0.00000E+00  9.000E+00
#rwgt            1           9   5.3532462045478241E-005           7      538275           0
</event>
<event>
      6   9999  3.45752E-01  1.30073E+01 -1.00000E+00  1.75917E-01
      21    -1     0     0   501   502  0.000000000E+00  0.000000000E+00  1.971347733E+01  1.971347733E+01  0.000000000E+00  0.00000E+00  9.000E+00
      21    -1     0     0   502   511  0.000000000E+00  0.000000000E+00 -1.062574432E+03  1.062574432E+03  0.000000000E+00  0.00000E+00  9.000E+00
      25     1     1     2     0     0 -4.481216213E+01 -5.763160147E+01 -5.103609290E+02  5.304930499E+02  1.250002668E+02  0.00000E+00  9.000E+00
       5     1     1     2   501     0  8.471173297E-01 -5.308240620E-01  5.652594424E+00  7.450752021E+00  4.750000000E+00  0.00000E+00  9.000E+00
      -5     1     1     2     0   503  4.980607472E+01  4.654041357E+01 -4.724966552E+02  4.774120934E+02  4.750000000E+00  0.00000E+00  9.000E+00
      21     1     1     2   503   511 -5.841029923E+00  1.162201196E+01 -6.565596507E+01  6.693201433E+01  9.536743164E-07  0.00000E+00  9.000E+00
#rwgt            1           9   6.1432661144071349E-004           7      541686           0
</event>
<event>
      6   9999  3.45752E-01  8.66316E+00 -1.00000E+00  1.94007E-01
      21    -1     0     0   512   503  0.000000000E+00  0.000000000E+00  1.049254204E+01  1.049254204E+01  0.000000000E+00  0.00000E+00  9.000E+00
      21    -1     0     0   501   502  0.000000000E+00  0.000000000E+00 -8.153424684E+02  8.153424684E+02  0.000000000E+00  0.00000E+00  9.000E+00
      25     1     1     2     0     0 -1.249824604E+01 -1.224160805E+01 -7.531113882E+02  7.636164907E+02  1.250092746E+02  0.00000E+00  9.000E+00
       5     1     1     2   501     0  2.285544792E-01 -2.342288311E-01 -1.548878441E+01  1.620407488E+01  4.750000000E+00  0.00000E+00  9.000E+00
      -5     1     1     2     0   503  1.723650725E+01  5.377875639E+00 -2.998846567E+01  3.532547666E+01  4.750000000E+00  0.00000E+00  9.000E+00
      21     1     1     2   512   502 -4.966815688E+00  7.097961246E+00 -6.261288054E+00  1.068896815E+01  2.528810911E-07  0.00000E+00  9.000E+00
#rwgt            1           9   1.7445348739235017E-004           7      544176           0
</event>
<event>
      6   9999  3.45752E-01  3.88846E+01 -1.00000E+00  1.40902E-01
      21    -1     0     0   502   503  0.000000000E+00  0.000000000E+00  2.839458920E+01  2.839458920E+01  0.000000000E+00  0.00000E+00  9.000E+00
      21    -1     0     0   501   511  0.000000000E+00  0.000000000E+00 -1.404501818E+03  1.404501818E+03  0.000000000E+00  0.00000E+00  9.000E+00
      25     1     1     2     0     0 -3.901955766E+01 -1.664651235E+01 -1.361688876E+02  1.896481150E+02  1.249992374E+02  0.00000E+00  9.000E+00
       5     1     1     2   501     0  3.136144565E+00 -1.196194259E-01 -9.199708842E+02  9.199884999E+02  4.750000000E+00  0.00000E+00  9.000E+00
      -5     1     1     2     0   503  1.014507672E+00 -4.435286436E-01 -1.387340247E+01  1.470577232E+01  4.750000000E+00  0.00000E+00  9.000E+00
      21     1     1     2   502   511  3.486890542E+01  1.720966041E+01 -3.060940546E+02  3.085540199E+02  5.394796609E-06  0.00000E+00  9.000E+00
#rwgt            1           9   9.0031638674580392E-003           7      546748           0
</event>
<event>
      6   9999  3.45752E-01  9.59020E+00 -1.00000E+00  1.89128E-01
      21    -1     0     0   501   502  0.000000000E+00  0.000000000E+00  9.982230026E+02  9.982230026E+02  0.000000000E+00  0.00000E+00  9.000E+00
      21    -1     0     0   502   512  0.000000000E+00  0.000000000E+00 -9.759205817E+00  9.759205817E+00  0.000000000E+00  0.00000E+00  9.000E+00
      25     1     1     2     0     0  3.739651957E+00  7.798474453E+00  4.494599665E+02  4.665992070E+02  1.250030290E+02  0.00000E+00  9.000E+00
       5     1     1     2   501     0 -3.256105521E+00  6.202919661E-01  4.187801120E+02  4.188201662E+02  4.750000000E+00  0.00000E+00  9.000E+00
      -5     1     1     2     0   503 -1.006481114E+01 -8.832686021E+00  7.486751401E+01  7.620383140E+01  4.750000000E+00  0.00000E+00  9.000E+00
      21     1     1     2   503   512  9.581264706E+00  4.139196018E-01  4.535620433E+01  4.635900381E+01  6.743495762E-07  0.00000E+00  9.000E+00
#rwgt            1           9   1.4282962688455625E-004           7      548061           0
</event>
<event>
      6   9999  3.45752E-01  1.03984E+01 -1.00000E+00  1.85424E-01
      21    -1     0     0   511   502  0.000000000E+00  0.000000000E+00  9.730617307E+01  9.730617307E+01  0.000000000E+00  0.00000E+00  9.000E+00
      21    -1     0     0   502   503  0.000000000E+00  0.000000000E+00 -1.622219119E+03  1.622219119E+03  0.000000000E+00  0.00000E+00  9.000E+00
      25     1     1     2     0     0  9.509324989E+01  4.026270389E+01 -3.087055235E+02  3.486930038E+02  1.249955964E+02  0.00000E+00  9.000E+00
       5     1     1     2   501     0 -3.167015144E+00 -1.423795050E+01  6.855330940E+01  7.024861529E+01  4.750000000E+00  0.00000E+00  9.000E+00
      -5     1     1     2     0   503 -9.409349974E+01 -3.619474550E+01 -1.286140291E+03  1.290094204E+03  4.750000000E+00  0.00000E+00  9.000E+00
      21     1     1     2   511   501  2.167264991E+00  1.016999212E+01  1.379558564E+00  1.048946896E+01  2.332400656E-07  0.00000E+00  9.000E+00
#rwgt            1           9   2.8187364220660937E-004           7      550854           0
</event>
<event>
      6   9999  3.45752E-01  8.26767E+00 -1.00000E+00  1.96338E-01
      21    -1     0     0   512   502  0.000000000E+00  0.000000000E+00  6.305429691E+01  6.305429691E+01  0.000000000E+00  0.00000E+00  9.000E+00
      21    -1     0     0   502   503  0.000000000E+00  0.000000000E+00 -6.272006589E+02  6.272006589E+02  0.000000000E+00  0.00000E+00  9.000E+00
      25     1     1     2     0     0 -1.922389629E+00  2.647610278E+00 -5.605566887E+02  5.743332783E+02  1.249968315E+02  0.00000E+00  9.000E+00
       5     1     1     2   501     0  2.848278035E-01  2.322760012E-01 -1.336873900E+01  1.419227824E+01  4.750000000E+00  0.00000E+00  9.000E+00
      -5     1     1     2     0   503  6.267272460E+00  3.969947960E+00 -4.524148444E+01  4.609114455E+01  4.750000000E+00  0.00000E+00  9.000E+00
      21     1     1     2   512   501 -4.629710634E+00 -6.849834238E+00  5.502055016E+01  5.563825473E+01  0.000000000E+00  0.00000E+00  9.000E+00
#rwgt            1           9   4.6564689142641831E-004           7      555545           0
</event>
<event>
      6   9999 -3.45752E-01  3.33552E+01 -1.00000E+00  1.44920E-01
      21    -1     0     0   511   502  0.000000000E+00  0.000000000E+00  5.891789177E+00  5.891789177E+00  0.000000000E+00  0.00000E+00  9.000E+00
      21    -1     0     0   502   503  0.000000000E+00  0.000000000E+00 -1.916988547E+03  1.916988547E+03  0.000000000E+00  0.00000E+00  9.000E+00
      25     1     1     2     0     0 -1.246751032E+01 -2.532939340E+01 -1.636866690E+03  1.641875434E+03  1.250014575E+02  0.00000E+00  9.000E+00
       5     1     1     2   501     0 -1.852293098E+00 -3.498273526E-01 -1.710655046E+01  1.785356933E+01  4.750000000E+00  0.00000E+00  9.000E+00
      -5     1     1     2     0   503 -1.658361213E+01  1.312749602E+01 -1.260456891E+02  1.278961515E+02  4.750000000E+00  0.00000E+00  9.000E+00
      21     1     1     2   511   501  3.090341555E+01  1.255172473E+01 -1.310778282E+02  1.352551808E+02  1.907348633E-06  0.00000E+00  9.000E+00
#rwgt            1           9  -1.8979553646187320E-004           7      558285           0
</event>
<event>
      6   9999  3.45752E-01  1.76724E+01 -1.00000E+00  1.64423E-01
      21    -1     0     0   502   503  0.000000000E+00  0.000000000E+00  8.022739399E+00  8.022739399E+00  0.000000000E+00  0.00000E+00  9.000E+00
      21    -1     0     0   512   502  0.000000000E+00  0.000000000E+00 -1.088575765E+03  1.088575765E+03  0.000000000E+00  0.00000E+00  9.000E+00
      25     1     1     2     0     0 -6.723432841E+00  3.009933175E+01 -6.779567960E+02  6.900776326E+02  1.250221881E+02  0.00000E+00  9.000E+00
       5     1     1     2   501     0  7.887878844E-02  6.123882607E-01 -1.524899504E+01  1.598360381E+01  4.750000000E+00  0.00000E+00  9.000E+00
      -5     1     1     2     0   503  6.649814951E+00 -1.303929209E+01 -4.187000342E+01  4.460832729E+01  4.750000000E+00  0.00000E+00  9.000E+00
      21     1     1     2   512   501 -5.260897910E-03 -1.767242792E+01 -3.454772313E+02  3.459289408E+02  3.814697266E-06  0.00000E+00  9.000E+00
#rwgt            1           9   1.5167978324389400E-004           7      559079           0
</event>
<event>
      6   9999  3.45752E-01  9.36124E+00 -1.00000E+00  1.90265E-01
      21    -1     0     0   511   502  0.000000000E+00  0.000000000E+00  1.264788405E+02  1.264788405E+02  0.000000000E+00  0.00000E+00  9.000E+00
      21    -1     0     0   502   503  0.000000000E+00  0.000000000E+00 -1.412985549E+02  1.412985549E+02  0.000000000E+00  0.00000E+00  9.000E+00
      25     1     1     2     0     0  8.978252611E+00  2.359164976E+00 -7.664200200E+01  1.469198848E+02  1.250011256E+02  0.00000E+00  9.000E+00
       5     1     1     2   501     0  1.266179551E-01 -5.247515952E-02  3.104092214E+00  5.675973416E+00  4.750000000E+00  0.00000E+00  9.000E+00
      -5     1     1     2     0   503  5.321366235E-02 -4.246341913E+00 -2.761590432E+01  2.834139945E+01  4.750000000E+00  0.00000E+00  9.000E+00
      21     1     1     2   511   501 -9.158084229E+00  1.939652097E+00  8.633409965E+01  8.684013772E+01  1.348699152E-06  0.00000E+00  9.000E+00
#rwgt            1           9   3.2965797736152517E-004           7      560588           0
</event>
<event>
      6   9999  3.45752E-01  3.43417E+00 -1.00000E+00  2.62408E-01
      21    -1     0     0   501   502  0.000000000E+00  0.000000000E+00  3.654992851E+03  3.654992851E+03  0.000000000E+00  0.00000E+00  9.000E+00
      21    -1     0     0   502   512  0.000000000E+00  0.000000000E+00 -3.674509928E+02  3.674509928E+02  0.000000000E+00  0.00000E+00  9.000E+00
      25     1     1     2     0     0  8.517001631E-01  5.050983235E+00  2.517756932E+03  2.520863273E+03  1.250017408E+02  0.00000E+00  9.000E+00
       5     1     1     2   501     0 -6.160990758E-01 -2.632347926E-01  8.301269326E+02  8.301407926E+02  4.750000000E+00  0.00000E+00  9.000E+00
      -5     1     1     2     0   503 -6.730493885E-01 -1.381548898E+00  3.055204334E+02  3.055612204E+02  4.750000000E+00  0.00000E+00  9.000E+00
      21     1     1     2   503   512  4.374483012E-01 -3.406199545E+00 -3.658624402E+02  3.658785573E+02  1.525878906E-05  0.00000E+00  9.000E+00
#rwgt            1           9   2.8408306304637348E-004           7      563293           0
</event>
<event>
      6   9999  3.45752E-01  3.60569E+00 -1.00000E+00  2.57564E-01
      21    -1     0     0   501   502  0.000000000E+00  0.000000000E+00  7.386580168E+01  7.386580168E+01  0.000000000E+00  0.00000E+00  9.000E+00
      21    -1     0     0   502   511  0.000000000E+00  0.000000000E+00 -1.317672815E+02  1.317672815E+02  0.000000000E+00  0.00000E+00  9.000E+00
      25     1     1     2     0     0  8.346116494E-02  3.009841704E+00 -7.710959147E+01  1.469008871E+02  1.249996617E+02  0.00000E+00  9.000E+00
       5     1     1     2   501     0 -7.689168501E-01 -1.741474832E+00  3.714740592E+01  3.749821641E+01  4.750000000E+00  0.00000E+00  9.000E+00
      -5     1     1     2     0   503 -1.697020746E+00  1.438077720E+00 -3.391524110E+00  6.246029357E+00  4.750000000E+00  0.00000E+00  9.000E+00
      21     1     1     2   503   511  2.382476431E+00 -2.706444593E+00 -1.454777018E+01  1.498795028E+01  2.384185791E-07  0.00000E+00  9.000E+00
#rwgt            1           9   7.9062510735707029E-003           7      568328           0
</event>
<event>
      6   9999  3.45752E-01  9.71337E+00 -1.00000E+00  1.88534E-01
      21    -1     0     0   501   502  0.000000000E+00  0.000000000E+00  8.988708568E+01  8.988708568E+01  0.000000000E+00  0.00000E+00  9.000E+00
      21    -1     0     0   512   503  0.000000000E+00  0.000000000E+00 -1.823687419E+03  1.823687419E+03  0.000000000E+00  0.00000E+00  9.000E+00
      25     1     1     2     0     0  6.605829004E+01 -1.306155119E+02 -2.453347312E+02  3.118310650E+02  1.250014923E+02  0.00000E+00  9.000E+00
       5     1     1     2   501     0 -2.650237797E+00  4.059922014E+00  5.304383672E+01  5.347632973E+01  4.750000000E+00  0.00000E+00  9.000E+00
      -5     1     1     2     0   503 -5.925350510E+01  1.177755374E+02 -1.328004950E+03  1.334541781E+03  4.750000000E+00  0.00000E+00  9.000E+00
      21     1     1     2   512   502 -4.154547144E+00  8.780052495E+00 -2.135044888E+02  2.137253291E+02  2.697398305E-06  0.00000E+00  9.000E+00
#rwgt            1           9   5.5703525662730230E-003           7      573383           0
</event>
<event>
      6   9999  3.45752E-01  1.42272E+01 -1.00000E+00  1.72387E-01
      21    -1     0     0   501   502  0.000000000E+00  0.000000000E+00  8.276865658E+00  8.276865658E+00  0.000000000E+00  0.00000E+00  9.000E+00
      21    -1     0     0   502   511  0.000000000E+00  0.000000000E+00 -1.168503331E+03  1.168503331E+03  0.000000000E+00  0.00000E+00  9.000E+00
      25     1     1     2     0     0 -1.384778026E+00 -6.245253285E+00 -6.555439427E+02  6.673860059E+02  1.250011971E+02  0.00000E+00  9.000E+00
       5     1     1     2   501     0  1.057715902E+00 -1.791305481E+00 -1.358191240E+00  5.360477749E+00  4.750000000E+00  0.00000E+00  9.000E+00
      -5     1     1     2     0   503  4.092177147E+00 -5.683386295E+00 -7.547664308E+01  7.594954210E+01  4.750000000E+00  0.00000E+00  9.000E+00
      21     1     1     2   503   511 -3.765115023E+00  1.371994506E+01 -4.278476882E+02  4.280841708E+02  5.394796609E-06  0.00000E+00  9.000E+00
#rwgt            1           9   1.4964075353968731E-004           7      578980           0
</event>
<event>
      6   9999 -3.45752E-01  9.37879E+00 -1.00000E+00  1.90176E-01
      21    -1     0     0   501   502  0.000000000E+00  0.000000000E+00  2.202954401E+01  2.202954401E+01  0.000000000E+00  0.00000E+00  9.000E+00
      21    -1     0     0   502   512  0.000000000E+00  0.000000000E+00 -7.842297344E+02  7.842297344E+02  0.000000000E+00  0.00000E+00  9.000E+00
      25     1     1     2     0     0 -1.922025949E+00  2.913022595E+01 -5.823203676E+02  5.963010878E+02  1.250028503E+02  0.00000E+00  9.000E+00
       5     1     1     2   501     0  1.615521202E+00 -7.174577171E-01  1.053566966E+01  1.169134250E+01  4.750000000E+00  0.00000E+00  9.000E+00
      -5     1     1     2     0   503  3.525849162E+00 -1.960382109E+01 -2.383731770E+01  3.142485687E+01  4.750000000E+00  0.00000E+00  9.000E+00
      21     1     1     2   503   512 -3.219344414E+00 -8.808947141E+00 -1.665781748E+02  1.668419912E+02  1.907348633E-06  0.00000E+00  9.000E+00
#rwgt            1           9  -3.4373247211277332E-002           7      580469           0
</event>
<event>
      6   9999  3.45752E-01  2.72077E+01 -1.00000E+00  1.50636E-01
      21    -1     0     0   501   502  0.000000000E+00  0.000000000E+00  1.468019042E+03  1.468019042E+03  0.000000000E+00  0.00000E+00  9.000E+00
      21    -1     0     0   502   511  0.000000000E+00  0.000000000E+00 -8.455906519E+02  8.455906519E+02  0.000000000E+00  0.00000E+00  9.000E+00
      25     1     1     2     0     0  2.393204097E+01 -2.848276118E+00  1.332603023E+03  1.338669538E+03  1.249978320E+02  0.00000E+00  9.000E+00
       5     1     1     2   501     0  1.098040447E+00 -1.936458462E-01  8.889700059E+01  8.903079470E+01  4.750000000E+00  0.00000E+00  9.000E+00
      -5     1     1     2     0   503  2.047628215E+00  3.856355571E-01  4.304346252E+01  4.335485742E+01  4.750000000E+00  0.00000E+00  9.000E+00
      21     1     1     2   503   511 -2.707770963E+01  2.656286407E+00 -8.421150959E+02  8.425545045E+02  0.000000000E+00  0.00000E+00  9.000E+00
#rwgt            1           9   6.5165575221842846E-003           7      583383           0
</event>
<event>
      6   9999  3.45752E-01  6.17888E+00 -1.00000E+00  2.12296E-01
      21    -1     0     0   501   512  0.000000000E+00  0.000000000E+00  1.560009499E+02  1.560009499E+02  0.000000000E+00  0.00000E+00  9.000E+00
      21    -1     0     0   502   503  0.000000000E+00  0.000000000E+00 -9.050832440E+02  9.050832440E+02  0.000000000E+00  0.00000E+00  9.000E+00
      25     1     1     2     0     0 -1.253601247E+01 -1.494143305E+01 -4.491870900E+02  4.666636889E+02  1.250022346E+02  0.00000E+00  9.000E+00
       5     1     1     2   501     0  3.500093339E+00  9.527576216E-01  5.728899659E+00  8.278960790E+00  4.750000000E+00  0.00000E+00  9.000E+00
      -5     1     1     2     0   503  1.470515666E+01  1.153139162E+01 -4.456061907E+02  4.460231545E+02  4.750000000E+00  0.00000E+00  9.000E+00
      21     1     1     2   502   512 -5.669237534E+00  2.457283808E+00  1.399820870E+02  1.401183898E+02  1.907348633E-06  0.00000E+00  9.000E+00
#rwgt            1           9   3.2800309336982032E-002           7      584184           0
</event>
<event>
      6   9999  3.45752E-01  1.31877E+01 -1.00000E+00  1.75365E-01
      21    -1     0     0   501   511  0.000000000E+00  0.000000000E+00  2.480568953E+01  2.480568953E+01  0.000000000E+00  0.00000E+00  9.000E+00
      21    -1     0     0   502   503  0.000000000E+00  0.000000000E+00 -8.561945506E+02  8.561945506E+02  0.000000000E+00  0.00000E+00  9.000E+00
      25     1     1     2     0     0  1.647261203E+01  4.758012502E+01 -4.476542863E+02  4.674981931E+02  1.249999410E+02  0.00000E+00  9.000E+00
       5     1     1     2   501     0  2.964684659E+00  9.593101315E-01  9.850329629E+00  1.137106525E+01  4.750000000E+00  0.00000E+00  9.000E+00
      -5     1     1     2     0   503 -1.793082886E+01 -3.543808196E+01 -3.833670063E+02  3.854480461E+02  4.750000000E+00  0.00000E+00  9.000E+00
      21     1     1     2   502   511 -1.506467833E+00 -1.310135319E+01 -1.021789820E+01  1.668293572E+01  5.196212463E-07  0.00000E+00  9.000E+00
#rwgt            1           9  0.82992218827599051                7      587669           0
</event>
<event>
      6   9999  3.45752E-01  5.68483E+00 -1.00000E+00  2.17375E-01
      21    -1     0     0   501   502  0.000000000E+00  0.000000000E+00  5.416684410E+01  5.416684410E+01  0.000000000E+00  0.00000E+00  9.000E+00
      21    -1     0     0   502   512  0.000000000E+00  0.000000000E+00 -2.278328561E+03  2.278328561E+03  0.000000000E+00  0.00000E+00  9.000E+00
      25     1     1     2     0     0  1.962184781E+01 -2.443233277E+01 -8.196231809E+02  8.296923952E+02  1.250014249E+02  0.00000E+00  9.000E+00
       5     1     1     2   501     0 -1.212154888E+01 -7.509159887E+00  4.762328249E+01  4.993855189E+01  4.750000000E+00  0.00000E+00  9.000E+00
      -5     1     1     2     0   503 -7.880332366E+00  2.626937665E+01 -5.656485741E+02  5.663329866E+02  4.750000000E+00  0.00000E+00  9.000E+00
      21     1     1     2   503   512  3.800334424E-01  5.672116009E+00 -8.865132445E+02  8.865314716E+02  0.000000000E+00  0.00000E+00  9.000E+00
#rwgt            1           9   8.8830575172213499E-004           7      589999           0
</event>
<event>
      6   9999  3.45752E-01  5.93864E+01 -1.00000E+00  1.30908E-01
      21    -1     0     0   501   502  0.000000000E+00  0.000000000E+00  4.691743725E+01  4.691743725E+01  0.000000000E+00  0.00000E+00  9.000E+00
      21    -1     0     0   511   503  0.000000000E+00  0.000000000E+00 -2.400889892E+03  2.400889892E+03  0.000000000E+00  0.00000E+00  9.000E+00
      25     1     1     2     0     0 -8.110814391E+01  5.077574496E+01 -9.419919607E+02  9.550554029E+02  1.250010449E+02  0.00000E+00  9.000E+00
       5     1     1     2   501     0 -1.016143302E+01 -2.400654596E+00  1.695626913E+01  2.047182030E+01  4.750000000E+00  0.00000E+00  9.000E+00
      -5     1     1     2     0   503  3.746219611E+01 -7.350498741E+01 -6.016173129E+01  1.022173944E+02  4.750000000E+00  0.00000E+00  9.000E+00
      21     1     1     2   511   502  5.380738082E+01  2.512989705E+01 -1.368775032E+03  1.370062712E+03  0.000000000E+00  0.00000E+00  9.000E+00
#rwgt            1           9   1.1441192292037566E-004           7      595872           0
</event>
<event>
      6   9999 -3.45752E-01  9.18654E+00 -1.00000E+00  1.91160E-01
      21    -1     0     0   501   502  0.000000000E+00  0.000000000E+00  7.639310199E+00  7.639310199E+00  0.000000000E+00  0.00000E+00  9.000E+00
      -2    -1     0     0     0   503  0.000000000E+00  0.000000000E+00 -1.473200937E+03  1.473200937E+03  0.000000000E+00  0.00000E+00  9.000E+00
      25     1     1     2     0     0  1.003284391E+01 -8.308929641E+00 -5.843043592E+02  5.976676766E+02  1.250014848E+02  0.00000E+00  9.000E+00
       5     1     1     2   501     0  8.977918194E-01  9.548660702E+00 -4.095128657E+01  4.232674477E+01  4.750000000E+00  0.00000E+00  9.000E+00
      -5     1     1     2     0   503 -1.831966544E+00  2.786777064E-02 -2.631230848E+01  2.680031633E+01  4.750000000E+00  0.00000E+00  9.000E+00
      -2     1     1     2     0   502 -9.098669184E+00 -1.267598831E+00 -8.139936727E+02  8.140455097E+02  0.000000000E+00  0.00000E+00  9.000E+00
#rwgt            1           9  -9.6079972398218777E-003           7      596841           0
</event>
<event>
      6   9999  3.45752E-01  1.52335E+01 -1.00000E+00  1.69792E-01
      21    -1     0     0   501   511  0.000000000E+00  0.000000000E+00  5.461355466E+02  5.461355466E+02  0.000000000E+00  0.00000E+00  9.000E+00
      21    -1     0     0   502   503  0.000000000E+00  0.000000000E+00 -3.456930757E+01  3.456930757E+01  0.000000000E+00  0.00000E+00  9.000E+00
      25     1     1     2     0     0 -9.515558853E+00 -3.811338473E+01  1.979915526E+02  2.374211569E+02  1.249998996E+02  0.00000E+00  9.000E+00
       5     1     1     2   501     0  1.864129117E+01  1.666254900E+01  1.963658022E+01  3.214492275E+01  4.750000000E+00  0.00000E+00  9.000E+00
      -5     1     1     2     0   503  3.098918411E+00  3.054023008E+01  2.036757657E+01  3.714444271E+01  4.750000000E+00  0.00000E+00  9.000E+00
      21     1     1     2   502   511 -1.222465073E+01 -9.089394347E+00  2.735705296E+02  2.739943318E+02  5.394796609E-06  0.00000E+00  9.000E+00
#rwgt            1           9   2.4996823795048004E-003           7      599600           0
</event>
<event>
      6   9999  3.45752E-01  8.54251E+00 -1.00000E+00  1.94700E-01
      21    -1     0     0   501   502  0.000000000E+00  0.000000000E+00  5.305036496E+01  5.305036496E+01  0.000000000E+00  0.00000E+00  9.000E+00
      21    -1     0     0   512   503  0.000000000E+00  0.000000000E+00 -1.493664451E+03  1.493664451E+03  0.000000000E+00  0.00000E+00  9.000E+00
      25     1     1     2     0     0 -6.945994781E+01 -3.448329628E+01 -3.651136738E+02  3.936344220E+02  1.250051252E+02  0.00000E+00  9.000E+00
       5     1     1     2   501     0  4.535398714E+00 -2.742644756E+00  3.718681085E+01  3.786176624E+01  4.750000000E+00  0.00000E+00  9.000E+00
      -5     1     1     2     0   503  5.793360795E+01  3.231663755E+01 -9.727763051E+02  9.750471631E+02  4.750000000E+00  0.00000E+00  9.000E+00
      21     1     1     2   512   502  6.990941143E+00  4.909303483E+00 -1.399109185E+02  1.401714651E+02  3.303624740E-06  0.00000E+00  9.000E+00
#rwgt            1           9   1.6893198482346627E-003           7      601193           0
</event>
<event>
      6   9999  3.45752E-01  6.60919E+00 -1.00000E+00  2.08370E-01
      21    -1     0     0   501   511  0.000000000E+00  0.000000000E+00  3.970308328E+01  3.970308328E+01  0.000000000E+00  0.00000E+00  9.000E+00
      21    -1     0     0   502   503  0.000000000E+00  0.000000000E+00 -7.637459361E+02  7.637459361E+02  0.000000000E+00  0.00000E+00  9.000E+00
      25     1     1     2     0     0  2.444334128E+00  1.841475838E+01 -7.243986059E+02  7.353390183E+02  1.250002137E+02  0.00000E+00  9.000E+00
       5     1     1     2   501     0  1.901709425E+00 -9.979450846E-01  1.680850010E+00  5.477239258E+00  4.750000000E+00  0.00000E+00  9.000E+00
      -5     1     1     2     0   503  2.208004227E+00 -1.826875876E+01 -2.872730044E+01  3.444478364E+01  4.750000000E+00  0.00000E+00  9.000E+00
      21     1     1     2   502   511 -6.554047780E+00  8.519454667E-01  2.740220357E+01  2.818797818E+01  3.371747881E-07  0.00000E+00  9.000E+00
#rwgt            1           9   1.2654812225356806E-003           7      605905           0
</event>
<event>
      6   9999  3.45752E-01  8.64497E+00 -1.00000E+00  1.94110E-01
      21    -1     0     0   512   502  0.000000000E+00  0.000000000E+00  2.507803682E+02  2.507803682E+02  0.000000000E+00  0.00000E+00  9.000E+00
      21    -1     0     0   502   503  0.000000000E+00  0.000000000E+00 -1.065780779E+03  1.065780779E+03  0.000000000E+00  0.00000E+00  9.000E+00
      25     1     1     2     0     0  5.983433874E+00 -4.808411274E+00 -1.038935987E+03  1.046455932E+03  1.249924430E+02  0.00000E+00  9.000E+00
       5     1     1     2   501     0 -3.222063439E+00 -6.441022227E+00  1.138043493E+01  1.428094042E+01  4.750000000E+00  0.00000E+00  9.000E+00
      -5     1     1     2     0   503 -5.712362067E-01  2.886489568E+00 -2.119255169E+01  2.191677166E+01  4.750000000E+00  0.00000E+00  9.000E+00
      21     1     1     2   512   501 -2.190134228E+00  8.362943933E+00  2.337476934E+02  2.339075025E+02  0.000000000E+00  0.00000E+00  9.000E+00
#rwgt            1           9   1.1801126723727587E-002           7      609109           0
</event>
<event>
      6   9999  3.45752E-01  9.58487E+00 -1.00000E+00  1.89154E-01
      21    -1     0     0   501   502  0.000000000E+00  0.000000000E+00  3.535443630E+01  3.535443630E+01  0.000000000E+00  0.00000E+00  9.000E+00
      21    -1     0     0   502   511  0.000000000E+00  0.000000000E+00 -1.214423195E+03  1.214423195E+03  0.000000000E+00  0.00000E+00  9.000E+00
      25     1     1     2     0     0  5.396542299E+01 -2.213011506E+01 -6.563961619E+02  6.707332595E+02  1.250007005E+02  0.00000E+00  9.000E+00
       5     1     1     2   501     0 -3.047240631E-01 -3.110870132E-01  7.613281423E+00  8.984107408E+00  4.750000000E+00  0.00000E+00  9.000E+00
      -5     1     1     2     0   503 -6.132571535E+01  2.819595450E+01 -3.784957825E+01  7.753069255E+01  4.750000000E+00  0.00000E+00  9.000E+00
      21     1     1     2   503   511  7.665016429E+00 -5.754752433E+00 -4.924363001E+02  4.925295720E+02  0.000000000E+00  0.00000E+00  9.000E+00
#rwgt            1           9   3.5834117639137956E-004           7      612348           0
</event>
<event>
      6   9999  3.45752E-01  9.50480E+00 -1.00000E+00  1.89547E-01
      21    -1     0     0   501   502  0.000000000E+00  0.000000000E+00  2.257211795E+01  2.257211795E+01  0.000000000E+00  0.00000E+00  9.000E+00
      21    -1     0     0   512   503  0.000000000E+00  0.000000000E+00 -1.349314267E+03  1.349314267E+03  0.000000000E+00  0.00000E+00  9.000E+00
      25     1     1     2     0     0 -2.744006909E+01  1.229396647E+01 -8.102854717E+02  8.204219493E+02  1.250021204E+02  0.00000E+00  9.000E+00
       5     1     1     2   501     0 -3.988496961E-01  3.028306436E+00  1.632803865E+01  1.727706767E+01  4.750000000E+00  0.00000E+00  9.000E+00
      -5     1     1     2     0   503  1.875557242E+01 -1.252333390E+01 -2.096678198E+02  2.109307055E+02  4.750000000E+00  0.00000E+00  9.000E+00
      21     1     1     2   512   502  9.083346371E+00 -2.798939014E+00 -3.231168961E+02  3.232566624E+02  5.394796609E-06  0.00000E+00  9.000E+00
#rwgt            1           9   6.9247591234944503E-004           7      615578           0
</event>
<event>
      6   9999  3.45752E-01  1.39513E+01 -1.00000E+00  1.73145E-01
      21    -1     0     0   511   502  0.000000000E+00  0.000000000E+00  2.578427406E+02  2.578427406E+02  0.000000000E+00  0.00000E+00  9.000E+00
      21    -1     0     0   502   503  0.000000000E+00  0.000000000E+00 -1.335579457E+03  1.335579457E+03  0.000000000E+00  0.00000E+00  9.000E+00
      25     1     1     2     0     0 -2.653695288E+01  4.335497935E+01 -4.339300333E+02  4.544269627E+02  1.249989060E+02  0.00000E+00  9.000E+00
       5     1     1     2   501     0 -7.177372924E+00 -1.123979845E+01  3.360478964E+01  3.646494396E+01  4.750000000E+00  0.00000E+00  9.000E+00
      -5     1     1     2     0   503  3.832511496E+01 -4.528250508E+01 -8.887456833E+02  8.907360843E+02  4.750000000E+00  0.00000E+00  9.000E+00
      21     1     1     2   511   501 -4.610789151E+00  1.316732418E+01  2.113342102E+02  2.117942072E+02  2.697398305E-06  0.00000E+00  9.000E+00
#rwgt            1           9   20.634871436484030                7      619036           0
</event>
<event>
      6   9999  3.45752E-01  5.75213E+00 -1.00000E+00  2.16642E-01
      21    -1     0     0   501   502  0.000000000E+00  0.000000000E+00  2.636719442E+03  2.636719442E+03  0.000000000E+00  0.00000E+00  9.000E+00
      21    -1     0     0   502   512  0.000000000E+00  0.000000000E+00 -2.665002002E+01  2.665002002E+01  0.000000000E+00  0.00000E+00  9.000E+00
      25     1     1     2     0     0  3.685991587E+00 -1.979335268E+00  7.673229874E+02  7.774485817E+02  1.249969037E+02  0.00000E+00  9.000E+00
       5     1     1     2   501     0  5.462941102E-01  2.126675886E+00  1.824563159E+03  1.824570663E+03  4.750000000E+00  0.00000E+00  9.000E+00
      -5     1     1     2     0   503  1.427407238E+00  8.797201832E-01  3.921953852E+01  3.954170078E+01  4.750000000E+00  0.00000E+00  9.000E+00
      21     1     1     2   503   512 -5.659692936E+00 -1.027060801E+00 -2.103626351E+01  2.180851578E+01  3.371747881E-07  0.00000E+00  9.000E+00
#rwgt            1           9   2.3770445559849206E-002           7      622353           0
</event>
<event>
      6   9999  3.45752E-01  8.10918E+00 -1.00000E+00  1.97321E-01
      21    -1     0     0   502   511  0.000000000E+00  0.000000000E+00  3.322088783E+01  3.322088783E+01  0.000000000E+00  0.00000E+00  9.000E+00
      21    -1     0     0   501   502  0.000000000E+00  0.000000000E+00 -8.089426385E+02  8.089426385E+02  0.000000000E+00  0.00000E+00  9.000E+00
      25     1     1     2     0     0  2.590793348E+00  1.162278811E+01 -3.755879650E+02  3.960216248E+02  1.250000258E+02  0.00000E+00  9.000E+00
       5     1     1     2   501     0 -2.166896362E+00 -8.131226397E-01 -3.794575651E+02  3.794943515E+02  4.750000000E+00  0.00000E+00  9.000E+00
      -5     1     1     2     0   503  6.055422968E+00 -5.933479964E+00 -4.237918092E+01  4.347909621E+01  4.750000000E+00  0.00000E+00  9.000E+00
      21     1     1     2   503   511 -6.479319954E+00 -4.876185504E+00  2.170296027E+01  2.316845391E+01  1.011524364E-06  0.00000E+00  9.000E+00
#rwgt            1           9   1.0599670891997657E-002           7      626347           0
</event>
<event>
      6   9999  3.45752E-01  7.38674E+00 -1.00000E+00  2.02207E-01
      21    -1     0     0   501   502  0.000000000E+00  0.000000000E+00  2.572586735E+02  2.572586735E+02  0.000000000E+00  0.00000E+00  9.000E+00
      21    -1     0     0   502   512  0.000000000E+00  0.000000000E+00 -5.844872092E+01  5.844872092E+01  0.000000000E+00  0.00000E+00  9.000E+00
      25     1     1     2     0     0 -2.110178232E+01  1.834970712E+01  1.488821122E+02  1.964009075E+02  1.250017446E+02  0.00000E+00  9.000E+00
       5     1     1     2   501     0  9.338400821E-03  7.895069013E-01  5.459121539E+01  5.480316328E+01  4.750000000E+00  0.00000E+00  9.000E+00
      -5     1     1     2     0   503  2.838065153E+01 -1.793676438E+01  1.958302692E+01  3.915668961E+01  4.750000000E+00  0.00000E+00  9.000E+00
      21     1     1     2   503   512 -7.288207616E+00 -1.202449641E+00 -2.424640191E+01  2.534663412E+01  6.743495762E-07  0.00000E+00  9.000E+00
#rwgt            1           9   1.0533131216675104E-003           7      629201           0
</event>
<event>
      6   9999  3.45752E-01  7.65348E+00 -1.00000E+00  2.00320E-01
      21    -1     0     0   502   511  0.000000000E+00  0.000000000E+00  1.062805803E+02  1.062805803E+02  0.000000000E+00  0.00000E+00  9.000E+00
      21    -1     0     0   501   502  0.000000000E+00  0.000000000E+00 -7.798155289E+02  7.798155289E+02  0.000000000E+00  0.00000E+00  9.000E+00
      25     1     1     2     0     0  1.793183712E+01  2.257843428E+01 -6.472814288E+02  6.598705216E+02  1.249980829E+02  0.00000E+00  9.000E+00
       5     1     1     2   501     0 -2.099439770E+01 -1.571525158E+00 -3.975843658E+01  4.523859199E+01  4.750000000E+00  0.00000E+00  9.000E+00
      -5     1     1     2     0   503 -5.060917659E-01 -1.423634983E+01 -8.291499666E+01  8.426380573E+01  4.750000000E+00  0.00000E+00  9.000E+00
      21     1     1     2   503   511  3.568652346E+00 -6.770559296E+00  9.641991340E+01  9.672318984E+01  2.336015456E-06  0.00000E+00  9.000E+00
#rwgt            1           9   1.1617749755230551E-003           7      632081           0
</event>
<event>
      6   9999 -3.45752E-01  7.34096E+00 -1.00000E+00  2.02541E-01
      -2    -1     0     0     0   502  0.000000000E+00  0.000000000E+00  8.944204179E+02  8.944204179E+02  0.000000000E+00  0.00000E+00  9.000E+00
      21    -1     0     0   502   503  0.000000000E+00  0.000000000E+00 -1.106961039E+02  1.106961039E+02  0.000000000E+00  0.00000E+00  9.000E+00
      25     1     1     2     0     0 -7.405547580E+00  1.495638714E+01 -5.407456462E+01  1.370506179E+02  1.248209825E+02  0.00000E+00  9.000E+00
       5     1     1     2   501     0 -1.764937415E-01  2.818754751E-01  5.868891138E+00  7.557578118E+00  4.750000000E+00  0.00000E+00  9.000E+00
      -5     1     1     2     0   503  7.420933849E+00 -7.899070317E+00 -1.182056278E+01  1.672584155E+01  4.750000000E+00  0.00000E+00  9.000E+00
      -2     1     1     2     0   501  1.611074723E-01 -7.339192295E+00  8.437505503E+02  8.437824843E+02  0.000000000E+00  0.00000E+00  9.000E+00
#rwgt            1           9  -2.5262161628645586E-004           7      634807           0
</event>
<event>
      6   9999  3.45752E-01  5.70126E+00 -1.00000E+00  2.17195E-01
      21    -1     0     0   501   502  0.000000000E+00  0.000000000E+00  5.229140021E+03  5.229140021E+03  0.000000000E+00  0.00000E+00  9.000E+00
      21    -1     0     0   502   511  0.000000000E+00  0.000000000E+00 -1.790288465E+02  1.790288465E+02  0.000000000E+00  0.00000E+00  9.000E+00
      25     1     1     2     0     0 -4.837209650E+01  2.919778928E+01  3.925101925E+03  3.927498059E+03  1.249940425E+02  0.00000E+00  9.000E+00
       5     1     1     2   501     0 -9.862240232E-01  1.705329138E+00  1.112943700E+03  1.112955580E+03  4.750000000E+00  0.00000E+00  9.000E+00
      -5     1     1     2     0   503  4.377215591E+01 -3.204291314E+01  1.859387263E+02  1.937486061E+02  4.750000000E+00  0.00000E+00  9.000E+00
      21     1     1     2   503   511  5.586164615E+00  1.139794719E+00 -1.738731766E+02  1.739666230E+02  1.175768662E-05  0.00000E+00  9.000E+00
#rwgt            1           9   3.7363293349492295E-002           7      637956           0
</event>
<event>
      6   9999  3.45752E-01  1.68183E+01 -1.00000E+00  1.66175E-01
      21    -1     0     0   501   502  0.000000000E+00  0.000000000E+00  8.865286908E+01  8.865286908E+01  0.000000000E+00  0.00000E+00  9.000E+00
      21    -1     0     0   502   512  0.000000000E+00  0.000000000E+00 -4.704778612E+02  4.704778612E+02  0.000000000E+00  0.00000E+00  9.000E+00
      25     1     1     2     0     0 -4.961436727E+00 -1.341638378E+01 -3.729097285E+02  3.935613248E+02  1.249969422E+02  0.00000E+00  9.000E+00
       5     1     1     2   501     0 -1.344603937E+01  7.156574734E-01  7.592400304E+01  7.725493433E+01  4.750000000E+00  0.00000E+00  9.000E+00
      -5     1     1     2     0   503  4.161048358E+00  3.762380184E+00 -1.932098702E+01  2.067203104E+01  4.750000000E+00  0.00000E+00  9.000E+00
      21     1     1     2   503   512  1.424642774E+01  8.938346128E+00 -6.551827960E+01  6.764244006E+01  1.348699152E-06  0.00000E+00  9.000E+00
#rwgt            1           9   5.8766407304398818E-004           7      641919           0
</event>
<event>
      6   9999  3.45752E-01  9.90927E+00 -1.00000E+00  1.87612E-01
      21    -1     0     0   502   503  0.000000000E+00  0.000000000E+00  3.246444697E+01  3.246444697E+01  0.000000000E+00  0.00000E+00  9.000E+00
      -1    -1     0     0     0   502  0.000000000E+00  0.000000000E+00 -3.325475938E+02  3.325475938E+02  0.000000000E+00  0.00000E+00  9.000E+00
      25     1     1     2     0     0 -3.149237957E+00  9.459347220E+00 -1.054385676E+02  1.638307101E+02  1.249952523E+02  0.00000E+00  9.000E+00
       5     1     1     2   501     0 -1.122039353E-01  4.519478433E-01 -1.299315898E+00  4.946470295E+00  4.750000000E+00  0.00000E+00  9.000E+00
      -5     1     1     2     0   503 -2.291536101E-02 -5.621449333E-01 -3.030763018E+00  5.662557418E+00  4.750000000E+00  0.00000E+00  9.000E+00
      -1     1     1     2     0   501  3.284357254E+00 -9.349150130E+00 -1.903145003E+02  1.905723029E+02  0.000000000E+00  0.00000E+00  9.000E+00
#rwgt            1           9   2.3468713728563506E-004           7      644663           0
</event>
<event>
      6   9999  3.45752E-01  8.91285E+00 -1.00000E+00  1.92617E-01
      21    -1     0     0   511   502  0.000000000E+00  0.000000000E+00  2.675457114E+01  2.675457114E+01  0.000000000E+00  0.00000E+00  9.000E+00
      21    -1     0     0   502   503  0.000000000E+00  0.000000000E+00 -1.038014948E+03  1.038014948E+03  0.000000000E+00  0.00000E+00  9.000E+00
      25     1     1     2     0     0  2.935692033E+01 -3.615193263E+01 -9.259540644E+02  9.355133588E+02  1.250020965E+02  0.00000E+00  9.000E+00
       5     1     1     2   501     0 -3.098731915E+00 -9.101731322E-01  1.212474476E+01  1.341650067E+01  4.750000000E+00  0.00000E+00  9.000E+00
      -5     1     1     2     0   503 -2.747876520E+01  4.589098243E+01 -8.505712615E+01  1.005899698E+02  4.750000000E+00  0.00000E+00  9.000E+00
      21     1     1     2   511   501  1.220576790E+00 -8.828876667E+00 -1.237393084E+01  1.524968968E+01  0.000000000E+00  0.00000E+00  9.000E+00
#rwgt            1           9   9.1560057674940552E-006           7      646590           0
</event>
<event>
      6   9999  3.45752E-01  8.28247E+00 -1.00000E+00  1.96248E-01
      21    -1     0     0   512   502  0.000000000E+00  0.000000000E+00  2.196146623E+02  2.196146623E+02  0.000000000E+00  0.00000E+00  9.000E+00
      21    -1     0     0   502   503  0.000000000E+00  0.000000000E+00 -8.648360723E+02  8.648360723E+02  0.000000000E+00  0.00000E+00  9.000E+00
      25     1     1     2     0     0 -5.009397573E+01 -3.523880029E+01 -2.925723573E+02  3.240006436E+02  1.250066133E+02  0.00000E+00  9.000E+00
       5     1     1     2   501     0  1.678695728E+00 -1.443419895E+00 -4.318360613E+01  4.350043469E+01  4.750000000E+00  0.00000E+00  9.000E+00
      -5     1     1     2     0   503  4.031901926E+01  3.493581449E+01 -5.117251298E+02  5.145204616E+02  4.750000000E+00  0.00000E+00  9.000E+00
      21     1     1     2   512   501  8.096260735E+00  1.746405698E+00  2.022596833E+02  2.024291947E+02  3.814697266E-06  0.00000E+00  9.000E+00
#rwgt            1           9   2.7156780495796916E-004           7      650075           0
</event>
<event>
      6   9999  3.45752E-01  1.04775E+01 -1.00000E+00  1.85085E-01
      21    -1     0     0   501   502  0.000000000E+00  0.000000000E+00  1.206489028E+01  1.206489028E+01  0.000000000E+00  0.00000E+00  9.000E+00
      21    -1     0     0   511   503  0.000000000E+00  0.000000000E+00 -6.676882020E+02  6.676882020E+02  0.000000000E+00  0.00000E+00  9.000E+00
      25     1     1     2     0     0  6.708919329E+00 -6.210944577E+00 -4.456363146E+02  4.629259974E+02  1.250006751E+02  0.00000E+00  9.000E+00
       5     1     1     2   501     0  1.612755697E+00 -1.511833527E+00  5.709433290E-01  5.270208519E+00  4.750000000E+00  0.00000E+00  9.000E+00
      -5     1     1     2     0   503  1.234462855E-01  1.521330342E+00 -1.703670125E+01  1.775222168E+01  4.750000000E+00  0.00000E+00  9.000E+00
      21     1     1     2   511   502 -8.445121312E+00  6.201447761E+00 -1.935212392E+02  1.938046647E+02  2.697398305E-06  0.00000E+00  9.000E+00
#rwgt            1           9   3.0038758021766276E-004           7      653251           0
</event>
<event>
      6   9999  3.45752E-01  1.17461E+01 -1.00000E+00  1.80120E-01
      21    -1     0     0   501   502  0.000000000E+00  0.000000000E+00  1.604936864E+02  1.604936864E+02  0.000000000E+00  0.00000E+00  9.000E+00
       2    -1     0     0   502     0  0.000000000E+00  0.000000000E+00 -1.394918843E+03  1.394918843E+03  0.000000000E+00  0.00000E+00  9.000E+00
      25     1     1     2     0     0  1.757794152E+01  1.117661311E+01 -6.651172798E+02  6.770813599E+02  1.249970857E+02  0.00000E+00  9.000E+00
       5     1     1     2   501     0 -2.105722727E+00 -2.991136226E+00  1.540313576E+02  1.541479893E+02  4.750000000E+00  0.00000E+00  9.000E+00
      -5     1     1     2     0   503 -1.891045282E+01  3.046129338E+00 -2.829632348E+02  2.836505577E+02  4.750000000E+00  0.00000E+00  9.000E+00
       2     1     1     2   503     0  3.438234019E+00 -1.123160622E+01 -4.403759999E+02  4.405326228E+02  5.394796609E-06  0.00000E+00  9.000E+00
#rwgt            1           9   328.41179603301811                7      655181           0
</event>
<event>
      6   9999  3.45752E-01  3.62862E+01 -1.00000E+00  1.42685E-01
      21    -1     0     0   501   502  0.000000000E+00  0.000000000E+00  8.170631448E+01  8.170631448E+01  0.000000000E+00  0.00000E+00  9.000E+00
      21    -1     0     0   502   511  0.000000000E+00  0.000000000E+00 -1.798919513E+03  1.798919513E+03  0.000000000E+00  0.00000E+00  9.000E+00
      25     1     1     2     0     0  1.051612734E+02 -9.472999452E+01 -1.143781799E+02  2.207678734E+02  1.249936822E+02  0.00000E+00  9.000E+00
       5     1     1     2   501     0  2.803484652E+00  8.362883888E-01  2.307068739E+01  2.373558555E+01  4.750000000E+00  0.00000E+00  9.000E+00
      -5     1     1     2     0   503 -8.304346655E+01  1.202683209E+02 -1.288669599E+03  1.296939699E+03  4.750000000E+00  0.00000E+00  9.000E+00
      21     1     1     2   503   511 -2.492129153E+01 -2.637461480E+01 -3.372361069E+02  3.391826689E+02  7.629394531E-06  0.00000E+00  9.000E+00
#rwgt            1           9   1.0370322439220175E-002           7      659854           0
</event>
<event>
      6   9999  3.45752E-01  6.81571E+00 -1.00000E+00  2.06626E-01
      21    -1     0     0   501   502  0.000000000E+00  0.000000000E+00  9.283563883E+00  9.283563883E+00  0.000000000E+00  0.00000E+00  9.000E+00
      21    -1     0     0   512   503  0.000000000E+00  0.000000000E+00 -1.034996916E+03  1.034996916E+03  0.000000000E+00  0.00000E+00  9.000E+00
      25     1     1     2     0     0  2.103180030E+01  3.180074401E+00 -7.238285374E+02  7.348500047E+02  1.249973131E+02  0.00000E+00  9.000E+00
       5     1     1     2   501     0 -9.894816405E-02 -5.633763726E-01  1.505145626E+00  5.015490707E+00  4.750000000E+00  0.00000E+00  9.000E+00
      -5     1     1     2     0   503 -1.511262727E+01  9.299739333E-01 -1.425245932E+02  1.434052946E+02  4.750000000E+00  0.00000E+00  9.000E+00
      21     1     1     2   512   502 -5.820224866E+00 -3.546671962E+00 -1.608653676E+02  1.610096904E+02  0.000000000E+00  0.00000E+00  9.000E+00
#rwgt            1           9   9.5667448252788560E-003           7      662065           0
</event>
<event>
      6   9999  3.45752E-01  3.97922E+01 -1.00000E+00  1.40317E-01
      21    -1     0     0   501   502  0.000000000E+00  0.000000000E+00  5.206987840E+01  5.206987840E+01  0.000000000E+00  0.00000E+00  9.000E+00
      21    -1     0     0   511   503  0.000000000E+00  0.000000000E+00 -1.886379357E+03  1.886379357E+03  0.000000000E+00  0.00000E+00  9.000E+00
      25     1     1     2     0     0 -9.216554529E+01 -8.494092649E+01 -3.128358498E+02  3.594450131E+02  1.249999991E+02  0.00000E+00  9.000E+00
       5     1     1     2   501     0 -1.366734508E+00 -3.984016310E+00  2.566460063E+01  2.643812729E+01  4.750000000E+00  0.00000E+00  9.000E+00
      -5     1     1     2     0   503  6.519874741E+01  6.098524404E+01 -1.004297966E+03  1.008269331E+03  4.750000000E+00  0.00000E+00  9.000E+00
      21     1     1     2   511   502  2.833353240E+01  2.793969875E+01 -5.428402632E+02  5.442967639E+02  7.629394531E-06  0.00000E+00  9.000E+00
#rwgt            1           9   4.3724284374341057E-003           7      665522           0
</event>
<event>
      6   9999  3.45752E-01  1.48242E+01 -1.00000E+00  1.70816E-01
      21    -1     0     0   512   502  0.000000000E+00  0.000000000E+00  1.004989013E+01  1.004989013E+01  0.000000000E+00  0.00000E+00  9.000E+00
      21    -1     0     0   502   503  0.000000000E+00  0.000000000E+00 -8.043187379E+02  8.043187379E+02  0.000000000E+00  0.00000E+00  9.000E+00
      25     1     1     2     0     0  8.119919897E-01  1.269736729E+01 -5.570954329E+02  5.710896341E+02  1.250046657E+02  0.00000E+00  9.000E+00
       5     1     1     2   501     0 -9.473864500E-01 -6.278765714E-01 -4.089973115E+00  6.370412087E+00  4.750000000E+00  0.00000E+00  9.000E+00
      -5     1     1     2     0   503 -1.329342214E+01 -1.834835242E+01 -1.887030926E+02  1.901178497E+02  4.750000000E+00  0.00000E+00  9.000E+00
      21     1     1     2   512   501  1.342881660E+01  6.278861703E+00 -4.438034922E+01  4.679073217E+01  6.743495762E-07  0.00000E+00  9.000E+00
#rwgt            1           9   1.6914080865995807E-003           7      667182           0
</event>
<event>
      6   9999  3.45752E-01  5.65500E+00 -1.00000E+00  2.17704E-01
      21    -1     0     0   501   511  0.000000000E+00  0.000000000E+00  7.142249473E+02  7.142249473E+02  0.000000000E+00  0.00000E+00  9.000E+00
      21    -1     0     0   502   503  0.000000000E+00  0.000000000E+00 -3.205398192E+01  3.205398192E+01  0.000000000E+00  0.00000E+00  9.000E+00
      25     1     1     2     0     0 -6.009339602E+00  2.348086331E+01  1.569723709E+02  2.021202111E+02  1.249991655E+02  0.00000E+00  9.000E+00
       5     1     1     2   501     0 -1.334276011E+00 -1.374541557E+00  4.139234025E+02  4.139550885E+02  4.750000000E+00  0.00000E+00  9.000E+00
      -5     1     1     2     0   503  1.191594669E+01 -1.877873698E+01  4.381071529E+00  2.316003100E+01  4.750000000E+00  0.00000E+00  9.000E+00
      21     1     1     2   502   511 -4.572331078E+00 -3.327584773E+00  1.068941205E+02  1.070435987E+02  1.907348633E-06  0.00000E+00  9.000E+00
#rwgt            1           9   6.4169942129411739E-002           7      668816           0
</event>
<event>
      6   9999 -3.45752E-01  1.57517E+01 -1.00000E+00  1.68551E-01
      21    -1     0     0   501   502  0.000000000E+00  0.000000000E+00  1.368729309E+01  1.368729309E+01  0.000000000E+00  0.00000E+00  9.000E+00
       2    -1     0     0   502     0  0.000000000E+00  0.000000000E+00 -2.460156314E+03  2.460156314E+03  0.000000000E+00  0.00000E+00  9.000E+00
      25     1     1     2     0     0  3.068543909E+00  8.062060744E+00 -4.548677174E+02  4.718087679E+02  1.249978412E+02  0.00000E+00  9.000E+00
       5     1     1     2   501     0  3.816788759E+00 -2.853129442E-01  3.092147723E+00  6.839090396E+00  4.750000000E+00  0.00000E+00  9.000E+00
      -5     1     1     2     0   503  5.858796158E+00 -1.703443421E+01 -4.089955123E+02  4.094195758E+02  4.750000000E+00  0.00000E+00  9.000E+00
       2     1     1     2   503     0 -1.274412883E+01  9.257686411E+00 -1.585697939E+03  1.585776173E+03  3.051757812E-05  0.00000E+00  9.000E+00
#rwgt            1           9  -1.7937410728868057E-003           7      673261           0
</event>
<event>
      6   9999 -3.45752E-01  1.20332E+01 -1.00000E+00  1.79106E-01
      21    -1     0     0   501   511  0.000000000E+00  0.000000000E+00  1.384184910E+03  1.384184910E+03  0.000000000E+00  0.00000E+00  9.000E+00
      21    -1     0     0   502   503  0.000000000E+00  0.000000000E+00 -8.759442755E+00  8.759442755E+00  0.000000000E+00  0.00000E+00  9.000E+00
      25     1     1     2     0     0 -2.172999892E+01 -5.623806909E+01  7.232682240E+02  7.364632933E+02  1.250053806E+02  0.00000E+00  9.000E+00
       5     1     1     2   501     0  1.669281566E+01  4.317212163E+01  3.136203458E+02  3.170532542E+02  4.750000000E+00  0.00000E+00  9.000E+00
      -5     1     1     2     0   503 -2.800686247E+00  3.935471459E+00  3.483564155E+01  3.548825441E+01  4.750000000E+00  0.00000E+00  9.000E+00
      21     1     1     2   502   511  7.837869507E+00  9.130476002E+00  3.037012563E+02  3.039395513E+02  5.394796609E-06  0.00000E+00  9.000E+00
#rwgt            1           9  -3.2623020500522058E-003           7      675338           0
</event>
<event>
      6   9999 -3.45752E-01  1.58063E+01 -1.00000E+00  1.68424E-01
      21    -1     0     0   512   502  0.000000000E+00  0.000000000E+00  3.538181163E+01  3.538181163E+01  0.000000000E+00  0.00000E+00  9.000E+00
      21    -1     0     0   502   503  0.000000000E+00  0.000000000E+00 -8.490829894E+02  8.490829894E+02  0.000000000E+00  0.00000E+00  9.000E+00
      25     1     1     2     0     0 -2.625082027E+01  2.576672573E+00 -7.039990506E+02  7.154963435E+02  1.249984380E+02  0.00000E+00  9.000E+00
       5     1     1     2   501     0 -1.110552360E+00 -8.888384488E-01  5.253395087E+00  7.223850792E+00  4.750000000E+00  0.00000E+00  9.000E+00
      -5     1     1     2     0   503  1.262944950E+01 -7.415933354E+00 -1.351924210E+02  1.360663524E+02  4.750000000E+00  0.00000E+00  9.000E+00
      21     1     1     2   512   501  1.473192312E+01  5.728099230E+00  2.023689869E+01  2.567825439E+01  1.348699152E-06  0.00000E+00  9.000E+00
#rwgt            1           9  -1.5700834411379444E-004           7      677270           0
</event>
<event>
      6   9999  3.45752E-01  5.70387E+00 -1.00000E+00  2.17166E-01
      21    -1     0     0   501   502  0.000000000E+00  0.000000000E+00  6.457650476E+01  6.457650476E+01  0.000000000E+00  0.00000E+00  9.000E+00
       2    -1     0     0   502     0  0.000000000E+00  0.000000000E+00 -3.299497159E+03  3.299497159E+03  0.000000000E+00  0.00000E+00  9.000E+00
      25     1     1     2     0     0  5.312570359E+00 -8.085469583E+01 -2.470822495E+02  2.885212389E+02  1.250166470E+02  0.00000E+00  9.000E+00
       5     1     1     2   501     0  7.600717724E+00  1.146497874E+01  4.201887954E+01  4.446757679E+01  4.750000000E+00  0.00000E+00  9.000E+00
      -5     1     1     2     0   503 -7.350818708E+00  6.812753688E+01 -1.944828678E+03  1.946041250E+03  4.750000000E+00  0.00000E+00  9.000E+00
       2     1     1     2   503     0 -5.562469376E+00  1.262180216E+00 -1.085028606E+03  1.085043598E+03  1.525878906E-05  0.00000E+00  9.000E+00
#rwgt            1           9  0.17626420086092506                7      679176           0
</event>
<event>
      6   9999  3.45752E-01  2.02656E+02 -1.00000E+00  1.08696E-01
      -2    -1     0     0     0   502  0.000000000E+00  0.000000000E+00  4.043017799E+02  4.043017799E+02  0.000000000E+00  0.00000E+00  9.000E+00
      21    -1     0     0   501   511  0.000000000E+00  0.000000000E+00 -1.424702180E+03  1.424702180E+03  0.000000000E+00  0.00000E+00  9.000E+00
      25     1     1     2     0     0 -1.276468332E+02  3.182556142E+01 -6.412498848E+02  6.664345961E+02  1.250083026E+02  0.00000E+00  9.000E+00
       5     1     1     2   501     0 -6.455636268E+01  5.016725580E+01 -1.121103799E+01  8.265910349E+01  4.750000000E+00  0.00000E+00  9.000E+00
      -5     1     1     2     0   502  2.032871002E+01  2.537829533E+01 -6.946628983E+02  6.954397307E+02  4.750000000E+00  0.00000E+00  9.000E+00
      -2     1     1     2     0   511  1.718744859E+02 -1.073711125E+02  3.267234207E+02  3.844705299E+02  8.529922400E-06  0.00000E+00  9.000E+00
#rwgt            1           3   1.7216301923253871E-006           7      686110           0
</event>
<event>
      6   9999  3.45752E-01  4.81705E+00 -1.00000E+00  2.32247E-01
      21    -1     0     0   512   502  0.000000000E+00  0.000000000E+00  1.901693487E+01  1.901693487E+01  0.000000000E+00  0.00000E+00  9.000E+00
      21    -1     0     0   502   503  0.000000000E+00  0.000000000E+00 -2.317801376E+03  2.317801376E+03  0.000000000E+00  0.00000E+00  9.000E+00
      25     1     1     2     0     0  3.998946793E+00 -5.578174048E+00 -2.250331714E+03  2.253811560E+03  1.250064771E+02  0.00000E+00  9.000E+00
       5     1     1     2   501     0 -3.025592826E-01 -8.316439252E-01 -1.391348792E+01  1.472857155E+01  4.750000000E+00  0.00000E+00  9.000E+00
      -5     1     1     2     0   503 -1.585778347E+00  2.079774138E+00 -5.091791803E+01  5.120583004E+01  4.750000000E+00  0.00000E+00  9.000E+00
      21     1     1     2   512   501 -2.110609164E+00  4.330043835E+00  1.637867919E+01  1.707234848E+01  2.311553887E-06  0.00000E+00  9.000E+00
#rwgt            1           9   6.5451459325829094E-004           7      687175           0
</event>
<event>
      6   9999  3.45752E-01  1.80335E+01 -1.00000E+00  1.63719E-01
      21    -1     0     0   501   502  0.000000000E+00  0.000000000E+00  1.621268853E+01  1.621268853E+01  0.000000000E+00  0.00000E+00  9.000E+00
      21    -1     0     0   511   503  0.000000000E+00  0.000000000E+00 -1.084543821E+03  1.084543821E+03  0.000000000E+00  0.00000E+00  9.000E+00
      25     1     1     2     0     0 -2.412200403E+01  2.539839964E+01 -8.988762901E+02  9.082015398E+02  1.249980091E+02  0.00000E+00  9.000E+00
       5     1     1     2   501     0 -9.468129743E-01  2.840156491E+00  6.643351180E+00  8.698250318E+00  4.750000000E+00  0.00000E+00  9.000E+00
      -5     1     1     2     0   503  1.254487191E+01 -1.526323847E+01 -2.763102730E+01  3.429834441E+01  4.750000000E+00  0.00000E+00  9.000E+00
      21     1     1     2   511   502  1.252394509E+01 -1.297531766E+01 -1.484671665E+02  1.495583752E+02  1.907348633E-06  0.00000E+00  9.000E+00
#rwgt            1           9   1.3234685749517758E-003           7      690100           0
</event>
<event>
      6   9999  3.45752E-01  1.29612E+01 -1.00000E+00  1.76060E-01
      21    -1     0     0   501   502  0.000000000E+00  0.000000000E+00  1.325337711E+01  1.325337711E+01  0.000000000E+00  0.00000E+00  9.000E+00
      21    -1     0     0   502   512  0.000000000E+00  0.000000000E+00 -1.429227014E+03  1.429227014E+03  0.000000000E+00  0.00000E+00  9.000E+00
      25     1     1     2     0     0  6.277129668E+00  2.679999504E+01 -6.676034488E+02  6.797617008E+02  1.249958516E+02  0.00000E+00  9.000E+00
       5     1     1     2   501     0 -1.147131446E+00  9.329686731E-01  5.070396056E+00  7.103362391E+00  4.750000000E+00  0.00000E+00  9.000E+00
      -5     1     1     2     0   503 -1.656091690E+01 -2.162349607E+01 -1.876053552E+02  1.896316729E+02  4.750000000E+00  0.00000E+00  9.000E+00
      21     1     1     2   503   512  1.143091868E+01 -6.109467643E+00 -5.658352284E+02  5.659836546E+02  7.629394531E-06  0.00000E+00  9.000E+00
#rwgt            1           9   1.7271784554799853E-003           7      692815           0
</event>
<event>
      6   9999  3.45752E-01  1.52694E+01 -1.00000E+00  1.69704E-01
      -2    -1     0     0     0   511  0.000000000E+00  0.000000000E+00  5.319995878E+01  5.319995878E+01  0.000000000E+00  0.00000E+00  9.000E+00
       2    -1     0     0   501     0  0.000000000E+00  0.000000000E+00 -1.539377896E+03  1.539377896E+03  0.000000000E+00  0.00000E+00  9.000E+00
      25     1     1     2     0     0  2.176453999E+02  1.494193743E+02 -8.860667662E+02  9.329710325E+02  1.249998557E+02  0.00000E+00  9.000E+00
       5     1     1     2   501     0 -1.370008801E+02 -5.246826691E+01 -2.988310419E+02  3.329334983E+02  4.750000000E+00  0.00000E+00  9.000E+00
      -5     1     1     2     0   502 -7.162281472E+01 -8.463190239E+01 -2.672621630E+02  2.893855780E+02  4.750000000E+00  0.00000E+00  9.000E+00
      21     1     1     2   502   511 -9.021705079E+00 -1.231920497E+01 -3.401796583E+01  3.728774561E+01  4.768371582E-07  0.00000E+00  9.000E+00
#rwgt            1           3   1.6794588238327278E-004           7      695031           0
</event>
<event>
      6   9999  3.45752E-01  1.20297E+01 -1.00000E+00  1.79118E-01
      21    -1     0     0   502   512  0.000000000E+00  0.000000000E+00  1.719834758E+01  1.719834758E+01  0.000000000E+00  0.00000E+00  9.000E+00
      21    -1     0     0   501   502  0.000000000E+00  0.000000000E+00 -9.740751934E+02  9.740751934E+02  0.000000000E+00  0.00000E+00  9.000E+00
      25     1     1     2     0     0  2.713285267E+01 -3.666585836E+01 -9.110841620E+02  9.207499808E+02  1.250024004E+02  0.00000E+00  9.000E+00
       5     1     1     2   501     0  3.671147553E-01 -6.551809757E-01 -2.915534368E+00  5.623777734E+00  4.750000000E+00  0.00000E+00  9.000E+00
      -5     1     1     2     0   503 -1.757299412E+01  3.052633678E+01 -3.767293064E+01  5.179265935E+01  4.750000000E+00  0.00000E+00  9.000E+00
      21     1     1     2   503   512 -9.926973306E+00  6.794702564E+00 -5.204218839E+00  1.310712309E+01  3.371747881E-07  0.00000E+00  9.000E+00
#rwgt            1           9   1.2927633206464128E-002           7      700522           0
</event>
<event>
      6   9999 -3.45752E-01  7.58539E+00 -1.00000E+00  2.00792E-01
      21    -1     0     0   501   511  0.000000000E+00  0.000000000E+00  2.327666817E+01  2.327666817E+01  0.000000000E+00  0.00000E+00  9.000E+00
      21    -1     0     0   502   503  0.000000000E+00  0.000000000E+00 -1.023997075E+03  1.023997075E+03  0.000000000E+00  0.00000E+00  9.000E+00
      25     1     1     2     0     0  3.858797519E+00 -5.247806047E+00 -8.174712772E+02  8.270008401E+02  1.250146817E+02  0.00000E+00  9.000E+00
       5     1     1     2   501     0  2.443912917E+00  3.863706719E+00  1.616083168E+01  1.745382252E+01  4.750000000E+00  0.00000E+00  9.000E+00
      -5     1     1     2     0   503  8.016518893E-01 -1.274127160E+00 -1.924807192E+02  1.925452046E+02  4.750000000E+00  0.00000E+00  9.000E+00
      21     1     1     2   502   511 -7.104362325E+00  2.658226488E+00 -6.929242192E+00  1.027387607E+01  2.230201594E-07  0.00000E+00  9.000E+00
#rwgt            1           9  -738.13723030116000                7      703669           0
</event>
<event>
      6   9999  3.45752E-01  8.30886E+01 -1.00000E+00  1.23956E-01
      21    -1     0     0   512   502  0.000000000E+00  0.000000000E+00  4.751578739E+01  4.751578739E+01  0.000000000E+00  0.00000E+00  9.000E+00
       1    -1     0     0   501     0  0.000000000E+00  0.000000000E+00 -2.383899551E+03  2.383899551E+03  0.000000000E+00  0.00000E+00  9.000E+00
      25     1     1     2     0     0 -1.244371969E+02 -1.228813608E+02 -5.259524991E+02  5.681870776E+02  1.250043164E+02  0.00000E+00  9.000E+00
       5     1     1     2   501     0  4.570476606E+01  1.247966456E+00 -7.837700750E+01  9.086253829E+01  4.750000000E+00  0.00000E+00  9.000E+00
      -5     1     1     2     0   502  1.481562073E+02  1.672847515E+02 -6.544857430E+02  6.915985831E+02  4.750000000E+00  0.00000E+00  9.000E+00
       1     1     1     2   512     0 -6.942377645E+01 -4.565135712E+01 -1.077568514E+03  1.080767140E+03  1.525878906E-05  0.00000E+00  9.000E+00
#rwgt            1           1   6.7833863570097253E-005           7      707690           0
</event>
<event>
      6   9999  3.45752E-01  4.20125E+00 -1.00000E+00  2.43519E-01
      21    -1     0     0   501   502  0.000000000E+00  0.000000000E+00  3.126256960E+02  3.126256960E+02  0.000000000E+00  0.00000E+00  9.000E+00
      21    -1     0     0   511   503  0.000000000E+00  0.000000000E+00 -2.389056748E+01  2.389056748E+01  0.000000000E+00  0.00000E+00  9.000E+00
      25     1     1     2     0     0  1.002737258E+01 -1.235921799E+01  1.657547521E+02  2.082117254E+02  1.249967451E+02  0.00000E+00  9.000E+00
       5     1     1     2   501     0  1.410137480E+00  8.435599180E-01  9.161737531E+01  9.175514176E+01  4.750000000E+00  0.00000E+00  9.000E+00
      -5     1     1     2     0   503 -7.375813420E+00  1.044184014E+01  2.808293426E+01  3.121935851E+01  4.750000000E+00  0.00000E+00  9.000E+00
      21     1     1     2   511   502 -4.061696641E+00  1.073817936E+00  3.280066863E+00  5.330037823E+00  1.264405455E-07  0.00000E+00  9.000E+00
#rwgt            1           9   1.9671335624539275E-004           7      708835           0
</event>
<event>
      6   9999  3.45752E-01  2.24044E+01 -1.00000E+00  1.56536E-01
      21    -1     0     0   501   502  0.000000000E+00  0.000000000E+00  1.458405710E+01  1.458405710E+01  0.000000000E+00  0.00000E+00  9.000E+00
       2    -1     0     0   502     0  0.000000000E+00  0.000000000E+00 -2.490097882E+03  2.490097882E+03  0.000000000E+00  0.00000E+00  9.000E+00
      25     1     1     2     0     0  2.346633001E+01 -6.685605349E-02 -5.963136103E+02  6.097275963E+02  1.250085869E+02  0.00000E+00  9.000E+00
       5     1     1     2   501     0  4.511233561E+00  6.340063165E+00  4.905078136E+00  1.035229060E+01  4.750000000E+00  0.00000E+00  9.000E+00
      -5     1     1     2     0   503 -1.270776538E+01  1.012160254E+01 -4.440363160E+02  4.443588039E+02  4.750000000E+00  0.00000E+00  9.000E+00
       2     1     1     2   503     0 -1.526979819E+01 -1.639480965E+01 -1.440068976E+03  1.440243248E+03  1.525878906E-05  0.00000E+00  9.000E+00
#rwgt            1           9   1.4937152516763592                7      713589           0
</event>
<event>
      6   9999  3.45752E-01  4.83901E+01 -1.00000E+00  1.35552E-01
      21    -1     0     0   501   511  0.000000000E+00  0.000000000E+00  4.929998177E+02  4.929998177E+02  0.000000000E+00  0.00000E+00  9.000E+00
      21    -1     0     0   502   503  0.000000000E+00  0.000000000E+00 -1.560069602E+02  1.560069602E+02  0.000000000E+00  0.00000E+00  9.000E+00
      25     1     1     2     0     0 -5.465857214E+01 -3.270991034E+01  5.913485284E+01  1.522488744E+02  1.250011647E+02  0.00000E+00  9.000E+00
       5     1     1     2   501     0 -5.402059563E+00  4.143173585E-01 -1.506945525E+01  1.670343941E+01  4.750000000E+00  0.00000E+00  9.000E+00
      -5     1     1     2     0   503  2.177581742E+01  2.700388964E+00 -9.067443263E+01  9.341249144E+01  4.750000000E+00  0.00000E+00  9.000E+00
      21     1     1     2   502   511  3.828481429E+01  2.959520402E+01  3.836018925E+02  3.866419727E+02  0.000000000E+00  0.00000E+00  9.000E+00
#rwgt            1           9  0.16942530624915317                7      715420           0
</event>
<event>
      6   9999  3.45752E-01  1.44701E+01 -1.00000E+00  1.71736E-01
      21    -1     0     0   502   503  0.000000000E+00  0.000000000E+00  2.585484309E+02  2.585484309E+02  0.000000000E+00  0.00000E+00  9.000E+00
      21    -1     0     0   501   512  0.000000000E+00  0.000000000E+00 -1.093379411E+03  1.093379411E+03  0.000000000E+00  0.00000E+00  9.000E+00
      25     1     1     2     0     0  1.408628849E+01  1.423064920E+01  1.025642283E+02  1.629285704E+02  1.250014529E+02  0.00000E+00  9.000E+00
       5     1     1     2   501     0 -2.351211102E+00  4.417152560E+00  1.071076786E+02  1.073296639E+02  4.750000000E+00  0.00000E+00  9.000E+00
      -5     1     1     2     0   503 -1.740662344E+01 -5.335527889E+00  1.375858260E+01  2.330921475E+01  4.750000000E+00  0.00000E+00  9.000E+00
      21     1     1     2   502   512  5.671546045E+00 -1.331227387E+01 -1.058261470E+03  1.058360393E+03  0.000000000E+00  0.00000E+00  9.000E+00
#rwgt            1           9   8.5868130906134862E-005           7      716262           0
</event>
<event>
      6   9999  3.45752E-01  9.51887E+00 -1.00000E+00  1.89478E-01
      21    -1     0     0   511   502  0.000000000E+00  0.000000000E+00  2.320855792E+01  2.320855792E+01  0.000000000E+00  0.00000E+00  9.000E+00
      21    -1     0     0   502   503  0.000000000E+00  0.000000000E+00 -9.073158465E+02  9.073158465E+02  0.000000000E+00  0.00000E+00  9.000E+00
      25     1     1     2     0     0  4.418672453E+01 -2.859719858E+01 -3.677850974E+02  3.919959396E+02  1.249986898E+02  0.00000E+00  9.000E+00
       5     1     1     2   501     0 -3.414830139E+01  2.496494850E+01 -2.607160750E+02  2.641681082E+02  4.750000000E+00  0.00000E+00  9.000E+00
      -5     1     1     2     0   503 -1.762450585E+01 -2.117561212E+00 -2.621601356E+02  2.628033609E+02  4.750000000E+00  0.00000E+00  9.000E+00
      21     1     1     2   511   501  7.586082702E+00  5.749811293E+00  6.554019377E+00  1.155699575E+01  6.251387883E-07  0.00000E+00  9.000E+00
#rwgt            1           9   1.8116177466811261E-004           7      718046           0
</event>
<event>
      6   9999  3.45752E-01  3.29139E+01 -1.00000E+00  1.45280E-01
      21    -1     0     0   512   502  0.000000000E+00  0.000000000E+00  1.925766938E+02  1.925766938E+02  0.000000000E+00  0.00000E+00  9.000E+00
      21    -1     0     0   502   503  0.000000000E+00  0.000000000E+00 -4.592322641E+03  4.592322641E+03  0.000000000E+00  0.00000E+00  9.000E+00
      25     1     1     2     0     0  3.173225571E+01 -1.962917249E+01 -4.792993728E+02  4.967339989E+02  1.249981459E+02  0.00000E+00  9.000E+00
       5     1     1     2   501     0  1.235594841E+01  4.896648729E+00  2.435535630E+00  1.432274289E+01  4.750000000E+00  0.00000E+00  9.000E+00
      -5     1     1     2     0   503 -1.128534335E+01  1.203066105E+01 -4.096800837E+03  4.096836799E+03  4.750000000E+00  0.00000E+00  9.000E+00
      21     1     1     2   512   501 -3.280286078E+01  2.701862706E+00  1.739187267E+02  1.770057943E+02  1.907348633E-06  0.00000E+00  9.000E+00
#rwgt            1           9   1.5065471372682410E-004           7      720995           0
</event>
<event>
      6   9999  3.45752E-01  1.73864E+01 -1.00000E+00  1.64996E-01
      21    -1     0     0   501   502  0.000000000E+00  0.000000000E+00  6.113046955E+01  6.113046955E+01  0.000000000E+00  0.00000E+00  9.000E+00
      21    -1     0     0   502   511  0.000000000E+00  0.000000000E+00 -1.645666522E+02  1.645666522E+02  0.000000000E+00  0.00000E+00  9.000E+00
      25     1     1     2     0     0 -3.455944292E+00  1.453402313E+00 -6.191468423E+01  1.395428863E+02  1.249989322E+02  0.00000E+00  9.000E+00
       5     1     1     2   501     0 -2.165287570E+00 -4.551017690E-01  1.328990896E+01  1.428564902E+01  4.750000000E+00  0.00000E+00  9.000E+00
      -5     1     1     2     0   503 -1.131134934E+01  2.948079194E+00  1.710656222E+00  1.273289596E+01  4.750000000E+00  0.00000E+00  9.000E+00
      21     1     1     2   503   511  1.693258120E+01 -3.946379739E+00 -5.652206364E+01  5.913569055E+01  6.743495762E-07  0.00000E+00  9.000E+00
#rwgt            1           9   3.6509519768825190E-004           7      723287           0
</event>
<event>
      6   9999  3.45752E-01  3.29470E+01 -1.00000E+00  1.45253E-01
      21    -1     0     0   502   503  0.000000000E+00  0.000000000E+00  1.290631421E+01  1.290631421E+01  0.000000000E+00  0.00000E+00  9.000E+00
      21    -1     0     0   501   512  0.000000000E+00  0.000000000E+00 -1.801541162E+03  1.801541162E+03  0.000000000E+00  0.00000E+00  9.000E+00
      25     1     1     2     0     0  1.039387604E+02 -3.207465514E+01 -1.076670399E+03  1.089347097E+03  1.250036027E+02  0.00000E+00  9.000E+00
       5     1     1     2   501     0 -9.091250143E+00  9.668020587E+00 -2.677539631E+01  3.025897882E+01  4.750000000E+00  0.00000E+00  9.000E+00
      -5     1     1     2     0   503 -6.440572135E+01  3.500826580E+01 -3.274634260E+02  3.356017484E+02  4.750000000E+00  0.00000E+00  9.000E+00
      21     1     1     2   502   512 -3.044178893E+01 -1.260163125E+01 -3.577256263E+02  3.592396517E+02  3.814697266E-06  0.00000E+00  9.000E+00
#rwgt            1           9   9.0357394020808054E-003           7      724945           0
</event>
<event>
      6   9999  3.45752E-01  5.77367E+00 -1.00000E+00  2.16411E-01
      21    -1     0     0   511   502  0.000000000E+00  0.000000000E+00  1.314038277E+02  1.314038277E+02  0.000000000E+00  0.00000E+00  9.000E+00
      21    -1     0     0   502   503  0.000000000E+00  0.000000000E+00 -2.027749087E+02  2.027749087E+02  0.000000000E+00  0.00000E+00  9.000E+00
      25     1     1     2     0     0 -9.261660394E+00  5.249669798E+00 -1.637866741E+02  2.065473527E+02  1.253889824E+02  0.00000E+00  9.000E+00
       5     1     1     2   501     0  1.157351056E-01 -6.572230924E+00  1.058329077E+02  1.061431791E+02  4.750000000E+00  0.00000E+00  9.000E+00
      -5     1     1     2     0   503  3.376944396E+00  1.090008245E+00 -1.445344330E+01  1.562230439E+01  4.750000000E+00  0.00000E+00  9.000E+00
      21     1     1     2   511   501  5.768980893E+00  2.325528809E-01  1.036128685E+00  5.865900104E+00  9.996002812E-08  0.00000E+00  9.000E+00
#rwgt            1           9   4.1706581049806186E-003           7      725864           0
</event>
<event>
      6   9999  3.45752E-01  5.55276E+00 -1.00000E+00  2.18854E-01
      21    -1     0     0   501   502  0.000000000E+00  0.000000000E+00  2.258748059E+01  2.258748059E+01  0.000000000E+00  0.00000E+00  9.000E+00
      21    -1     0     0   512   503  0.000000000E+00  0.000000000E+00 -1.022423126E+03  1.022423126E+03  0.000000000E+00  0.00000E+00  9.000E+00
      25     1     1     2     0     0  4.128344596E+01 -1.891736743E+01 -8.699817622E+02  8.800857454E+02  1.249818508E+02  0.00000E+00  9.000E+00
       5     1     1     2   501     0 -2.204531789E+00  2.419112951E+00  9.954936779E+00  1.150544802E+01  4.750000000E+00  0.00000E+00  9.000E+00
      -5     1     1     2     0   503 -3.869515854E+01  2.203773997E+01 -6.815945178E+01  8.155519999E+01  4.750000000E+00  0.00000E+00  9.000E+00
      21     1     1     2   512   502 -3.837556357E-01 -5.539485493E+00 -7.164936821E+01  7.186421316E+01  0.000000000E+00  0.00000E+00  9.000E+00
#rwgt            1           9   2.1441933055642922E-005           7      730051           0
</event>
<event>
      6   9999  3.45752E-01  1.86044E+01 -1.00000E+00  1.62646E-01
      21    -1     0     0   511   502  0.000000000E+00  0.000000000E+00  1.486467862E+01  1.486467862E+01  0.000000000E+00  0.00000E+00  9.000E+00
      21    -1     0     0   502   503  0.000000000E+00  0.000000000E+00 -7.836957123E+02  7.836957123E+02  0.000000000E+00  0.00000E+00  9.000E+00
      25     1     1     2     0     0  2.686883638E+01 -2.098022129E+01 -7.067230851E+02  7.185036628E+02  1.250115612E+02  0.00000E+00  9.000E+00
       5     1     1     2   501     0 -1.067552752E+01  7.277287039E+00 -5.946676781E+00  1.499504116E+01  4.750000000E+00  0.00000E+00  9.000E+00
      -5     1     1     2     0   503 -1.227603045E+01 -4.484418929E+00 -2.870407375E+01  3.189509816E+01  4.750000000E+00  0.00000E+00  9.000E+00
      21     1     1     2   511   501 -3.917278409E+00  1.818735318E+01 -2.745719808E+01  3.316658880E+01  0.000000000E+00  0.00000E+00  9.000E+00
#rwgt            1           9   3.9357424021900416E-003           7      734715           0
</event>
<event>
      6   9999  3.45752E-01  3.07560E+01 -1.00000E+00  1.47142E-01
      21    -1     0     0   512   502  0.000000000E+00  0.000000000E+00  1.536378858E+03  1.536378858E+03  0.000000000E+00  0.00000E+00  9.000E+00
      21    -1     0     0   502   503  0.000000000E+00  0.000000000E+00 -3.711558979E+01  3.711558979E+01  0.000000000E+00  0.00000E+00  9.000E+00
      25     1     1     2     0     0 -1.673219491E+02  3.349034245E+00  5.005091343E+02  5.423484160E+02  1.249982405E+02  0.00000E+00  9.000E+00
       5     1     1     2   501     0  5.437417373E+01 -7.145280547E+01  4.367457412E+02  4.459052132E+02  4.750000000E+00  0.00000E+00  9.000E+00
      -5     1     1     2     0   503  9.157233105E+01  4.598994289E+01  2.303471144E+02  2.521565431E+02  4.750000000E+00  0.00000E+00  9.000E+00
      21     1     1     2   512   501  2.137544430E+01  2.211382834E+01  3.316612788E+02  3.330842759E+02  3.814697266E-06  0.00000E+00  9.000E+00
#rwgt            1           9   180.80483390660015                7      736076           0
</event>
<event>
      6   9999  3.45752E-01  5.68185E+01 -1.00000E+00  1.31883E-01
      21    -1     0     0   511   503  0.000000000E+00  0.000000000E+00  6.728566290E+01  6.728566290E+01  0.000000000E+00  0.00000E+00  9.000E+00
      21    -1     0     0   501   502  0.000000000E+00  0.000000000E+00 -2.292343264E+03  2.292343264E+03  0.000000000E+00  0.00000E+00  9.000E+00
      25     1     1     2     0     0  1.279494278E+02 -1.127106474E+02 -1.839953822E+03  1.852060340E+03  1.249907641E+02  0.00000E+00  9.000E+00
       5     1     1     2   501     0 -1.027988669E+01  1.816781231E+01 -1.338324339E+02  1.355338642E+02  4.750000000E+00  0.00000E+00  9.000E+00
      -5     1     1     2     0   503 -8.063687686E+01  5.145081627E+01 -2.885836176E+02  3.040601244E+02  4.750000000E+00  0.00000E+00  9.000E+00
      21     1     1     2   511   502 -3.703266427E+01  4.309201881E+01  3.731227234E+01  6.797459801E+01  3.269030857E-06  0.00000E+00  9.000E+00
#rwgt            1           9   1.4679292827995407E-003           7      737570           0
</event>
<event>
      6   9999  3.45752E-01  3.88472E+01 -1.00000E+00  1.40926E-01
      21    -1     0     0   501   502  0.000000000E+00  0.000000000E+00  4.575453488E+02  4.575453488E+02  0.000000000E+00  0.00000E+00  9.000E+00
      21    -1     0     0   502   512  0.000000000E+00  0.000000000E+00 -1.919320093E+02  1.919320093E+02  0.000000000E+00  0.00000E+00  9.000E+00
      25     1     1     2     0     0 -9.102677383E+01  9.434059087E+01  7.303434235E+01  1.953135293E+02  1.250093554E+02  0.00000E+00  9.000E+00
       5     1     1     2   501     0 -2.580732450E+00  3.766084924E+00  2.861112143E+02  2.861870594E+02  4.750000000E+00  0.00000E+00  9.000E+00
      -5     1     1     2     0   503  6.000427814E+01 -7.861491162E+01 -5.500751289E+01  1.132660880E+02  4.750000000E+00  0.00000E+00  9.000E+00
      21     1     1     2   503   512  3.360322814E+01 -1.949176417E+01 -3.852470419E+01  5.471068127E+01  4.768371582E-07  0.00000E+00  9.000E+00
#rwgt            1           9   3.6293464866921616                7      738450           0
</event>
<event>
      6   9999  3.45752E-01  3.81736E+01 -1.00000E+00  1.41373E-01
      21    -1     0     0   501   502  0.000000000E+00  0.000000000E+00  6.386334137E+01  6.386334137E+01  0.000000000E+00  0.00000E+00  9.000E+00
      21    -1     0     0   511   503  0.000000000E+00  0.000000000E+00 -1.636049538E+03  1.636049538E+03  0.000000000E+00  0.00000E+00  9.000E+00
      25     1     1     2     0     0 -3.813659445E+01  4.190762604E+00 -1.213373864E+03  1.220400074E+03  1.250129738E+02  0.00000E+00  9.000E+00
       5     1     1     2   501     0 -2.935375695E+00 -2.077502070E+00  5.840538231E+01  5.870846300E+01  4.750000000E+00  0.00000E+00  9.000E+00
      -5     1     1     2     0   503  2.916509822E+00 -9.374003428E-01 -2.114568712E+02  2.115323985E+02  4.750000000E+00  0.00000E+00  9.000E+00
      21     1     1     2   511   502  3.815546032E+01 -1.175860192E+00 -2.057608431E+02  2.092719435E+02  2.697398305E-06  0.00000E+00  9.000E+00
#rwgt            1           9   2.2901994627364357E-004           7      740439           0
</event>
<event>
      6   9999  3.45752E-01  4.32818E+01 -1.00000E+00  1.38228E-01
      21    -1     0     0   501   512  0.000000000E+00  0.000000000E+00  5.870705975E+01  5.870705975E+01  0.000000000E+00  0.00000E+00  9.000E+00
      21    -1     0     0   502   503  0.000000000E+00  0.000000000E+00 -8.592718806E+02  8.592718806E+02  0.000000000E+00  0.00000E+00  9.000E+00
      25     1     1     2     0     0  6.157578909E+00 -9.537165504E+00 -6.699789544E+02  6.816345177E+02  1.249997725E+02  0.00000E+00  9.000E+00
       5     1     1     2   501     0  3.359014249E+00 -9.432442362E+00 -3.399120466E-01  1.108746977E+01  4.750000000E+00  0.00000E+00  9.000E+00
      -5     1     1     2     0   503  7.957617346E+00 -2.062792048E+01 -1.669700776E+02  1.684945224E+02  4.750000000E+00  0.00000E+00  9.000E+00
      21     1     1     2   502   512 -1.747421050E+01  3.959752835E+01  3.672412319E+01  5.676243043E+01  1.348699152E-06  0.00000E+00  9.000E+00
#rwgt            1           9   4.0901192372561675E-004           7      742236           0
</event>
<event>
      6   9999 -3.45752E-01  1.01964E+01 -1.00000E+00  1.86308E-01
      21    -1     0     0   501   502  0.000000000E+00  0.000000000E+00  1.417180075E+01  1.417180075E+01  0.000000000E+00  0.00000E+00  9.000E+00
       3    -1     0     0   502     0  0.000000000E+00  0.000000000E+00 -2.577049531E+03  2.577049531E+03  0.000000000E+00  0.00000E+00  9.000E+00
      25     1     1     2     0     0  8.590853031E+00 -3.723675119E+01 -6.397935297E+02  6.530097003E+02  1.250021185E+02  0.00000E+00  9.000E+00
       5     1     1     2   501     0 -1.455742238E+00  9.780637359E-01  6.233081270E+00  8.030541467E+00  4.750000000E+00  0.00000E+00  9.000E+00
      -5     1     1     2     0   503 -9.185111813E-01  4.434083862E+01 -1.266122657E+03  1.266908086E+03  4.750000000E+00  0.00000E+00  9.000E+00
       3     1     1     2   503     0 -6.216599612E+00 -8.082151157E+00 -6.631946245E+02  6.632730036E+02  7.629394531E-06  0.00000E+00  9.000E+00
#rwgt            1           9  -129.59282776230046                7      743110           0
</event>
<event>
      6   9999 -3.45752E-01  1.76550E+01 -1.00000E+00  1.64458E-01
      21    -1     0     0   511   502  0.000000000E+00  0.000000000E+00  4.063356914E+01  4.063356914E+01  0.000000000E+00  0.00000E+00  9.000E+00
      21    -1     0     0   502   503  0.000000000E+00  0.000000000E+00 -9.882474553E+02  9.882474553E+02  0.000000000E+00  0.00000E+00  9.000E+00
      25     1     1     2     0     0 -1.145240043E+01  9.138173702E+00 -9.342398447E+02  9.426787949E+02  1.249982369E+02  0.00000E+00  9.000E+00
       5     1     1     2   501     0  6.766073380E-01  4.710106206E+00  1.322915423E+01  1.483967384E+01  4.750000000E+00  0.00000E+00  9.000E+00
      -5     1     1     2     0   503 -9.791029400E-01 -6.755465893E-01 -4.534850996E+01  4.561211310E+01  4.750000000E+00  0.00000E+00  9.000E+00
      21     1     1     2   511   501  1.175489603E+01 -1.317273332E+01  1.874531430E+01  2.575044256E+01  1.327458468E-06  0.00000E+00  9.000E+00
#rwgt            1           9  -2.4157387603772102E-003           7      746841           0
</event>
<event>
      6   9999  3.45752E-01  7.41742E+00 -1.00000E+00  2.01984E-01
      21    -1     0     0   501   502  0.000000000E+00  0.000000000E+00  1.075273474E+02  1.075273474E+02  0.000000000E+00  0.00000E+00  9.000E+00
      21    -1     0     0   502   512  0.000000000E+00  0.000000000E+00 -1.287144007E+03  1.287144007E+03  0.000000000E+00  0.00000E+00  9.000E+00
      25     1     1     2     0     0 -2.476146473E+01 -4.566125410E+00 -6.741088647E+02  6.860627612E+02  1.250014847E+02  0.00000E+00  9.000E+00
       5     1     1     2   501     0  1.020069739E+01  2.973660013E+00  1.009668473E+02  1.016354448E+02  4.750000000E+00  0.00000E+00  9.000E+00
      -5     1     1     2     0   503  7.825222274E+00 -1.514074956E+00 -9.660354984E+01  9.704810595E+01  4.750000000E+00  0.00000E+00  9.000E+00
      21     1     1     2   503   512  6.735545064E+00  3.106540353E+00 -5.098710921E+02  5.099250423E+02  7.629394531E-06  0.00000E+00  9.000E+00
#rwgt            1           9   2.0074270178819319E-002           7      749013           0
</event>
<event>
      6   9999  3.45752E-01  3.21569E+00 -1.00000E+00  2.69256E-01
      21    -1     0     0   501   511  0.000000000E+00  0.000000000E+00  1.529905993E+02  1.529905993E+02  0.000000000E+00  0.00000E+00  9.000E+00
      21    -1     0     0   502   503  0.000000000E+00  0.000000000E+00 -1.720220563E+02  1.720220563E+02  0.000000000E+00  0.00000E+00  9.000E+00
      25     1     1     2     0     0 -1.290866509E+00 -3.261269930E+00 -1.418203389E+02  1.890765212E+02  1.249984805E+02  0.00000E+00  9.000E+00
       5     1     1     2   501     0  1.561069682E-03  4.954435175E-01  6.242194845E+00  7.859577801E+00  4.750000000E+00  0.00000E+00  9.000E+00
      -5     1     1     2     0   503 -1.703366588E-01 -9.949645950E-02 -4.759867183E+00  6.727388031E+00  4.750000000E+00  0.00000E+00  9.000E+00
      21     1     1     2   502   511  1.459642098E+00  2.865322872E+00  1.213065542E+02  1.213491686E+02  0.000000000E+00  0.00000E+00  9.000E+00
#rwgt            1           9   1.4286605553168015E-004           7      754302           0
</event>
<event>
      6   9999  3.45752E-01  8.13616E+00 -1.00000E+00  1.97151E-01
      21    -1     0     0   501   502  0.000000000E+00  0.000000000E+00  1.816019556E+01  1.816019556E+01  0.000000000E+00  0.00000E+00  9.000E+00
      -1    -1     0     0     0   503  0.000000000E+00  0.000000000E+00 -1.830886416E+03  1.830886416E+03  0.000000000E+00  0.00000E+00  9.000E+00
      25     1     1     2     0     0  1.370607500E+01  2.645088777E+00 -3.860096412E+02  4.059831663E+02  1.249961411E+02  0.00000E+00  9.000E+00
       5     1     1     2   501     0 -1.143194665E+00 -4.639508065E+00  6.677470795E+00  9.485939350E+00  4.750000000E+00  0.00000E+00  9.000E+00
      -5     1     1     2     0   503 -1.138271891E+01 -6.055693697E+00 -6.751566645E+02  6.752964696E+02  4.750000000E+00  0.00000E+00  9.000E+00
      -1     1     1     2     0   502 -1.180161433E+00  8.050112986E+00 -7.582373852E+02  7.582810359E+02  0.000000000E+00  0.00000E+00  9.000E+00
#rwgt            1           9  0.57751579895638849                7      759025           0
</event>
<event>
      6   9999  3.45752E-01  6.30804E+00 -1.00000E+00  2.11073E-01
      21    -1     0     0   501   502  0.000000000E+00  0.000000000E+00  1.368752606E+01  1.368752606E+01  0.000000000E+00  0.00000E+00  9.000E+00
      21    -1     0     0   502   511  0.000000000E+00  0.000000000E+00 -8.193264310E+02  8.193264310E+02  0.000000000E+00  0.00000E+00  9.000E+00
      25     1     1     2     0     0 -9.487041199E-01 -5.179465277E+00 -7.457632718E+02  7.561857928E+02  1.250054746E+02  0.00000E+00  9.000E+00
       5     1     1     2   501     0  4.528101334E-01 -9.876832358E-02  7.303555020E+00  8.724632263E+00  4.750000000E+00  0.00000E+00  9.000E+00
      -5     1     1     2     0   503 -4.941547814E-01 -9.516259593E-01 -3.027126441E+01  3.066042612E+01  4.750000000E+00  0.00000E+00  9.000E+00
      21     1     1     2   503   511  9.900487679E-01  6.229859560E+00 -3.690792369E+01  3.744310588E+01  0.000000000E+00  0.00000E+00  9.000E+00
#rwgt            1           9   1.0357728307545800E-002           7      763020           0
</event>
<event>
      6   9999  3.45752E-01  9.41795E+00 -1.00000E+00  1.89979E-01
      21    -1     0     0   512   502  0.000000000E+00  0.000000000E+00  4.191244835E+01  4.191244835E+01  0.000000000E+00  0.00000E+00  9.000E+00
      21    -1     0     0   502   503  0.000000000E+00  0.000000000E+00 -9.812448257E+02  9.812448257E+02  0.000000000E+00  0.00000E+00  9.000E+00
      25     1     1     2     0     0  1.723872792E+01 -9.083612466E+00 -9.148993549E+02  9.236046005E+02  1.249997706E+02  0.00000E+00  9.000E+00
       5     1     1     2   501     0  3.293746740E+00 -1.603495672E+00  5.840126094E+00  8.371949519E+00  4.750000000E+00  0.00000E+00  9.000E+00
      -5     1     1     2     0   503 -1.251165651E+01  1.562312939E+01 -5.818938682E+01  6.171864353E+01  4.750000000E+00  0.00000E+00  9.000E+00
      21     1     1     2   512   501 -8.020818155E+00 -4.936021257E+00  2.791623828E+01  2.946208053E+01  1.066240300E-06  0.00000E+00  9.000E+00
#rwgt            1           9   2.6219401737203546E-003           7      766625           0
</event>
<event>
      6   9999  3.45752E-01  8.04834E+00 -1.00000E+00  1.97706E-01
      21    -1     0     0   511   502  0.000000000E+00  0.000000000E+00  2.835087020E+02  2.835087020E+02  0.000000000E+00  0.00000E+00  9.000E+00
      21    -1     0     0   502   503  0.000000000E+00  0.000000000E+00 -7.497498087E+01  7.497498087E+01  0.000000000E+00  0.00000E+00  9.000E+00
      25     1     1     2     0     0 -7.886215398E+00  4.551898530E+00 -1.549486286E+01  1.262686886E+02  1.249831140E+02  0.00000E+00  9.000E+00
       5     1     1     2   501     0 -1.924894995E+00 -7.587721653E-01  2.165798632E+01  2.226907783E+01  4.750000000E+00  0.00000E+00  9.000E+00
      -5     1     1     2     0   503  1.773878418E+00 -4.215897150E+00 -7.762581770E-01  6.639692025E+00  4.750000000E+00  0.00000E+00  9.000E+00
      21     1     1     2   511   501  8.037231975E+00  4.227707855E-01  2.031468558E+02  2.033062244E+02  2.697398305E-06  0.00000E+00  9.000E+00
#rwgt            1           9   2.3239654925060272E-005           7      769897           0
</event>
<event>
      6   9999  3.45752E-01  1.19769E+01 -1.00000E+00  1.79302E-01
      21    -1     0     0   512   502  0.000000000E+00  0.000000000E+00  1.163282471E+01  1.163282471E+01  0.000000000E+00  0.00000E+00  9.000E+00
       2    -1     0     0   501     0  0.000000000E+00  0.000000000E+00 -2.042409630E+03  2.042409630E+03  0.000000000E+00  0.00000E+00  9.000E+00
      25     1     1     2     0     0 -4.077278965E+01 -4.216623342E+01 -1.602012434E+03  1.607951879E+03  1.249999910E+02  0.00000E+00  9.000E+00
       5     1     1     2   501     0  4.241800533E+01  4.488029165E+01 -1.770328235E+02  1.875545543E+02  4.750000000E+00  0.00000E+00  9.000E+00
      -5     1     1     2     0   502 -8.513936824E+00  7.097523271E+00 -7.913242530E+00  1.442372574E+01  4.750000000E+00  0.00000E+00  9.000E+00
       2     1     1     2   512     0  6.868721140E+00 -9.811581497E+00 -2.438183056E+02  2.441122951E+02  3.814697266E-06  0.00000E+00  9.000E+00
#rwgt            1           3   4.9787388880198425E-003           7      772895           0
</event>
<event>
      6   9999  3.45752E-01  1.69383E+00 -1.00000E+00  3.63561E-01
      21    -1     0     0   511   503  0.000000000E+00  0.000000000E+00  1.027451139E+01  1.027451139E+01  0.000000000E+00  0.00000E+00  9.000E+00
      21    -1     0     0   501   502  0.000000000E+00  0.000000000E+00 -7.137163609E+02  7.137163609E+02  0.000000000E+00  0.00000E+00  9.000E+00
      25     1     1     2     0     0  6.845298081E+00 -5.029761604E+00 -4.789110226E+02  4.950285940E+02  1.250015385E+02  0.00000E+00  9.000E+00
       5     1     1     2   501     0 -5.209010147E+00  4.335478832E+00 -2.044349635E+02  2.046024119E+02  4.750000000E+00  0.00000E+00  9.000E+00
      -5     1     1     2     0   503  5.743077422E-02  6.748720120E-01 -2.158052526E+01  2.210747206E+01  4.750000000E+00  0.00000E+00  9.000E+00
      21     1     1     2   511   502 -1.693718708E+00  1.941076064E-02  1.484661825E+00  2.252394409E+00  1.397852826E-07  0.00000E+00  9.000E+00
#rwgt            1           9   5.6175059508263971E-004           7      777451           0
</event>
<event>
      6   9999  3.45752E-01  1.12005E+01 -1.00000E+00  1.82152E-01
      21    -1     0     0   512   502  0.000000000E+00  0.000000000E+00  1.307450205E+01  1.307450205E+01  0.000000000E+00  0.00000E+00  9.000E+00
      21    -1     0     0   502   503  0.000000000E+00  0.000000000E+00 -8.687811743E+02  8.687811743E+02  0.000000000E+00  0.00000E+00  9.000E+00
      25     1     1     2     0     0  2.776249757E+00 -9.068360226E+00 -8.036265618E+02  8.133453588E+02  1.250003167E+02  0.00000E+00  9.000E+00
       5     1     1     2   501     0  4.840446153E+00 -1.857180326E+00  5.022748088E+00  8.641153631E+00  4.750000000E+00  0.00000E+00  9.000E+00
      -5     1     1     2     0   503  1.276959915E+00  4.117205886E+00 -2.696200267E+01  2.771451062E+01  4.750000000E+00  0.00000E+00  9.000E+00
      21     1     1     2   512   501 -8.893655824E+00  6.808334666E+00 -3.014085587E+01  3.215465327E+01  0.000000000E+00  0.00000E+00  9.000E+00
#rwgt            1           9   3.4404259953036024E-005           7      786119           0
</event>
<event>
      6   9999 -3.45752E-01  8.43915E+00 -1.00000E+00  1.95307E-01
      21    -1     0     0   501   502  0.000000000E+00  0.000000000E+00  2.271279506E+01  2.271279506E+01  0.000000000E+00  0.00000E+00  9.000E+00
      21    -1     0     0   502   511  0.000000000E+00  0.000000000E+00 -1.057319482E+03  1.057319482E+03  0.000000000E+00  0.00000E+00  9.000E+00
      25     1     1     2     0     0 -5.820075536E+01  5.394555263E+01 -5.525812631E+02  5.720731099E+02  1.249965606E+02  0.00000E+00  9.000E+00
       5     1     1     2   501     0 -2.469386691E+00 -1.284977996E+00  7.782009711E+00  9.532639415E+00  4.750000000E+00  0.00000E+00  9.000E+00
      -5     1     1     2     0   503  5.743989610E+01 -6.045703114E+01 -4.555899834E+02  4.631837537E+02  4.750000000E+00  0.00000E+00  9.000E+00
      21     1     1     2   503   511  3.230245954E+00  7.796456509E+00 -3.421745043E+01  3.524277425E+01  0.000000000E+00  0.00000E+00  9.000E+00
#rwgt            1           9  -4.0618386508130819E-004           7      788336           0
</event>
<event>
      6   9999  3.45752E-01  1.64858E+01 -1.00000E+00  1.66892E-01
      21    -1     0     0   501   512  0.000000000E+00  0.000000000E+00  2.697856542E+01  2.697856542E+01  0.000000000E+00  0.00000E+00  9.000E+00
      21    -1     0     0   502   503  0.000000000E+00  0.000000000E+00 -1.098222598E+03  1.098222598E+03  0.000000000E+00  0.00000E+00  9.000E+00
      25     1     1     2     0     0  1.280535337E+01 -1.478973300E+01 -9.374469572E+02  9.459470090E+02  1.250049315E+02  0.00000E+00  9.000E+00
       5     1     1     2   501     0  8.955942491E+00  6.918134288E+00  1.875785708E+01  2.241627066E+01  4.750000000E+00  0.00000E+00  9.000E+00
      -5     1     1     2     0   503 -5.308249722E+00  8.910589684E+00 -1.180175507E+02  1.185676216E+02  4.750000000E+00  0.00000E+00  9.000E+00
      21     1     1     2   502   512 -1.645304614E+01 -1.038990967E+00 -3.453738178E+01  3.827026221E+01  6.743495762E-07  0.00000E+00  9.000E+00
#rwgt            1           9   1.8223831741806923E-005           7      791614           0
</event>
<event>
      6   9999  3.45752E-01  5.12898E+00 -1.00000E+00  2.24008E-01
      21    -1     0     0   501   502  0.000000000E+00  0.000000000E+00  3.157006532E+00  3.157006532E+00  0.000000000E+00  0.00000E+00  9.000E+00
      21    -1     0     0   511   503  0.000000000E+00  0.000000000E+00 -3.647309655E+03  3.647309655E+03  0.000000000E+00  0.00000E+00  9.000E+00
      25     1     1     2     0     0 -1.133243003E+01 -6.897436776E+00 -3.443591883E+03  3.445884838E+03  1.249850447E+02  0.00000E+00  9.000E+00
       5     1     1     2   501     0 -2.839349052E+00  4.671172636E-01 -3.421089338E+00  6.522764279E+00  4.750000000E+00  0.00000E+00  9.000E+00
      -5     1     1     2     0   503  1.171697502E+01  1.926946322E+00 -1.048731281E+02  1.056500645E+02  4.750000000E+00  0.00000E+00  9.000E+00
      21     1     1     2   511   502  2.454804054E+00  4.503373190E+00 -9.226654814E+01  9.240899490E+01  1.348699152E-06  0.00000E+00  9.000E+00
#rwgt            1           9   9.0416067236769832E-005           7      794045           0
</event>
<event>
      6   9999  3.45752E-01  1.27866E+01 -1.00000E+00  1.76608E-01
      21    -1     0     0   502   512  0.000000000E+00  0.000000000E+00  1.852370485E+02  1.852370485E+02  0.000000000E+00  0.00000E+00  9.000E+00
      21    -1     0     0   501   502  0.000000000E+00  0.000000000E+00 -3.091676045E+02  3.091676045E+02  0.000000000E+00  0.00000E+00  9.000E+00
      25     1     1     2     0     0  2.684187550E+00 -1.098252371E+01 -2.786708834E+02  3.056350220E+02  1.250099385E+02  0.00000E+00  9.000E+00
       5     1     1     2   501     0  1.490766378E-01 -1.142303146E+00 -5.986972086E+00  7.728739553E+00  4.750000000E+00  0.00000E+00  9.000E+00
      -5     1     1     2     0   503 -2.368759850E-01 -3.953773795E-01 -9.342646804E+00  1.049094766E+01  4.750000000E+00  0.00000E+00  9.000E+00
      21     1     1     2   503   512 -2.596388203E+00  1.252020423E+01  1.700699462E+02  1.705499438E+02  2.697398305E-06  0.00000E+00  9.000E+00
#rwgt            1           9   4.3158132662204501E-002           7      798989           0
</event>
<event>
      6   9999 -3.45752E-01  5.42806E+00 -1.00000E+00  2.20303E-01
      21    -1     0     0   501   502  0.000000000E+00  0.000000000E+00  1.181924711E+01  1.181924711E+01  0.000000000E+00  0.00000E+00  9.000E+00
      21    -1     0     0   511   503  0.000000000E+00  0.000000000E+00 -9.464677985E+02  9.464677985E+02  0.000000000E+00  0.00000E+00  9.000E+00
      25     1     1     2     0     0  9.417964177E+00 -1.220705610E+01 -6.265915468E+02  6.391251434E+02  1.250050882E+02  0.00000E+00  9.000E+00
       5     1     1     2   501     0  1.746377626E+00  1.540191536E+00  3.902845785E+00  6.573943261E+00  4.750000000E+00  0.00000E+00  9.000E+00
      -5     1     1     2     0   503 -5.859329982E+00  1.181606105E+01 -1.956821904E+02  1.961836720E+02  4.750000000E+00  0.00000E+00  9.000E+00
      21     1     1     2   511   502 -5.305011820E+00 -1.149196490E+00 -1.162776600E+02  1.164042870E+02  1.907348633E-06  0.00000E+00  9.000E+00
#rwgt            1           9  -2.5877551333795485E-003           7      800601           0
</event>
<event>
      6   9999  3.45752E-01  9.36829E+00 -1.00000E+00  1.90229E-01
      21    -1     0     0   501   512  0.000000000E+00  0.000000000E+00  1.374641588E+03  1.374641588E+03  0.000000000E+00  0.00000E+00  9.000E+00
      21    -1     0     0   502   503  0.000000000E+00  0.000000000E+00 -2.775578452E+01  2.775578452E+01  0.000000000E+00  0.00000E+00  9.000E+00
      25     1     1     2     0     0  1.191463456E+01 -7.346095216E-01  1.336865941E+02  1.834114945E+02  1.250006907E+02  0.00000E+00  9.000E+00
       5     1     1     2   501     0 -1.706868851E-01  2.312017421E+00  1.158391532E+03  1.158403590E+03  4.750000000E+00  0.00000E+00  9.000E+00
      -5     1     1     2     0   503 -2.517906745E+00 -3.203776626E+00  1.470676536E+00  6.428796817E+00  4.750000000E+00  0.00000E+00  9.000E+00
      21     1     1     2   502   512 -9.226040933E+00  1.626368727E+00  5.333700072E+01  5.415349068E+01  9.536743164E-07  0.00000E+00  9.000E+00
#rwgt            1           9   2.4423575706103290E-003           7      804541           0
</event>
<event>
      6   9999  3.45752E-01  1.38917E+01 -1.00000E+00  1.73312E-01
      21    -1     0     0   511   502  0.000000000E+00  0.000000000E+00  4.674472604E+01  4.674472604E+01  0.000000000E+00  0.00000E+00  9.000E+00
      21    -1     0     0   502   503  0.000000000E+00  0.000000000E+00 -9.670910347E+02  9.670910347E+02  0.000000000E+00  0.00000E+00  9.000E+00
      25     1     1     2     0     0  1.653701195E+01 -4.816858109E+01 -2.649408089E+02  2.972993497E+02  1.248983032E+02  0.00000E+00  9.000E+00
       5     1     1     2   501     0  3.666694002E-01 -8.764215185E-01  2.364043325E+00  5.390154169E+00  4.750000000E+00  0.00000E+00  9.000E+00
      -5     1     1     2     0   503 -2.772962989E+01  4.033997491E+01 -6.817022340E+02  6.834740260E+02  4.750000000E+00  0.00000E+00  9.000E+00
      21     1     1     2   511   501  1.082594853E+01  8.705027703E+00  2.393269088E+01  2.767223087E+01  8.259061849E-07  0.00000E+00  9.000E+00
#rwgt            1           9   4.2188127704184619E-002           7      808217           0
</event>
<event>
      6   9999 -3.45752E-01  2.03810E+01 -1.00000E+00  1.59587E-01
      21    -1     0     0   501   512  0.000000000E+00  0.000000000E+00  3.199128232E+01  3.199128232E+01  0.000000000E+00  0.00000E+00  9.000E+00
      21    -1     0     0   502   503  0.000000000E+00  0.000000000E+00 -1.262725945E+03  1.262725945E+03  0.000000000E+00  0.00000E+00  9.000E+00
      25     1     1     2     0     0 -5.565212815E+01 -5.007634864E+01 -5.740381270E+02  5.922415166E+02  1.250017707E+02  0.00000E+00  9.000E+00
       5     1     1     2   501     0 -1.214899831E+00  8.272818496E-01  1.699387609E+01  1.770634636E+01  4.750000000E+00  0.00000E+00  9.000E+00
      -5     1     1     2     0   503  3.986124474E+01  3.801574059E+01 -6.543206266E+02  6.566522369E+02  4.750000000E+00  0.00000E+00  9.000E+00
      21     1     1     2   502   512  1.700578324E+01  1.123332620E+01 -1.936978537E+01  2.811712763E+01  2.384185791E-07  0.00000E+00  9.000E+00
#rwgt            1           9  -8.5931356098230466E-002           7      811029           0
</event>
<event>
      6   9999  3.45752E-01  1.63030E+01 -1.00000E+00  1.67295E-01
      21    -1     0     0   501   502  0.000000000E+00  0.000000000E+00  4.254876500E+01  4.254876500E+01  0.000000000E+00  0.00000E+00  9.000E+00
      21    -1     0     0   511   503  0.000000000E+00  0.000000000E+00 -1.522791268E+03  1.522791268E+03  0.000000000E+00  0.00000E+00  9.000E+00
      25     1     1     2     0     0 -1.191821703E+02 -1.901293170E+01 -9.245999363E+02  9.407850387E+02  1.250022620E+02  0.00000E+00  9.000E+00
       5     1     1     2   501     0  3.239072083E-01  3.843678446E+00  2.006459319E+01  2.097687250E+01  4.750000000E+00  0.00000E+00  9.000E+00
      -5     1     1     2     0   503  1.327173321E+02  2.375494666E+01 -3.190149734E+02  3.463687392E+02  4.750000000E+00  0.00000E+00  9.000E+00
      21     1     1     2   511   502 -1.385906900E+01 -8.585693409E+00 -2.566921865E+02  2.572093827E+02  3.814697266E-06  0.00000E+00  9.000E+00
#rwgt            1           9   6.3555631694991424E-004           7      813189           0
</event>
<event>
      6   9999 -3.45752E-01  6.96459E+01 -1.00000E+00  1.27512E-01
      21    -1     0     0   501   502  0.000000000E+00  0.000000000E+00  8.762553655E+02  8.762553655E+02  0.000000000E+00  0.00000E+00  9.000E+00
      21    -1     0     0   502   512  0.000000000E+00  0.000000000E+00 -1.232841580E+02  1.232841580E+02  0.000000000E+00  0.00000E+00  9.000E+00
      25     1     1     2     0     0 -9.886393085E+01 -6.892588983E+01 -1.525847076E+00  1.736437420E+02  1.249998632E+02  0.00000E+00  9.000E+00
       5     1     1     2   501     0  1.007059461E+01 -2.114792449E+01  4.811468742E+02  4.817401048E+02  4.750000000E+00  0.00000E+00  9.000E+00
      -5     1     1     2     0   503  9.484236618E+01  2.069111994E+01  2.538685745E+02  2.718363708E+02  4.750000000E+00  0.00000E+00  9.000E+00
      21     1     1     2   503   512 -6.049029941E+00  6.938269439E+01  1.948160587E+01  7.231930593E+01  1.634515429E-06  0.00000E+00  9.000E+00
#rwgt            1           9  -5.5111675972758535E-004           7      816096           0
</event>
<event>
      6   9999  3.45752E-01  4.73759E+00 -1.00000E+00  2.33559E-01
      21    -1     0     0   511   502  0.000000000E+00  0.000000000E+00  3.880564091E+01  3.880564091E+01  0.000000000E+00  0.00000E+00  9.000E+00
      21    -1     0     0   502   503  0.000000000E+00  0.000000000E+00 -9.885304312E+02  9.885304312E+02  0.000000000E+00  0.00000E+00  9.000E+00
      25     1     1     2     0     0  4.032138812E+01  1.641662573E+01 -6.905645124E+02  7.031359183E+02  1.250018154E+02  0.00000E+00  9.000E+00
       5     1     1     2   501     0  4.131812606E+00  4.382527216E-01  1.108688018E+01  1.275716869E+01  4.750000000E+00  0.00000E+00  9.000E+00
      -5     1     1     2     0   503 -4.503977402E+01 -1.215373997E+01 -2.886530924E+02  2.924371127E+02  4.750000000E+00  0.00000E+00  9.000E+00
      21     1     1     2   511   501  5.865732990E-01 -4.701138480E+00  1.840593429E+01  1.900587247E+01  1.238859277E-06  0.00000E+00  9.000E+00
#rwgt            1           9   1.4624566165658177E-004           7      817396           0
</event>
<event>
      6   9999 -3.45752E-01  1.69822E+01 -1.00000E+00  1.65829E-01
      21    -1     0     0   501   512  0.000000000E+00  0.000000000E+00  3.144218690E+01  3.144218690E+01  0.000000000E+00  0.00000E+00  9.000E+00
      21    -1     0     0   502   503  0.000000000E+00  0.000000000E+00 -9.050409228E+02  9.050409228E+02  0.000000000E+00  0.00000E+00  9.000E+00
      25     1     1     2     0     0 -1.151766936E+01  1.853315812E+00 -8.442736272E+02  8.535567775E+02  1.250004932E+02  0.00000E+00  9.000E+00
       5     1     1     2   501     0 -3.963808993E+00 -1.475049806E+00  9.057551190E+00  1.106748785E+01  4.750000000E+00  0.00000E+00  9.000E+00
      -5     1     1     2     0   503 -4.317947656E-02  6.505061339E+00 -5.040966229E+01  5.104913554E+01  4.750000000E+00  0.00000E+00  9.000E+00
      21     1     1     2   502   512  1.552465783E+01 -6.883327345E+00  1.202700238E+01  2.080970884E+01  7.725644944E-07  0.00000E+00  9.000E+00
#rwgt            1           9  -8.0601565917466948E-004           7      822524           0
</event>
<event>
      6   9999  3.45752E-01  1.57641E+01 -1.00000E+00  1.68522E-01
      21    -1     0     0   511   503  0.000000000E+00  0.000000000E+00  5.429137106E+01  5.429137106E+01  0.000000000E+00  0.00000E+00  9.000E+00
      21    -1     0     0   501   502  0.000000000E+00  0.000000000E+00 -8.655358105E+02  8.655358105E+02  0.000000000E+00  0.00000E+00  9.000E+00
      25     1     1     2     0     0  2.377182322E+01  8.170458127E+00 -3.028893460E+02  3.286303548E+02  1.249963927E+02  0.00000E+00  9.000E+00
       5     1     1     2   501     0  1.492223344E+00  3.692715553E+00 -4.035285731E+02  4.035761820E+02  4.750000000E+00  0.00000E+00  9.000E+00
      -5     1     1     2     0   503 -9.589107619E+00 -1.018855630E+01 -1.443318534E+02  1.450861953E+02  4.750000000E+00  0.00000E+00  9.000E+00
      21     1     1     2   511   502 -1.567493895E+01 -1.674617379E+00  3.950533304E+01  4.253444948E+01  1.261592536E-06  0.00000E+00  9.000E+00
#rwgt            1           9   4.7491954900094992E-004           7      824453           0
</event>
<event>
      6   9999  3.45752E-01  8.64805E+00 -1.00000E+00  1.94093E-01
      21    -1     0     0   512   502  0.000000000E+00  0.000000000E+00  3.207546941E+02  3.207546941E+02  0.000000000E+00  0.00000E+00  9.000E+00
      21    -1     0     0   502   503  0.000000000E+00  0.000000000E+00 -1.340532448E+03  1.340532448E+03  0.000000000E+00  0.00000E+00  9.000E+00
      25     1     1     2     0     0 -2.438537553E+01  1.436979517E+01 -1.217247897E+03  1.223976567E+03  1.250002249E+02  0.00000E+00  9.000E+00
       5     1     1     2   501     0  6.078508778E+00 -1.314636553E+01  4.233143061E+01  4.499208501E+01  4.750000000E+00  0.00000E+00  9.000E+00
      -5     1     1     2     0   503  1.566416081E+01 -9.457804904E+00 -1.177675669E+02  1.192752209E+02  4.750000000E+00  0.00000E+00  9.000E+00
      21     1     1     2   512   501  2.642705945E+00  8.234375262E+00  2.729062800E+02  2.730432686E+02  8.529922400E-06  0.00000E+00  9.000E+00
#rwgt            1           9   1.2891372122909433E-004           7      826176           0
</event>
<event>
      6   9999  3.45752E-01  5.78445E+01 -1.00000E+00  1.31486E-01
      21    -1     0     0   502   511  0.000000000E+00  0.000000000E+00  4.707679182E+01  4.707679182E+01  0.000000000E+00  0.00000E+00  9.000E+00
      21    -1     0     0   501   502  0.000000000E+00  0.000000000E+00 -8.749444312E+02  8.749444312E+02  0.000000000E+00  0.00000E+00  9.000E+00
      25     1     1     2     0     0 -2.199268969E+00 -3.942417429E+01 -5.199710696E+02  5.362442850E+02  1.250156695E+02  0.00000E+00  9.000E+00
       5     1     1     2   501     0  4.436970851E-01  2.777076588E+00 -2.760699974E+02  2.761251799E+02  4.750000000E+00  0.00000E+00  9.000E+00
      -5     1     1     2     0   503 -1.747709765E+01 -1.790642825E+01 -4.371991133E+01  5.059725548E+01  4.750000000E+00  0.00000E+00  9.000E+00
      21     1     1     2   503   511  1.923266954E+01  5.455352596E+01  1.189333897E+01  5.905450266E+01  2.305397940E-06  0.00000E+00  9.000E+00
#rwgt            1           9   1.3437182224092429E-004           7      830459           0
</event>
<event>
      6   9999  3.45752E-01  8.40470E+00 -1.00000E+00  1.95511E-01
      21    -1     0     0   501   502  0.000000000E+00  0.000000000E+00  5.003264537E+01  5.003264537E+01  0.000000000E+00  0.00000E+00  9.000E+00
      21    -1     0     0   502   512  0.000000000E+00  0.000000000E+00 -1.845289393E+02  1.845289393E+02  0.000000000E+00  0.00000E+00  9.000E+00
      25     1     1     2     0     0  6.982614650E+00  3.448022837E+00 -1.217910659E+02  1.746959988E+02  1.249999300E+02  0.00000E+00  9.000E+00
       5     1     1     2   501     0  5.650754105E-02  1.997552033E+00  2.188705779E+01  2.248553326E+01  4.750000000E+00  0.00000E+00  9.000E+00
      -5     1     1     2     0   503 -9.036403457E-02 -7.175959931E-01 -6.670712802E+00  8.220950003E+00  4.750000000E+00  0.00000E+00  9.000E+00
      21     1     1     2   503   512 -6.948758156E+00 -4.727978877E+00 -2.792157307E+01  2.915910264E+01  3.371747881E-07  0.00000E+00  9.000E+00
#rwgt            1           9   149.70367469662671                7      830906           0
</event>
<event>
      6   9999  3.45752E-01  2.20216E+01 -1.00000E+00  1.57083E-01
      21    -1     0     0   501   502  0.000000000E+00  0.000000000E+00  1.493602936E+01  1.493602936E+01  0.000000000E+00  0.00000E+00  9.000E+00
      21    -1     0     0   511   503  0.000000000E+00  0.000000000E+00 -1.108048704E+03  1.108048704E+03  0.000000000E+00  0.00000E+00  9.000E+00
      25     1     1     2     0     0 -8.112648164E+01  1.231771548E+01 -6.369579117E+02  6.542736365E+02  1.250015119E+02  0.00000E+00  9.000E+00
       5     1     1     2   501     0  8.831108697E+00 -1.033196046E+01 -6.873289750E+01  7.022472205E+01  4.750000000E+00  0.00000E+00  9.000E+00
      -5     1     1     2     0   503  5.876502256E+01 -1.936051302E+01 -1.908523922E+02  2.006872080E+02  4.750000000E+00  0.00000E+00  9.000E+00
      21     1     1     2   511   502  1.353035038E+01  1.737475801E+01 -1.965694730E+02  1.977991666E+02  3.814697266E-06  0.00000E+00  9.000E+00
#rwgt            1           9  0.33385564988009142                7      834884           0
</event>
<event>
      6   9999 -3.45752E-01  1.42502E+01 -1.00000E+00  1.72324E-01
      21    -1     0     0   501   502  0.000000000E+00  0.000000000E+00  1.380345859E+01  1.380345859E+01  0.000000000E+00  0.00000E+00  9.000E+00
       1    -1     0     0   502     0  0.000000000E+00  0.000000000E+00 -1.939019652E+03  1.939019652E+03  0.000000000E+00  0.00000E+00  9.000E+00
      25     1     1     2     0     0  2.670403199E+01 -3.147893351E+01 -7.411200192E+02  7.527203880E+02  1.250002840E+02  0.00000E+00  9.000E+00
       5     1     1     2   501     0 -2.447376461E-02 -1.161417753E+00 -6.953096621E-02  4.890483076E+00  4.750000000E+00  0.00000E+00  9.000E+00
      -5     1     1     2     0   503 -2.130152359E+01  1.944392150E+01 -3.294609248E+01  4.404348419E+01  4.750000000E+00  0.00000E+00  9.000E+00
       1     1     1     2   503     0 -5.378034632E+00  1.319642977E+01 -1.151080551E+03  1.151168755E+03  0.000000000E+00  0.00000E+00  9.000E+00
#rwgt            1           9  -5.2162326310644888E-004           7      836248           0
</event>
<event>
      6   9999  3.45752E-01  1.60179E+01 -1.00000E+00  1.67937E-01
      21    -1     0     0   501   511  0.000000000E+00  0.000000000E+00  5.951440904E+01  5.951440904E+01  0.000000000E+00  0.00000E+00  9.000E+00
      21    -1     0     0   502   503  0.000000000E+00  0.000000000E+00 -2.707203396E+02  2.707203396E+02  0.000000000E+00  0.00000E+00  9.000E+00
      25     1     1     2     0     0 -3.388475567E+01  5.837301067E+01 -1.362665239E+02  1.968463292E+02  1.249973068E+02  0.00000E+00  9.000E+00
       5     1     1     2   501     0 -6.234042934E-01  1.664104069E+00  9.553573536E+00  1.081624438E+01  4.750000000E+00  0.00000E+00  9.000E+00
      -5     1     1     2     0   503  2.043402844E+01 -5.238903390E+01 -8.948566813E+01  1.057941761E+02  4.750000000E+00  0.00000E+00  9.000E+00
      21     1     1     2   502   511  1.407413152E+01 -7.648080838E+00  4.992687963E+00  1.677799904E+01  2.457562462E-07  0.00000E+00  9.000E+00
#rwgt            1           9   8.9962849764192263E-002           7      838047           0
</event>
<event>
      6   9999  3.45752E-01  1.90354E+01 -1.00000E+00  1.61866E-01
      21    -1     0     0   501   502  0.000000000E+00  0.000000000E+00  1.517840088E+03  1.517840088E+03  0.000000000E+00  0.00000E+00  9.000E+00
      21    -1     0     0   502   512  0.000000000E+00  0.000000000E+00 -1.252518175E+01  1.252518175E+01  0.000000000E+00  0.00000E+00  9.000E+00
      25     1     1     2     0     0  2.771853090E+01  3.517014948E+01  5.820965463E+02  5.970475179E+02  1.249963720E+02  0.00000E+00  9.000E+00
       5     1     1     2   501     0  1.348296655E+00 -8.341474228E-01  1.772979033E+02  1.773686069E+02  4.750000000E+00  0.00000E+00  9.000E+00
      -5     1     1     2     0   503 -1.045386789E+01 -3.832412666E+01  7.301066125E+02  7.312019216E+02  4.750000000E+00  0.00000E+00  9.000E+00
      21     1     1     2   503   512 -1.861295967E+01  3.988124599E+00  1.581384462E+01  2.474722382E+01  8.085167388E-07  0.00000E+00  9.000E+00
#rwgt            1           9   2.7805918941249879E-006           7      840056           0
</event>
<event>
      6   9999  3.45752E-01  1.14551E+01 -1.00000E+00  1.81186E-01
      21    -1     0     0   501   502  0.000000000E+00  0.000000000E+00  1.205488455E+03  1.205488455E+03  0.000000000E+00  0.00000E+00  9.000E+00
      21    -1     0     0   511   503  0.000000000E+00  0.000000000E+00 -3.551681474E+02  3.551681474E+02  0.000000000E+00  0.00000E+00  9.000E+00
      25     1     1     2     0     0  2.317810853E-01  7.183651907E+00  3.667518340E+02  3.875338538E+02  1.249956861E+02  0.00000E+00  9.000E+00
       5     1     1     2   501     0 -1.988677536E+00  1.385854573E+00  7.940011472E+02  7.940190550E+02  4.750000000E+00  0.00000E+00  9.000E+00
      -5     1     1     2     0   503 -2.392421629E+00  2.107703476E+00  3.400133035E+01  3.447925551E+01  4.750000000E+00  0.00000E+00  9.000E+00
      21     1     1     2   511   502  4.149318079E+00 -1.067720996E+01 -3.444340044E+02  3.446244377E+02  6.607249480E-06  0.00000E+00  9.000E+00
#rwgt            1           9   9.5431304933560369E-003           7      841515           0
</event>
<event>
      6   9999  3.45752E-01  1.88372E+01 -1.00000E+00  1.62222E-01
      21    -1     0     0   502   512  0.000000000E+00  0.000000000E+00  4.947779535E+02  4.947779535E+02  0.000000000E+00  0.00000E+00  9.000E+00
      21    -1     0     0   501   502  0.000000000E+00  0.000000000E+00 -2.241298600E+01  2.241298600E+01  0.000000000E+00  0.00000E+00  9.000E+00
      25     1     1     2     0     0  3.256715889E+01 -2.307537074E+01  2.664355775E+02  2.969948807E+02  1.249997985E+02  0.00000E+00  9.000E+00
       5     1     1     2   501     0 -9.680117629E+00  1.324023520E+01  1.159792825E+01  2.064177670E+01  4.750000000E+00  0.00000E+00  9.000E+00
      -5     1     1     2     0   503 -7.433837267E+00 -9.369165087E-01  7.059980035E+00  1.133779375E+01  4.750000000E+00  0.00000E+00  9.000E+00
      21     1     1     2   503   512 -1.545320399E+01  1.077205205E+01  1.872714817E+02  1.882164883E+02  2.697398305E-06  0.00000E+00  9.000E+00
#rwgt            1           9   4.9090825518503544E-005           7      844214           0
</event>
<event>
      6   9999  3.45752E-01  1.28654E+01 -1.00000E+00  1.76359E-01
      21    -1     0     0   501   502  0.000000000E+00  0.000000000E+00  9.179956083E+01  9.179956083E+01  0.000000000E+00  0.00000E+00  9.000E+00
       2    -1     0     0   502     0  0.000000000E+00  0.000000000E+00 -1.768070364E+03  1.768070364E+03  0.000000000E+00  0.00000E+00  9.000E+00
      25     1     1     2     0     0 -7.899378604E+00  1.381095803E+01 -1.189020190E+03  1.195678410E+03  1.249988230E+02  0.00000E+00  9.000E+00
       5     1     1     2   501     0 -1.067659700E+01  8.215643877E+00  8.666763340E+01  8.783693817E+01  4.750000000E+00  0.00000E+00  9.000E+00
      -5     1     1     2     0   503  3.141772885E+01 -2.280707186E+01 -3.792109636E+02  3.812227087E+02  4.750000000E+00  0.00000E+00  9.000E+00
       2     1     1     2   503     0 -1.284175324E+01  7.804699560E-01 -1.947072824E+02  1.951318672E+02  0.000000000E+00  0.00000E+00  9.000E+00
#rwgt            1           9   2.0157019292607408E-004           7      845402           0
</event>
<event>
      6   9999  3.45752E-01  2.58961E+00 -1.00000E+00  2.94763E-01
      21    -1     0     0   501   502  0.000000000E+00  0.000000000E+00  8.645702229E+00  8.645702229E+00  0.000000000E+00  0.00000E+00  9.000E+00
      21    -1     0     0   502   511  0.000000000E+00  0.000000000E+00 -8.995173937E+02  8.995173937E+02  0.000000000E+00  0.00000E+00  9.000E+00
      25     1     1     2     0     0  1.449363814E+01  8.228657569E+00 -6.096376197E+02  6.225495793E+02  1.250286968E+02  0.00000E+00  9.000E+00
       5     1     1     2   501     0 -1.281151600E-01  5.874373032E-02 -3.156690289E+00  5.705002884E+00  4.750000000E+00  0.00000E+00  9.000E+00
      -5     1     1     2     0   503 -1.179875578E+01 -8.630611013E+00 -6.416140348E+01  6.597686171E+01  4.750000000E+00  0.00000E+00  9.000E+00
      21     1     1     2   503   511 -2.566767201E+00  3.432097131E-01 -2.139159780E+02  2.139316520E+02  3.814697266E-06  0.00000E+00  9.000E+00
#rwgt            1           9   1.5697232901733343E-005           7      850207           0
</event>
<event>
      6   9999  3.45752E-01  6.00820E+00 -1.00000E+00  2.13975E-01
      21    -1     0     0   501   512  0.000000000E+00  0.000000000E+00  3.269694731E+01  3.269694731E+01  0.000000000E+00  0.00000E+00  9.000E+00
      21    -1     0     0   502   503  0.000000000E+00  0.000000000E+00 -2.355745688E+02  2.355745688E+02  0.000000000E+00  0.00000E+00  9.000E+00
      25     1     1     2     0     0 -2.059838522E+01  1.375055073E+00 -1.772864901E+02  2.179066424E+02  1.250064837E+02  0.00000E+00  9.000E+00
       5     1     1     2   501     0  3.227138189E-02 -1.252537382E+00  3.910926837E+00  6.279151222E+00  4.750000000E+00  0.00000E+00  9.000E+00
      -5     1     1     2     0   503  2.002641367E+01 -6.106428828E+00 -3.117203456E+01  3.784975503E+01  4.750000000E+00  0.00000E+00  9.000E+00
      21     1     1     2   502   512  5.397001691E-01  5.983911137E+00  1.669976369E+00  6.235967434E+00  1.349357536E-07  0.00000E+00  9.000E+00
#rwgt            1           9  0.69660623554075285                7      856174           0
</event>
<event>
      6   9999  3.45752E-01  2.09112E+01 -1.00000E+00  1.58747E-01
      21    -1     0     0   501   511  0.000000000E+00  0.000000000E+00  1.871321312E+02  1.871321312E+02  0.000000000E+00  0.00000E+00  9.000E+00
      21    -1     0     0   502   503  0.000000000E+00  0.000000000E+00 -2.357069274E+02  2.357069274E+02  0.000000000E+00  0.00000E+00  9.000E+00
      25     1     1     2     0     0  4.321892311E+01  3.730839611E+00 -1.854676123E+02  2.277097993E+02  1.247867099E+02  0.00000E+00  9.000E+00
       5     1     1     2   501     0  3.994425022E+00  1.179619628E+01  1.180782506E+02  1.188282014E+02  4.750000000E+00  0.00000E+00  9.000E+00
      -5     1     1     2     0   503 -3.009121726E+01 -3.522414306E+00 -1.682548482E+01  3.497925383E+01  4.750000000E+00  0.00000E+00  9.000E+00
      21     1     1     2   502   511 -1.712213087E+01 -1.200462159E+01  3.564005040E+01  4.132180414E+01  8.259061849E-07  0.00000E+00  9.000E+00
#rwgt            1           9   3.4472611516665150E-004           7      859492           0
</event>
<event>
      6   9999  3.45752E-01  4.37301E+00 -1.00000E+00  2.40099E-01
      21    -1     0     0   502   512  0.000000000E+00  0.000000000E+00  1.531776087E+01  1.531776087E+01  0.000000000E+00  0.00000E+00  9.000E+00
      21    -1     0     0   501   502  0.000000000E+00  0.000000000E+00 -9.090036115E+02  9.090036115E+02  0.000000000E+00  0.00000E+00  9.000E+00
      25     1     1     2     0     0  6.258399989E+01  1.520759279E+01 -5.371227030E+02  5.552241397E+02  1.250000772E+02  0.00000E+00  9.000E+00
       5     1     1     2   501     0 -4.345227721E+00  8.113895118E+00 -1.951606517E+02  1.954353058E+02  4.750000000E+00  0.00000E+00  9.000E+00
      -5     1     1     2     0   503 -5.624566688E+01 -1.942909269E+01 -1.491839803E+02  1.606844335E+02  4.750000000E+00  0.00000E+00  9.000E+00
      21     1     1     2   503   512 -1.993105294E+00 -3.892395224E+00 -1.221851567E+01  1.297749338E+01  1.685873940E-07  0.00000E+00  9.000E+00
#rwgt            1           9  0.54691582866980748                7      861556           0
</event>
<event>
      6   9999  3.45752E-01  6.53767E+00 -1.00000E+00  2.08995E-01
      21    -1     0     0   501   502  0.000000000E+00  0.000000000E+00  2.563533892E+01  2.563533892E+01  0.000000000E+00  0.00000E+00  9.000E+00
      21    -1     0     0   502   511  0.000000000E+00  0.000000000E+00 -4.035127485E+02  4.035127485E+02  0.000000000E+00  0.00000E+00  9.000E+00
      25     1     1     2     0     0  3.110292794E+01  2.174105505E+01 -1.792827617E+02  2.218319831E+02  1.250082176E+02  0.00000E+00  9.000E+00
       5     1     1     2   501     0  3.037004267E-03  1.483447286E-01 -1.139565126E+00  4.887036327E+00  4.750000000E+00  0.00000E+00  9.000E+00
      -5     1     1     2     0   503 -2.999149908E+01 -1.544742032E+01 -1.212890331E+02  1.259829546E+02  4.750000000E+00  0.00000E+00  9.000E+00
      21     1     1     2   503   511 -1.114465858E+00 -6.441979453E+00 -7.616604969E+01  7.644611343E+01  1.348699152E-06  0.00000E+00  9.000E+00
#rwgt            1           9   40.250565107451202                7      866586           0
</event>
<event>
      6   9999 -3.45752E-01  3.23797E+00 -1.00000E+00  2.68519E-01
      21    -1     0     0   501   502  0.000000000E+00  0.000000000E+00  5.921635951E+01  5.921635951E+01  0.000000000E+00  0.00000E+00  9.000E+00
      21    -1     0     0   502   512  0.000000000E+00  0.000000000E+00 -1.808283461E+02  1.808283461E+02  0.000000000E+00  0.00000E+00  9.000E+00
      25     1     1     2     0     0 -1.526129002E+01  2.183712766E+01 -5.171063714E+01  1.378902375E+02  1.250198404E+02  0.00000E+00  9.000E+00
       5     1     1     2   501     0 -6.096424983E-01 -9.058936793E-01  1.000766880E+01  1.113140792E+01  4.750000000E+00  0.00000E+00  9.000E+00
      -5     1     1     2     0   503  1.476632019E+01 -2.397495969E+01 -3.154152666E+01  4.254730670E+01  4.750000000E+00  0.00000E+00  9.000E+00
      21     1     1     2   503   512  1.104612324E+00  3.043725709E+00 -4.836749157E+01  4.847575348E+01  6.743495762E-07  0.00000E+00  9.000E+00
#rwgt            1           9  -4.3683022186643869E-002           7      869810           0
</event>
<event>
      6   9999  3.45752E-01  1.42498E+02 -1.00000E+00  1.14242E-01
      21    -1     0     0   502   511  0.000000000E+00  0.000000000E+00  6.304309899E+02  6.304309899E+02  0.000000000E+00  0.00000E+00  9.000E+00
      21    -1     0     0   501   502  0.000000000E+00  0.000000000E+00 -1.559478626E+03  1.559478626E+03  0.000000000E+00  0.00000E+00  9.000E+00
      25     1     1     2     0     0 -1.511925192E+02  1.677189050E+01 -5.757793472E+02  6.085126596E+02  1.250013043E+02  0.00000E+00  9.000E+00
       5     1     1     2   501     0 -9.732760539E+00  2.448638800E+00 -6.258258439E+02  6.259243340E+02  4.750000000E+00  0.00000E+00  9.000E+00
      -5     1     1     2     0   503  2.731701869E+02  6.856799321E+01 -2.726048987E+02  3.919942780E+02  4.750000000E+00  0.00000E+00  9.000E+00
      21     1     1     2   503   511 -1.122449072E+02 -8.778852251E+01  5.451624535E+02  5.634783444E+02  1.321449896E-05  0.00000E+00  9.000E+00
#rwgt            1           9   1.6569133891002740E-002           7      875029           0
</event>
<event>
      6   9999  3.45752E-01  1.67586E+01 -1.00000E+00  1.66302E-01
      21    -1     0     0   501   512  0.000000000E+00  0.000000000E+00  6.028912314E+01  6.028912314E+01  0.000000000E+00  0.00000E+00  9.000E+00
      21    -1     0     0   502   503  0.000000000E+00  0.000000000E+00 -1.570652687E+03  1.570652687E+03  0.000000000E+00  0.00000E+00  9.000E+00
      25     1     1     2     0     0 -1.033431981E+02 -5.551905543E+01 -1.344417139E+03  1.355301878E+03  1.249942212E+02  0.00000E+00  9.000E+00
       5     1     1     2   501     0 -8.943381856E-01 -3.802157198E+00  3.744862996E+01  3.795021246E+01  4.750000000E+00  0.00000E+00  9.000E+00
      -5     1     1     2     0   503  8.748947679E+01  5.991461696E+01 -1.786401339E+02  2.077956443E+02  4.750000000E+00  0.00000E+00  9.000E+00
      21     1     1     2   502   512  1.674805947E+01 -5.934043284E-01 -2.475492171E+01  2.989407589E+01  3.371747881E-07  0.00000E+00  9.000E+00
#rwgt            1           9   7.7968877695885701E-004           7      875934           0
</event>
<event>
      6   9999  3.45752E-01  8.65906E+01 -1.00000E+00  1.23154E-01
      21    -1     0     0   511   503  0.000000000E+00  0.000000000E+00  1.114109021E+03  1.114109021E+03  0.000000000E+00  0.00000E+00  9.000E+00
      21    -1     0     0   501   502  0.000000000E+00  0.000000000E+00 -1.146236605E+03  1.146236605E+03  0.000000000E+00  0.00000E+00  9.000E+00
      25     1     1     2     0     0 -1.889453775E+02 -4.174894928E+01 -5.483746822E+02  5.947963731E+02  1.249984119E+02  0.00000E+00  9.000E+00
       5     1     1     2   501     0  6.157335412E+01  4.544471126E+01 -4.148085064E+02  4.218354647E+02  4.750000000E+00  0.00000E+00  9.000E+00
      -5     1     1     2     0   503  4.138440355E+01  6.505408490E+00 -1.517262524E+02  1.574751008E+02  4.750000000E+00  0.00000E+00  9.000E+00
      21     1     1     2   511   502  8.598761983E+01 -1.020117047E+01  1.082781857E+03  1.086238687E+03  2.157918644E-05  0.00000E+00  9.000E+00
#rwgt            1           9   8.2676949628772596E-003           7      878721           0
</event>
<event>
      6   9999 -3.45752E-01  3.19456E+01 -1.00000E+00  1.46094E-01
      21    -1     0     0   502   503  0.000000000E+00  0.000000000E+00  1.734737157E+01  1.734737157E+01  0.000000000E+00  0.00000E+00  9.000E+00
      21    -1     0     0   501   512  0.000000000E+00  0.000000000E+00 -1.061107974E+03  1.061107974E+03  0.000000000E+00  0.00000E+00  9.000E+00
      25     1     1     2     0     0 -1.233474453E+01 -4.895516183E+01 -2.876520442E+02  3.176766565E+02  1.250040229E+02  0.00000E+00  9.000E+00
       5     1     1     2   501     0 -7.297021339E-01 -7.166221450E+00 -3.805345672E+02  3.806323771E+02  4.750000000E+00  0.00000E+00  9.000E+00
      -5     1     1     2     0   503  6.257685379E+00  2.490938077E+01 -1.988736534E+02  2.005814757E+02  4.750000000E+00  0.00000E+00  9.000E+00
      21     1     1     2   502   512  6.806761285E+00  3.121200251E+01 -1.767003379E+02  1.795648365E+02  0.000000000E+00  0.00000E+00  9.000E+00
#rwgt            1           9  -2.1941402345073175E-004           7      879477           0
</event>
<event>
      6   9999 -3.45752E-01  1.57975E+01 -1.00000E+00  1.68445E-01
      21    -1     0     0   511   502  0.000000000E+00  0.000000000E+00  1.687062297E+01  1.687062297E+01  0.000000000E+00  0.00000E+00  9.000E+00
      21    -1     0     0   502   503  0.000000000E+00  0.000000000E+00 -9.593554315E+02  9.593554315E+02  0.000000000E+00  0.00000E+00  9.000E+00
      25     1     1     2     0     0  4.218352129E+01  1.040107740E+01 -7.156897284E+02  7.278210335E+02  1.249961501E+02  0.00000E+00  9.000E+00
       5     1     1     2   501     0 -3.795902179E+01 -1.253205933E+00 -3.734638440E+01  5.347684347E+01  4.750000000E+00  0.00000E+00  9.000E+00
      -5     1     1     2     0   503 -1.048225353E-01 -2.439871385E+01 -1.556197099E+02  1.575924009E+02  4.750000000E+00  0.00000E+00  9.000E+00
      21     1     1     2   511   501 -4.119676966E+00  1.525084238E+01 -3.382898584E+01  3.733577661E+01  4.768371582E-07  0.00000E+00  9.000E+00
#rwgt            1           9  -1.5685777138746616E-004           7      880764           0
</event>
<event>
      6   9999  3.45752E-01  4.05288E+01 -1.00000E+00  1.39856E-01
      21    -1     0     0   501   502  0.000000000E+00  0.000000000E+00  3.006073517E+01  3.006073517E+01  0.000000000E+00  0.00000E+00  9.000E+00
      21    -1     0     0   502   512  0.000000000E+00  0.000000000E+00 -1.543437958E+03  1.543437958E+03  0.000000000E+00  0.00000E+00  9.000E+00
      25     1     1     2     0     0  7.331134132E+01 -7.495881911E+01 -5.327028870E+02  5.571256557E+02  1.249930125E+02  0.00000E+00  9.000E+00
       5     1     1     2   501     0  6.024084268E+00 -3.600300370E+00  1.342841217E+01  1.587880686E+01  4.750000000E+00  0.00000E+00  9.000E+00
      -5     1     1     2     0   503 -4.834268929E+01  5.244341306E+01 -5.717287037E+02  5.761801804E+02  4.750000000E+00  0.00000E+00  9.000E+00
      21     1     1     2   503   512 -3.099273630E+01  2.611570641E+01 -4.223740445E+02  4.243140503E+02  0.000000000E+00  0.00000E+00  9.000E+00
#rwgt            1           9   7.2658505072044507E-004           7      883235           0
</event>
<event>
      6   9999  3.45752E-01  1.67350E+01 -1.00000E+00  1.66352E-01
       2    -1     0     0   501     0  0.000000000E+00  0.000000000E+00  1.411312329E+03  1.411312329E+03  0.000000000E+00  0.00000E+00  9.000E+00
      21    -1     0     0   502   503  0.000000000E+00  0.000000000E+00 -2.448274755E+02  2.448274755E+02  0.000000000E+00  0.00000E+00  9.000E+00
      25     1     1     2     0     0  4.102780334E+00  6.735888086E+00 -2.167349175E+02  2.503240416E+02  1.250035853E+02  0.00000E+00  9.000E+00
       5     1     1     2   501     0  4.854239679E+00  5.726470390E+00  1.968384659E+01  2.159565750E+01  4.750000000E+00  0.00000E+00  9.000E+00
      -5     1     1     2     0   503  3.536901365E+00 -1.328503327E+00 -9.396217697E+00  1.118597333E+01  4.750000000E+00  0.00000E+00  9.000E+00
       2     1     1     2   502     0 -1.249392138E+01 -1.113385515E+01  1.372932142E+03  1.373034132E+03  1.525878906E-05  0.00000E+00  9.000E+00
#rwgt            1           9   8.4572971814110574                7      884560           0
</event>
<event>
      6   9999 -3.45752E-01  4.22614E+00 -1.00000E+00  2.43008E-01
      21    -1     0     0   501   502  0.000000000E+00  0.000000000E+00  2.124685082E+01  2.124685082E+01  0.000000000E+00  0.00000E+00  9.000E+00
      21    -1     0     0   511   503  0.000000000E+00  0.000000000E+00 -2.919645560E+03  2.919645560E+03  0.000000000E+00  0.00000E+00  9.000E+00
      25     1     1     2     0     0  8.523512283E+00 -2.654267865E+01 -5.292196964E+02  5.444960747E+02  1.250012970E+02  0.00000E+00  9.000E+00
       5     1     1     2   501     0  2.223239478E+00  2.813489544E+00  1.246740800E+01  1.381511055E+01  4.750000000E+00  0.00000E+00  9.000E+00
      -5     1     1     2     0   503 -1.496910862E+01  2.355042278E+01 -4.302134959E+02  4.311437245E+02  4.750000000E+00  0.00000E+00  9.000E+00
      21     1     1     2   511   502  4.222356861E+00  1.787663274E-01 -1.951432925E+03  1.951437501E+03  2.157918644E-05  0.00000E+00  9.000E+00
#rwgt            1           9  -9.7429181687924232E-005           7      886441           0
</event>
<event>
      6   9999  3.45752E-01  1.56571E+01 -1.00000E+00  1.68773E-01
      21    -1     0     0   501   502  0.000000000E+00  0.000000000E+00  1.828711355E+02  1.828711355E+02  0.000000000E+00  0.00000E+00  9.000E+00
      21    -1     0     0   512   503  0.000000000E+00  0.000000000E+00 -1.044525687E+02  1.044525687E+02  0.000000000E+00  0.00000E+00  9.000E+00
      25     1     1     2     0     0 -1.062389647E+01  1.053814087E+01  8.575405735E+01  1.523185201E+02  1.249930143E+02  0.00000E+00  9.000E+00
       5     1     1     2   501     0 -1.846612500E+00 -5.349487147E-01  2.906054210E+01  2.950887587E+01  4.750000000E+00  0.00000E+00  9.000E+00
      -5     1     1     2     0   503 -3.150758289E+00 -1.106212739E+01  3.252229538E+01  3.482183420E+01  4.750000000E+00  0.00000E+00  9.000E+00
      21     1     1     2   512   502  1.562126726E+01  1.058935238E+00 -6.891832808E+01  7.067447403E+01  9.536743164E-07  0.00000E+00  9.000E+00
#rwgt            1           9   1.0503495717755073E-003           7      891581           0
</event>
<event>
      6   9999  3.45752E-01  1.60669E+01 -1.00000E+00  1.67825E-01
      21    -1     0     0   501   511  0.000000000E+00  0.000000000E+00  5.863959804E+02  5.863959804E+02  0.000000000E+00  0.00000E+00  9.000E+00
      21    -1     0     0   502   503  0.000000000E+00  0.000000000E+00 -9.735270990E+01  9.735270990E+01  0.000000000E+00  0.00000E+00  9.000E+00
      25     1     1     2     0     0  1.214185399E+01 -3.429518234E+01  7.035767786E+01  1.479826451E+02  1.250003051E+02  0.00000E+00  9.000E+00
       5     1     1     2   501     0  1.304984896E+01  7.588637730E+00  3.929458502E+02  3.932644017E+02  4.750000000E+00  0.00000E+00  9.000E+00
      -5     1     1     2     0   503 -1.136764728E+01  3.489436338E+01 -5.160719466E+01  6.350358290E+01  4.750000000E+00  0.00000E+00  9.000E+00
      21     1     1     2   502   511 -1.382405567E+01 -8.187818764E+00  7.734693716E+01  7.899806060E+01  9.536743164E-07  0.00000E+00  9.000E+00
#rwgt            1           9   4.1538191789783504E-004           7      893297           0
</event>
<event>
      6   9999  3.45752E-01  2.72639E+00 -1.00000E+00  2.88245E-01
      21    -1     0     0   501   502  0.000000000E+00  0.000000000E+00  1.527636549E+01  1.527636549E+01  0.000000000E+00  0.00000E+00  9.000E+00
      21    -1     0     0   502   512  0.000000000E+00  0.000000000E+00 -1.017864594E+03  1.017864594E+03  0.000000000E+00  0.00000E+00  9.000E+00
      25     1     1     2     0     0  6.600104542E+00  1.702705744E+01 -4.108734393E+02  4.298535070E+02  1.249942890E+02  0.00000E+00  9.000E+00
       5     1     1     2   501     0 -2.491579145E+00  8.956481412E-01  4.295363941E+00  6.929848744E+00  4.750000000E+00  0.00000E+00  9.000E+00
      -5     1     1     2     0   503 -5.898810709E+00 -1.586647141E+01 -5.012513697E+02  5.015596066E+02  4.750000000E+00  0.00000E+00  9.000E+00
      21     1     1     2   503   512  1.790285312E+00 -2.056234171E+00 -9.475878387E+01  9.479799755E+01  2.336015456E-06  0.00000E+00  9.000E+00
#rwgt            1           9   7.7068562281983380E-004           7      896016           0
</event>
<event>
      6   9999  3.45752E-01  5.36916E+00 -1.00000E+00  2.21006E-01
      21    -1     0     0   511   502  0.000000000E+00  0.000000000E+00  8.570108517E+01  8.570108517E+01  0.000000000E+00  0.00000E+00  9.000E+00
      21    -1     0     0   502   503  0.000000000E+00  0.000000000E+00 -4.846415638E+02  4.846415638E+02  0.000000000E+00  0.00000E+00  9.000E+00
      25     1     1     2     0     0 -1.011441501E+01 -5.631967110E-01 -4.310234040E+02  4.488964987E+02  1.249970927E+02  0.00000E+00  9.000E+00
       5     1     1     2   501     0  4.159798741E+00 -6.395662446E-01  5.187271979E+01  5.225949224E+01  4.750000000E+00  0.00000E+00  9.000E+00
      -5     1     1     2     0   503  7.579073740E+00  6.320288457E+00 -4.350954599E+01  4.486681956E+01  4.750000000E+00  0.00000E+00  9.000E+00
      21     1     1     2   511   501 -1.624457467E+00 -5.117525502E+00  2.371975155E+01  2.431983847E+01  3.371747881E-07  0.00000E+00  9.000E+00
#rwgt            1           9   5.5083599624463873E-003           7      903349           0
</event>
<event>
      6   9999 -3.45752E-01  1.68324E+01 -1.00000E+00  1.66145E-01
      21    -1     0     0   501   502  0.000000000E+00  0.000000000E+00  3.718725162E+01  3.718725162E+01  0.000000000E+00  0.00000E+00  9.000E+00
      21    -1     0     0   502   512  0.000000000E+00  0.000000000E+00 -2.045662666E+03  2.045662666E+03  0.000000000E+00  0.00000E+00  9.000E+00
      25     1     1     2     0     0  6.630623253E+01 -4.269839839E+00 -1.807731596E+03  1.813265615E+03  1.249956757E+02  0.00000E+00  9.000E+00
       5     1     1     2   501     0  1.050057192E+01  1.158287916E+01  2.461609376E+01  2.954555249E+01  4.750000000E+00  0.00000E+00  9.000E+00
      -5     1     1     2     0   503 -6.095227152E+01 -1.659446270E+00 -1.361662982E+02  1.492707487E+02  4.750000000E+00  0.00000E+00  9.000E+00
      21     1     1     2   503   512 -1.585453293E+01 -5.653593054E+00 -8.919361397E+01  9.076800153E+01  1.651812370E-06  0.00000E+00  9.000E+00
#rwgt            1           9  -5.3643954365069288E-002           7      908480           0
</event>
<event>
      6   9999  3.45752E-01  6.59160E+00 -1.00000E+00  2.08523E-01
      21    -1     0     0   501   502  0.000000000E+00  0.000000000E+00  6.413829473E+01  6.413829473E+01  0.000000000E+00  0.00000E+00  9.000E+00
      21    -1     0     0   511   503  0.000000000E+00  0.000000000E+00 -4.652458525E+02  4.652458525E+02  0.000000000E+00  0.00000E+00  9.000E+00
      25     1     1     2     0     0  7.783919978E-01  3.446501794E+01 -3.053022027E+02  3.316977589E+02  1.250020997E+02  0.00000E+00  9.000E+00
       5     1     1     2   501     0 -1.768829480E-01  7.751093159E+00  4.689748850E+01  4.777078249E+01  4.750000000E+00  0.00000E+00  9.000E+00
      -5     1     1     2     0   503  4.184048993E+00 -3.768316921E+01 -1.072123760E+02  1.138182040E+02  4.750000000E+00  0.00000E+00  9.000E+00
      21     1     1     2   511   502 -4.785558043E+00 -4.532941885E+00 -3.549046751E+01  3.609740174E+01  6.743495762E-07  0.00000E+00  9.000E+00
#rwgt            1           9   2.4553882565414140                7      912036           0
</event>
<event>
      6   9999  3.45752E-01  6.44641E+00 -1.00000E+00  2.09807E-01
       1    -1     0     0   501     0  0.000000000E+00  0.000000000E+00  1.440646200E+03  1.440646200E+03  0.000000000E+00  0.00000E+00  9.000E+00
      21    -1     0     0   502   503  0.000000000E+00  0.000000000E+00 -1.178744479E+02  1.178744479E+02  0.000000000E+00  0.00000E+00  9.000E+00
      25     1     1     2     0     0 -3.577465345E+00 -1.230672372E+00 -7.658395200E+01  1.466411603E+02  1.249968615E+02  0.00000E+00  9.000E+00
       5     1     1     2   501     0 -2.010525569E+00 -1.855235061E+00  2.133489688E+01  2.202781049E+01  4.750000000E+00  0.00000E+00  9.000E+00
      -5     1     1     2     0   503  3.143923895E-01 -6.215636519E-01 -4.932635669E+00  6.883209904E+00  4.750000000E+00  0.00000E+00  9.000E+00
       1     1     1     2   502     0  5.273598525E+00  3.707471085E+00  1.382953443E+03  1.382968467E+03  1.525878906E-05  0.00000E+00  9.000E+00
#rwgt            1           9   4.9842937326846325E-002           7      916326           0
</event>
<event>
      6   9999  3.45752E-01  3.80382E+00 -1.00000E+00  2.52459E-01
      21    -1     0     0   501   502  0.000000000E+00  0.000000000E+00  3.697785301E+01  3.697785301E+01  0.000000000E+00  0.00000E+00  9.000E+00
      21    -1     0     0   502   511  0.000000000E+00  0.000000000E+00 -1.383036977E+03  1.383036977E+03  0.000000000E+00  0.00000E+00  9.000E+00
      25     1     1     2     0     0 -5.864660565E+00 -3.599618068E+00 -1.089916395E+03  1.097082572E+03  1.250002793E+02  0.00000E+00  9.000E+00
       5     1     1     2   501     0  3.053375587E+00  4.102825085E+00  3.267596863E+01  3.341313667E+01  4.750000000E+00  0.00000E+00  9.000E+00
      -5     1     1     2     0   503  9.134600947E-02 -3.162339429E+00 -2.385762316E+01  2.453074433E+01  4.750000000E+00  0.00000E+00  9.000E+00
      21     1     1     2   503   511  2.719938969E+00  2.659132412E+00 -2.649610748E+02  2.649883775E+02  0.000000000E+00  0.00000E+00  9.000E+00
#rwgt            1           9   2.2610515742264598E-004           7      919346           0
</event>
<event>
      6   9999  3.45752E-01  1.22011E+01 -1.00000E+00  1.78530E-01
       2    -1     0     0   501     0  0.000000000E+00  0.000000000E+00  2.379545456E+03  2.379545456E+03  0.000000000E+00  0.00000E+00  9.000E+00
      21    -1     0     0   502   503  0.000000000E+00  0.000000000E+00 -6.715139127E+00  6.715139127E+00  0.000000000E+00  0.00000E+00  9.000E+00
      25     1     1     2     0     0  9.171473902E+00  4.012689092E+01  1.240279387E+03  1.247241575E+03  1.249972284E+02  0.00000E+00  9.000E+00
       5     1     1     2   501     0  1.404254449E-01 -1.752707189E-01  1.366949955E+02  1.367776836E+02  4.750000000E+00  0.00000E+00  9.000E+00
      -5     1     1     2     0   503  2.747235925E+00 -4.180743590E+01  1.379899969E+02  1.442886369E+02  4.750000000E+00  0.00000E+00  9.000E+00
       2     1     1     2   502     0 -1.205913527E+01  1.855815694E+00  8.578659381E+02  8.579526995E+02  1.525878906E-05  0.00000E+00  9.000E+00
#rwgt            1           9   3.1438536200703950E-004           7      926577           0
</event>
<event>
      6   9999  3.45752E-01  2.06704E+01 -1.00000E+00  1.59125E-01
      21    -1     0     0   501   502  0.000000000E+00  0.000000000E+00  8.426681425E+01  8.426681425E+01  0.000000000E+00  0.00000E+00  9.000E+00
      21    -1     0     0   502   511  0.000000000E+00  0.000000000E+00 -2.563944936E+02  2.563944936E+02  0.000000000E+00  0.00000E+00  9.000E+00
      25     1     1     2     0     0 -1.778682321E+01 -3.708754888E+00 -1.804845649E+00  1.263233337E+02  1.249968049E+02  0.00000E+00  9.000E+00
       5     1     1     2   501     0 -1.443184215E+00 -9.623747396E-01  1.857108016E+01  1.924724563E+01  4.750000000E+00  0.00000E+00  9.000E+00
      -5     1     1     2     0   503 -4.013193781E-01 -1.800158036E+00 -2.651628641E-02  5.095569577E+00  4.750000000E+00  0.00000E+00  9.000E+00
      21     1     1     2   503   511  1.963132680E+01  6.471287664E+00 -1.888673976E+02  1.899951590E+02  0.000000000E+00  0.00000E+00  9.000E+00
#rwgt            1           9   3.2010089172682983E-004           7      929592           0
</event>
<event>
      6   9999  3.45752E-01  3.34378E+00 -1.00000E+00  2.65142E-01
      21    -1     0     0   512   503  0.000000000E+00  0.000000000E+00  4.651382079E+01  4.651382079E+01  0.000000000E+00  0.00000E+00  9.000E+00
      21    -1     0     0   501   502  0.000000000E+00  0.000000000E+00 -7.089848585E+02  7.089848585E+02  0.000000000E+00  0.00000E+00  9.000E+00
      25     1     1     2     0     0 -8.449464113E+00  7.164384010E+00 -5.990970542E+02  6.120990060E+02  1.250007634E+02  0.00000E+00  9.000E+00
       5     1     1     2   501     0  7.602185312E+00 -3.112748626E+00 -8.998496036E+01  9.048391026E+01  4.750000000E+00  0.00000E+00  9.000E+00
      -5     1     1     2     0   503 -8.177638998E-01 -1.151890564E+00 -1.261191973E+01  1.355059442E+01  4.750000000E+00  0.00000E+00  9.000E+00
      21     1     1     2   512   502  1.665042701E+00 -2.899744820E+00  3.922289660E+01  3.936516867E+01  2.236564522E-06  0.00000E+00  9.000E+00
#rwgt            1           9   2.5220854376742552E-003           7      930867           0
</event>
<event>
      6   9999  3.45752E-01  1.54351E+01 -1.00000E+00  1.69302E-01
      21    -1     0     0   501   502  0.000000000E+00  0.000000000E+00  8.098222299E+01  8.098222299E+01  0.000000000E+00  0.00000E+00  9.000E+00
      21    -1     0     0   511   503  0.000000000E+00  0.000000000E+00 -2.618182185E+02  2.618182185E+02  0.000000000E+00  0.00000E+00  9.000E+00
      25     1     1     2     0     0  3.231300898E+01  2.735968494E+01 -8.464962065E+01  1.567881050E+02  1.249970746E+02  0.00000E+00  9.000E+00
       5     1     1     2   501     0 -1.689840094E+00 -1.993842391E+00  3.754351223E+01  3.793295108E+01  4.750000000E+00  0.00000E+00  9.000E+00
      -5     1     1     2     0   503 -2.495659527E+01 -3.972312004E+01 -1.110460542E+02  1.206422255E+02  4.750000000E+00  0.00000E+00  9.000E+00
      21     1     1     2   511   502 -5.666573621E+00  1.435727748E+01 -2.268383290E+01  2.743715999E+01  3.371747881E-07  0.00000E+00  9.000E+00
#rwgt            1           9   1.6050780947771506E-004           7      935369           0
</event>
<event>
      6   9999  3.45752E-01  1.12257E+01 -1.00000E+00  1.82055E-01
      21    -1     0     0   501   502  0.000000000E+00  0.000000000E+00  2.909850562E+01  2.909850562E+01  0.000000000E+00  0.00000E+00  9.000E+00
      21    -1     0     0   502   512  0.000000000E+00  0.000000000E+00 -1.652006016E+03  1.652006016E+03  0.000000000E+00  0.00000E+00  9.000E+00
      25     1     1     2     0     0  1.698351782E+00 -4.607367858E+00 -9.811217182E+02  9.890646990E+02  1.250001622E+02  0.00000E+00  9.000E+00
       5     1     1     2   501     0 -1.503254561E-01 -2.787559715E-01  2.440299099E+01  2.486300005E+01  4.750000000E+00  0.00000E+00  9.000E+00
      -5     1     1     2     0   503  4.087864154E+00 -4.822297661E+00 -3.475253338E+01  3.564079495E+01  4.750000000E+00  0.00000E+00  9.000E+00
      21     1     1     2   503   512 -5.635890480E+00  9.708421490E+00 -6.314362495E+02  6.315360274E+02  1.525878906E-05  0.00000E+00  9.000E+00
#rwgt            1           9   7.7472135677676725E-003           7      937545           0
</event>
<event>
      6   9999  3.45752E-01  5.47957E+01 -1.00000E+00  1.32693E-01
      21    -1     0     0   502   511  0.000000000E+00  0.000000000E+00  4.584425056E+01  4.584425056E+01  0.000000000E+00  0.00000E+00  9.000E+00
      21    -1     0     0   501   502  0.000000000E+00  0.000000000E+00 -8.343780780E+02  8.343780780E+02  0.000000000E+00  0.00000E+00  9.000E+00
      25     1     1     2     0     0 -1.432290792E+02 -5.342063982E+01 -4.862707989E+02  5.248360290E+02  1.250009342E+02  0.00000E+00  9.000E+00
       5     1     1     2   501     0 -2.253227817E+00  3.169879330E+00 -5.193282192E+01  5.229441331E+01  4.750000000E+00  0.00000E+00  9.000E+00
      -5     1     1     2     0   503  9.139551797E+01  5.903622779E+01 -2.043531158E+02  2.315624653E+02  4.750000000E+00  0.00000E+00  9.000E+00
      21     1     1     2   503   511  5.408678906E+01 -8.785467299E+00 -4.597709080E+01  7.152942098E+01  1.168007728E-06  0.00000E+00  9.000E+00
#rwgt            1           9   6746.4042681407209                7      940712           0
</event>
<event>
      6   9999 -3.45752E-01  3.66548E+00 -1.00000E+00  2.55971E-01
      21    -1     0     0   501   502  0.000000000E+00  0.000000000E+00  2.027223180E+01  2.027223180E+01  0.000000000E+00  0.00000E+00  9.000E+00
      21    -1     0     0   512   503  0.000000000E+00  0.000000000E+00 -1.008911802E+03  1.008911802E+03  0.000000000E+00  0.00000E+00  9.000E+00
      25     1     1     2     0     0  6.005225132E+01 -4.120463662E+01 -8.127864715E+02  8.255607457E+02  1.249984066E+02  0.00000E+00  9.000E+00
       5     1     1     2   501     0  9.896538334E-01  1.623966400E+00  4.806517684E+00  7.020099275E+00  4.750000000E+00  0.00000E+00  9.000E+00
      -5     1     1     2     0   503 -6.241529923E+01  3.618220588E+01 -1.594107158E+02  1.750404537E+02  4.750000000E+00  0.00000E+00  9.000E+00
      21     1     1     2   512   502  1.373394074E+00  3.398464347E+00 -2.124890017E+01  2.156273474E+01  2.384185791E-07  0.00000E+00  9.000E+00
#rwgt            1           9  -1.9615741360042918E-003           7      941752           0
</event>
<event>
      6   9999 -3.45752E-01  1.03105E+01 -1.00000E+00  1.85806E-01
      21    -1     0     0   502   503  0.000000000E+00  0.000000000E+00  1.110979724E+01  1.110979724E+01  0.000000000E+00  0.00000E+00  9.000E+00
      21    -1     0     0   501   511  0.000000000E+00  0.000000000E+00 -9.013404029E+02  9.013404029E+02  0.000000000E+00  0.00000E+00  9.000E+00
      25     1     1     2     0     0 -5.340390745E+00 -9.322414704E+00 -7.836866901E+02  7.936596948E+02  1.249618172E+02  0.00000E+00  9.000E+00
       5     1     1     2   501     0 -2.252462614E-01 -1.690264490E-01 -1.367892061E+01  1.448290975E+01  4.750000000E+00  0.00000E+00  9.000E+00
      -5     1     1     2     0   503 -4.483646407E-01  1.116591663E+00  4.347019359E+00  6.550334732E+00  4.750000000E+00  0.00000E+00  9.000E+00
      21     1     1     2   502   511  6.014001647E+00  8.374849490E+00 -9.721201432E+01  9.775726084E+01  0.000000000E+00  0.00000E+00  9.000E+00
#rwgt            1           9  -2.1432167052159848E-002           7      947565           0
</event>
<event>
      6   9999  3.45752E-01  4.12327E+01 -1.00000E+00  1.39426E-01
      21    -1     0     0   502   503  0.000000000E+00  0.000000000E+00  5.722448373E+00  5.722448373E+00  0.000000000E+00  0.00000E+00  9.000E+00
      21    -1     0     0   512   502  0.000000000E+00  0.000000000E+00 -2.216978836E+03  2.216978836E+03  0.000000000E+00  0.00000E+00  9.000E+00
      25     1     1     2     0     0  3.638656953E+01  8.334876194E+00 -1.620503638E+03  1.625746762E+03  1.250081678E+02  0.00000E+00  9.000E+00
       5     1     1     2   501     0  3.080781904E+00  1.041864504E+00 -1.011209070E+01  1.163587457E+01  4.750000000E+00  0.00000E+00  9.000E+00
      -5     1     1     2     0   503  4.455126372E-01  9.719631858E-01 -2.086559467E+00  5.297114720E+00  4.750000000E+00  0.00000E+00  9.000E+00
      21     1     1     2   512   501 -3.991286407E+01 -1.034870388E+01 -5.785540994E+02  5.800215326E+02  1.321449896E-05  0.00000E+00  9.000E+00
#rwgt            1           9   2.6117467132972839E-002           7      950603           0
</event>
<event>
      6   9999  3.45752E-01  7.02838E+00 -1.00000E+00  2.04915E-01
      21    -1     0     0   511   502  0.000000000E+00  0.000000000E+00  1.170449149E+01  1.170449149E+01  0.000000000E+00  0.00000E+00  9.000E+00
      21    -1     0     0   502   503  0.000000000E+00  0.000000000E+00 -7.261470990E+02  7.261470990E+02  0.000000000E+00  0.00000E+00  9.000E+00
      25     1     1     2     0     0  5.005949356E+00  1.122815837E+01 -4.710490004E+02  4.875075949E+02  1.250014530E+02  0.00000E+00  9.000E+00
       5     1     1     2   501     0  9.192448339E-01  1.274429321E+00 -9.766627185E-01  5.097602498E+00  4.750000000E+00  0.00000E+00  9.000E+00
      -5     1     1     2     0   503 -2.080705606E+00 -6.618878654E+00 -2.345360336E+02  2.346867113E+02  4.750000000E+00  0.00000E+00  9.000E+00
      21     1     1     2   511   501 -3.844488584E+00 -5.883709039E+00 -7.880910716E+00  1.055968173E+01  0.000000000E+00  0.00000E+00  9.000E+00
#rwgt            1           9   3.2314760615702741E-003           7      951389           0
</event>
<event>
      6   9999  3.45752E-01  2.54152E+01 -1.00000E+00  1.52653E-01
      21    -1     0     0   512   503  0.000000000E+00  0.000000000E+00  8.221306321E+00  8.221306321E+00  0.000000000E+00  0.00000E+00  9.000E+00
      21    -1     0     0   501   502  0.000000000E+00  0.000000000E+00 -9.414973656E+02  9.414973656E+02  0.000000000E+00  0.00000E+00  9.000E+00
      25     1     1     2     0     0 -2.151337487E+01 -9.414640190E-01 -6.298027829E+02  6.424490005E+02  1.250018452E+02  0.00000E+00  9.000E+00
       5     1     1     2   501     0  4.222507341E+00  1.413123543E+01 -1.337781164E+02  1.346724482E+02  4.750000000E+00  0.00000E+00  9.000E+00
      -5     1     1     2     0   503 -3.556848879E+00  1.346524071E+00 -3.510116632E+01  3.562469197E+01  4.750000000E+00  0.00000E+00  9.000E+00
      21     1     1     2   512   502  2.084771641E+01 -1.453629549E+01 -1.345939937E+02  1.369725312E+02  3.303624740E-06  0.00000E+00  9.000E+00
#rwgt            1           9   1.0820907609824376E-002           7      954880           0
</event>
<event>
      6   9999  3.45752E-01  7.17844E+00 -1.00000E+00  2.03755E-01
      21    -1     0     0   501   511  0.000000000E+00  0.000000000E+00  8.883527043E+00  8.883527043E+00  0.000000000E+00  0.00000E+00  9.000E+00
      21    -1     0     0   502   503  0.000000000E+00  0.000000000E+00 -7.923961685E+02  7.923961685E+02  0.000000000E+00  0.00000E+00  9.000E+00
      25     1     1     2     0     0 -7.752032363E+00  2.542400547E+00 -7.366984199E+02  7.472715032E+02  1.249943193E+02  0.00000E+00  9.000E+00
       5     1     1     2   501     0 -1.664175162E-01  4.739567844E-02 -1.108306864E+01  1.205930560E+01  4.750000000E+00  0.00000E+00  9.000E+00
      -5     1     1     2     0   503  8.775297969E-01 -1.191425036E+00 -3.426240093E+01  3.462172973E+01  4.750000000E+00  0.00000E+00  9.000E+00
      21     1     1     2   502   511  7.040920082E+00 -1.398371189E+00 -1.468752039E+00  7.327157030E+00  4.369878262E-07  0.00000E+00  9.000E+00
#rwgt            1           9   2.9023279859180843E-004           7      955908           0
</event>
<event>
      6   9999  3.45752E-01  1.38035E+01 -1.00000E+00  1.73561E-01
      21    -1     0     0   512   503  0.000000000E+00  0.000000000E+00  3.808568483E+02  3.808568483E+02  0.000000000E+00  0.00000E+00  9.000E+00
      21    -1     0     0   501   502  0.000000000E+00  0.000000000E+00 -4.213306299E+01  4.213306299E+01  0.000000000E+00  0.00000E+00  9.000E+00
      25     1     1     2     0     0 -1.737514811E+01 -2.280589404E+01  1.289100310E+02  1.818377597E+02  1.250006807E+02  0.00000E+00  9.000E+00
       5     1     1     2   501     0 -4.155873583E-01 -3.241468304E-01 -2.934575441E+00  5.608209789E+00  4.750000000E+00  0.00000E+00  9.000E+00
      -5     1     1     2     0   503  4.208952253E+00  2.066594768E+01 -7.193327943E-01  2.163045567E+01  4.750000000E+00  0.00000E+00  9.000E+00
      21     1     1     2   512   502  1.358178322E+01  2.464093186E+00  2.134676626E+02  2.139134862E+02  2.697398305E-06  0.00000E+00  9.000E+00
#rwgt            1           9  0.15491681857456527                7      958689           0
</event>
<event>
      6   9999  3.45752E-01  5.91355E+00 -1.00000E+00  2.14940E-01
      21    -1     0     0   501   502  0.000000000E+00  0.000000000E+00  5.211565623E+02  5.211565623E+02  0.000000000E+00  0.00000E+00  9.000E+00
      -2    -1     0     0     0   503  0.000000000E+00  0.000000000E+00 -2.312430080E+02  2.312430080E+02  0.000000000E+00  0.00000E+00  9.000E+00
      25     1     1     2     0     0  9.534078126E+00  2.835539441E+01  3.391125019E+02  3.626529029E+02  1.249996481E+02  0.00000E+00  9.000E+00
       5     1     1     2   501     0 -2.451142079E+00  4.734183666E-01  1.501842330E+02  1.502800671E+02  4.750000000E+00  0.00000E+00  9.000E+00
      -5     1     1     2     0   503 -1.294420878E+01 -2.804420874E+01  7.791817928E+00  3.220722142E+01  4.750000000E+00  0.00000E+00  9.000E+00
      -2     1     1     2     0   502  5.861272735E+00 -7.846040395E-01 -2.071749985E+02  2.072593788E+02  4.672030912E-06  0.00000E+00  9.000E+00
#rwgt            1           9   1.7900061037521946E-002           7      960455           0
</event>
<event>
      6   9999 -3.45752E-01  7.99018E+00 -1.00000E+00  1.98078E-01
      21    -1     0     0   511   502  0.000000000E+00  0.000000000E+00  2.011976667E+02  2.011976667E+02  0.000000000E+00  0.00000E+00  9.000E+00
      21    -1     0     0   502   503  0.000000000E+00  0.000000000E+00 -1.640221570E+02  1.640221570E+02  0.000000000E+00  0.00000E+00  9.000E+00
      25     1     1     2     0     0 -8.567685808E+00 -1.049622475E+01 -1.341817546E+02  1.839005709E+02  1.250244005E+02  0.00000E+00  9.000E+00
       5     1     1     2   501     0 -3.616405836E-01  3.503857759E-01  3.774792270E+01  3.804893852E+01  4.750000000E+00  0.00000E+00  9.000E+00
      -5     1     1     2     0   503  9.475662848E-01  1.051263420E+01  2.403876089E+00  1.182177990E+01  4.750000000E+00  0.00000E+00  9.000E+00
      21     1     1     2   511   501  7.981760106E+00 -3.667952297E-01  1.312054655E+02  1.314485344E+02  1.907348633E-06  0.00000E+00  9.000E+00
#rwgt            1           9  -4.0526103145293065E-005           7      963879           0
</event>
<event>
      6   9999  3.45752E-01  1.01519E+01 -1.00000E+00  1.86507E-01
      21    -1     0     0   502   503  0.000000000E+00  0.000000000E+00  3.475816383E+01  3.475816383E+01  0.000000000E+00  0.00000E+00  9.000E+00
      21    -1     0     0   501   512  0.000000000E+00  0.000000000E+00 -4.249803817E+02  4.249803817E+02  0.000000000E+00  0.00000E+00  9.000E+00
      25     1     1     2     0     0 -5.484227070E+01 -4.206786917E+01 -3.093213016E+02  3.407103873E+02  1.250060804E+02  0.00000E+00  9.000E+00
       5     1     1     2   501     0  3.776273581E+01  2.343157577E+01 -5.755442191E+01  7.287068643E+01  4.750000000E+00  0.00000E+00  9.000E+00
      -5     1     1     2     0   503  1.953506979E+01  8.785843362E+00 -1.409627401E+00  2.198543938E+01  4.750000000E+00  0.00000E+00  9.000E+00
      21     1     1     2   502   512 -2.455534902E+00  9.850450038E+00 -2.193686695E+01  2.417203238E+01  4.768371582E-07  0.00000E+00  9.000E+00
#rwgt            1           9  0.18692904797648310                7      966935           0
</event>
<event>
      6   9999 -3.45752E-01  1.87832E+01 -1.00000E+00  1.62319E-01
      21    -1     0     0   511   503  0.000000000E+00  0.000000000E+00  2.418746323E+01  2.418746323E+01  0.000000000E+00  0.00000E+00  9.000E+00
      21    -1     0     0   501   502  0.000000000E+00  0.000000000E+00 -1.087876388E+03  1.087876388E+03  0.000000000E+00  0.00000E+00  9.000E+00
      25     1     1     2     0     0 -1.353880200E+01 -6.921808353E+00 -1.036850149E+03  1.044469573E+03  1.250089852E+02  0.00000E+00  9.000E+00
       5     1     1     2   501     0 -1.334296289E+00  1.223696906E+00  5.102662339E+00  7.202599784E+00  4.750000000E+00  0.00000E+00  9.000E+00
      -5     1     1     2     0   503 -3.441473254E+00  1.528580029E+00  1.153531353E+01  1.303097284E+01  4.750000000E+00  0.00000E+00  9.000E+00
      21     1     1     2   511   502  1.831457154E+01  4.169531419E+00 -4.347675166E+01  4.736070585E+01  1.066240300E-06  0.00000E+00  9.000E+00
#rwgt            1           9  -1.5616619724392541E-004           7      969462           0
</event>
<event>
      6   9999 -3.45752E-01  1.89206E+01 -1.00000E+00  1.62072E-01
      21    -1     0     0   501   502  0.000000000E+00  0.000000000E+00  3.830748635E+01  3.830748635E+01  0.000000000E+00  0.00000E+00  9.000E+00
      21    -1     0     0   512   503  0.000000000E+00  0.000000000E+00 -2.411109952E+02  2.411109952E+02  0.000000000E+00  0.00000E+00  9.000E+00
      25     1     1     2     0     0  3.241545986E+01  1.935744631E+01 -1.413152087E+02  1.924038136E+02  1.249950660E+02  0.00000E+00  9.000E+00
       5     1     1     2   501     0  1.761460985E+00  9.653606694E-01  4.657020495E+00  6.948741318E+00  4.750000000E+00  0.00000E+00  9.000E+00
      -5     1     1     2     0   503 -2.079723530E+01 -6.944709396E+00 -1.948353478E+01  2.971404739E+01  4.750000000E+00  0.00000E+00  9.000E+00
      21     1     1     2   512   502 -1.337968555E+01 -1.337809758E+01 -4.666178581E+01  5.035187917E+01  9.536743164E-07  0.00000E+00  9.000E+00
#rwgt            1           9  -3.6135702406523307E-002           7      972075           0
</event>
<event>
      6   9999  3.45752E-01  2.76131E+01 -1.00000E+00  1.50205E-01
      21    -1     0     0   501   502  0.000000000E+00  0.000000000E+00  4.877694468E+01  4.877694468E+01  0.000000000E+00  0.00000E+00  9.000E+00
      21    -1     0     0   502   511  0.000000000E+00  0.000000000E+00 -1.836034499E+03  1.836034499E+03  0.000000000E+00  0.00000E+00  9.000E+00
      25     1     1     2     0     0  7.805860041E-02  1.594374870E+01 -4.895240527E+02  5.054761174E+02  1.249723884E+02  0.00000E+00  9.000E+00
       5     1     1     2   501     0  3.326588966E+00 -1.069842789E+01  3.928476796E+01  4.112636681E+01  4.750000000E+00  0.00000E+00  9.000E+00
      -5     1     1     2     0   503  2.290938052E+01 -1.361506996E+01 -8.278832602E+02  8.283256998E+02  4.750000000E+00  0.00000E+00  9.000E+00
      21     1     1     2   503   511 -2.631402808E+01  8.369749142E+00 -5.091350095E+02  5.098832598E+02  5.394796609E-06  0.00000E+00  9.000E+00
#rwgt            1           9   1.8812547740491149E-003           7      973532           0
</event>
<event>
      6   9999  3.45752E-01  1.18711E+01 -1.00000E+00  1.79674E-01
      21    -1     0     0   502   512  0.000000000E+00  0.000000000E+00  2.902150245E+01  2.902150245E+01  0.000000000E+00  0.00000E+00  9.000E+00
      21    -1     0     0   501   502  0.000000000E+00  0.000000000E+00 -7.862453937E+02  7.862453937E+02  0.000000000E+00  0.00000E+00  9.000E+00
      25     1     1     2     0     0  2.480251977E+01  4.720195742E-01 -7.377136938E+02  7.486389671E+02  1.249936845E+02  0.00000E+00  9.000E+00
       5     1     1     2   501     0 -3.779701657E+00  5.396678336E-02 -1.822250284E+01  1.920706033E+01  4.750000000E+00  0.00000E+00  9.000E+00
      -5     1     1     2     0   503 -1.496244574E+01 -1.073358240E+01 -1.848737252E+01  2.652225511E+01  4.750000000E+00  0.00000E+00  9.000E+00
      21     1     1     2   503   512 -6.060372379E+00  1.020759604E+01  1.719967794E+01  2.089861362E+01  1.261592536E-06  0.00000E+00  9.000E+00
#rwgt            1           9   71.155150156710590                7      975359           0
</event>
<event>
      6   9999  3.45752E-01  5.82173E+00 -1.00000E+00  2.15899E-01
      21    -1     0     0   501   502  0.000000000E+00  0.000000000E+00  2.097856618E+01  2.097856618E+01  0.000000000E+00  0.00000E+00  9.000E+00
      21    -1     0     0   502   511  0.000000000E+00  0.000000000E+00 -1.079320700E+03  1.079320700E+03  0.000000000E+00  0.00000E+00  9.000E+00
      25     1     1     2     0     0  3.665881990E+01 -2.765047954E-01 -5.965255192E+02  6.105816191E+02  1.249930915E+02  0.00000E+00  9.000E+00
       5     1     1     2   501     0 -3.655318161E+00 -2.160425104E+00  1.250184724E+01  1.403165962E+01  4.750000000E+00  0.00000E+00  9.000E+00
      -5     1     1     2     0   503 -2.975048600E+01 -2.391156373E+00 -3.974708606E+02  3.986181839E+02  4.750000000E+00  0.00000E+00  9.000E+00
      21     1     1     2   503   511 -3.253015741E+00  4.828086272E+00 -7.684760121E+01  7.706780353E+01  1.651812370E-06  0.00000E+00  9.000E+00
#rwgt            1           9   7.7459263119154364E-004           7      978007           0
</event>
<event>
      6   9999  3.45752E-01  1.05654E+01 -1.00000E+00  1.84712E-01
      21    -1     0     0   501   502  0.000000000E+00  0.000000000E+00  9.833746946E+01  9.833746946E+01  0.000000000E+00  0.00000E+00  9.000E+00
       2    -1     0     0   502     0  0.000000000E+00  0.000000000E+00 -2.585820403E+03  2.585820403E+03  0.000000000E+00  0.00000E+00  9.000E+00
      25     1     1     2     0     0 -1.549715115E+02  1.737386516E+02 -1.196772014E+03  1.225597499E+03  1.249987524E+02  0.00000E+00  9.000E+00
       5     1     1     2   501     0 -4.328815413E-01 -2.873781213E+00  4.723621656E+01  4.756331212E+01  4.750000000E+00  0.00000E+00  9.000E+00
      -5     1     1     2     0   503  1.640748800E+02 -1.648274730E+02 -3.341564861E+02  4.071508096E+02  4.750000000E+00  0.00000E+00  9.000E+00
       2     1     1     2   503     0 -8.670486914E+00 -6.037397381E+00 -1.003790650E+03  1.003846252E+03  1.078959322E-05  0.00000E+00  9.000E+00
#rwgt            1           9   3.5817898233946028E-004           7      982522           0
</event>
<event>
      6   9999  3.45752E-01  1.42899E+01 -1.00000E+00  1.72217E-01
      21    -1     0     0   511   502  0.000000000E+00  0.000000000E+00  2.704525224E+01  2.704525224E+01  0.000000000E+00  0.00000E+00  9.000E+00
      21    -1     0     0   502   503  0.000000000E+00  0.000000000E+00 -1.061812807E+03  1.061812807E+03  0.000000000E+00  0.00000E+00  9.000E+00
      25     1     1     2     0     0 -4.160357013E+00 -1.229650484E+01 -9.813213538E+02  9.893357058E+02  1.250001074E+02  0.00000E+00  9.000E+00
       5     1     1     2   501     0  5.697531075E-01  7.979201781E+00  1.835695410E+01  2.057990630E+01  4.750000000E+00  0.00000E+00  9.000E+00
      -5     1     1     2     0   503 -9.387766752E-01  1.787039596E+01 -4.084714268E+01  4.484734015E+01  4.750000000E+00  0.00000E+00  9.000E+00
      21     1     1     2   511   501  4.529380581E+00 -1.355309290E+01 -3.095601255E+01  3.409510710E+01  8.259061849E-07  0.00000E+00  9.000E+00
#rwgt            1           9   4.7616011406876155E-005           7      986851           0
</event>
<event>
      6   9999  3.45752E-01  2.43857E+01 -1.00000E+00  1.53905E-01
      21    -1     0     0   501   502  0.000000000E+00  0.000000000E+00  3.480218645E+01  3.480218645E+01  0.000000000E+00  0.00000E+00  9.000E+00
      21    -1     0     0   512   503  0.000000000E+00  0.000000000E+00 -4.211111984E+02  4.211111984E+02  0.000000000E+00  0.00000E+00  9.000E+00
      25     1     1     2     0     0  3.977258760E+01  2.895146388E+01 -1.425594362E+02  1.958779654E+02  1.249997540E+02  0.00000E+00  9.000E+00
       5     1     1     2   501     0  3.741673490E-02  2.306093445E+00  3.105156613E+00  6.125680744E+00  4.750000000E+00  0.00000E+00  9.000E+00
      -5     1     1     2     0   503 -3.368167968E+01 -7.654508461E+00 -1.550241736E+02  1.588965196E+02  4.750000000E+00  0.00000E+00  9.000E+00
      21     1     1     2   512   502 -6.128324656E+00 -2.360304886E+01 -9.183055873E+01  9.501321906E+01  1.348699152E-06  0.00000E+00  9.000E+00
#rwgt            1           9   8.5420461795284228E-006           7      989593           0
</event>
<event>
      6   9999  3.45752E-01  8.32262E+00 -1.00000E+00  1.96004E-01
      21    -1     0     0   501   511  0.000000000E+00  0.000000000E+00  1.387543375E+01  1.387543375E+01  0.000000000E+00  0.00000E+00  9.000E+00
      21    -1     0     0   502   503  0.000000000E+00  0.000000000E+00 -8.367024799E+02  8.367024799E+02  0.000000000E+00  0.00000E+00  9.000E+00
      25     1     1     2     0     0  1.279591245E+01  9.754071795E+00 -7.832121500E+02  7.932878087E+02  1.250015927E+02  0.00000E+00  9.000E+00
       5     1     1     2   501     0  2.251321954E+00  3.586798657E+00  4.768987894E+00  7.952315429E+00  4.750000000E+00  0.00000E+00  9.000E+00
      -5     1     1     2     0   503 -7.917576872E+00 -9.047395941E+00 -2.287575813E+01  2.627558195E+01  4.750000000E+00  0.00000E+00  9.000E+00
      21     1     1     2   502   511 -7.129657531E+00 -4.293474511E+00 -2.150812591E+01  2.306220762E+01  2.384185791E-07  0.00000E+00  9.000E+00
#rwgt            1           9   5.3256803185926477E-004           7      991692           0
</event>
<event>
      6   9999  3.45752E-01  2.75409E+01 -1.00000E+00  1.50282E-01
      21    -1     0     0   501   502  0.000000000E+00  0.000000000E+00  1.045066932E+02  1.045066932E+02  0.000000000E+00  0.00000E+00  9.000E+00
      21    -1     0     0   502   512  0.000000000E+00  0.000000000E+00 -2.005757651E+03  2.005757651E+03  0.000000000E+00  0.00000E+00  9.000E+00
      25     1     1     2     0     0 -1.625111191E+02 -8.295383684E+01 -7.817534028E+02  8.124373742E+02  1.249996053E+02  0.00000E+00  9.000E+00
       5     1     1     2   501     0 -3.171825549E+00 -9.228233520E+00  8.065882920E+01  8.138568670E+01  4.750000000E+00  0.00000E+00  9.000E+00
      -5     1     1     2     0   503  1.385244190E+02  8.760900617E+01 -8.833334252E+02  8.984235388E+02  4.750000000E+00  0.00000E+00  9.000E+00
      21     1     1     2   503   512  2.715852569E+01  4.573064185E+00 -3.168229592E+02  3.180177446E+02  3.814697266E-06  0.00000E+00  9.000E+00
#rwgt            1           9   5.2303993788777633E-005           7      994784           0
</event>
<event>
      6   9999  3.45752E-01  5.78584E+00 -1.00000E+00  2.16280E-01
      21    -1     0     0   511   502  0.000000000E+00  0.000000000E+00  3.024027317E+01  3.024027317E+01  0.000000000E+00  0.00000E+00  9.000E+00
      21    -1     0     0   502   503  0.000000000E+00  0.000000000E+00 -9.159987928E+02  9.159987928E+02  0.000000000E+00  0.00000E+00  9.000E+00
      25     1     1     2     0     0  9.609546978E+00 -1.529890438E+01 -8.579622623E+02  8.672090305E+02  1.250034363E+02  0.00000E+00  9.000E+00
       5     1     1     2   501     0 -3.661787733E+00 -3.559159245E+00  9.032925665E+00  1.141194769E+01  4.750000000E+00  0.00000E+00  9.000E+00
      -5     1     1     2     0   503 -6.066689279E+00  1.307344379E+01 -5.052265650E+01  5.275244990E+01  4.750000000E+00  0.00000E+00  9.000E+00
      21     1     1     2   511   501  1.189300332E-01  5.784619836E+00  1.369347356E+01  1.486563787E+01  5.591411304E-07  0.00000E+00  9.000E+00
#rwgt            1           9   3.8091819922733304E-005           7      997971           0
</event>
<event>
      6   9999  3.45752E-01  7.11406E+00 -1.00000E+00  2.04248E-01
      21    -1     0     0   512   502  0.000000000E+00  0.000000000E+00  3.234891051E+01  3.234891051E+01  0.000000000E+00  0.00000E+00  9.000E+00
      21    -1     0     0   502   503  0.000000000E+00  0.000000000E+00 -7.143247478E+02  7.143247478E+02  0.000000000E+00  0.00000E+00  9.000E+00
      25     1     1     2     0     0  6.809716723E+00  3.837293509E+00 -6.254845020E+02  6.379016153E+02  1.250060461E+02  0.00000E+00  9.000E+00
       5     1     1     2   501     0  1.612170943E-01  2.637343232E-01 -1.121684027E+01  1.218505447E+01  4.750000000E+00  0.00000E+00  9.000E+00
      -5     1     1     2     0   503 -4.029805787E-01 -1.367566111E+00 -7.034860890E+01  7.052320118E+01  4.750000000E+00  0.00000E+00  9.000E+00
      21     1     1     2   512   501 -6.567953239E+00 -2.733461721E+00  2.507411388E+01  2.606378732E+01  1.066240300E-06  0.00000E+00  9.000E+00
#rwgt            1           9   2.3274826594917960E-004           7     1002419           0
</event>
<event>
      6   9999  3.45752E-01  1.28640E+01 -1.00000E+00  1.76363E-01
      21    -1     0     0   511   503  0.000000000E+00  0.000000000E+00  1.985385865E+01  1.985385865E+01  0.000000000E+00  0.00000E+00  9.000E+00
      21    -1     0     0   501   502  0.000000000E+00  0.000000000E+00 -1.014990749E+03  1.014990749E+03  0.000000000E+00  0.00000E+00  9.000E+00
      25     1     1     2     0     0  5.916962984E+01  4.140500308E+00 -2.715607964E+02  3.047770098E+02  1.250022829E+02  0.00000E+00  9.000E+00
       5     1     1     2   501     0 -1.616528624E+00 -1.195006602E+01 -3.092866477E+02  3.095580885E+02  4.750000000E+00  0.00000E+00  9.000E+00
      -5     1     1     2     0   503 -5.659432280E+01 -5.018699425E+00 -3.707888207E+02  3.751466604E+02  4.750000000E+00  0.00000E+00  9.000E+00
      21     1     1     2   511   502 -9.587784204E-01  1.282826513E+01 -4.350062586E+01  4.536284926E+01  6.743495762E-07  0.00000E+00  9.000E+00
#rwgt            1           9   3.4582387021238436E-003           7     1005370           0
</event>
<event>
      6   9999  3.45752E-01  1.15570E+01 -1.00000E+00  1.80808E-01
      -3    -1     0     0     0   502  0.000000000E+00  0.000000000E+00  1.161519075E+03  1.161519075E+03  0.000000000E+00  0.00000E+00  9.000E+00
      21    -1     0     0   502   503  0.000000000E+00  0.000000000E+00 -9.806577661E+02  9.806577661E+02  0.000000000E+00  0.00000E+00  9.000E+00
      25     1     1     2     0     0  4.943655966E+00 -1.761053243E+01 -7.723096202E+02  7.825753120E+02  1.250095948E+02  0.00000E+00  9.000E+00
       5     1     1     2   501     0 -8.989601201E+00 -2.167316669E+00  1.197620279E+01  1.585881851E+01  4.750000000E+00  0.00000E+00  9.000E+00
      -5     1     1     2     0   503 -7.054544580E+00  1.656164518E+01 -2.008141623E+02  2.016753455E+02  4.750000000E+00  0.00000E+00  9.000E+00
      -3     1     1     2     0   501  1.110048981E+01  3.216203920E+00  1.142008888E+03  1.142067365E+03  1.525878906E-05  0.00000E+00  9.000E+00
#rwgt            1           9   2.4543145730368784E-005           7     1008785           0
</event>
<event>
      6   9999  3.45752E-01  3.15334E+01 -1.00000E+00  1.46451E-01
      21    -1     0     0   501   511  0.000000000E+00  0.000000000E+00  4.187958220E+01  4.187958220E+01  0.000000000E+00  0.00000E+00  9.000E+00
      21    -1     0     0   502   503  0.000000000E+00  0.000000000E+00 -7.558346980E+02  7.558346980E+02  0.000000000E+00  0.00000E+00  9.000E+00
      25     1     1     2     0     0 -1.921423994E+01  2.170993476E+01 -6.091644426E+02  6.225318714E+02  1.249964175E+02  0.00000E+00  9.000E+00
       5     1     1     2   501     0  4.497982685E-01  9.779753983E+00  1.429325214E+01  1.796400466E+01  4.750000000E+00  0.00000E+00  9.000E+00
      -5     1     1     2     0   503  6.698056352E+00 -2.356253044E+00 -1.248671879E+02  1.251590708E+02  4.750000000E+00  0.00000E+00  9.000E+00
      21     1     1     2   502   511  1.206638532E+01 -2.913343570E+01  5.783262610E+00  3.205933338E+01  4.693274423E-07  0.00000E+00  9.000E+00
#rwgt            1           9   50.884122958589998                7     1011822           0
</event>
<event>
      6   9999  3.45752E-01  1.43437E+01 -1.00000E+00  1.72073E-01
      21    -1     0     0   512   502  0.000000000E+00  0.000000000E+00  3.164998333E+02  3.164998333E+02  0.000000000E+00  0.00000E+00  9.000E+00
      21    -1     0     0   502   503  0.000000000E+00  0.000000000E+00 -1.363338611E+03  1.363338611E+03  0.000000000E+00  0.00000E+00  9.000E+00
      25     1     1     2     0     0 -1.837109409E+01  1.127413362E+01 -1.110369613E+03  1.117591212E+03  1.249993416E+02  0.00000E+00  9.000E+00
       5     1     1     2   501     0 -2.673712294E+00 -1.988693580E+01  5.382281758E+01  5.763763653E+01  4.750000000E+00  0.00000E+00  9.000E+00
      -5     1     1     2     0   503  1.442547392E+01 -4.112185956E+00 -2.470002610E+02  2.475009006E+02  4.750000000E+00  0.00000E+00  9.000E+00
      21     1     1     2   512   501  6.619332461E+00  1.272498814E+01  2.567082789E+02  2.571086956E+02  7.629394531E-06  0.00000E+00  9.000E+00
#rwgt            1           9   7.2924936548841874E-003           7     1013161           0
</event>
<event>
      6   9999  3.45752E-01  8.40191E+00 -1.00000E+00  1.95528E-01
      21    -1     0     0   501   511  0.000000000E+00  0.000000000E+00  2.622233414E+02  2.622233414E+02  0.000000000E+00  0.00000E+00  9.000E+00
      21    -1     0     0   502   503  0.000000000E+00  0.000000000E+00 -9.848366846E+02  9.848366846E+02  0.000000000E+00  0.00000E+00  9.000E+00
      25     1     1     2     0     0 -2.210791452E+01 -4.508406172E+00 -2.702073892E+02  2.985737916E+02  1.250007610E+02  0.00000E+00  9.000E+00
       5     1     1     2   501     0 -2.755543677E-01 -3.679744818E+00  9.346561533E+00  1.111472738E+01  4.750000000E+00  0.00000E+00  9.000E+00
      -5     1     1     2     0   503  2.321813406E+01 -1.721967252E-01 -6.992869931E+02  6.996884825E+02  4.750000000E+00  0.00000E+00  9.000E+00
      21     1     1     2   502   511 -8.346651636E-01  8.360347715E+00  2.375344775E+02  2.376830244E+02  3.814697266E-06  0.00000E+00  9.000E+00
#rwgt            1           9   1.0305512252597442                7     1016845           0
</event>
<event>
      6   9999  3.45752E-01  1.50821E+01 -1.00000E+00  1.70166E-01
      21    -1     0     0   501   502  0.000000000E+00  0.000000000E+00  1.306812923E+01  1.306812923E+01  0.000000000E+00  0.00000E+00  9.000E+00
      21    -1     0     0   502   512  0.000000000E+00  0.000000000E+00 -1.406765651E+03  1.406765651E+03  0.000000000E+00  0.00000E+00  9.000E+00
      25     1     1     2     0     0 -4.474102107E+00 -1.425962939E+01 -9.499812177E+02  9.582860452E+02  1.249979036E+02  0.00000E+00  9.000E+00
       5     1     1     2   501     0 -3.259247086E-01 -1.132036534E+00  7.871353125E+00  9.268680254E+00  4.750000000E+00  0.00000E+00  9.000E+00
      -5     1     1     2     0   503 -1.569468037E+00  1.720538729E+00 -3.313150388E+01  3.355119272E+01  4.750000000E+00  0.00000E+00  9.000E+00
      21     1     1     2   503   512  6.369494852E+00  1.367112720E+01 -4.184561532E+02  4.187278619E+02  0.000000000E+00  0.00000E+00  9.000E+00
#rwgt            1           9   3.0659234545015937E-004           7     1020752           0
</event>
<event>
      6   9999  3.45752E-01  6.82354E+01 -1.00000E+00  1.27938E-01
      21    -1     0     0   501   502  0.000000000E+00  0.000000000E+00  1.354384825E+03  1.354384825E+03  0.000000000E+00  0.00000E+00  9.000E+00
      21    -1     0     0   502   511  0.000000000E+00  0.000000000E+00 -1.108939236E+01  1.108939236E+01  0.000000000E+00  0.00000E+00  9.000E+00
      25     1     1     2     0     0  3.435459547E+01 -4.451269990E+01  9.274399941E+02  9.375132570E+02  1.249981824E+02  0.00000E+00  9.000E+00
       5     1     1     2   501     0  3.103753921E+00 -3.484736642E+00  1.389938911E+02  1.391533001E+02  4.750000000E+00  0.00000E+00  9.000E+00
      -5     1     1     2     0   503  2.977408774E+00 -6.966360399E+00  7.912712714E+01  7.963077225E+01  4.750000000E+00  0.00000E+00  9.000E+00
      21     1     1     2   503   511 -4.043575816E+01  5.496379694E+01  1.977344201E+02  2.091768879E+02  3.814697266E-06  0.00000E+00  9.000E+00
#rwgt            1           9   2.3154100405128591E-003           7     1022750           0
</event>
<event>
      6   9999  3.45752E-01  1.28908E+01 -1.00000E+00  1.76279E-01
      21    -1     0     0   512   502  0.000000000E+00  0.000000000E+00  6.952260113E+01  6.952260113E+01  0.000000000E+00  0.00000E+00  9.000E+00
      21    -1     0     0   502   503  0.000000000E+00  0.000000000E+00 -2.826333381E+02  2.826333381E+02  0.000000000E+00  0.00000E+00  9.000E+00
      25     1     1     2     0     0 -5.907496811E+00  2.069136884E+01 -1.430591478E+02  1.911906520E+02  1.249996575E+02  0.00000E+00  9.000E+00
       5     1     1     2   501     0 -1.673825041E+00  6.022970477E-01  4.120551775E+01  4.151652256E+01  4.750000000E+00  0.00000E+00  9.000E+00
      -5     1     1     2     0   503  1.144436025E+01 -8.995302668E+00 -1.030184165E+02  1.041501104E+02  4.750000000E+00  0.00000E+00  9.000E+00
      21     1     1     2   512   501 -3.863038395E+00 -1.229836322E+01 -8.238690383E+00  1.529865428E+01  2.064765462E-07  0.00000E+00  9.000E+00
#rwgt            1           9   1.3484866797483176E-003           7     1023261           0
</event>
<event>
      6   9999  3.45752E-01  3.18724E+00 -1.00000E+00  2.70211E-01
      21    -1     0     0   501   502  0.000000000E+00  0.000000000E+00  1.546063103E+01  1.546063103E+01  0.000000000E+00  0.00000E+00  9.000E+00
      21    -1     0     0   511   503  0.000000000E+00  0.000000000E+00 -1.424712694E+03  1.424712694E+03  0.000000000E+00  0.00000E+00  9.000E+00
      25     1     1     2     0     0 -1.631341952E+01  5.250617537E+01 -4.244909046E+02  4.459152728E+02  1.249995050E+02  0.00000E+00  9.000E+00
       5     1     1     2   501     0  1.016736784E+00  1.263704245E+00  2.243443547E+00  5.497839672E+00  4.750000000E+00  0.00000E+00  9.000E+00
      -5     1     1     2     0   503  1.211568168E+01 -5.396920252E+01 -9.122368781E+02  9.139245859E+02  4.750000000E+00  0.00000E+00  9.000E+00
      21     1     1     2   511   502  3.181001061E+00  1.993228994E-01 -7.476772390E+01  7.483562678E+01  9.536743164E-07  0.00000E+00  9.000E+00
#rwgt            1           9   2.3790272498616152                7     1025453           0
</event>
<event>
      6   9999  3.45752E-01  1.36675E+01 -1.00000E+00  1.73949E-01
      21    -1     0     0   501   502  0.000000000E+00  0.000000000E+00  1.886324382E+02  1.886324382E+02  0.000000000E+00  0.00000E+00  9.000E+00
      21    -1     0     0   502   512  0.000000000E+00  0.000000000E+00 -5.251231701E+01  5.251231701E+01  0.000000000E+00  0.00000E+00  9.000E+00
      25     1     1     2     0     0 -5.037619994E+00 -1.715204875E+00  6.484823384E+01  1.409214246E+02  1.250009398E+02  0.00000E+00  9.000E+00
       5     1     1     2   501     0 -9.650764179E-02  1.011786803E+00  3.744830485E+01  3.776203202E+01  4.750000000E+00  0.00000E+00  9.000E+00
      -5     1     1     2     0   503  7.300654483E+00  1.419806146E+01  4.292314648E+01  4.604175831E+01  4.750000000E+00  0.00000E+00  9.000E+00
      21     1     1     2   503   512 -2.166526847E+00 -1.349464339E+01 -9.099563950E+00  1.641954027E+01  5.196212463E-07  0.00000E+00  9.000E+00
#rwgt            1           9   1.8506533959686960E-004           7     1031870           0
</event>
<event>
      6   9999  3.45752E-01  7.66384E+00 -1.00000E+00  2.00248E-01
      21    -1     0     0   511   502  0.000000000E+00  0.000000000E+00  1.270339034E+01  1.270339034E+01  0.000000000E+00  0.00000E+00  9.000E+00
      21    -1     0     0   502   503  0.000000000E+00  0.000000000E+00 -7.487685644E+02  7.487685644E+02  0.000000000E+00  0.00000E+00  9.000E+00
      25     1     1     2     0     0 -1.044709630E+01  6.209351015E+00 -6.789253721E+02  6.904430342E+02  1.249968988E+02  0.00000E+00  9.000E+00
       5     1     1     2   501     0  4.580333149E-01  2.684222825E-01 -2.336033278E+00  5.319905686E+00  4.750000000E+00  0.00000E+00  9.000E+00
      -5     1     1     2     0   503  1.594765064E+01 -1.658051353E+00 -5.554668031E+01  5.800924830E+01  4.750000000E+00  0.00000E+00  9.000E+00
      21     1     1     2   511   501 -5.958587654E+00 -4.819721944E+00  7.429116856E-01  7.699766505E+00  1.425379997E-07  0.00000E+00  9.000E+00
#rwgt            1           9   1.6953635846014392E-004           7     1033835           0
</event>
<event>
      6   9999  3.45752E-01  4.02993E+01 -1.00000E+00  1.39998E-01
      21    -1     0     0   501   512  0.000000000E+00  0.000000000E+00  6.140133607E+01  6.140133607E+01  0.000000000E+00  0.00000E+00  9.000E+00
      21    -1     0     0   502   503  0.000000000E+00  0.000000000E+00 -2.312802076E+02  2.312802076E+02  0.000000000E+00  0.00000E+00  9.000E+00
      25     1     1     2     0     0 -9.586154014E+00 -3.123097553E+01 -1.859350199E+02  2.264155003E+02  1.249995159E+02  0.00000E+00  9.000E+00
       5     1     1     2   501     0  5.896051923E+00 -8.541521293E+00  1.283831012E+01  1.717864142E+01  4.750000000E+00  0.00000E+00  9.000E+00
      -5     1     1     2     0   503  2.205883153E+00 -4.994708464E-01 -5.759134526E+00  7.800353973E+00  4.750000000E+00  0.00000E+00  9.000E+00
      21     1     1     2   502   512  1.484218938E+00  4.027196767E+01  8.976972786E+00  4.128704792E+01  2.384185791E-07  0.00000E+00  9.000E+00
#rwgt            1           9   177.40310885245952                7     1036569           0
</event>
<event>
      6   9999 -3.45752E-01  9.08095E+00 -1.00000E+00  1.91715E-01
      21    -1     0     0   502   511  0.000000000E+00  0.000000000E+00  2.206220166E+01  2.206220166E+01  0.000000000E+00  0.00000E+00  9.000E+00
      21    -1     0     0   501   502  0.000000000E+00  0.000000000E+00 -7.991768017E+02  7.991768017E+02  0.000000000E+00  0.00000E+00  9.000E+00
      25     1     1     2     0     0  3.458662985E+00  8.197353639E+00 -4.019449605E+02  4.210280287E+02  1.250027626E+02  0.00000E+00  9.000E+00
       5     1     1     2   501     0 -6.001675984E+00 -1.827568604E+01 -3.744534379E+02  3.749772799E+02  4.750000000E+00  0.00000E+00  9.000E+00
      -5     1     1     2     0   503  1.222948930E+00  1.093838426E+00 -1.064914429E+01  1.177534970E+01  4.750000000E+00  0.00000E+00  9.000E+00
      21     1     1     2   503   511  1.320064069E+00  8.984493978E+00  9.932942688E+00  1.345834506E+01  7.539457465E-07  0.00000E+00  9.000E+00
#rwgt            1           9  -5.8049842520626676E-003           7     1037438           0
</event>
<event>
      6   9999  3.45752E-01  4.53916E+00 -1.00000E+00  2.37006E-01
      21    -1     0     0   502   503  0.000000000E+00  0.000000000E+00  6.796412415E+00  6.796412415E+00  0.000000000E+00  0.00000E+00  9.000E+00
      21    -1     0     0   501   512  0.000000000E+00  0.000000000E+00 -8.379805073E+02  8.379805073E+02  0.000000000E+00  0.00000E+00  9.000E+00
      25     1     1     2     0     0  4.633359942E+00  5.053395229E+00 -6.266767178E+02  6.390575153E+02  1.249951775E+02  0.00000E+00  9.000E+00
       5     1     1     2   501     0 -4.581172344E+00 -9.833397767E-01 -4.088725971E+01  4.142806541E+01  4.750000000E+00  0.00000E+00  9.000E+00
      -5     1     1     2     0   503 -1.179046859E+00  3.270114326E-01 -1.976231398E+01  2.036194101E+01  4.750000000E+00  0.00000E+00  9.000E+00
      21     1     1     2   502   512  1.126859261E+00 -4.397066885E+00 -1.438578035E+02  1.439293981E+02  3.303624740E-06  0.00000E+00  9.000E+00
#rwgt            1           9   5.2886853909763082E-003           7     1040109           0
</event>
<event>
      6   9999  3.45752E-01  3.76647E+00 -1.00000E+00  2.53384E-01
      21    -1     0     0   511   502  0.000000000E+00  0.000000000E+00  7.184679280E+01  7.184679280E+01  0.000000000E+00  0.00000E+00  9.000E+00
      21    -1     0     0   502   503  0.000000000E+00  0.000000000E+00 -8.246493891E+02  8.246493891E+02  0.000000000E+00  0.00000E+00  9.000E+00
      25     1     1     2     0     0  8.128110636E+00 -3.784687773E+00 -7.610294133E+02  7.712788408E+02  1.249995690E+02  0.00000E+00  9.000E+00
       5     1     1     2   501     0 -1.822969816E+00  2.728962049E+00  5.612846305E+00  8.052142352E+00  4.750000000E+00  0.00000E+00  9.000E+00
      -5     1     1     2     0   503 -4.722599424E+00  4.473600729E+00 -5.693263353E+01  5.749959400E+01  4.750000000E+00  0.00000E+00  9.000E+00
      21     1     1     2   511   501 -1.582541396E+00 -3.417875005E+00  5.954660429E+01  5.966560474E+01  2.023048729E-06  0.00000E+00  9.000E+00
#rwgt            1           9   7.5789302467543990E-004           7     1043341           0
</event>
<event>
      6   9999  3.45752E-01  7.06546E+00 -1.00000E+00  2.04625E-01
      21    -1     0     0   512   503  0.000000000E+00  0.000000000E+00  9.433847725E+02  9.433847725E+02  0.000000000E+00  0.00000E+00  9.000E+00
      21    -1     0     0   501   502  0.000000000E+00  0.000000000E+00 -3.717292666E+01  3.717292666E+01  0.000000000E+00  0.00000E+00  9.000E+00
      25     1     1     2     0     0  8.020910260E+01  4.916528306E+00  1.890841463E+02  2.404885576E+02  1.249970382E+02  0.00000E+00  9.000E+00
       5     1     1     2   501     0  3.456001671E+00  7.479691953E+00 -3.855083834E+00  1.026225661E+01  4.750000000E+00  0.00000E+00  9.000E+00
      -5     1     1     2     0   503 -7.895834225E+01 -1.766567576E+01  3.708776397E+02  3.796304546E+02  4.750000000E+00  0.00000E+00  9.000E+00
      21     1     1     2   512   502 -4.706762029E+00  5.269455498E+00  3.501051437E+02  3.501764304E+02  5.394796609E-06  0.00000E+00  9.000E+00
#rwgt            1           9  0.99178529900324242                7     1048907           0
</event>
<event>
      6   9999 -3.45752E-01  9.27680E+00 -1.00000E+00  1.90694E-01
      21    -1     0     0   501   502  0.000000000E+00  0.000000000E+00  4.389137430E+01  4.389137430E+01  0.000000000E+00  0.00000E+00  9.000E+00
      21    -1     0     0   511   503  0.000000000E+00  0.000000000E+00 -3.333713216E+02  3.333713216E+02  0.000000000E+00  0.00000E+00  9.000E+00
      25     1     1     2     0     0  3.390442553E+01 -1.401538505E+01 -2.033141756E+02  2.414702815E+02  1.250012070E+02  0.00000E+00  9.000E+00
       5     1     1     2   501     0  1.188558991E+00  1.394359240E+00  2.087198337E+01  2.148392655E+01  4.750000000E+00  0.00000E+00  9.000E+00
      -5     1     1     2     0   503 -3.008931446E+01  4.809345636E+00 -8.255833885E+01  8.813023581E+01  4.750000000E+00  0.00000E+00  9.000E+00
      21     1     1     2   511   502 -5.003670059E+00  7.811680178E+00 -2.447941621E+01  2.617825203E+01  0.000000000E+00  0.00000E+00  9.000E+00
#rwgt            1           9  -3.0943917247807421E-003           7     1052840           0
</event>
<event>
      6   9999  3.45752E-01  3.87963E+01 -1.00000E+00  1.40960E-01
      21    -1     0     0   501   502  0.000000000E+00  0.000000000E+00  2.426248972E+01  2.426248972E+01  0.000000000E+00  0.00000E+00  9.000E+00
      21    -1     0     0   502   512  0.000000000E+00  0.000000000E+00 -1.188104204E+03  1.188104204E+03  0.000000000E+00  0.00000E+00  9.000E+00
      25     1     1     2     0     0  2.947787979E+01  7.431251719E+00 -2.565074698E+02  2.869670585E+02  1.250193653E+02  0.00000E+00  9.000E+00
       5     1     1     2   501     0  1.373809781E+00  5.138994251E+00  4.378318420E+00  8.368320466E+00  4.750000000E+00  0.00000E+00  9.000E+00
      -5     1     1     2     0   503 -2.138431104E+01  2.505317798E+01 -7.497019732E+02  7.504402452E+02  4.750000000E+00  0.00000E+00  9.000E+00
      21     1     1     2   503   512 -9.467378532E+00 -3.762342395E+01 -1.620105894E+02  1.665910693E+02  3.303624740E-06  0.00000E+00  9.000E+00
#rwgt            1           9   8.7227468016296966E-003           7     1055911           0
</event>
<event>
      6   9999  3.45752E-01  5.43359E+00 -1.00000E+00  2.20238E-01
      21    -1     0     0   511   502  0.000000000E+00  0.000000000E+00  3.191508215E+01  3.191508215E+01  0.000000000E+00  0.00000E+00  9.000E+00
      21    -1     0     0   502   503  0.000000000E+00  0.000000000E+00 -1.031429957E+03  1.031429957E+03  0.000000000E+00  0.00000E+00  9.000E+00
      25     1     1     2     0     0  7.318262060E+00 -5.316607745E+00 -9.307181135E+02  9.391180316E+02  1.249985890E+02  0.00000E+00  9.000E+00
       5     1     1     2   501     0  2.706381869E+00 -1.929495372E+00  9.355896041E+00  1.100648654E+01  4.750000000E+00  0.00000E+00  9.000E+00
      -5     1     1     2     0   503 -8.512192984E+00  1.246494948E+01 -9.459203392E+01  9.590645325E+01  4.750000000E+00  0.00000E+00  9.000E+00
      21     1     1     2   511   501 -1.512450945E+00 -5.218846366E+00  1.643937617E+01  1.731406810E+01  1.238859277E-06  0.00000E+00  9.000E+00
#rwgt            1           9   2.4294713823291892E-002           7     1056807           0
</event>
<event>
      6   9999  3.45752E-01  3.80883E+00 -1.00000E+00  2.52336E-01
      21    -1     0     0   501   502  0.000000000E+00  0.000000000E+00  1.876244317E+01  1.876244317E+01  0.000000000E+00  0.00000E+00  9.000E+00
      21    -1     0     0   502   512  0.000000000E+00  0.000000000E+00 -1.026758865E+03  1.026758865E+03  0.000000000E+00  0.00000E+00  9.000E+00
      25     1     1     2     0     0  1.445394665E+00 -2.095261085E+00 -7.738731423E+02  7.837568175E+02  1.240509147E+02  0.00000E+00  9.000E+00
       5     1     1     2   501     0 -6.152838085E+00 -3.216227164E-01  1.260016529E+01  1.480835990E+01  4.750000000E+00  0.00000E+00  9.000E+00
      -5     1     1     2     0   503  1.828749530E+00 -7.717207059E-02 -2.039283737E+02  2.039918979E+02  4.750000000E+00  0.00000E+00  9.000E+00
      21     1     1     2   503   512  2.878693889E+00  2.494055872E+00 -4.279507114E+01  4.296423288E+01  4.768371582E-07  0.00000E+00  9.000E+00
#rwgt            1           9   1.2942681761769519                7     1061083           0
</event>
<event>
      6   9999  3.45752E-01  1.09255E+01 -1.00000E+00  1.83233E-01
      21    -1     0     0   501   502  0.000000000E+00  0.000000000E+00  1.299593287E+03  1.299593287E+03  0.000000000E+00  0.00000E+00  9.000E+00
      21    -1     0     0   511   503  0.000000000E+00  0.000000000E+00 -1.416094065E+02  1.416094065E+02  0.000000000E+00  0.00000E+00  9.000E+00
      25     1     1     2     0     0  1.606925073E+01  7.892276919E+00  3.041225039E+02  3.292976662E+02  1.250037871E+02  0.00000E+00  9.000E+00
       5     1     1     2   501     0  2.214728245E+00 -6.024318438E+00  8.414780078E+02  8.415158927E+02  4.750000000E+00  0.00000E+00  9.000E+00
      -5     1     1     2     0   503 -1.208509556E+01 -1.086468977E+01  1.406463141E+02  1.416617068E+02  4.750000000E+00  0.00000E+00  9.000E+00
      21     1     1     2   511   502 -6.198883407E+00  8.996731293E+00 -1.282629457E+02  1.287274274E+02  4.264961200E-06  0.00000E+00  9.000E+00
#rwgt            1           9   4.2039119319190794E-004           7     1066601           0
</event>
<event>
      6   9999  3.45752E-01  7.92344E+00 -1.00000E+00  1.98511E-01
      21    -1     0     0   501   502  0.000000000E+00  0.000000000E+00  1.491184943E+01  1.491184943E+01  0.000000000E+00  0.00000E+00  9.000E+00
      21    -1     0     0   512   503  0.000000000E+00  0.000000000E+00 -8.462531795E+02  8.462531795E+02  0.000000000E+00  0.00000E+00  9.000E+00
      25     1     1     2     0     0  2.432768935E+01 -6.248073442E+00 -7.246266344E+02  7.357507965E+02  1.249583947E+02  0.00000E+00  9.000E+00
       5     1     1     2   501     0  1.023904366E+00  2.415167090E+00  6.900180306E+00  8.778177515E+00  4.750000000E+00  0.00000E+00  9.000E+00
      -5     1     1     2     0   503 -1.749590644E+01  2.798961638E+00 -7.433262133E+01  7.656266729E+01  4.750000000E+00  0.00000E+00  9.000E+00
      21     1     1     2   512   502 -7.855687270E+00  1.033944715E+00 -3.928225466E+01  4.007338762E+01  4.768371582E-07  0.00000E+00  9.000E+00
#rwgt            1           9   4.2962554062404880E-002           7     1069258           0
</event>
<event>
      6   9999  3.45752E-01  1.17642E+01 -1.00000E+00  1.80055E-01
      21    -1     0     0   501   502  0.000000000E+00  0.000000000E+00  2.286819573E+01  2.286819573E+01  0.000000000E+00  0.00000E+00  9.000E+00
      21    -1     0     0   502   511  0.000000000E+00  0.000000000E+00 -7.501550899E+02  7.501550899E+02  0.000000000E+00  0.00000E+00  9.000E+00
      25     1     1     2     0     0  5.033282259E+01 -9.993441331E+00 -3.891950372E+02  4.119860292E+02  1.250057973E+02  0.00000E+00  9.000E+00
       5     1     1     2   501     0 -2.440682443E+00  3.204033933E+00  7.097860665E+00  9.442716254E+00  4.750000000E+00  0.00000E+00  9.000E+00
      -5     1     1     2     0   503 -5.017432701E+01  1.833014059E+01 -2.504599437E+02  2.561370786E+02  4.750000000E+00  0.00000E+00  9.000E+00
      21     1     1     2   503   511  2.282186855E+00 -1.154073319E+01 -9.472977400E+01  9.545746163E+01  1.907348633E-06  0.00000E+00  9.000E+00
#rwgt            1           9  0.14805514363893227                7     1072269           0
</event>
<event>
      6   9999  3.45752E-01  8.02670E+01 -1.00000E+00  1.24636E-01
      21    -1     0     0   512   503  0.000000000E+00  0.000000000E+00  2.494791195E+01  2.494791195E+01  0.000000000E+00  0.00000E+00  9.000E+00
      21    -1     0     0   501   502  0.000000000E+00  0.000000000E+00 -1.143198421E+03  1.143198421E+03  0.000000000E+00  0.00000E+00  9.000E+00
      25     1     1     2     0     0 -6.632351648E+01 -4.400274592E+01 -7.797737926E+02  7.937333926E+02  1.250219199E+02  0.00000E+00  9.000E+00
       5     1     1     2   501     0  1.172098625E+01  4.608384726E+01 -1.061985668E+02  1.164551441E+02  4.750000000E+00  0.00000E+00  9.000E+00
      -5     1     1     2     0   503 -2.361517934E+01 -2.010280128E+01 -5.420358259E+01  6.262898834E+01  4.750000000E+00  0.00000E+00  9.000E+00
      21     1     1     2   512   502  7.821770957E+01  1.802169994E+01 -1.780745670E+02  1.953288079E+02  4.264961200E-06  0.00000E+00  9.000E+00
#rwgt            1           9   9.3021983808528751E-004           7     1074722           0
</event>
<event>
      6   9999  3.45752E-01  1.91138E+01 -1.00000E+00  1.61727E-01
      21    -1     0     0   511   503  0.000000000E+00  0.000000000E+00  4.508973219E+01  4.508973219E+01  0.000000000E+00  0.00000E+00  9.000E+00
      21    -1     0     0   501   502  0.000000000E+00  0.000000000E+00 -1.254912697E+03  1.254912697E+03  0.000000000E+00  0.00000E+00  9.000E+00
      25     1     1     2     0     0 -7.625966904E+01  1.048729256E+01 -1.041660285E+02  1.799972746E+02  1.249917475E+02  0.00000E+00  9.000E+00
       5     1     1     2   501     0 -5.495913386E+00 -6.487150022E+00 -3.901711497E+02  3.902926808E+02  4.750000000E+00  0.00000E+00  9.000E+00
      -5     1     1     2     0   503  7.346186221E+01  1.322051296E+01 -7.028077096E+02  7.067762491E+02  4.750000000E+00  0.00000E+00  9.000E+00
      21     1     1     2   511   502  8.293720214E+00 -1.722065550E+01 -1.267807754E+01  2.293622508E+01  4.768371582E-07  0.00000E+00  9.000E+00
#rwgt            1           9   1.3142176959426283E-003           7     1075396           0
</event>
<event>
      6   9999  3.45752E-01  1.42268E+01 -1.00000E+00  1.72388E-01
      21    -1     0     0   512   503  0.000000000E+00  0.000000000E+00  1.501856888E+02  1.501856888E+02  0.000000000E+00  0.00000E+00  9.000E+00
      21    -1     0     0   501   502  0.000000000E+00  0.000000000E+00 -7.979640811E+02  7.979640811E+02  0.000000000E+00  0.00000E+00  9.000E+00
      25     1     1     2     0     0  2.845681487E+01 -1.188042278E+01 -6.953848927E+02  7.072099028E+02  1.250390455E+02  0.00000E+00  9.000E+00
       5     1     1     2   501     0  8.499427890E-01 -1.309904321E+00  1.381712761E+00  5.187473588E+00  4.750000000E+00  0.00000E+00  9.000E+00
      -5     1     1     2     0   503 -1.960106960E+01  2.788365236E+00 -9.330428752E+01  9.549989256E+01  4.750000000E+00  0.00000E+00  9.000E+00
      21     1     1     2   512   502 -9.705688061E+00  1.040196186E+01  1.395290751E+02  1.402525009E+02  2.697398305E-06  0.00000E+00  9.000E+00
#rwgt            1           9   4.0074780702378988E-004           7     1077760           0
</event>
<event>
      6   9999  3.45752E-01  2.72648E+01 -1.00000E+00  1.50575E-01
      21    -1     0     0   501   502  0.000000000E+00  0.000000000E+00  2.799113048E+03  2.799113048E+03  0.000000000E+00  0.00000E+00  9.000E+00
      21    -1     0     0   502   511  0.000000000E+00  0.000000000E+00 -2.194804627E+01  2.194804627E+01  0.000000000E+00  0.00000E+00  9.000E+00
      25     1     1     2     0     0  1.839350631E+01  1.180509740E+02  6.715705479E+02  6.934746670E+02  1.250030375E+02  0.00000E+00  9.000E+00
       5     1     1     2   501     0  2.398420076E+00 -3.458334376E-03  1.768639873E+03  1.768647877E+03  4.750000000E+00  0.00000E+00  9.000E+00
      -5     1     1     2     0   503 -4.646991712E+00 -9.607683670E+01  2.559874164E+02  2.735040638E+02  4.750000000E+00  0.00000E+00  9.000E+00
      21     1     1     2   503   511 -1.614493467E+01 -2.197067893E+01  8.096716493E+01  8.543448627E+01  1.348699152E-06  0.00000E+00  9.000E+00
#rwgt            1           9   3.2005667743147941E-002           7     1079767           0
</event>
<event>
      6   9999  3.45752E-01  2.89452E+00 -1.00000E+00  2.81041E-01
      21    -1     0     0   502   512  0.000000000E+00  0.000000000E+00  9.222354010E+01  9.222354010E+01  0.000000000E+00  0.00000E+00  9.000E+00
      21    -1     0     0   501   502  0.000000000E+00  0.000000000E+00 -7.819781900E+02  7.819781900E+02  0.000000000E+00  0.00000E+00  9.000E+00
      25     1     1     2     0     0  1.732300281E+01  1.495085482E+01 -7.195482275E+02  7.306823761E+02  1.249938740E+02  0.00000E+00  9.000E+00
       5     1     1     2   501     0  3.292371041E-01  5.833205299E-01 -2.012816400E+00  5.202171640E+00  4.750000000E+00  0.00000E+00  9.000E+00
      -5     1     1     2     0   503 -1.913921611E+01 -1.305080485E+01 -5.060366715E+01  5.585630430E+01  4.750000000E+00  0.00000E+00  9.000E+00
      21     1     1     2   503   512  1.486976194E+00 -2.483370495E+00  8.241006117E+01  8.246087806E+01  0.000000000E+00  0.00000E+00  9.000E+00
#rwgt            1           9   1.9443402428326906E-004           7     1081757           0
</event>
<event>
      6   9999  3.45752E-01  3.53074E+00 -1.00000E+00  2.59628E-01
      21    -1     0     0   501   511  0.000000000E+00  0.000000000E+00  4.138460925E+01  4.138460925E+01  0.000000000E+00  0.00000E+00  9.000E+00
      21    -1     0     0   502   503  0.000000000E+00  0.000000000E+00 -2.386453616E+02  2.386453616E+02  0.000000000E+00  0.00000E+00  9.000E+00
      25     1     1     2     0     0 -3.370849708E+00 -7.317400013E-02 -2.156713034E+02  2.492999617E+02  1.249999672E+02  0.00000E+00  9.000E+00
       5     1     1     2   501     0 -4.644481353E-01 -1.405076958E+00  7.455073828E+00  8.962732793E+00  4.750000000E+00  0.00000E+00  9.000E+00
      -5     1     1     2     0   503  2.280516898E+00 -1.691732899E+00 -3.723229439E+00  6.669906670E+00  4.750000000E+00  0.00000E+00  9.000E+00
      21     1     1     2   502   511  1.554780945E+00  3.169983857E+00  1.467870669E+01  1.509736969E+01  3.769728732E-07  0.00000E+00  9.000E+00
#rwgt            1           9   3.6170704561444750E-002           7     1087801           0
</event>
<event>
      6   9999  3.45752E-01  1.10547E+01 -1.00000E+00  1.82720E-01
      21    -1     0     0   501   502  0.000000000E+00  0.000000000E+00  5.646490019E+01  5.646490019E+01  0.000000000E+00  0.00000E+00  9.000E+00
      21    -1     0     0   512   503  0.000000000E+00  0.000000000E+00 -2.233802226E+02  2.233802226E+02  0.000000000E+00  0.00000E+00  9.000E+00
      25     1     1     2     0     0  2.000041784E+01 -1.823032075E+00 -8.787860812E+01  1.541154137E+02  1.250022832E+02  0.00000E+00  9.000E+00
       5     1     1     2   501     0  1.861200307E+00  1.156681606E+00  1.947094651E+01  2.016140464E+01  4.750000000E+00  0.00000E+00  9.000E+00
      -5     1     1     2     0   503 -1.087016886E+01  1.847324726E+00 -8.089188570E+00  1.447655523E+01  4.750000000E+00  0.00000E+00  9.000E+00
      21     1     1     2   512   502 -1.099144929E+01 -1.180974257E+00 -9.041847229E+01  9.109174929E+01  1.348699152E-06  0.00000E+00  9.000E+00
#rwgt            1           9   1.9177657919791037E-003           7     1092514           0
</event>
<event>
      6   9999  3.45752E-01  5.38072E+00 -1.00000E+00  2.20867E-01
      21    -1     0     0   501   502  0.000000000E+00  0.000000000E+00  1.632516010E+03  1.632516010E+03  0.000000000E+00  0.00000E+00  9.000E+00
      21    -1     0     0   511   503  0.000000000E+00  0.000000000E+00 -4.877235564E+00  4.877235564E+00  0.000000000E+00  0.00000E+00  9.000E+00
      25     1     1     2     0     0  3.908084035E+00  2.991569434E+00  1.143798731E+03  1.150619268E+03  1.249997575E+02  0.00000E+00  9.000E+00
       5     1     1     2   501     0  1.079419607E+00  7.423868739E-01  4.194737874E+02  4.195027260E+02  4.750000000E+00  0.00000E+00  9.000E+00
      -5     1     1     2     0   503 -6.709147264E-01 -5.216077114E-01  6.038571570E+01  6.057820864E+01  4.750000000E+00  0.00000E+00  9.000E+00
      21     1     1     2   511   502 -4.316588916E+00 -3.212348596E+00  3.980539534E+00  6.693042533E+00  4.150983178E-07  0.00000E+00  9.000E+00
#rwgt            1           9   1.5249958861087836E-004           7     1094875           0
</event>
<event>
      6   9999  3.45752E-01  2.40926E+00 -1.00000E+00  3.04450E-01
      21    -1     0     0   501   502  0.000000000E+00  0.000000000E+00  5.089998655E+00  5.089998655E+00  0.000000000E+00  0.00000E+00  9.000E+00
      21    -1     0     0   512   503  0.000000000E+00  0.000000000E+00 -2.947011025E+03  2.947011025E+03  0.000000000E+00  0.00000E+00  9.000E+00
      25     1     1     2     0     0 -5.856870585E+00 -9.097395394E+00 -1.372017886E+03  1.377742529E+03  1.249973222E+02  0.00000E+00  9.000E+00
       5     1     1     2   501     0  2.486303955E+00 -3.587757069E-01 -1.209898563E+00  5.507883613E+00  4.750000000E+00  0.00000E+00  9.000E+00
      -5     1     1     2     0   503  5.388007754E+00  1.077316549E+01 -5.423465452E+02  5.425010869E+02  4.750000000E+00  0.00000E+00  9.000E+00
      21     1     1     2   512   502 -2.017441124E+00 -1.316994385E+00 -1.026346697E+03  1.026349525E+03  1.525878906E-05  0.00000E+00  9.000E+00
#rwgt            1           9   2.2733924045196083E-003           7     1098146           0
</event>
<event>
      6   9999  3.45752E-01  1.14849E+01 -1.00000E+00  1.81075E-01
      21    -1     0     0   501   511  0.000000000E+00  0.000000000E+00  7.444033593E+01  7.444033593E+01  0.000000000E+00  0.00000E+00  9.000E+00
      21    -1     0     0   502   503  0.000000000E+00  0.000000000E+00 -9.892908083E+02  9.892908083E+02  0.000000000E+00  0.00000E+00  9.000E+00
      25     1     1     2     0     0  6.362256063E+01  7.236652383E+00 -3.962602942E+02  4.204146972E+02  1.250043898E+02  0.00000E+00  9.000E+00
       5     1     1     2   501     0 -4.125567940E+00  1.785194882E+01 -8.200947433E+00  2.062838885E+01  4.750000000E+00  0.00000E+00  9.000E+00
      -5     1     1     2     0   503 -5.208369413E+01 -3.386046714E+01 -5.642180784E+02  5.676476415E+02  4.750000000E+00  0.00000E+00  9.000E+00
      21     1     1     2   502   511 -7.413298565E+00  8.771865935E+00  5.382884768E+01  5.504041669E+01  2.236564522E-06  0.00000E+00  9.000E+00
#rwgt            1           9   1.6737441687871563E-004           7     1105194           0
</event>
<event>
      6   9999  3.45752E-01  7.97138E+00 -1.00000E+00  1.98200E-01
      21    -1     0     0   502   512  0.000000000E+00  0.000000000E+00  1.313629426E+01  1.313629426E+01  0.000000000E+00  0.00000E+00  9.000E+00
      21    -1     0     0   501   502  0.000000000E+00  0.000000000E+00 -8.130072058E+02  8.130072058E+02  0.000000000E+00  0.00000E+00  9.000E+00
      25     1     1     2     0     0  7.739504811E+00 -9.778881841E+00 -4.728603788E+02  4.892645396E+02  1.250093010E+02  0.00000E+00  9.000E+00
       5     1     1     2   501     0  3.334642063E+00  1.297056889E+00 -3.000910824E+02  3.001499999E+02  4.750000000E+00  0.00000E+00  9.000E+00
      -5     1     1     2     0   503 -5.496373260E+00  1.417667703E+01 -2.263711268E+01  2.768013116E+01  4.750000000E+00  0.00000E+00  9.000E+00
      21     1     1     2   503   512 -5.577773614E+00 -5.694852082E+00 -4.282337610E+00  9.048829434E+00  1.576990671E-07  0.00000E+00  9.000E+00
#rwgt            1           9   4.3487558749585070E-002           7     1108182           0
</event>
<event>
      6   9999  3.45752E-01  8.00859E+00 -1.00000E+00  1.97960E-01
      21    -1     0     0   511   502  0.000000000E+00  0.000000000E+00  1.033220304E+03  1.033220304E+03  0.000000000E+00  0.00000E+00  9.000E+00
      21    -1     0     0   502   503  0.000000000E+00  0.000000000E+00 -1.243244267E+01  1.243244267E+01  0.000000000E+00  0.00000E+00  9.000E+00
      25     1     1     2     0     0  4.366787951E+01  1.460719866E-01  3.763384352E+02  3.989520688E+02  1.250009216E+02  0.00000E+00  9.000E+00
       5     1     1     2   501     0 -3.442257153E+00  6.514359615E+00  2.233046683E+02  2.234766731E+02  4.750000000E+00  0.00000E+00  9.000E+00
      -5     1     1     2     0   503 -3.347470817E+01 -2.351987892E+00  3.401971336E+02  3.418811784E+02  4.750000000E+00  0.00000E+00  9.000E+00
      21     1     1     2   511   501 -6.750914187E+00 -4.308443710E+00  8.094762389E+01  8.134282601E+01  1.348699152E-06  0.00000E+00  9.000E+00
#rwgt            1           9   1.4195389045250869E-004           7     1111301           0
</event>
<event>
      6   9999  3.45752E-01  2.05974E+01 -1.00000E+00  1.59241E-01
      21    -1     0     0   501   502  0.000000000E+00  0.000000000E+00  1.345391216E+01  1.345391216E+01  0.000000000E+00  0.00000E+00  9.000E+00
      21    -1     0     0   502   512  0.000000000E+00  0.000000000E+00 -1.007191576E+03  1.007191576E+03  0.000000000E+00  0.00000E+00  9.000E+00
      25     1     1     2     0     0 -1.284593270E+01  5.241536202E+01 -5.696105917E+02  5.856570758E+02  1.250023842E+02  0.00000E+00  9.000E+00
       5     1     1     2   501     0  2.158981514E+00  1.420559233E+00  1.046103707E-01  5.408570333E+00  4.750000000E+00  0.00000E+00  9.000E+00
      -5     1     1     2     0   503  2.463805995E+01 -3.868277706E+01 -2.593664670E+02  2.634329477E+02  4.750000000E+00  0.00000E+00  9.000E+00
      21     1     1     2   503   512 -1.395110877E+01 -1.515314419E+01 -1.648652156E+02  1.661468944E+02  1.907348633E-06  0.00000E+00  9.000E+00
#rwgt            1           9   2.4615876976997168E-004           7     1115418           0
</event>
<event>
      6   9999 -3.45752E-01  6.24142E+00 -1.00000E+00  2.11699E-01
      21    -1     0     0   511   502  0.000000000E+00  0.000000000E+00  6.019962072E+01  6.019962072E+01  0.000000000E+00  0.00000E+00  9.000E+00
      21    -1     0     0   502   503  0.000000000E+00  0.000000000E+00 -1.360571124E+03  1.360571124E+03  0.000000000E+00  0.00000E+00  9.000E+00
      25     1     1     2     0     0 -1.055953595E+02 -6.894004386E+00 -3.490610812E+02  3.855732141E+02  1.250006310E+02  0.00000E+00  9.000E+00
       5     1     1     2   501     0 -8.043970740E-01  8.845795689E+00  3.168447204E+01  3.324700625E+01  4.750000000E+00  0.00000E+00  9.000E+00
      -5     1     1     2     0   503  1.004006665E+02 -2.295148229E-01 -9.885187655E+02  9.936157500E+02  4.750000000E+00  0.00000E+00  9.000E+00
      21     1     1     2   511   501  5.999090072E+00 -1.722276480E+00  5.523871053E+00  8.334774705E+00  4.042583694E-07  0.00000E+00  9.000E+00
#rwgt            1           9  -3.5526158971215510E-005           7     1116860           0
</event>
<event>
      6   9999 -3.45752E-01  1.15521E+01 -1.00000E+00  1.80826E-01
      21    -1     0     0   501   502  0.000000000E+00  0.000000000E+00  9.021296646E+01  9.021296646E+01  0.000000000E+00  0.00000E+00  9.000E+00
      21    -1     0     0   502   512  0.000000000E+00  0.000000000E+00 -3.447170262E+02  3.447170262E+02  0.000000000E+00  0.00000E+00  9.000E+00
      25     1     1     2     0     0  1.476237398E+01 -7.076165917E+01 -6.294218481E+01  1.576685857E+02  1.251899524E+02  0.00000E+00  9.000E+00
       5     1     1     2   501     0  5.308669350E+00  1.636959053E+00  3.478366852E+01  3.554332146E+01  4.750000000E+00  0.00000E+00  9.000E+00
      -5     1     1     2     0   503 -8.738041666E+00  7.136369467E+01 -1.784175800E+02  1.924175814E+02  4.750000000E+00  0.00000E+00  9.000E+00
      21     1     1     2   503   512 -1.133300167E+01 -2.238994555E+00 -4.792796346E+01  4.930050410E+01  0.000000000E+00  0.00000E+00  9.000E+00
#rwgt            1           9  -7.8763280960396690E-004           7     1122538           0
</event>
<event>
      6   9999  3.45752E-01  4.43505E+00 -1.00000E+00  2.38921E-01
      21    -1     0     0   502   503  0.000000000E+00  0.000000000E+00  4.798423141E+02  4.798423141E+02  0.000000000E+00  0.00000E+00  9.000E+00
      21    -1     0     0   501   511  0.000000000E+00  0.000000000E+00 -3.559477031E+01  3.559477031E+01  0.000000000E+00  0.00000E+00  9.000E+00
      25     1     1     2     0     0  1.641099670E-01 -3.618930185E+00  3.688916630E+02  3.895012740E+02  1.249682354E+02  0.00000E+00  9.000E+00
       5     1     1     2   501     0  2.561055027E-01 -3.012884297E-01  3.705790852E+01  3.736318307E+01  4.750000000E+00  0.00000E+00  9.000E+00
      -5     1     1     2     0   503  6.036635103E-01 -3.950241279E-01  6.314771233E+01  6.333021811E+01  4.750000000E+00  0.00000E+00  9.000E+00
      21     1     1     2   502   511 -1.023878980E+00  4.315242742E+00 -2.484973999E+01  2.524240927E+01  1.168007728E-06  0.00000E+00  9.000E+00
#rwgt            1           9   2.9711191911235926E-003           7     1126037           0
</event>
<event>
      6   9999 -3.45752E-01  5.56074E+01 -1.00000E+00  1.32363E-01
      21    -1     0     0   501   502  0.000000000E+00  0.000000000E+00  1.550097435E+01  1.550097435E+01  0.000000000E+00  0.00000E+00  9.000E+00
      21    -1     0     0   502   512  0.000000000E+00  0.000000000E+00 -1.478786544E+03  1.478786544E+03  0.000000000E+00  0.00000E+00  9.000E+00
      25     1     1     2     0     0  6.949596215E+01 -3.378379919E+01 -6.923093325E+02  7.077347932E+02  1.250011671E+02  0.00000E+00  9.000E+00
       5     1     1     2   501     0  8.101268938E+00 -4.543048480E+00 -1.520742789E+00  1.054253321E+01  4.750000000E+00  0.00000E+00  9.000E+00
      -5     1     1     2     0   503 -3.288059224E+01  5.272188780E+00 -4.853266780E+02  4.864909826E+02  4.750000000E+00  0.00000E+00  9.000E+00
      21     1     1     2   503   512 -4.471663884E+01  3.305465889E+01 -2.841288159E+02  2.895192089E+02  5.394796609E-06  0.00000E+00  9.000E+00
#rwgt            1           9  -9.5044350723100246E-004           7     1129924           0
</event>
<event>
      6   9999  3.45752E-01  9.18374E+01 -1.00000E+00  1.22028E-01
      21    -1     0     0   501   502  0.000000000E+00  0.000000000E+00  6.519578631E+01  6.519578631E+01  0.000000000E+00  0.00000E+00  9.000E+00
      21    -1     0     0   511   503  0.000000000E+00  0.000000000E+00 -5.006721774E+02  5.006721774E+02  0.000000000E+00  0.00000E+00  9.000E+00
      25     1     1     2     0     0 -6.947782571E+00 -9.926128669E+01 -5.421690655E+01  1.687228880E+02  1.250074609E+02  0.00000E+00  9.000E+00
       5     1     1     2   501     0  4.119849515E+00  8.185678959E+00 -1.471363153E+01  1.797308968E+01  4.750000000E+00  0.00000E+00  9.000E+00
      -5     1     1     2     0   503  1.037382578E+00 -7.443688950E-01 -1.320349772E+01  1.408989353E+01  4.750000000E+00  0.00000E+00  9.000E+00
      21     1     1     2   511   502  1.790550477E+00  9.181997662E+01 -3.533423553E+02  3.650820925E+02  6.607249480E-06  0.00000E+00  9.000E+00
#rwgt            1           9   133271.26864883589                7     1130562           0
</event>
<event>
      6   9999  3.45752E-01  1.79664E+01 -1.00000E+00  1.63848E-01
      21    -1     0     0   501   502  0.000000000E+00  0.000000000E+00  1.499353822E+01  1.499353822E+01  0.000000000E+00  0.00000E+00  9.000E+00
      21    -1     0     0   502   512  0.000000000E+00  0.000000000E+00 -1.040081394E+03  1.040081394E+03  0.000000000E+00  0.00000E+00  9.000E+00
      25     1     1     2     0     0 -2.073067735E+01 -3.403170675E+01 -7.375100085E+02  7.490821811E+02  1.249607271E+02  0.00000E+00  9.000E+00
       5     1     1     2   501     0 -4.065670559E-01 -3.128323746E+00  5.390449079E+00  7.846728459E+00  4.750000000E+00  0.00000E+00  9.000E+00
      -5     1     1     2     0   503  8.330997725E+00  2.455875823E+01 -7.615514285E+01  8.058974136E+01  4.750000000E+00  0.00000E+00  9.000E+00
      21     1     1     2   503   512  1.280624668E+01  1.260127226E+01 -2.168131536E+02  2.175562814E+02  3.814697266E-06  0.00000E+00  9.000E+00
#rwgt            1           9   1.0211493041606459E-004           7     1131082           0
</event>
<event>
      6   9999  3.45752E-01  1.49932E+01 -1.00000E+00  1.70388E-01
      21    -1     0     0   501   502  0.000000000E+00  0.000000000E+00  4.045072863E+03  4.045072863E+03  0.000000000E+00  0.00000E+00  9.000E+00
      21    -1     0     0   502   511  0.000000000E+00  0.000000000E+00 -1.891387378E+01  1.891387378E+01  0.000000000E+00  0.00000E+00  9.000E+00
      25     1     1     2     0     0  3.783521200E+01  3.097543127E+01  2.798735489E+03  2.801952338E+03  1.250023397E+02  0.00000E+00  9.000E+00
       5     1     1     2   501     0 -2.527354238E+00 -6.181144828E-01  1.158722061E+03  1.158734718E+03  4.750000000E+00  0.00000E+00  9.000E+00
      -5     1     1     2     0   503 -3.978200833E+01 -4.466742250E+01  6.366107117E+01  8.748189128E+01  4.750000000E+00  0.00000E+00  9.000E+00
      21     1     1     2   503   511  4.474150575E+00  1.431010571E+01  5.040367401E+00  1.581778911E+01  1.701605609E-06  0.00000E+00  9.000E+00
#rwgt            1           9   7.1321786395767638E-004           7     1132681           0
</event>
<event>
      6   9999  3.45752E-01  2.16785E+01 -1.00000E+00  1.57584E-01
      21    -1     0     0   501   502  0.000000000E+00  0.000000000E+00  7.449809418E+00  7.449809418E+00  0.000000000E+00  0.00000E+00  9.000E+00
      21    -1     0     0   502   512  0.000000000E+00  0.000000000E+00 -9.162133553E+02  9.162133553E+02  0.000000000E+00  0.00000E+00  9.000E+00
      25     1     1     2     0     0 -2.265607570E+01 -7.965737418E+00 -6.266805023E+02  6.394755705E+02  1.249952101E+02  0.00000E+00  9.000E+00
       5     1     1     2   501     0  3.217286411E+00  2.276498374E+00 -2.715563599E+01  2.784823949E+01  4.750000000E+00  0.00000E+00  9.000E+00
      -5     1     1     2     0   503 -9.428165608E-01 -1.696419808E+00 -4.249209712E+01  4.280078925E+01  4.750000000E+00  0.00000E+00  9.000E+00
      21     1     1     2   503   512  2.038160585E+01  7.385658853E+00 -2.124353104E+02  2.135385655E+02  2.697398305E-06  0.00000E+00  9.000E+00
#rwgt            1           9   1.7954302212514883E-002           7     1135419           0
</event>
<event>
      6   9999  3.45752E-01  2.39129E+01 -1.00000E+00  1.54504E-01
      21    -1     0     0   501   511  0.000000000E+00  0.000000000E+00  2.008703451E+02  2.008703451E+02  0.000000000E+00  0.00000E+00  9.000E+00
      21    -1     0     0   502   503  0.000000000E+00  0.000000000E+00 -1.616220000E+03  1.616220000E+03  0.000000000E+00  0.00000E+00  9.000E+00
      25     1     1     2     0     0  1.800492283E+02 -4.439780213E+01 -3.159607976E+02  3.870979848E+02  1.249989391E+02  0.00000E+00  9.000E+00
       5     1     1     2   501     0 -1.314780123E-01 -1.538860331E+01  6.540129126E+01  6.735516162E+01  4.750000000E+00  0.00000E+00  9.000E+00
      -5     1     1     2     0   503 -1.585760148E+02  4.899945751E+01 -1.256723368E+03  1.267644858E+03  4.750000000E+00  0.00000E+00  9.000E+00
      21     1     1     2   502   511 -2.134173548E+01  1.078694793E+01  9.193321969E+01  9.499234075E+01  1.907348633E-06  0.00000E+00  9.000E+00
#rwgt            1           9   2.8136344504832264E-003           7     1136660           0
</event>
<event>
      6   9999 -3.45752E-01  1.47554E+01 -1.00000E+00  1.70993E-01
      21    -1     0     0   512   502  0.000000000E+00  0.000000000E+00  2.576470361E+01  2.576470361E+01  0.000000000E+00  0.00000E+00  9.000E+00
      21    -1     0     0   502   503  0.000000000E+00  0.000000000E+00 -9.678517839E+02  9.678517839E+02  0.000000000E+00  0.00000E+00  9.000E+00
      25     1     1     2     0     0 -1.979371684E+01 -6.080616340E+01 -4.067568422E+02  4.303075529E+02  1.249971227E+02  0.00000E+00  9.000E+00
       5     1     1     2   501     0  2.594362372E+01 -4.393678618E+00 -2.978342883E+01  4.002488172E+01  4.750000000E+00  0.00000E+00  9.000E+00
      -5     1     1     2     0   503 -1.048418317E+01  5.109537479E+01 -5.058216734E+02  5.085260890E+02  4.750000000E+00  0.00000E+00  9.000E+00
      21     1     1     2   512   501  4.334276285E+00  1.410446723E+01  2.748641521E-01  1.475796385E+01  4.518517613E-07  0.00000E+00  9.000E+00
#rwgt            1           9 -0.17878469571417449                7     1139616           0
</event>
<event>
      6   9999  3.45752E-01  7.24307E+00 -1.00000E+00  2.03267E-01
      21    -1     0     0   501   502  0.000000000E+00  0.000000000E+00  1.352386812E+03  1.352386812E+03  0.000000000E+00  0.00000E+00  9.000E+00
      21    -1     0     0   511   503  0.000000000E+00  0.000000000E+00 -1.691086618E+01  1.691086618E+01  0.000000000E+00  0.00000E+00  9.000E+00
      25     1     1     2     0     0  1.235348499E+01  1.345284271E+01  9.751308066E+02  9.832802347E+02  1.250053699E+02  0.00000E+00  9.000E+00
       5     1     1     2   501     0 -6.762462461E-01 -8.048151218E-01  2.117841381E+02  2.118400073E+02  4.750000000E+00  0.00000E+00  9.000E+00
      -5     1     1     2     0   503 -1.735720635E+01 -1.714247078E+01  1.592983451E+02  1.612255010E+02  4.750000000E+00  0.00000E+00  9.000E+00
      21     1     1     2   511   502  5.679967603E+00  4.494443188E+00 -1.073734434E+01  1.295193479E+01  1.192092896E-06  0.00000E+00  9.000E+00
#rwgt            1           9  0.16499384229776243                7     1142101           0
</event>
<event>
      6   9999  3.45752E-01  3.99946E+00 -1.00000E+00  2.47862E-01
       3    -1     0     0   501     0  0.000000000E+00  0.000000000E+00  7.925123724E+01  7.925123724E+01  0.000000000E+00  0.00000E+00  9.000E+00
      21    -1     0     0   502   503  0.000000000E+00  0.000000000E+00 -3.047994436E+03  3.047994436E+03  0.000000000E+00  0.00000E+00  9.000E+00
      25     1     1     2     0     0 -2.612249386E+01  5.038263696E+00 -1.886469470E+03  1.890794459E+03  1.250154231E+02  0.00000E+00  9.000E+00
       5     1     1     2   501     0 -2.501119255E+00  1.135898293E+00 -1.471556198E+00  5.681006962E+00  4.750000000E+00  0.00000E+00  9.000E+00
      -5     1     1     2     0   503  2.993323159E+01 -2.395194613E+00 -1.155532779E+03  1.155932654E+03  4.750000000E+00  0.00000E+00  9.000E+00
       3     1     1     2   502     0 -1.309618483E+00 -3.778967376E+00  7.473060682E+01  7.483755268E+01  2.336015456E-06  0.00000E+00  9.000E+00
#rwgt            1           9   2.9688267139192301E-003           7     1144860           0
</event>
<event>
      6   9999 -3.45752E-01  1.49427E+01 -1.00000E+00  1.70516E-01
      21    -1     0     0   511   502  0.000000000E+00  0.000000000E+00  7.909024403E+01  7.909024403E+01  0.000000000E+00  0.00000E+00  9.000E+00
      21    -1     0     0   502   503  0.000000000E+00  0.000000000E+00 -5.693949643E+02  5.693949643E+02  0.000000000E+00  0.00000E+00  9.000E+00
      25     1     1     2     0     0 -2.461640908E+00 -2.148826347E+01 -4.209567226E+02  4.396555598E+02  1.249985753E+02  0.00000E+00  9.000E+00
       5     1     1     2   501     0 -2.625121004E+00 -5.057310063E+00  2.337968818E+01  2.452835022E+01  4.750000000E+00  0.00000E+00  9.000E+00
      -5     1     1     2     0   503  9.982080906E+00  1.242747493E+01 -1.367779801E+02  1.377855668E+02  4.750000000E+00  0.00000E+00  9.000E+00
      21     1     1     2   511   501 -4.895318993E+00  1.411809861E+01  4.405029424E+01  4.651573152E+01  4.768371582E-07  0.00000E+00  9.000E+00
#rwgt            1           9  -9665.5670742089624                7     1149737           0
</event>
<event>
      6   9999  3.45752E-01  5.65941E+00 -1.00000E+00  2.17655E-01
      21    -1     0     0   512   502  0.000000000E+00  0.000000000E+00  1.169712672E+01  1.169712672E+01  0.000000000E+00  0.00000E+00  9.000E+00
      21    -1     0     0   502   503  0.000000000E+00  0.000000000E+00 -8.271835059E+02  8.271835059E+02  0.000000000E+00  0.00000E+00  9.000E+00
      25     1     1     2     0     0  2.653633955E+00  7.177334436E+00 -7.480736003E+02  7.584837776E+02  1.249998942E+02  0.00000E+00  9.000E+00
       5     1     1     2   501     0 -1.851292626E-01 -4.158900557E-01  4.807416240E+00  6.773550641E+00  4.750000000E+00  0.00000E+00  9.000E+00
      -5     1     1     2     0   503  1.600256518E-01 -1.749486984E+00 -5.932612529E+01  5.954190084E+01  4.750000000E+00  0.00000E+00  9.000E+00
      21     1     1     2   512   501 -2.628530344E+00 -5.011957396E+00 -1.289406983E+01  1.408140353E+01  1.685873940E-07  0.00000E+00  9.000E+00
#rwgt            1           9   7.5717563263759543E-004           7     1151959           0
</event>
<event>
      6   9999  3.45752E-01  2.46136E+01 -1.00000E+00  1.53621E-01
      21    -1     0     0   501   502  0.000000000E+00  0.000000000E+00  1.310649906E+01  1.310649906E+01  0.000000000E+00  0.00000E+00  9.000E+00
      21    -1     0     0   502   511  0.000000000E+00  0.000000000E+00 -1.084876714E+03  1.084876714E+03  0.000000000E+00  0.00000E+00  9.000E+00
      25     1     1     2     0     0 -2.910368626E+01 -2.340973014E+01 -5.981153792E+02  6.121786093E+02  1.250024111E+02  0.00000E+00  9.000E+00
       5     1     1     2   501     0  1.067480720E+01  2.258583040E+00 -1.393534892E+01  1.832509633E+01  4.750000000E+00  0.00000E+00  9.000E+00
      -5     1     1     2     0   503  1.598188860E+01  4.564281001E+01 -1.726851800E+02  1.793918080E+02  4.750000000E+00  0.00000E+00  9.000E+00
      21     1     1     2   503   511  2.446990455E+00 -2.449166291E+01 -2.870343066E+02  2.880876993E+02  6.607249480E-06  0.00000E+00  9.000E+00
#rwgt            1           9   3.0369702529472226E-003           7     1155365           0
</event>
<event>
      6   9999  3.45752E-01  4.50337E+00 -1.00000E+00  2.37656E-01
      21    -1     0     0   512   502  0.000000000E+00  0.000000000E+00  2.126560394E+02  2.126560394E+02  0.000000000E+00  0.00000E+00  9.000E+00
      21    -1     0     0   502   503  0.000000000E+00  0.000000000E+00 -4.074310576E+02  4.074310576E+02  0.000000000E+00  0.00000E+00  9.000E+00
      25     1     1     2     0     0 -1.674643795E+01 -1.536527233E+00 -2.402637855E+02  2.713569820E+02  1.250004837E+02  0.00000E+00  9.000E+00
       5     1     1     2   501     0  1.204683454E+01 -7.849819585E+00  1.902733175E+02  1.908749427E+02  4.750000000E+00  0.00000E+00  9.000E+00
      -5     1     1     2     0   503  8.269541357E+00  1.213151050E+01 -1.500985125E+02  1.508896445E+02  4.750000000E+00  0.00000E+00  9.000E+00
      21     1     1     2   512   501 -3.569937944E+00 -2.745163685E+00  5.313962446E+00  6.965527795E+00  8.429369702E-08  0.00000E+00  9.000E+00
#rwgt            1           9   1.2402397292689184E-003           7     1156709           0
</event>
<event>
      6   9999  3.45752E-01  1.16509E+01 -1.00000E+00  1.80464E-01
      21    -1     0     0   511   502  0.000000000E+00  0.000000000E+00  6.823497046E+01  6.823497046E+01  0.000000000E+00  0.00000E+00  9.000E+00
      21    -1     0     0   502   503  0.000000000E+00  0.000000000E+00 -9.955242637E+02  9.955242637E+02  0.000000000E+00  0.00000E+00  9.000E+00
      25     1     1     2     0     0 -2.338700701E+01 -6.725632385E+01 -6.763756324E+02  6.915090956E+02  1.250218705E+02  0.00000E+00  9.000E+00
       5     1     1     2   501     0 -7.187263335E-01 -2.399861721E+00  6.393584567E+00  8.349630377E+00  4.750000000E+00  0.00000E+00  9.000E+00
      -5     1     1     2     0   503  3.353320901E+01  6.281032911E+01 -3.058062363E+02  3.140217034E+02  4.750000000E+00  0.00000E+00  9.000E+00
      21     1     1     2   511   501 -9.427475672E+00  6.845856458E+00  4.849899085E+01  4.987880474E+01  2.336015456E-06  0.00000E+00  9.000E+00
#rwgt            1           9   2.6855293416015080E-005           7     1163575           0
</event>
<event>
      6   9999  3.45752E-01  1.34150E+01 -1.00000E+00  1.74685E-01
      21    -1     0     0   501   502  0.000000000E+00  0.000000000E+00  8.230148475E+00  8.230148475E+00  0.000000000E+00  0.00000E+00  9.000E+00
      21    -1     0     0   512   503  0.000000000E+00  0.000000000E+00 -1.223824546E+03  1.223824546E+03  0.000000000E+00  0.00000E+00  9.000E+00
      25     1     1     2     0     0 -1.720882678E+00  3.184792253E-01 -6.584949561E+02  6.702577718E+02  1.250072417E+02  0.00000E+00  9.000E+00
       5     1     1     2   501     0 -1.414948822E+00 -4.175334676E+00 -6.937617089E+00  9.493604726E+00  4.750000000E+00  0.00000E+00  9.000E+00
      -5     1     1     2     0   503  6.361723938E+00 -9.164525745E+00 -3.640085667E+01  3.836723772E+01  4.750000000E+00  0.00000E+00  9.000E+00
      21     1     1     2   512   502 -3.225892438E+00  1.302138120E+01 -5.137609680E+02  5.139360806E+02  0.000000000E+00  0.00000E+00  9.000E+00
#rwgt            1           9   2.8985006921908507E-003           7     1166155           0
</event>
<event>
      6   9999  3.45752E-01  1.15214E+01 -1.00000E+00  1.80940E-01
      21    -1     0     0   511   502  0.000000000E+00  0.000000000E+00  1.657205723E+02  1.657205723E+02  0.000000000E+00  0.00000E+00  9.000E+00
      21    -1     0     0   502   503  0.000000000E+00  0.000000000E+00 -1.104339957E+03  1.104339957E+03  0.000000000E+00  0.00000E+00  9.000E+00
      25     1     1     2     0     0 -1.217615322E+01 -1.538307231E+00 -9.189415936E+02  9.274850037E+02  1.249966176E+02  0.00000E+00  9.000E+00
       5     1     1     2   501     0  4.645733441E-02 -8.534674081E+00  2.617631419E+01  2.793930465E+01  4.750000000E+00  0.00000E+00  9.000E+00
      -5     1     1     2     0   503  4.169945585E+00  1.743272596E+00 -1.799384124E+02  1.800578302E+02  4.750000000E+00  0.00000E+00  9.000E+00
      21     1     1     2   511   501  7.959750300E+00  8.329708715E+00  1.340843075E+02  1.345783905E+02  3.303624740E-06  0.00000E+00  9.000E+00
#rwgt            1           9   1.8296556672617115E-003           7     1167747           0
</event>
<event>
      6   9999  3.45752E-01  1.47103E+01 -1.00000E+00  1.71109E-01
      21    -1     0     0   501   502  0.000000000E+00  0.000000000E+00  3.035697932E+01  3.035697932E+01  0.000000000E+00  0.00000E+00  9.000E+00
      -2    -1     0     0     0   503  0.000000000E+00  0.000000000E+00 -7.133308432E+02  7.133308432E+02  0.000000000E+00  0.00000E+00  9.000E+00
      25     1     1     2     0     0 -2.106722636E+01 -7.222542845E+00 -3.561019677E+02  3.780561684E+02  1.249874471E+02  0.00000E+00  9.000E+00
       5     1     1     2   501     0 -8.411193752E+00  1.141588713E+00  1.704924707E+01  1.962882398E+01  4.750000000E+00  0.00000E+00  9.000E+00
      -5     1     1     2     0   503  1.609416147E+01  1.218448973E+01 -2.579510204E+02  2.587832592E+02  4.750000000E+00  0.00000E+00  9.000E+00
      -2     1     1     2     0   502  1.338425864E+01 -6.103535596E+00 -8.597012288E+01  8.721957093E+01  1.651812370E-06  0.00000E+00  9.000E+00
#rwgt            1           9   7.2288903814067842                7     1170506           0
</event>
<event>
      6   9999  3.45752E-01  2.07800E+01 -1.00000E+00  1.58952E-01
      21    -1     0     0   502   503  0.000000000E+00  0.000000000E+00  1.128648521E+01  1.128648521E+01  0.000000000E+00  0.00000E+00  9.000E+00
      21    -1     0     0   501   511  0.000000000E+00  0.000000000E+00 -9.128647969E+02  9.128647969E+02  0.000000000E+00  0.00000E+00  9.000E+00
      25     1     1     2     0     0  3.288266844E+01 -2.656397793E+01 -5.175174122E+02  5.341338645E+02  1.252509422E+02  0.00000E+00  9.000E+00
       5     1     1     2   501     0  9.300290485E+00  3.622846903E+00 -1.469476776E+02  1.473628273E+02  4.750000000E+00  0.00000E+00  9.000E+00
      -5     1     1     2     0   503 -2.316172559E+01  1.457442091E+01 -9.325571129E+01  9.730400539E+01  4.750000000E+00  0.00000E+00  9.000E+00
      21     1     1     2   502   511 -1.902123334E+01  8.366710117E+00 -1.438575107E+02  1.453505849E+02  2.697398305E-06  0.00000E+00  9.000E+00
#rwgt            1           9   2.3294635639896111                7     1172927           0
</event>
<event>
      6   9999  3.45752E-01  6.89716E+00 -1.00000E+00  2.05961E-01
      21    -1     0     0   501   512  0.000000000E+00  0.000000000E+00  2.235982589E+01  2.235982589E+01  0.000000000E+00  0.00000E+00  9.000E+00
      21    -1     0     0   502   503  0.000000000E+00  0.000000000E+00 -3.110002623E+02  3.110002623E+02  0.000000000E+00  0.00000E+00  9.000E+00
      25     1     1     2     0     0  6.549196877E+00  9.562271066E+00 -2.824498028E+02  3.090895675E+02  1.249965623E+02  0.00000E+00  9.000E+00
       5     1     1     2   501     0 -6.744540432E-01  2.365530614E-01  4.343652462E+00  6.476161079E+00  4.750000000E+00  0.00000E+00  9.000E+00
      -5     1     1     2     0   503 -4.842298095E+00 -2.979372140E+00 -4.830231254E+00  8.844102168E+00  4.750000000E+00  0.00000E+00  9.000E+00
      21     1     1     2   502   512 -1.032444738E+00 -6.819451988E+00 -5.704054760E+00  8.950257441E+00  8.429369702E-08  0.00000E+00  9.000E+00
#rwgt            1           9   1.2750408044703669E-003           7     1174226           0
</event>
<event>
      6   9999  3.45752E-01  9.99438E+00 -1.00000E+00  1.87219E-01
      21    -1     0     0   501   502  0.000000000E+00  0.000000000E+00  1.781583775E+01  1.781583775E+01  0.000000000E+00  0.00000E+00  9.000E+00
      21    -1     0     0   511   503  0.000000000E+00  0.000000000E+00 -1.082940831E+03  1.082940831E+03  0.000000000E+00  0.00000E+00  9.000E+00
      25     1     1     2     0     0 -4.437174361E+01 -3.255437807E+01 -9.066743500E+02  9.169019266E+02  1.249885076E+02  0.00000E+00  9.000E+00
       5     1     1     2   501     0  1.009473711E+00  1.397293577E+00  6.268745441E+00  8.051778432E+00  4.750000000E+00  0.00000E+00  9.000E+00
      -5     1     1     2     0   503  3.468498322E+01  3.611615968E+01 -1.226613144E+02  1.325736987E+02  4.750000000E+00  0.00000E+00  9.000E+00
      21     1     1     2   511   502  8.677286682E+00 -4.959075183E+00 -4.205807457E+01  4.322926517E+01  0.000000000E+00  0.00000E+00  9.000E+00
#rwgt            1           9   3.0792687331996126E-003           7     1177103           0
</event>
<event>
      6   9999  3.45752E-01  1.34341E+01 -1.00000E+00  1.74628E-01
      21    -1     0     0   501   502  0.000000000E+00  0.000000000E+00  7.047840312E+02  7.047840312E+02  0.000000000E+00  0.00000E+00  9.000E+00
      21    -1     0     0   512   503  0.000000000E+00  0.000000000E+00 -5.866469964E+01  5.866469964E+01  0.000000000E+00  0.00000E+00  9.000E+00
      25     1     1     2     0     0 -6.044537759E+00  4.870201479E-01  3.259285767E+01  1.293218789E+02  1.250003215E+02  0.00000E+00  9.000E+00
       5     1     1     2   501     0  4.315680014E+00 -7.436417570E+00  6.019174508E+02  6.019975959E+02  4.750000000E+00  0.00000E+00  9.000E+00
      -5     1     1     2     0   503 -6.356726281E+00 -3.779053953E+00  1.577986028E+01  1.806254988E+01  4.750000000E+00  0.00000E+00  9.000E+00
      21     1     1     2   512   502  8.085584026E+00  1.072845138E+01 -4.170837193E+00  1.406670611E+01  2.457562462E-07  0.00000E+00  9.000E+00
#rwgt            1           9  0.24439216278270504                7     1179997           0
</event>
<event>
      6   9999  3.45752E-01  1.14455E+01 -1.00000E+00  1.81222E-01
      21    -1     0     0   511   502  0.000000000E+00  0.000000000E+00  1.357102095E+02  1.357102095E+02  0.000000000E+00  0.00000E+00  9.000E+00
      21    -1     0     0   502   503  0.000000000E+00  0.000000000E+00 -3.044883261E+02  3.044883261E+02  0.000000000E+00  0.00000E+00  9.000E+00
      25     1     1     2     0     0 -5.002407862E+01 -5.206696887E+00 -9.677751572E+01  1.658942531E+02  1.250019901E+02  0.00000E+00  9.000E+00
       5     1     1     2   501     0 -1.294176024E+00 -1.522931350E-01  4.940379001E+00  6.976240352E+00  4.750000000E+00  0.00000E+00  9.000E+00
      -5     1     1     2     0   503  4.076975031E+01  9.171942549E-01 -1.693282900E+02  1.742344572E+02  4.750000000E+00  0.00000E+00  9.000E+00
      21     1     1     2   511   501  1.054850433E+01  4.441795767E+00  9.238731015E+01  9.309358501E+01  0.000000000E+00  0.00000E+00  9.000E+00
#rwgt            1           9   1.5788715740600918                7     1183455           0
</event>
<event>
      6   9999  3.45752E-01  1.98554E+01 -1.00000E+00  1.60451E-01
      21    -1     0     0   501   512  0.000000000E+00  0.000000000E+00  6.057248148E+01  6.057248148E+01  0.000000000E+00  0.00000E+00  9.000E+00
      21    -1     0     0   502   503  0.000000000E+00  0.000000000E+00 -9.535592916E+02  9.535592916E+02  0.000000000E+00  0.00000E+00  9.000E+00
      25     1     1     2     0     0 -7.550498294E+00  5.582449889E+01 -2.701619323E+02  3.029589591E+02  1.249931060E+02  0.00000E+00  9.000E+00
       5     1     1     2   501     0 -1.833893812E+01 -4.007484105E+01 -4.059954867E+02  4.084081381E+02  4.750000000E+00  0.00000E+00  9.000E+00
      -5     1     1     2     0   503  1.359593782E+01 -1.577169288E-01 -2.572910184E+02  2.576938204E+02  4.750000000E+00  0.00000E+00  9.000E+00
      21     1     1     2   502   512  1.229349859E+01 -1.559194091E+01  4.046162731E+01  4.507085548E+01  1.651812370E-06  0.00000E+00  9.000E+00
#rwgt            1           9   8.0035270865569334E-003           7     1186078           0
</event>
<event>
      6   9999 -3.45752E-01  1.53997E+00 -1.00000E+00  3.84056E-01
      21    -1     0     0   501   502  0.000000000E+00  0.000000000E+00  5.874492543E+01  5.874492543E+01  0.000000000E+00  0.00000E+00  9.000E+00
      21    -1     0     0   511   503  0.000000000E+00  0.000000000E+00 -1.329856540E+03  1.329856540E+03  0.000000000E+00  0.00000E+00  9.000E+00
      25     1     1     2     0     0  1.078938401E+02  1.110526922E+02 -5.296240364E+02  5.657741565E+02  1.249999802E+02  0.00000E+00  9.000E+00
       5     1     1     2   501     0  7.943993560E-01  1.007162816E+00  3.263746298E+01  3.300624088E+01  4.750000000E+00  0.00000E+00  9.000E+00
      -5     1     1     2     0   503 -1.084838099E+02 -1.105335138E+02 -7.695324463E+02  7.849771609E+02  4.750000000E+00  0.00000E+00  9.000E+00
      21     1     1     2   511   502 -2.044295019E-01 -1.526341237E+00 -4.592594463E+00  4.843906780E+00  0.000000000E+00  0.00000E+00  9.000E+00
#rwgt            1           9 -0.60276845987907390                7     1187926           0
</event>
<event>
      6   9999  3.45752E-01  5.11314E+01 -1.00000E+00  1.34270E-01
      21    -1     0     0   501   512  0.000000000E+00  0.000000000E+00  3.748111772E+02  3.748111772E+02  0.000000000E+00  0.00000E+00  9.000E+00
      21    -1     0     0   502   503  0.000000000E+00  0.000000000E+00 -2.286475385E+02  2.286475385E+02  0.000000000E+00  0.00000E+00  9.000E+00
      25     1     1     2     0     0 -1.258761509E+01  3.702757214E+01 -1.802444057E+02  2.228062370E+02  1.250003372E+02  0.00000E+00  9.000E+00
       5     1     1     2   501     0  4.140677038E+00  5.347807955E-01  9.958735889E+00  1.179703850E+01  4.750000000E+00  0.00000E+00  9.000E+00
      -5     1     1     2     0   503  5.613874436E+01 -1.912571592E+01  1.270631203E+01  6.083884034E+01  4.750000000E+00  0.00000E+00  9.000E+00
      21     1     1     2   502   512 -4.769180631E+01 -1.843663702E+01  3.037429964E+02  3.080165999E+02  0.000000000E+00  0.00000E+00  9.000E+00
#rwgt            1           9   3.5611270986899218E-006           7     1202078           0
</event>
<event>
      6   9999  3.45752E-01  8.45762E+00 -1.00000E+00  1.95198E-01
      21    -1     0     0   502   503  0.000000000E+00  0.000000000E+00  1.128544951E+01  1.128544951E+01  0.000000000E+00  0.00000E+00  9.000E+00
      21    -1     0     0   501   511  0.000000000E+00  0.000000000E+00 -8.879470128E+02  8.879470128E+02  0.000000000E+00  0.00000E+00  9.000E+00
      25     1     1     2     0     0 -2.146478812E+00  4.477556528E+01 -4.454916889E+02  4.648615830E+02  1.249959515E+02  0.00000E+00  9.000E+00
       5     1     1     2   501     0 -2.695656815E+00 -2.310779248E+00 -4.007007736E+01  4.050654103E+01  4.750000000E+00  0.00000E+00  9.000E+00
      -5     1     1     2     0   503  1.020055142E+01 -3.592118878E+01 -2.947194291E+02  2.971135935E+02  4.750000000E+00  0.00000E+00  9.000E+00
      21     1     1     2   502   511 -5.358415789E+00 -6.543597254E+00 -9.638036799E+01  9.675074479E+01  1.348699152E-06  0.00000E+00  9.000E+00
#rwgt            1           9   1.6201139442060008E-003           7     1203116           0
</event>
<event>
      6   9999  3.45752E-01  5.81989E+00 -1.00000E+00  2.15918E-01
      21    -1     0     0   501   502  0.000000000E+00  0.000000000E+00  8.151711775E+01  8.151711775E+01  0.000000000E+00  0.00000E+00  9.000E+00
      21    -1     0     0   512   503  0.000000000E+00  0.000000000E+00 -1.713518784E+02  1.713518784E+02  0.000000000E+00  0.00000E+00  9.000E+00
      25     1     1     2     0     0 -2.337795860E+00  3.006336504E+00 -2.931419732E+01  1.284465761E+02  1.249987896E+02  0.00000E+00  9.000E+00
       5     1     1     2   501     0 -2.088298110E+00 -1.337941279E+00  2.859447250E+01  2.909222290E+01  4.750000000E+00  0.00000E+00  9.000E+00
      -5     1     1     2     0   503  7.159233907E-01 -6.152333376E+00 -2.049161702E+00  8.070025771E+00  4.750000000E+00  0.00000E+00  9.000E+00
      21     1     1     2   512   502  3.710170580E+00  4.483938150E+00 -8.706587408E+01  8.726017131E+01  0.000000000E+00  0.00000E+00  9.000E+00
#rwgt            1           9   1.1839111887420714E-002           7     1205662           0
</event>
<event>
      6   9999  3.45752E-01  1.05145E+01 -1.00000E+00  1.84927E-01
      21    -1     0     0   501   502  0.000000000E+00  0.000000000E+00  8.551068576E+01  8.551068576E+01  0.000000000E+00  0.00000E+00  9.000E+00
       1    -1     0     0   502     0  0.000000000E+00  0.000000000E+00 -1.579627700E+02  1.579627700E+02  0.000000000E+00  0.00000E+00  9.000E+00
      25     1     1     2     0     0 -1.093688631E+01  4.011094042E+00 -4.395691078E+01  1.330130654E+02  1.249982448E+02  0.00000E+00  9.000E+00
       5     1     1     2   501     0  1.237877060E+00  1.242886313E+00  3.785690867E+01  3.819404588E+01  4.750000000E+00  0.00000E+00  9.000E+00
      -5     1     1     2     0   503  6.934328216E+00  4.890525816E+00 -6.979387798E+00  1.196981640E+01  4.750000000E+00  0.00000E+00  9.000E+00
       1     1     1     2   503     0  2.764681032E+00 -1.014450617E+01 -5.937269432E+01  6.029652807E+01  6.743495762E-07  0.00000E+00  9.000E+00
#rwgt            1           9  0.93581860452809629                7     1209006           0
</event>
<event>
      6   9999 -3.45752E-01  4.51286E+01 -1.00000E+00  1.37213E-01
      21    -1     0     0   511   502  0.000000000E+00  0.000000000E+00  3.663362814E+01  3.663362814E+01  0.000000000E+00  0.00000E+00  9.000E+00
      21    -1     0     0   502   503  0.000000000E+00  0.000000000E+00 -1.181296230E+03  1.181296230E+03  0.000000000E+00  0.00000E+00  9.000E+00
      25     1     1     2     0     0 -2.738276894E+01  1.682095572E+02 -5.645185778E+02  6.027861749E+02  1.250027072E+02  0.00000E+00  9.000E+00
       5     1     1     2   501     0 -1.133733438E+00 -4.373955494E+01 -7.842986879E+01  8.993464759E+01  4.750000000E+00  0.00000E+00  9.000E+00
      -5     1     1     2     0   503  1.086582758E+01 -8.293630405E+01 -4.445625508E+02  4.523880202E+02  4.750000000E+00  0.00000E+00  9.000E+00
      21     1     1     2   511   501  1.765067480E+01 -4.153369819E+01 -5.715160467E+01  7.282101566E+01  9.536743164E-07  0.00000E+00  9.000E+00
#rwgt            1           9  -6.2631599702466347E-003           7     1210921           0
</event>
<event>
      6   9999  3.45752E-01  8.44427E+00 -1.00000E+00  1.95276E-01
      21    -1     0     0   501   502  0.000000000E+00  0.000000000E+00  9.553026493E+00  9.553026493E+00  0.000000000E+00  0.00000E+00  9.000E+00
       2    -1     0     0   502     0  0.000000000E+00  0.000000000E+00 -1.232983557E+03  1.232983557E+03  0.000000000E+00  0.00000E+00  9.000E+00
      25     1     1     2     0     0  2.074022003E+00 -2.430393537E+00 -5.124304962E+02  5.274657335E+02  1.249995128E+02  0.00000E+00  9.000E+00
       5     1     1     2   501     0  1.251741061E-01 -2.893000642E-01 -6.460077347E+00  8.024616029E+00  4.750000000E+00  0.00000E+00  9.000E+00
      -5     1     1     2     0   503 -2.376497101E+00 -5.722716117E+00 -1.118871125E+01  1.364356910E+01  4.750000000E+00  0.00000E+00  9.000E+00
       2     1     1     2   503     0  1.773009921E-01  8.442409718E+00 -6.933512461E+02  6.934026652E+02  0.000000000E+00  0.00000E+00  9.000E+00
#rwgt            1           9   2.0643064479306100E-004           7     1212213           0
</event>
<event>
      6   9999  3.45752E-01  2.29895E+01 -1.00000E+00  1.55726E-01
      21    -1     0     0   501   502  0.000000000E+00  0.000000000E+00  4.121653566E+01  4.121653566E+01  0.000000000E+00  0.00000E+00  9.000E+00
      21    -1     0     0   511   503  0.000000000E+00  0.000000000E+00 -1.865823089E+03  1.865823089E+03  0.000000000E+00  0.00000E+00  9.000E+00
      25     1     1     2     0     0 -3.675904294E+01 -5.143080167E+01 -9.122477132E+02  9.229393137E+02  1.249989277E+02  0.00000E+00  9.000E+00
       5     1     1     2   501     0  1.757251124E+01 -6.273239447E-01  2.972198595E+01  3.485893910E+01  4.750000000E+00  0.00000E+00  9.000E+00
      -5     1     1     2     0   503  4.122869323E+01  5.858947762E+01 -3.820011917E+02  3.886901143E+02  4.750000000E+00  0.00000E+00  9.000E+00
      21     1     1     2   511   502 -2.204216154E+01 -6.531352008E+00 -5.600796345E+02  5.605512576E+02  7.629394531E-06  0.00000E+00  9.000E+00
#rwgt            1           9   5.4779591034110391E-005           7     1214582           0
</event>
<event>
      6   9999  3.45752E-01  6.14740E+00 -1.00000E+00  2.12600E-01
      21    -1     0     0   501   502  0.000000000E+00  0.000000000E+00  4.089466415E+02  4.089466415E+02  0.000000000E+00  0.00000E+00  9.000E+00
      21    -1     0     0   512   503  0.000000000E+00  0.000000000E+00 -9.460314687E+01  9.460314687E+01  0.000000000E+00  0.00000E+00  9.000E+00
      25     1     1     2     0     0 -1.030333491E+02  1.575607190E+00  1.740833300E+02  2.377986211E+02  1.249992993E+02  0.00000E+00  9.000E+00
       5     1     1     2   501     0  1.901640184E+00 -2.035469610E+00  1.564419339E+02  1.565388148E+02  4.750000000E+00  0.00000E+00  9.000E+00
      -5     1     1     2     0   503  9.713246045E+01  5.128540246E+00 -6.316259775E+00  9.758829046E+01  4.750000000E+00  0.00000E+00  9.000E+00
      21     1     1     2   512   502  3.999248500E+00 -4.668677826E+00 -9.865509479E+00  1.162406205E+01  2.064765462E-07  0.00000E+00  9.000E+00
#rwgt            1           9  0.77674248261521883                7     1216684           0
</event>
<event>
      6   9999 -3.45752E-01  2.70205E+01 -1.00000E+00  1.50838E-01
      21    -1     0     0   511   502  0.000000000E+00  0.000000000E+00  1.213902712E+01  1.213902712E+01  0.000000000E+00  0.00000E+00  9.000E+00
      21    -1     0     0   502   503  0.000000000E+00  0.000000000E+00 -2.576542590E+03  2.576542590E+03  0.000000000E+00  0.00000E+00  9.000E+00
      25     1     1     2     0     0  4.638999540E+01 -6.188072891E+01 -1.267429201E+03  1.275924304E+03  1.249991803E+02  0.00000E+00  9.000E+00
       5     1     1     2   501     0  2.203803110E-01 -7.386758725E-01 -1.365808096E+01  1.448101809E+01  4.750000000E+00  0.00000E+00  9.000E+00
      -5     1     1     2     0   503 -4.682226339E+01  3.559977857E+01 -1.263230751E+03  1.264608304E+03  4.750000000E+00  0.00000E+00  9.000E+00
      21     1     1     2   511   501  2.118876812E-01  2.701962621E+01 -2.008552971E+01  3.366799074E+01  2.600839642E-06  0.00000E+00  9.000E+00
#rwgt            1           9  -3.2343972284164664E-004           7     1221291           0
</event>
<event>
      6   9999 -3.45752E-01  1.27299E+01 -1.00000E+00  1.76788E-01
      21    -1     0     0   501   502  0.000000000E+00  0.000000000E+00  3.999663363E+01  3.999663363E+01  0.000000000E+00  0.00000E+00  9.000E+00
      21    -1     0     0   502   512  0.000000000E+00  0.000000000E+00 -1.401128013E+03  1.401128013E+03  0.000000000E+00  0.00000E+00  9.000E+00
      25     1     1     2     0     0 -1.407416238E+01  5.262900205E+01 -1.245093399E+03  1.252535635E+03  1.249802027E+02  0.00000E+00  9.000E+00
       5     1     1     2   501     0  6.568961422E+00  8.462034182E+00  2.778136610E+01  3.015168451E+01  4.750000000E+00  0.00000E+00  9.000E+00
      -5     1     1     2     0   503  7.223841090E+00 -4.836428220E+01 -8.430303410E+01  9.757485194E+01  4.750000000E+00  0.00000E+00  9.000E+00
      21     1     1     2   503   512  2.813598697E-01 -1.272675403E+01 -5.951631178E+01  6.086247447E+01  6.743495762E-07  0.00000E+00  9.000E+00
#rwgt            1           9  -7.5873346748667429E-006           7     1222660           0
</event>
<event>
      6   9999  3.45752E-01  1.49114E+01 -1.00000E+00  1.70595E-01
      21    -1     0     0   501   511  0.000000000E+00  0.000000000E+00  1.851207230E+02  1.851207230E+02  0.000000000E+00  0.00000E+00  9.000E+00
      21    -1     0     0   502   503  0.000000000E+00  0.000000000E+00 -1.100477752E+03  1.100477752E+03  0.000000000E+00  0.00000E+00  9.000E+00
      25     1     1     2     0     0 -7.905663467E-02 -9.641717203E+00 -1.046880993E+03  1.054361661E+03  1.250029201E+02  0.00000E+00  9.000E+00
       5     1     1     2   501     0  1.822241600E+00 -6.723328104E+00  2.276720829E+01  2.427822025E+01  4.750000000E+00  0.00000E+00  9.000E+00
      -5     1     1     2     0   503  8.848049105E+00  5.868547063E+00 -4.805338968E+01  4.944106166E+01  4.750000000E+00  0.00000E+00  9.000E+00
      21     1     1     2   502   511 -1.059123407E+01  1.049649824E+01  1.568101461E+02  1.575175312E+02  3.303624740E-06  0.00000E+00  9.000E+00
#rwgt            1           9   2.2598246355539968E-002           7     1225719           0
</event>
<event>
      6   9999  3.45752E-01  1.94540E+00 -1.00000E+00  3.37607E-01
      21    -1     0     0   501   502  0.000000000E+00  0.000000000E+00  1.354340289E+01  1.354340289E+01  0.000000000E+00  0.00000E+00  9.000E+00
      21    -1     0     0   502   512  0.000000000E+00  0.000000000E+00 -9.854123298E+02  9.854123298E+02  0.000000000E+00  0.00000E+00  9.000E+00
      25     1     1     2     0     0  2.594786976E+01 -2.649510187E+01 -5.570651805E+02  5.721195249E+02  1.249954122E+02  0.00000E+00  9.000E+00
       5     1     1     2   501     0  1.033978842E+00  2.138152477E+00  3.652844694E+00  6.445663862E+00  4.750000000E+00  0.00000E+00  9.000E+00
      -5     1     1     2     0   503 -2.754117567E+01  2.622021178E+01 -3.961099691E+02  3.979594025E+02  4.750000000E+00  0.00000E+00  9.000E+00
      21     1     1     2   503   512  5.593270650E-01 -1.863262383E+00 -2.234662199E+01  2.243114147E+01  2.384185791E-07  0.00000E+00  9.000E+00
#rwgt            1           9   1.3481213698979583E-003           7     1229008           0
</event>
<event>
      6   9999  3.45752E-01  1.34013E+01 -1.00000E+00  1.74725E-01
      21    -1     0     0   511   502  0.000000000E+00  0.000000000E+00  3.755833888E+01  3.755833888E+01  0.000000000E+00  0.00000E+00  9.000E+00
      21    -1     0     0   502   503  0.000000000E+00  0.000000000E+00 -1.105573104E+03  1.105573104E+03  0.000000000E+00  0.00000E+00  9.000E+00
      25     1     1     2     0     0 -7.596638678E+01  5.348325748E+01 -8.680989650E+02  8.819593395E+02  1.250004507E+02  0.00000E+00  9.000E+00
       5     1     1     2   501     0  6.446498815E+01 -7.190868812E+01 -9.241184323E+01  1.337501603E+02  4.750000000E+00  0.00000E+00  9.000E+00
      -5     1     1     2     0   503 -1.095856898E+00  1.385340312E+01 -1.122488247E+02  1.132054717E+02  4.750000000E+00  0.00000E+00  9.000E+00
      21     1     1     2   511   501  1.259725553E+01  4.572027515E+00  4.744867936E+00  1.421647123E+01  5.870376707E-07  0.00000E+00  9.000E+00
#rwgt            1           9   3.7036332657840583E-004           7     1237677           0
</event>
<event>
      6   9999 -3.45752E-01  2.68262E+01 -1.00000E+00  1.51049E-01
      21    -1     0     0   501   512  0.000000000E+00  0.000000000E+00  2.913480768E+01  2.913480768E+01  0.000000000E+00  0.00000E+00  9.000E+00
      21    -1     0     0   502   503  0.000000000E+00  0.000000000E+00 -9.972186264E+02  9.972186264E+02  0.000000000E+00  0.00000E+00  9.000E+00
      25     1     1     2     0     0  3.223231551E+01 -4.877441449E+01 -6.283382030E+02  6.433134171E+02  1.250015583E+02  0.00000E+00  9.000E+00
       5     1     1     2   501     0 -2.606461242E+00 -8.582691231E+00  7.703021647E+00  1.274187080E+01  4.750000000E+00  0.00000E+00  9.000E+00
      -5     1     1     2     0   503 -3.327801696E+01  3.078063155E+01 -3.391767797E+02  3.422255456E+02  4.750000000E+00  0.00000E+00  9.000E+00
      21     1     1     2   502   512  3.652162692E+00  2.657647417E+01 -8.271857634E+00  2.807260053E+01  4.768371582E-07  0.00000E+00  9.000E+00
#rwgt            1           9  -2.9216294446105229E-002           7     1240640           0
</event>
<event>
      6   9999  3.45752E-01  1.03019E+01 -1.00000E+00  1.85843E-01
      21    -1     0     0   501   511  0.000000000E+00  0.000000000E+00  4.230682524E+02  4.230682524E+02  0.000000000E+00  0.00000E+00  9.000E+00
      21    -1     0     0   502   503  0.000000000E+00  0.000000000E+00 -7.134714876E+02  7.134714876E+02  0.000000000E+00  0.00000E+00  9.000E+00
      25     1     1     2     0     0 -2.574692037E+00 -8.059056064E+00 -6.465720106E+02  6.585988206E+02  1.250018564E+02  0.00000E+00  9.000E+00
       5     1     1     2   501     0 -1.746752126E-02 -1.065778213E+00 -3.841579186E+00  6.201323968E+00  4.750000000E+00  0.00000E+00  9.000E+00
      -5     1     1     2     0   503  4.054073770E+00 -1.072768746E+00 -5.562091887E+01  5.598067044E+01  4.750000000E+00  0.00000E+00  9.000E+00
      21     1     1     2   502   511 -1.461914212E+00  1.019760302E+01  4.156312735E+02  4.157589251E+02  0.000000000E+00  0.00000E+00  9.000E+00
#rwgt            1           9   4.6542275809101667E-004           7     1241956           0
</event>
<event>
      6   9999  3.45752E-01  2.40815E+01 -1.00000E+00  1.54289E-01
      21    -1     0     0   501   502  0.000000000E+00  0.000000000E+00  1.582538380E+03  1.582538380E+03  0.000000000E+00  0.00000E+00  9.000E+00
      21    -1     0     0   502   512  0.000000000E+00  0.000000000E+00 -3.829263428E+01  3.829263428E+01  0.000000000E+00  0.00000E+00  9.000E+00
      25     1     1     2     0     0  3.179728095E+01  4.503220710E+01  1.078036970E+02  1.740134098E+02  1.249802502E+02  0.00000E+00  9.000E+00
       5     1     1     2   501     0  3.073537885E+00 -3.597578633E+00  9.825884501E+02  9.826113240E+02  4.750000000E+00  0.00000E+00  9.000E+00
      -5     1     1     2     0   503 -2.508377266E+01 -6.343759781E+01  3.902624515E+02  3.962081120E+02  4.750000000E+00  0.00000E+00  9.000E+00
      21     1     1     2   503   512 -9.787046172E+00  2.200296934E+01  6.359114727E+01  6.799816868E+01  6.743495762E-07  0.00000E+00  9.000E+00
#rwgt            1           9   7.5372778512565746E-004           7     1244034           0
</event>
<event>
      6   9999  3.45752E-01  3.49468E+00 -1.00000E+00  2.60650E-01
       2    -1     0     0   501     0  0.000000000E+00  0.000000000E+00  2.968201538E+03  2.968201538E+03  0.000000000E+00  0.00000E+00  9.000E+00
      21    -1     0     0   511   502  0.000000000E+00  0.000000000E+00 -4.844524931E+01  4.844524931E+01  0.000000000E+00  0.00000E+00  9.000E+00
      25     1     1     2     0     0 -4.788448193E+01 -8.027103701E+01  2.596303484E+03  2.600987614E+03  1.249336711E+02  0.00000E+00  9.000E+00
       5     1     1     2   501     0 -6.505923343E+00  2.415934532E+01  1.038002423E+02  1.068786873E+02  4.750000000E+00  0.00000E+00  9.000E+00
      -5     1     1     2     0   502  5.190147685E+01  5.856485336E+01  2.583205254E+02  2.699549253E+02  4.750000000E+00  0.00000E+00  9.000E+00
       2     1     1     2   511     0  2.488928424E+00 -2.453161670E+00 -3.866796341E+01  3.882556067E+01  3.438521648E-06  0.00000E+00  9.000E+00
#rwgt            1           4   1.2432150950245581E-003           7     1246004           0
</event>
<event>
      6   9999  3.45752E-01  2.77292E+00 -1.00000E+00  2.86169E-01
      21    -1     0     0   501   502  0.000000000E+00  0.000000000E+00  1.064529559E+01  1.064529559E+01  0.000000000E+00  0.00000E+00  9.000E+00
       2    -1     0     0   502     0  0.000000000E+00  0.000000000E+00 -1.870766413E+03  1.870766413E+03  0.000000000E+00  0.00000E+00  9.000E+00
      25     1     1     2     0     0 -2.963970926E+00 -3.621497741E+00 -4.703171364E+02  4.866693380E+02  1.250077414E+02  0.00000E+00  9.000E+00
       5     1     1     2   501     0 -9.378813651E-01 -2.421121211E-01 -1.508747951E-02  4.847779633E+00  4.750000000E+00  0.00000E+00  9.000E+00
      -5     1     1     2     0   503  6.184505611E+00  2.289264840E+00 -3.234379714E+02  3.235400635E+02  4.750000000E+00  0.00000E+00  9.000E+00
       2     1     1     2   503     0 -2.282653320E+00  1.574345022E+00 -1.066350922E+03  1.066354527E+03  0.000000000E+00  0.00000E+00  9.000E+00
#rwgt            1           9   2.3470408874998465E-003           7     1246848           0
</event>
<event>
      6   9999  3.45752E-01  1.66011E+01 -1.00000E+00  1.66641E-01
      21    -1     0     0   502   503  0.000000000E+00  0.000000000E+00  1.175997714E+01  1.175997714E+01  0.000000000E+00  0.00000E+00  9.000E+00
      21    -1     0     0   501   511  0.000000000E+00  0.000000000E+00 -9.293515138E+02  9.293515138E+02  0.000000000E+00  0.00000E+00  9.000E+00
      25     1     1     2     0     0 -2.045395198E+01 -3.902472070E+01 -4.207029601E+02  4.410863452E+02  1.249995614E+02  0.00000E+00  9.000E+00
       5     1     1     2   501     0  1.255708489E+01  1.805609804E+01 -2.386121782E+02  2.396706848E+02  4.750000000E+00  0.00000E+00  9.000E+00
      -5     1     1     2     0   503 -7.017619883E+00  1.367787442E+01 -1.390491405E+02  1.399769881E+02  4.750000000E+00  0.00000E+00  9.000E+00
      21     1     1     2   502   511  1.491448697E+01  7.290748235E+00 -1.192272579E+02  1.203774728E+02  1.348699152E-06  0.00000E+00  9.000E+00
#rwgt            1           9   4.2702901286192533E-006           7     1252655           0
</event>
<event>
      6   9999  3.45752E-01  2.05354E+00 -1.00000E+00  3.28509E-01
      21    -1     0     0   512   502  0.000000000E+00  0.000000000E+00  1.661495974E+01  1.661495974E+01  0.000000000E+00  0.00000E+00  9.000E+00
      21    -1     0     0   502   503  0.000000000E+00  0.000000000E+00 -6.297508525E+02  6.297508525E+02  0.000000000E+00  0.00000E+00  9.000E+00
      25     1     1     2     0     0  1.079256944E+01  1.040147932E+01 -3.333869141E+02  3.563653144E+02  1.249989301E+02  0.00000E+00  9.000E+00
       5     1     1     2   501     0 -3.028488122E-01  1.474826711E-01 -4.936614276E+00  6.859018082E+00  4.750000000E+00  0.00000E+00  9.000E+00
      -5     1     1     2     0   503 -1.242118583E+01 -1.124644679E+01 -2.784339873E+02  2.789781644E+02  4.750000000E+00  0.00000E+00  9.000E+00
      21     1     1     2   512   501  1.931465197E+00  6.974848019E-01  3.621622848E+00  4.163315375E+00  2.632069846E-07  0.00000E+00  9.000E+00
#rwgt            1           9   9.6510809468350182E-004           7     1254153           0
</event>
<event>
      6   9999  3.45752E-01  1.61145E+01 -1.00000E+00  1.67717E-01
      21    -1     0     0   501   502  0.000000000E+00  0.000000000E+00  2.290682484E+01  2.290682484E+01  0.000000000E+00  0.00000E+00  9.000E+00
      21    -1     0     0   511   503  0.000000000E+00  0.000000000E+00 -1.295929678E+03  1.295929678E+03  0.000000000E+00  0.00000E+00  9.000E+00
      25     1     1     2     0     0  2.000801206E+01  6.351172343E+01 -8.850071470E+02  8.962679133E+02  1.249978505E+02  0.00000E+00  9.000E+00
       5     1     1     2   501     0  1.872943610E+00  2.316784014E+00  9.080107085E+00  1.067175012E+01  4.750000000E+00  0.00000E+00  9.000E+00
      -5     1     1     2     0   503 -2.846575087E+01 -5.112081093E+01 -1.129508427E+02  1.272952931E+02  4.750000000E+00  0.00000E+00  9.000E+00
      21     1     1     2   511   502  6.584795197E+00 -1.470769651E+01 -2.841449708E+02  2.846015466E+02  3.814697266E-06  0.00000E+00  9.000E+00
#rwgt            1           9   1.3859484182854340E-003           7     1261897           0
</event>
<event>
      6   9999  3.45752E-01  8.51923E+00 -1.00000E+00  1.94836E-01
      21    -1     0     0   512   502  0.000000000E+00  0.000000000E+00  9.068593585E+02  9.068593585E+02  0.000000000E+00  0.00000E+00  9.000E+00
      21    -1     0     0   502   503  0.000000000E+00  0.000000000E+00 -8.374383099E+02  8.374383099E+02  0.000000000E+00  0.00000E+00  9.000E+00
      25     1     1     2     0     0  2.319423335E+00  1.097381663E+01 -8.039389067E+02  8.136776021E+02  1.250106799E+02  0.00000E+00  9.000E+00
       5     1     1     2   501     0  9.235568747E-01  4.113243380E+00  4.553236548E+00  7.814486002E+00  4.750000000E+00  0.00000E+00  9.000E+00
      -5     1     1     2     0   503 -5.630417411E+00 -6.909202775E+00 -2.603396954E+01  2.792433979E+01  4.750000000E+00  0.00000E+00  9.000E+00
      21     1     1     2   512   501  2.387437201E+00 -8.177857239E+00  8.948406883E+02  8.948812405E+02  0.000000000E+00  0.00000E+00  9.000E+00
#rwgt            1           9   5.1998655223907712E-004           7     1264486           0
</event>
<event>
      6   9999  3.45752E-01  6.40107E+00 -1.00000E+00  2.10217E-01
      21    -1     0     0   502   511  0.000000000E+00  0.000000000E+00  1.176243421E+02  1.176243421E+02  0.000000000E+00  0.00000E+00  9.000E+00
      21    -1     0     0   501   502  0.000000000E+00  0.000000000E+00 -7.933359589E+02  7.933359589E+02  0.000000000E+00  0.00000E+00  9.000E+00
      25     1     1     2     0     0 -1.134458113E+01 -4.364403692E+00 -3.964553710E+02  4.158717929E+02  1.249989575E+02  0.00000E+00  9.000E+00
       5     1     1     2   501     0  5.222222836E+00  5.180163171E+00 -3.688500070E+02  3.689539211E+02  4.750000000E+00  0.00000E+00  9.000E+00
      -5     1     1     2     0   503 -4.675254539E-02  8.918008521E-01 -1.785384573E+01  1.849648080E+01  4.750000000E+00  0.00000E+00  9.000E+00
      21     1     1     2   503   511  6.169110838E+00 -1.707560331E+00  1.074476069E+02  1.076381062E+02  1.907348633E-06  0.00000E+00  9.000E+00
#rwgt            1           9   8.7187089594744354                7     1268279           0
</event>
<event>
      6   9999  3.45752E-01  4.86484E+01 -1.00000E+00  1.35427E-01
      21    -1     0     0   512   502  0.000000000E+00  0.000000000E+00  4.848444353E+02  4.848444353E+02  0.000000000E+00  0.00000E+00  9.000E+00
      21    -1     0     0   502   503  0.000000000E+00  0.000000000E+00 -1.124033673E+03  1.124033673E+03  0.000000000E+00  0.00000E+00  9.000E+00
      25     1     1     2     0     0 -5.039209354E+00 -7.926336505E+01 -9.513614584E+02  9.628198946E+02  1.250018004E+02  0.00000E+00  9.000E+00
       5     1     1     2   501     0 -3.538557240E+01  1.033941542E+02 -1.063751811E+02  1.525802461E+02  4.750000000E+00  0.00000E+00  9.000E+00
      -5     1     1     2     0   503 -9.710810696E-01  1.424062295E+00 -3.599080597E+01  3.634379680E+01  4.750000000E+00  0.00000E+00  9.000E+00
      21     1     1     2   512   501  4.139586283E+01 -2.555485140E+01  4.545382078E+02  4.571341709E+02  0.000000000E+00  0.00000E+00  9.000E+00
#rwgt            1           9   1.9315928907900570E-002           7     1271494           0
</event>
<event>
      6   9999 -3.45752E-01  3.14678E+00 -1.00000E+00  2.71596E-01
      21    -1     0     0   501   502  0.000000000E+00  0.000000000E+00  1.030994883E+01  1.030994883E+01  0.000000000E+00  0.00000E+00  9.000E+00
      21    -1     0     0   502   511  0.000000000E+00  0.000000000E+00 -8.867144870E+02  8.867144870E+02  0.000000000E+00  0.00000E+00  9.000E+00
      25     1     1     2     0     0  6.030408003E+00  1.296513431E+01 -5.557030266E+02  5.697633339E+02  1.249797679E+02  0.00000E+00  9.000E+00
       5     1     1     2   501     0  1.006785458E+00  2.927314015E-01  7.662789150E-01  4.924326554E+00  4.750000000E+00  0.00000E+00  9.000E+00
      -5     1     1     2     0   503 -7.269169214E+00 -1.639608101E+01 -2.081371315E+02  2.089624376E+02  4.750000000E+00  0.00000E+00  9.000E+00
      21     1     1     2   503   511  2.319757522E-01  3.138215307E+00 -1.133306590E+02  1.133743378E+02  1.348699152E-06  0.00000E+00  9.000E+00
#rwgt            1           9  -9.5262786215630953E-003           7     1273082           0
</event>
<event>
      6   9999  3.45752E-01  6.43785E+00 -1.00000E+00  2.09884E-01
      21    -1     0     0   501   502  0.000000000E+00  0.000000000E+00  1.012322927E+03  1.012322927E+03  0.000000000E+00  0.00000E+00  9.000E+00
      21    -1     0     0   502   512  0.000000000E+00  0.000000000E+00 -5.994882899E+01  5.994882899E+01  0.000000000E+00  0.00000E+00  9.000E+00
      25     1     1     2     0     0 -2.886266390E+01 -1.587510661E+01  5.154971687E+02  5.314579154E+02  1.250004499E+02  0.00000E+00  9.000E+00
       5     1     1     2   501     0  1.206048033E+00 -6.074851343E-01  4.460502581E+02  4.460775928E+02  4.750000000E+00  0.00000E+00  9.000E+00
      -5     1     1     2     0   503  2.373971021E+01  2.159177325E+01  3.637286302E+01  4.873731812E+01  4.750000000E+00  0.00000E+00  9.000E+00
      21     1     1     2   503   512  3.916905658E+00 -5.109181500E+00 -4.554619212E+01  4.599892936E+01  1.651812370E-06  0.00000E+00  9.000E+00
#rwgt            1           9   1.1727743371979747E-003           7     1279318           0
</event>
<event>
      6   9999  3.45752E-01  1.08561E+01 -1.00000E+00  1.83513E-01
      21    -1     0     0   502   511  0.000000000E+00  0.000000000E+00  1.980675109E+01  1.980675109E+01  0.000000000E+00  0.00000E+00  9.000E+00
      21    -1     0     0   501   502  0.000000000E+00  0.000000000E+00 -7.049182983E+02  7.049182983E+02  0.000000000E+00  0.00000E+00  9.000E+00
      25     1     1     2     0     0  6.781751030E+00  1.340552256E+01 -6.257077536E+02  6.382494204E+02  1.250057181E+02  0.00000E+00  9.000E+00
       5     1     1     2   501     0 -2.088559791E+00 -1.076449106E+00 -4.202463050E+01  4.235744200E+01  4.750000000E+00  0.00000E+00  9.000E+00
      -5     1     1     2     0   503 -2.709176718E+00 -1.655834899E+00 -2.821026207E+01  2.878302996E+01  4.750000000E+00  0.00000E+00  9.000E+00
      21     1     1     2   503   511 -1.984014521E+00 -1.067323855E+01  1.083109898E+01  1.533515699E+01  4.460403188E-07  0.00000E+00  9.000E+00
#rwgt            1           9   19.726982356509481                7     1283339           0
</event>
<event>
      6   9999 -3.45752E-01  1.65935E+01 -1.00000E+00  1.66657E-01
      21    -1     0     0   501   502  0.000000000E+00  0.000000000E+00  1.829551388E+02  1.829551388E+02  0.000000000E+00  0.00000E+00  9.000E+00
      21    -1     0     0   512   503  0.000000000E+00  0.000000000E+00 -1.133697565E+02  1.133697565E+02  0.000000000E+00  0.00000E+00  9.000E+00
      25     1     1     2     0     0  3.314962521E+00  2.086129081E+01  2.368126934E+01  1.289665706E+02  1.250015655E+02  0.00000E+00  9.000E+00
       5     1     1     2   501     0 -1.434250440E+00  2.655561508E+00  5.634486673E+01  5.662522042E+01  4.750000000E+00  0.00000E+00  9.000E+00
      -5     1     1     2     0   503 -4.960338823E+00 -7.211683066E+00  4.849446535E+01  4.950645416E+01  4.750000000E+00  0.00000E+00  9.000E+00
      21     1     1     2   512   502  3.079626742E+00 -1.630516925E+01 -5.893521912E+01  6.122665023E+01  6.743495762E-07  0.00000E+00  9.000E+00
#rwgt            1           9  -1.1536771179194882E-002           7     1285519           0
</event>
<event>
      6   9999  3.45752E-01  1.03769E+01 -1.00000E+00  1.85517E-01
      -2    -1     0     0     0   502  0.000000000E+00  0.000000000E+00  1.534978088E+03  1.534978088E+03  0.000000000E+00  0.00000E+00  9.000E+00
      21    -1     0     0   502   503  0.000000000E+00  0.000000000E+00 -8.419918120E+02  8.419918120E+02  0.000000000E+00  0.00000E+00  9.000E+00
      25     1     1     2     0     0  5.604339371E+00 -3.849541012E+01 -4.260191155E+02  4.456778169E+02  1.249924976E+02  0.00000E+00  9.000E+00
       5     1     1     2   501     0 -3.079701963E+00  1.534302670E+01 -8.850735136E+01  9.000559303E+01  4.750000000E+00  0.00000E+00  9.000E+00
      -5     1     1     2     0   503  6.769811331E+00  2.776682426E+01 -3.162069544E+02  3.175314588E+02  4.750000000E+00  0.00000E+00  9.000E+00
      -2     1     1     2     0   501 -9.294448739E+00 -4.614440838E+00  1.523719697E+03  1.523755031E+03  2.157918644E-05  0.00000E+00  9.000E+00
#rwgt            1           9   1.2171841045178259E-003           7     1287454           0
</event>
<event>
      6   9999  3.45752E-01  1.09631E+01 -1.00000E+00  1.83083E-01
      21    -1     0     0   501   502  0.000000000E+00  0.000000000E+00  2.918303087E+00  2.918303087E+00  0.000000000E+00  0.00000E+00  9.000E+00
      21    -1     0     0   511   503  0.000000000E+00  0.000000000E+00 -4.878732588E+03  4.878732588E+03  0.000000000E+00  0.00000E+00  9.000E+00
      25     1     1     2     0     0  3.558114177E+01  1.417049282E+01 -4.331467414E+03  4.333439889E+03  1.249979671E+02  0.00000E+00  9.000E+00
       5     1     1     2   501     0  1.392653296E-01  1.529789148E+00 -6.723033491E+00  8.373847920E+00  4.750000000E+00  0.00000E+00  9.000E+00
      -5     1     1     2     0   503 -2.538976657E+01 -1.203047767E+01 -1.983537092E+02  2.003899426E+02  4.750000000E+00  0.00000E+00  9.000E+00
      21     1     1     2   511   502 -1.033064053E+01 -3.669804302E+00 -3.392701275E+02  3.394472109E+02  3.814697266E-06  0.00000E+00  9.000E+00
#rwgt            1           9   7.2673423477783024E-006           7     1290016           0
</event>
<event>
      6   9999  3.45752E-01  5.65607E+00 -1.00000E+00  2.17692E-01
      21    -1     0     0   501   502  0.000000000E+00  0.000000000E+00  8.967729490E+00  8.967729490E+00  0.000000000E+00  0.00000E+00  9.000E+00
      21    -1     0     0   512   503  0.000000000E+00  0.000000000E+00 -8.152275623E+02  8.152275623E+02  0.000000000E+00  0.00000E+00  9.000E+00
      25     1     1     2     0     0 -8.409212645E+00  8.962508632E+00 -4.504933538E+02  4.676757315E+02  1.250011466E+02  0.00000E+00  9.000E+00
       5     1     1     2   501     0 -1.354264127E+00 -7.370903797E+00 -1.282803540E+02  1.285868422E+02  4.750000000E+00  0.00000E+00  9.000E+00
      -5     1     1     2     0   503  4.637189578E+00 -3.981648071E+00 -9.070484726E+01  9.103454765E+01  4.750000000E+00  0.00000E+00  9.000E+00
      21     1     1     2   512   502  5.126287195E+00  2.390043236E+00 -1.367812778E+02  1.368981705E+02  2.697398305E-06  0.00000E+00  9.000E+00
#rwgt            1           9   4.8862380151873774E-002           7     1292318           0
</event>
<event>
      6   9999  3.45752E-01  5.78942E+00 -1.00000E+00  2.16242E-01
      21    -1     0     0   501   502  0.000000000E+00  0.000000000E+00  4.910587628E+03  4.910587628E+03  0.000000000E+00  0.00000E+00  9.000E+00
      21    -1     0     0   502   511  0.000000000E+00  0.000000000E+00 -1.303607778E+02  1.303607778E+02  0.000000000E+00  0.00000E+00  9.000E+00
      25     1     1     2     0     0 -1.766380180E+01 -1.429342438E+01  2.503968554E+03  2.507189613E+03  1.249996908E+02  0.00000E+00  9.000E+00
       5     1     1     2   501     0  1.267786547E+00  4.144344148E-02  2.155372594E+03  2.155378201E+03  4.750000000E+00  0.00000E+00  9.000E+00
      -5     1     1     2     0   503  1.286780620E+01  1.884209083E+01  2.490236791E+02  2.501118951E+02  4.750000000E+00  0.00000E+00  9.000E+00
      21     1     1     2   503   511  3.528209055E+00 -4.590109890E+00 -1.281379770E+02  1.282686966E+02  8.092194914E-06  0.00000E+00  9.000E+00
#rwgt            1           9   4.3550815102436442E-005           7     1296064           0
</event>
<event>
      6   9999  3.45752E-01  1.57662E+01 -1.00000E+00  1.68517E-01
      21    -1     0     0   512   502  0.000000000E+00  0.000000000E+00  6.017964438E+01  6.017964438E+01  0.000000000E+00  0.00000E+00  9.000E+00
      21    -1     0     0   502   503  0.000000000E+00  0.000000000E+00 -7.330530986E+02  7.330530986E+02  0.000000000E+00  0.00000E+00  9.000E+00
      25     1     1     2     0     0 -7.274211315E+01 -2.313088537E+01 -3.280923230E+02  3.593017795E+02  1.250069738E+02  0.00000E+00  9.000E+00
       5     1     1     2   501     0  2.739865691E+00  1.938146459E+00  1.158546209E+01  1.296336019E+01  4.750000000E+00  0.00000E+00  9.000E+00
      -5     1     1     2     0   503  8.475556375E+01  1.563271541E+01 -3.815853460E+02  3.912260551E+02  4.750000000E+00  0.00000E+00  9.000E+00
      21     1     1     2   512   501 -1.475331629E+01  5.560023502E+00  2.521875267E+01  2.974154819E+01  1.011524364E-06  0.00000E+00  9.000E+00
#rwgt            1           9  0.17826320786355668                7     1299168           0
</event>
<event>
      6   9999  3.45752E-01  3.83249E+01 -1.00000E+00  1.41272E-01
      21    -1     0     0   511   502  0.000000000E+00  0.000000000E+00  7.078825747E+02  7.078825747E+02  0.000000000E+00  0.00000E+00  9.000E+00
      21    -1     0     0   502   503  0.000000000E+00  0.000000000E+00 -1.130115532E+03  1.130115532E+03  0.000000000E+00  0.00000E+00  9.000E+00
      25     1     1     2     0     0  2.204707931E+01 -2.277933857E+01 -9.170450002E+02  9.260678111E+02  1.250003456E+02  0.00000E+00  9.000E+00
       5     1     1     2   501     0  7.437981005E+00 -7.862373547E+00  2.686505773E+01  2.935020113E+01  4.750000000E+00  0.00000E+00  9.000E+00
      -5     1     1     2     0   503 -1.018835879E+01 -2.470739178E+00 -2.066124754E+02  2.069328023E+02  4.750000000E+00  0.00000E+00  9.000E+00
      21     1     1     2   511   501 -1.929670152E+01  3.311245129E+01  6.745594607E+02  6.756472920E+02  1.321449896E-05  0.00000E+00  9.000E+00
#rwgt            1           9  0.88195048294101208                7     1301523           0
</event>
<event>
      6   9999  3.45752E-01  9.61603E+00 -1.00000E+00  1.89003E-01
      21    -1     0     0   501   512  0.000000000E+00  0.000000000E+00  1.224202027E+02  1.224202027E+02  0.000000000E+00  0.00000E+00  9.000E+00
      21    -1     0     0   502   503  0.000000000E+00  0.000000000E+00 -7.625813499E+01  7.625813499E+01  0.000000000E+00  0.00000E+00  9.000E+00
      25     1     1     2     0     0  8.673393101E+00  1.081815286E-01 -1.566756437E+01  1.262764751E+02  1.250001446E+02  0.00000E+00  9.000E+00
       5     1     1     2   501     0 -1.334105906E+00 -9.960715165E-01  3.820860847E+01  3.853871117E+01  4.750000000E+00  0.00000E+00  9.000E+00
      -5     1     1     2     0   503 -6.999914709E+00 -8.722151738E+00  2.035843882E+01  2.370871713E+01  4.750000000E+00  0.00000E+00  9.000E+00
      21     1     1     2   502   512 -3.393724855E-01  9.610041726E+00  3.262584775E+00  1.015443426E+01  1.264405455E-07  0.00000E+00  9.000E+00
#rwgt            1           9   4.6684793913927535E-004           7     1303015           0
</event>
<event>
      6   9999  3.45752E-01  3.72043E+01 -1.00000E+00  1.42035E-01
      21    -1     0     0   501   502  0.000000000E+00  0.000000000E+00  2.923061999E+03  2.923061999E+03  0.000000000E+00  0.00000E+00  9.000E+00
      21    -1     0     0   502   511  0.000000000E+00  0.000000000E+00 -2.997177953E+01  2.997177953E+01  0.000000000E+00  0.00000E+00  9.000E+00
      25     1     1     2     0     0  4.555681854E+00  2.301317553E+02  1.545702985E+03  1.567738376E+03  1.249980833E+02  0.00000E+00  9.000E+00
       5     1     1     2   501     0 -9.309936307E-02  5.460794801E+00  5.818395914E+02  5.818846119E+02  4.750000000E+00  0.00000E+00  9.000E+00
      -5     1     1     2     0   503 -2.491823266E+01 -2.045163978E+02  6.300142373E+02  6.628637695E+02  4.750000000E+00  0.00000E+00  9.000E+00
      21     1     1     2   503   511  2.045565017E+01 -3.107615227E+01  1.355334061E+02  1.405470208E+02  1.907348633E-06  0.00000E+00  9.000E+00
#rwgt            1           9   8.7906351501924745E-003           7     1305601           0
</event>
<event>
      6   9999 -3.45752E-01  1.01112E+01 -1.00000E+00  1.86689E-01
      21    -1     0     0   512   503  0.000000000E+00  0.000000000E+00  7.891093918E+02  7.891093918E+02  0.000000000E+00  0.00000E+00  9.000E+00
      21    -1     0     0   501   502  0.000000000E+00  0.000000000E+00 -5.059924699E+01  5.059924699E+01  0.000000000E+00  0.00000E+00  9.000E+00
      25     1     1     2     0     0 -2.222410921E+01  8.613273369E+01  7.991307239E+01  1.729807141E+02  1.249938777E+02  0.00000E+00  9.000E+00
       5     1     1     2   501     0  1.998365117E+01 -5.256883080E+00  1.091854750E+02  1.112250492E+02  4.750000000E+00  0.00000E+00  9.000E+00
      -5     1     1     2     0   503  2.015135136E+00 -7.076714801E+01  4.474242853E+02  4.530155666E+02  4.750000000E+00  0.00000E+00  9.000E+00
      21     1     1     2   512   502  2.253229017E-01 -1.010870260E+01  1.019873122E+02  1.024873089E+02  1.348699152E-06  0.00000E+00  9.000E+00
#rwgt            1           9  -4.0650694846253374E-002           7     1307053           0
</event>
<event>
      6   9999  3.45752E-01  8.73272E+00 -1.00000E+00  1.93614E-01
      21    -1     0     0   501   502  0.000000000E+00  0.000000000E+00  3.425405063E+02  3.425405063E+02  0.000000000E+00  0.00000E+00  9.000E+00
      21    -1     0     0   511   503  0.000000000E+00  0.000000000E+00 -8.036636622E+01  8.036636622E+01  0.000000000E+00  0.00000E+00  9.000E+00
      25     1     1     2     0     0 -4.876235661E+00 -3.874357867E+00 -1.317662606E+01  1.258463836E+02  1.249996019E+02  0.00000E+00  9.000E+00
       5     1     1     2   501     0  8.468821160E-01 -3.065082338E+00  2.805859984E+02  2.806442177E+02  4.750000000E+00  0.00000E+00  9.000E+00
      -5     1     1     2     0   503 -3.208567272E+00  2.053441096E+00 -4.654796202E+00  7.664277654E+00  4.750000000E+00  0.00000E+00  9.000E+00
      21     1     1     2   511   502  7.237920817E+00  4.885999109E+00 -5.804360699E-01  8.751993549E+00  1.102585240E-07  0.00000E+00  9.000E+00
#rwgt            1           9   210.24698815511007                7     1311159           0
</event>
<event>
      6   9999  3.45752E-01  1.87690E+01 -1.00000E+00  1.62345E-01
      21    -1     0     0   501   502  0.000000000E+00  0.000000000E+00  4.302629434E+01  4.302629434E+01  0.000000000E+00  0.00000E+00  9.000E+00
      21    -1     0     0   502   512  0.000000000E+00  0.000000000E+00 -1.421792441E+03  1.421792441E+03  0.000000000E+00  0.00000E+00  9.000E+00
      25     1     1     2     0     0 -4.374314874E+00 -2.542293157E+01 -1.114598231E+03  1.121882169E+03  1.249996983E+02  0.00000E+00  9.000E+00
       5     1     1     2   501     0 -9.652557073E+00  1.194856349E+00  3.787408008E+01  3.939045547E+01  4.750000000E+00  0.00000E+00  9.000E+00
      -5     1     1     2     0   503  6.635253781E+00  6.975861654E+00 -1.425172792E+02  1.429210503E+02  4.750000000E+00  0.00000E+00  9.000E+00
      21     1     1     2   503   512  7.391618166E+00  1.725221357E+01 -1.595247162E+02  1.606250602E+02  0.000000000E+00  0.00000E+00  9.000E+00
#rwgt            1           9   1.4425563413131198E-004           7     1314751           0
</event>
<event>
      6   9999  3.45752E-01  4.35951E+00 -1.00000E+00  2.40359E-01
       2    -1     0     0   501     0  0.000000000E+00  0.000000000E+00  1.291075529E+03  1.291075529E+03  0.000000000E+00  0.00000E+00  9.000E+00
      21    -1     0     0   502   503  0.000000000E+00  0.000000000E+00 -3.088215628E+03  3.088215628E+03  0.000000000E+00  0.00000E+00  9.000E+00
      25     1     1     2     0     0 -8.507632376E+00 -5.231257212E+00 -2.299252985E+03  2.302669533E+03  1.249917661E+02  0.00000E+00  9.000E+00
       5     1     1     2   501     0  2.310586430E+00 -2.673904616E+00 -3.773371453E+00  7.020641543E+00  4.750000000E+00  0.00000E+00  9.000E+00
      -5     1     1     2     0   503  9.343165420E+00  4.887335433E+00 -7.818109079E+02  7.818964375E+02  4.750000000E+00  0.00000E+00  9.000E+00
       2     1     1     2   502     0 -3.146119474E+00  3.017826396E+00  1.287697165E+03  1.287704545E+03  2.642899792E-05  0.00000E+00  9.000E+00
#rwgt            1           9   7.2821896167374008E-004           7     1317104           0
</event>
<event>
      6   9999  3.45752E-01  2.27334E+01 -1.00000E+00  1.56077E-01
      21    -1     0     0   501   502  0.000000000E+00  0.000000000E+00  1.288467218E+02  1.288467218E+02  0.000000000E+00  0.00000E+00  9.000E+00
      21    -1     0     0   502   511  0.000000000E+00  0.000000000E+00 -5.760515124E+02  5.760515124E+02  0.000000000E+00  0.00000E+00  9.000E+00
      25     1     1     2     0     0 -8.127523288E+01  1.048012449E+02 -9.130696077E+01  2.038036001E+02  1.249399132E+02  0.00000E+00  9.000E+00
       5     1     1     2   501     0 -1.137591065E+02 -2.886726709E+01 -5.315067209E+01  1.289263738E+02  4.750000000E+00  0.00000E+00  9.000E+00
      -5     1     1     2     0   503  1.855394732E+02 -5.527833747E+01 -2.680564181E+02  3.306922988E+02  4.750000000E+00  0.00000E+00  9.000E+00
      21     1     1     2   503   511  9.494866197E+00 -2.065564037E+01 -3.469073966E+01  4.147596149E+01  8.259061849E-07  0.00000E+00  9.000E+00
#rwgt            1           9   3.2512150410964155E-002           7     1321268           0
</event>
<event>
      6   9999  3.45752E-01  3.04325E+01 -1.00000E+00  1.47437E-01
      21    -1     0     0   501   502  0.000000000E+00  0.000000000E+00  9.231812517E+02  9.231812517E+02  0.000000000E+00  0.00000E+00  9.000E+00
      21    -1     0     0   512   503  0.000000000E+00  0.000000000E+00 -1.396992129E+02  1.396992129E+02  0.000000000E+00  0.00000E+00  9.000E+00
      25     1     1     2     0     0 -2.303249745E+01  1.205570313E+01  1.404832446E+02  1.898363105E+02  1.250057873E+02  0.00000E+00  9.000E+00
       5     1     1     2   501     0 -4.199614569E-01 -2.123860650E+00  7.346770169E+02  7.346955620E+02  4.750000000E+00  0.00000E+00  9.000E+00
      -5     1     1     2     0   503  2.272442814E+01  2.049193632E+01 -1.016989234E+02  1.063087608E+02  4.750000000E+00  0.00000E+00  9.000E+00
      21     1     1     2   512   502  7.280307641E-01 -3.042377880E+01  1.002070080E+01  3.203983130E+01  4.915124924E-07  0.00000E+00  9.000E+00
#rwgt            1           9   2.4067917047648950E-003           7     1323672           0
</event>
<event>
      6   9999 -3.45752E-01  5.97734E+00 -1.00000E+00  2.14287E-01
      21    -1     0     0   501   502  0.000000000E+00  0.000000000E+00  1.704615179E+01  1.704615179E+01  0.000000000E+00  0.00000E+00  9.000E+00
      21    -1     0     0   511   503  0.000000000E+00  0.000000000E+00 -9.765757079E+02  9.765757079E+02  0.000000000E+00  0.00000E+00  9.000E+00
      25     1     1     2     0     0  7.980513800E+00 -4.829646575E+01 -6.129561261E+02  6.274837114E+02  1.249974335E+02  0.00000E+00  9.000E+00
       5     1     1     2   501     0 -2.919274901E-01  1.189406331E+00  7.417406485E+00  8.892712075E+00  4.750000000E+00  0.00000E+00  9.000E+00
      -5     1     1     2     0   503 -5.681332989E+00  4.147682682E+01 -3.111210855E+02  3.139609801E+02  4.750000000E+00  0.00000E+00  9.000E+00
      21     1     1     2   511   502 -2.007253321E+00  5.630232607E+00 -4.286975103E+01  4.328445608E+01  4.768371582E-07  0.00000E+00  9.000E+00
#rwgt            1           9  -2.0042217287192790E-003           7     1325686           0
</event>
<event>
      6   9999  3.45752E-01  6.48316E+00 -1.00000E+00  2.09478E-01
       1    -1     0     0   501     0  0.000000000E+00  0.000000000E+00  1.587485868E+03  1.587485868E+03  0.000000000E+00  0.00000E+00  9.000E+00
      21    -1     0     0   502   503  0.000000000E+00  0.000000000E+00 -9.406819882E+02  9.406819882E+02  0.000000000E+00  0.00000E+00  9.000E+00
      25     1     1     2     0     0 -1.157565913E+00 -3.316677945E+00 -9.031345559E+02  9.117514669E+02  1.250054841E+02  0.00000E+00  9.000E+00
       5     1     1     2   501     0 -2.326362388E+00  9.908877200E-01  1.224056657E+01  1.337115516E+01  4.750000000E+00  0.00000E+00  9.000E+00
      -5     1     1     2     0   503 -2.738843670E+00  5.068758662E-01 -3.243494642E+01  3.289903398E+01  4.750000000E+00  0.00000E+00  9.000E+00
       1     1     1     2   502     0  6.222771971E+00  1.818914359E+00  1.570132816E+03  1.570146200E+03  3.051757812E-05  0.00000E+00  9.000E+00
#rwgt            1           9   1.9548452861488366E-004           7     1329415           0
</event>
<event>
      6   9999 -3.45752E-01  3.74156E+00 -1.00000E+00  2.54011E-01
      21    -1     0     0   502   503  0.000000000E+00  0.000000000E+00  1.661137260E+01  1.661137260E+01  0.000000000E+00  0.00000E+00  9.000E+00
      21    -1     0     0   501   511  0.000000000E+00  0.000000000E+00 -2.045532303E+03  2.045532303E+03  0.000000000E+00  0.00000E+00  9.000E+00
      25     1     1     2     0     0  3.220331998E+01 -3.640553973E-01 -3.214989026E+02  3.464436984E+02  1.249980219E+02  0.00000E+00  9.000E+00
       5     1     1     2   501     0  9.930060244E-01  1.322711183E+00 -5.386585319E+02  5.386820139E+02  4.750000000E+00  0.00000E+00  9.000E+00
      -5     1     1     2     0   503 -3.006835605E+01 -3.011725136E+00 -5.259976028E+01  6.084795646E+01  4.750000000E+00  0.00000E+00  9.000E+00
      21     1     1     2   502   511 -3.127969958E+00  2.053069350E+00 -1.116163735E+03  1.116170007E+03  2.642899792E-05  0.00000E+00  9.000E+00
#rwgt            1           9  -5.9732848820866122                7     1332977           0
</event>
<event>
      6   9999  3.45752E-01  1.37168E+01 -1.00000E+00  1.73807E-01
      21    -1     0     0   501   502  0.000000000E+00  0.000000000E+00  1.474163184E+02  1.474163184E+02  0.000000000E+00  0.00000E+00  9.000E+00
      21    -1     0     0   502   512  0.000000000E+00  0.000000000E+00 -5.641110078E+02  5.641110078E+02  0.000000000E+00  0.00000E+00  9.000E+00
      25     1     1     2     0     0 -6.766930960E+00 -1.764350524E+01 -3.643286082E+02  3.856329908E+02  1.249815356E+02  0.00000E+00  9.000E+00
       5     1     1     2   501     0  9.341381908E+00  1.445936037E-01  1.359932860E+02  1.363965493E+02  4.750000000E+00  0.00000E+00  9.000E+00
      -5     1     1     2     0   503 -3.301310610E+00  3.801345126E+00 -5.462325715E+01  5.506007263E+01  4.750000000E+00  0.00000E+00  9.000E+00
      21     1     1     2   503   512  7.268596617E-01  1.369756651E+01 -1.337361100E+02  1.344377134E+02  1.907348633E-06  0.00000E+00  9.000E+00
#rwgt            1           9   2.8577443319985812E-004           7     1339671           0
</event>
<event>
      6   9999  3.45752E-01  3.98992E+00 -1.00000E+00  2.48077E-01
      21    -1     0     0   511   502  0.000000000E+00  0.000000000E+00  1.294169807E+02  1.294169807E+02  0.000000000E+00  0.00000E+00  9.000E+00
      21    -1     0     0   502   503  0.000000000E+00  0.000000000E+00 -7.457441056E+02  7.457441056E+02  0.000000000E+00  0.00000E+00  9.000E+00
      25     1     1     2     0     0 -7.332913018E+00 -5.832395151E-01 -7.235348314E+02  7.342904782E+02  1.250029696E+02  0.00000E+00  9.000E+00
       5     1     1     2   501     0 -1.268794092E+00 -1.230369879E+00  3.506235379E+00  6.162778190E+00  4.750000000E+00  0.00000E+00  9.000E+00
      -5     1     1     2     0   503  4.691289621E+00  2.606115607E+00 -1.463950028E+01  1.629961673E+01  4.750000000E+00  0.00000E+00  9.000E+00
      21     1     1     2   511   501  3.910417489E+00 -7.925062124E-01  1.183409714E+02  1.184082131E+02  2.697398305E-06  0.00000E+00  9.000E+00
#rwgt            1           9   5.8087494969152594E-005           7     1342899           0
</event>
<event>
      6   9999  3.45752E-01  4.26093E+01 -1.00000E+00  1.38613E-01
      21    -1     0     0   512   503  0.000000000E+00  0.000000000E+00  3.555879015E+01  3.555879015E+01  0.000000000E+00  0.00000E+00  9.000E+00
      21    -1     0     0   501   502  0.000000000E+00  0.000000000E+00 -7.771552723E+02  7.771552723E+02  0.000000000E+00  0.00000E+00  9.000E+00
      25     1     1     2     0     0  1.668755980E+01 -8.085585123E+00 -5.987112210E+02  6.118828125E+02  1.249063596E+02  0.00000E+00  9.000E+00
       5     1     1     2   501     0 -1.105693009E+00 -1.686143023E+00 -5.152685389E+01  5.178460009E+01  4.750000000E+00  0.00000E+00  9.000E+00
      -5     1     1     2     0   503  2.438613178E+01 -4.996921442E+00 -1.020227506E+02  1.051230555E+02  4.750000000E+00  0.00000E+00  9.000E+00
      21     1     1     2   512   502 -3.996799857E+01  1.476864959E+01  1.066434344E+01  4.392359436E+01  9.973764736E-07  0.00000E+00  9.000E+00
#rwgt            1           9  0.24296989107810857                7     1347940           0
</event>
<event>
      6   9999  3.45752E-01  5.18384E+00 -1.00000E+00  2.23303E-01
      21    -1     0     0   501   502  0.000000000E+00  0.000000000E+00  2.930900678E+01  2.930900678E+01  0.000000000E+00  0.00000E+00  9.000E+00
      21    -1     0     0   502   511  0.000000000E+00  0.000000000E+00 -4.496270996E+02  4.496270996E+02  0.000000000E+00  0.00000E+00  9.000E+00
      25     1     1     2     0     0  6.000285783E+01  2.442363222E+01 -3.053308264E+02  3.362261740E+02  1.249970791E+02  0.00000E+00  9.000E+00
       5     1     1     2   501     0 -6.066910667E-02  5.829200889E-01  3.346750942E-01  4.797706117E+00  4.750000000E+00  0.00000E+00  9.000E+00
      -5     1     1     2     0   503 -5.647000375E+01 -2.115738065E+01 -7.093943387E+01  9.322801005E+01  4.750000000E+00  0.00000E+00  9.000E+00
      21     1     1     2   503   511 -3.472184971E+00 -3.849171665E+00 -4.438250773E+01  4.468421627E+01  8.259061849E-07  0.00000E+00  9.000E+00
#rwgt            1           9   5.5569693177641901E-003           7     1348565           0
</event>
<event>
      6   9999  3.45752E-01  2.53045E+01 -1.00000E+00  1.52784E-01
      21    -1     0     0   501   502  0.000000000E+00  0.000000000E+00  9.233090685E+00  9.233090685E+00  0.000000000E+00  0.00000E+00  9.000E+00
      21    -1     0     0   502   512  0.000000000E+00  0.000000000E+00 -1.032990981E+03  1.032990981E+03  0.000000000E+00  0.00000E+00  9.000E+00
      25     1     1     2     0     0 -1.834738809E+01  6.822076752E+00 -7.164993315E+02  7.275842115E+02  1.249973017E+02  0.00000E+00  9.000E+00
       5     1     1     2   501     0 -2.534371632E+00  2.305352488E+00 -3.147672461E+00  6.648912060E+00  4.750000000E+00  0.00000E+00  9.000E+00
      -5     1     1     2     0   503  3.190204039E+00  8.964796111E+00 -1.911947846E+01  2.187834381E+01  4.750000000E+00  0.00000E+00  9.000E+00
      21     1     1     2   503   512  1.769155569E+01 -1.809222535E+01 -2.849914075E+02  2.861126039E+02  0.000000000E+00  0.00000E+00  9.000E+00
#rwgt            1           9   4.1706664330349802E-005           7     1352666           0
</event>
<event>
      6   9999  3.45752E-01  2.20343E+01 -1.00000E+00  1.57064E-01
      21    -1     0     0   511   502  0.000000000E+00  0.000000000E+00  1.148274410E+02  1.148274410E+02  0.000000000E+00  0.00000E+00  9.000E+00
      21    -1     0     0   502   503  0.000000000E+00  0.000000000E+00 -1.920950811E+02  1.920950811E+02  0.000000000E+00  0.00000E+00  9.000E+00
      25     1     1     2     0     0  6.600256141E+00  2.138649119E+01 -1.573443986E+02  2.021979200E+02  1.250031747E+02  0.00000E+00  9.000E+00
       5     1     1     2   501     0  1.032476239E+00  8.105737552E+00  5.425372436E+01  5.507084615E+01  4.750000000E+00  0.00000E+00  9.000E+00
      -5     1     1     2     0   503 -1.608787732E+01 -9.144760651E+00  6.027979539E+00  2.003360880E+01  4.750000000E+00  0.00000E+00  9.000E+00
      21     1     1     2   511   501  8.455144941E+00 -2.034746809E+01  1.979505457E+01  2.962014718E+01  4.129530925E-07  0.00000E+00  9.000E+00
#rwgt            1           9   1.6303097229898327E-005           7     1353900           0
</event>
<event>
      6   9999  3.45752E-01  7.95691E+00 -1.00000E+00  1.98293E-01
      21    -1     0     0   501   502  0.000000000E+00  0.000000000E+00  2.821653277E+01  2.821653277E+01  0.000000000E+00  0.00000E+00  9.000E+00
       2    -1     0     0   502     0  0.000000000E+00  0.000000000E+00 -1.623278056E+03  1.623278056E+03  0.000000000E+00  0.00000E+00  9.000E+00
      25     1     1     2     0     0  1.240370835E+01 -1.107218188E+01 -8.335838620E+02  8.430670500E+02  1.249942021E+02  0.00000E+00  9.000E+00
       5     1     1     2   501     0 -6.237802431E-01  3.849926015E+00  2.282254875E+01  2.363561431E+01  4.750000000E+00  0.00000E+00  9.000E+00
      -5     1     1     2     0   503 -1.156422799E+01 -7.317306916E-01 -1.782033369E+02  1.786428240E+02  4.750000000E+00  0.00000E+00  9.000E+00
       2     1     1     2   503     0 -2.157001210E-01  7.953986556E+00 -6.060968735E+02  6.061491009E+02  1.078959322E-05  0.00000E+00  9.000E+00
#rwgt            1           9   1.2930626674891913E-003           7     1355564           0
</event>
<event>
      6   9999  3.45752E-01  4.75358E+01 -1.00000E+00  1.35973E-01
      21    -1     0     0   511   502  0.000000000E+00  0.000000000E+00  1.251613018E+02  1.251613018E+02  0.000000000E+00  0.00000E+00  9.000E+00
      21    -1     0     0   502   503  0.000000000E+00  0.000000000E+00 -8.792733549E+02  8.792733549E+02  0.000000000E+00  0.00000E+00  9.000E+00
      25     1     1     2     0     0 -3.117424158E+01  1.559361940E+01 -6.667761749E+02  6.792848718E+02  1.249899006E+02  0.00000E+00  9.000E+00
       5     1     1     2   501     0  6.422631426E+01  1.908746983E+01 -1.612821552E+02  1.747107525E+02  4.750000000E+00  0.00000E+00  9.000E+00
      -5     1     1     2     0   503 -1.329080769E+00  7.209828333E-01 -3.301565654E+01  3.338985398E+01  4.750000000E+00  0.00000E+00  9.000E+00
      21     1     1     2   511   501 -3.172299190E+01 -3.540207207E+01  1.069619336E+02  1.170491784E+02  4.264961200E-06  0.00000E+00  9.000E+00
#rwgt            1           9   5.6476225846346399E-003           7     1359422           0
</event>
<event>
      6   9999  3.45752E-01  4.55752E+00 -1.00000E+00  2.36676E-01
      21    -1     0     0   512   502  0.000000000E+00  0.000000000E+00  5.535650814E+02  5.535650814E+02  0.000000000E+00  0.00000E+00  9.000E+00
      21    -1     0     0   502   503  0.000000000E+00  0.000000000E+00 -1.684981991E+03  1.684981991E+03  0.000000000E+00  0.00000E+00  9.000E+00
      25     1     1     2     0     0  2.132966624E+02  8.497568587E+00 -2.805592487E+02  3.740397333E+02  1.249982208E+02  0.00000E+00  9.000E+00
       5     1     1     2   501     0  1.855850828E+00 -2.789704416E+00  4.776654728E+01  4.811893777E+01  4.750000000E+00  0.00000E+00  9.000E+00
      -5     1     1     2     0   503 -2.114488095E+02 -8.363718121E+00 -1.349243716E+03  1.365745847E+03  4.750000000E+00  0.00000E+00  9.000E+00
      21     1     1     2   512   501 -3.703703756E+00  2.655853950E+00  4.506195079E+02  4.506425544E+02  5.394796609E-06  0.00000E+00  9.000E+00
#rwgt            1           9   3.0048591626845479E-004           7     1360052           0
</event>
<event>
      6   9999  3.45752E-01  6.04836E+00 -1.00000E+00  2.13573E-01
      21    -1     0     0   501   511  0.000000000E+00  0.000000000E+00  1.679615411E+01  1.679615411E+01  0.000000000E+00  0.00000E+00  9.000E+00
      21    -1     0     0   502   503  0.000000000E+00  0.000000000E+00 -8.990443723E+02  8.990443723E+02  0.000000000E+00  0.00000E+00  9.000E+00
      25     1     1     2     0     0  3.148274601E+00 -3.698021640E+01 -6.732923934E+02  6.858026977E+02  1.250009806E+02  0.00000E+00  9.000E+00
       5     1     1     2   501     0  6.023195773E+00  2.485358516E+00  5.215315018E+00  9.603015412E+00  4.750000000E+00  0.00000E+00  9.000E+00
      -5     1     1     2     0   503 -1.135318086E+01  2.885369109E+01 -2.115158885E+02  2.138292866E+02  4.750000000E+00  0.00000E+00  9.000E+00
      21     1     1     2   502   511  2.181710487E+00  5.641166788E+00 -2.655251280E+00  6.605526682E+00  1.861154437E-07  0.00000E+00  9.000E+00
#rwgt            1           9   7.4449386202698890E-004           7     1368328           0
</event>
<event>
      6   9999  3.45752E-01  9.56546E+00 -1.00000E+00  1.89249E-01
      21    -1     0     0   501   502  0.000000000E+00  0.000000000E+00  4.619424629E+01  4.619424629E+01  0.000000000E+00  0.00000E+00  9.000E+00
      21    -1     0     0   512   503  0.000000000E+00  0.000000000E+00 -2.914686594E+02  2.914686594E+02  0.000000000E+00  0.00000E+00  9.000E+00
      25     1     1     2     0     0 -1.060769064E+01 -4.517579503E+00 -7.327139657E+01  1.453263948E+02  1.249725244E+02  0.00000E+00  9.000E+00
       5     1     1     2   501     0 -1.963992285E-01 -1.128372680E+00  5.747201644E+00  7.543515381E+00  4.750000000E+00  0.00000E+00  9.000E+00
      -5     1     1     2     0   503  6.268363943E+00 -2.775762576E+00 -1.735940236E+00  8.518992482E+00  4.750000000E+00  0.00000E+00  9.000E+00
      21     1     1     2   512   502  4.535725921E+00  8.421714758E+00 -1.760142779E+02  1.762740029E+02  2.697398305E-06  0.00000E+00  9.000E+00
#rwgt            1           9   5.4439658191270973E-002           7     1371910           0
</event>
<event>
      6   9999 -3.45752E-01  1.01258E+01 -1.00000E+00  1.86623E-01
      21    -1     0     0   501   502  0.000000000E+00  0.000000000E+00  1.510087542E+02  1.510087542E+02  0.000000000E+00  0.00000E+00  9.000E+00
      21    -1     0     0   502   511  0.000000000E+00  0.000000000E+00 -1.210111311E+02  1.210111311E+02  0.000000000E+00  0.00000E+00  9.000E+00
      25     1     1     2     0     0  7.426356763E+00 -7.423986497E-01 -2.993277713E+01  1.287485159E+02  1.249980290E+02  0.00000E+00  9.000E+00
       5     1     1     2   501     0  3.968017214E-02 -1.093802484E+00  7.472880594E+01  7.488761524E+01  4.750000000E+00  0.00000E+00  9.000E+00
      -5     1     1     2     0   503 -1.757986438E+01  2.329474695E+00  2.289922231E+01  2.934987166E+01  4.750000000E+00  0.00000E+00  9.000E+00
      21     1     1     2   503   511  1.011382744E+01 -4.932735611E-01 -3.769762805E+01  3.903388252E+01  8.259061849E-07  0.00000E+00  9.000E+00
#rwgt            1           9  -3.4913983378947864E-004           7     1374337           0
</event>
<event>
      6   9999  3.45752E-01  8.82422E+00 -1.00000E+00  1.93104E-01
      21    -1     0     0   512   502  0.000000000E+00  0.000000000E+00  1.579024919E+01  1.579024919E+01  0.000000000E+00  0.00000E+00  9.000E+00
      21    -1     0     0   502   503  0.000000000E+00  0.000000000E+00 -8.564287744E+02  8.564287744E+02  0.000000000E+00  0.00000E+00  9.000E+00
      25     1     1     2     0     0 -4.850008266E+00  1.329738604E+01 -6.871954001E+02  6.986141267E+02  1.249953478E+02  0.00000E+00  9.000E+00
       5     1     1     2   501     0  1.058439386E+00 -2.201711392E+00  6.989412530E+00  8.796716121E+00  4.750000000E+00  0.00000E+00  9.000E+00
      -5     1     1     2     0   503  1.260879002E+01 -1.074433107E+01 -1.506551954E+02  1.516376359E+02  4.750000000E+00  0.00000E+00  9.000E+00
      21     1     1     2   512   501 -8.817221138E+00 -3.513435792E-01 -9.777342223E+00  1.317054486E+01  0.000000000E+00  0.00000E+00  9.000E+00
#rwgt            1           9  0.17676697346241715                7     1377324           0
</event>
<event>
      6   9999  3.45752E-01  1.33351E+01 -1.00000E+00  1.74922E-01
      21    -1     0     0   501   502  0.000000000E+00  0.000000000E+00  1.858628384E+01  1.858628384E+01  0.000000000E+00  0.00000E+00  9.000E+00
       2    -1     0     0   502     0  0.000000000E+00  0.000000000E+00 -1.700826462E+03  1.700826462E+03  0.000000000E+00  0.00000E+00  9.000E+00
      25     1     1     2     0     0  6.872663753E+00 -1.677994303E+01 -5.215953661E+02  5.366721613E+02  1.250059310E+02  0.00000E+00  9.000E+00
       5     1     1     2   501     0  3.335971213E-01 -1.550245739E-01  1.023304876E+01  1.128774143E+01  4.750000000E+00  0.00000E+00  9.000E+00
      -5     1     1     2     0   503 -1.739688495E+01  8.333988139E+00 -4.341358357E+02  4.345901441E+02  4.750000000E+00  0.00000E+00  9.000E+00
       2     1     1     2   503     0  1.019062407E+01  8.600979467E+00 -7.367420252E+02  7.368626991E+02  0.000000000E+00  0.00000E+00  9.000E+00
#rwgt            1           9   3.1735414856719369E-003           7     1380474           0
</event>
<event>
      6   9999  3.45752E-01  4.72381E+00 -1.00000E+00  2.33790E-01
      21    -1     0     0   501   502  0.000000000E+00  0.000000000E+00  2.388255557E+01  2.388255557E+01  0.000000000E+00  0.00000E+00  9.000E+00
      21    -1     0     0   511   503  0.000000000E+00  0.000000000E+00 -1.085268172E+03  1.085268172E+03  0.000000000E+00  0.00000E+00  9.000E+00
      25     1     1     2     0     0  6.446581290E+00 -1.302436284E+01 -9.142118229E+02  9.228324503E+02  1.250011268E+02  0.00000E+00  9.000E+00
       5     1     1     2   501     0  3.427172557E+00 -3.224869675E+00  1.767537002E+01  1.889779092E+01  4.750000000E+00  0.00000E+00  9.000E+00
      -5     1     1     2     0   503 -1.102300948E+01  2.083111023E+01 -1.248834616E+02  1.271765834E+02  4.750000000E+00  0.00000E+00  9.000E+00
      21     1     1     2   511   502  1.149255633E+00 -4.581877713E+00 -3.996570184E+01  4.024390284E+01  8.259061849E-07  0.00000E+00  9.000E+00
#rwgt            1           9   1.3934996086785857E-004           7     1382740           0
</event>
<event>
      6   9999 -3.45752E-01  6.43884E+01 -1.00000E+00  1.29162E-01
      21    -1     0     0   501   502  0.000000000E+00  0.000000000E+00  4.341408186E+01  4.341408186E+01  0.000000000E+00  0.00000E+00  9.000E+00
      21    -1     0     0   512   503  0.000000000E+00  0.000000000E+00 -1.679105702E+03  1.679105702E+03  0.000000000E+00  0.00000E+00  9.000E+00
      25     1     1     2     0     0 -6.272958374E+01 -1.435134928E+02 -3.436742761E+02  3.978269119E+02  1.249924817E+02  0.00000E+00  9.000E+00
       5     1     1     2   501     0  3.246186145E+01  1.902075174E+01 -1.464043155E+02  1.512360656E+02  4.750000000E+00  0.00000E+00  9.000E+00
      -5     1     1     2     0   503  7.433098675E+01  1.714427162E+02 -7.699126206E+02  7.922788060E+02  4.750000000E+00  0.00000E+00  9.000E+00
      21     1     1     2   512   502 -4.406326446E+01 -4.694997515E+01 -3.757004077E+02  3.811780001E+02  0.000000000E+00  0.00000E+00  9.000E+00
#rwgt            1           9  -1.1535223739932862E-004           7     1388207           0
</event>
<event>
      6   9999  3.45752E-01  7.01762E+00 -1.00000E+00  2.04999E-01
      21    -1     0     0   511   502  0.000000000E+00  0.000000000E+00  5.023199987E+02  5.023199987E+02  0.000000000E+00  0.00000E+00  9.000E+00
      21    -1     0     0   502   503  0.000000000E+00  0.000000000E+00 -1.328325849E+03  1.328325849E+03  0.000000000E+00  0.00000E+00  9.000E+00
      25     1     1     2     0     0 -2.777459590E+00  1.204276384E+01 -7.134050426E+02  7.243786393E+02  1.249996628E+02  0.00000E+00  9.000E+00
       5     1     1     2   501     0 -5.845902320E+00 -4.143819611E+00  4.395095340E+01  4.478386562E+01  4.750000000E+00  0.00000E+00  9.000E+00
      -5     1     1     2     0   503  7.755290321E+00 -9.352225897E-01 -6.089560278E+02  6.090246510E+02  4.750000000E+00  0.00000E+00  9.000E+00
      21     1     1     2   511   501  8.680715889E-01 -6.963721642E+00  4.524042669E+02  4.524586916E+02  5.394796609E-06  0.00000E+00  9.000E+00
#rwgt            1           9   1.4746029201444443E-003           7     1389363           0
</event>
<event>
      6   9999  3.45752E-01  1.80511E+01 -1.00000E+00  1.63685E-01
      21    -1     0     0   501   502  0.000000000E+00  0.000000000E+00  9.443245517E+00  9.443245517E+00  0.000000000E+00  0.00000E+00  9.000E+00
       2    -1     0     0   502     0  0.000000000E+00  0.000000000E+00 -1.970098431E+03  1.970098431E+03  0.000000000E+00  0.00000E+00  9.000E+00
      25     1     1     2     0     0  2.137897139E+01 -6.549136805E+00 -5.481106390E+02  5.626280914E+02  1.250005800E+02  0.00000E+00  9.000E+00
       5     1     1     2   501     0  1.586735867E+00  1.697847855E+00 -2.755680223E+00  5.962943194E+00  4.750000000E+00  0.00000E+00  9.000E+00
      -5     1     1     2     0   503 -1.034855969E+01  1.776064345E+01 -2.165552460E+02  2.175804913E+02  4.750000000E+00  0.00000E+00  9.000E+00
       2     1     1     2   503     0 -1.261714756E+01 -1.290935450E+01 -1.193233620E+03  1.193370150E+03  2.642899792E-05  0.00000E+00  9.000E+00
#rwgt            1           9   6.8682833827522212E-006           7     1394147           0
</event>
<event>
      6   9999 -3.45752E-01  2.08998E+01 -1.00000E+00  1.58765E-01
      21    -1     0     0   502   511  0.000000000E+00  0.000000000E+00  3.325460761E+01  3.325460761E+01  0.000000000E+00  0.00000E+00  9.000E+00
      21    -1     0     0   501   502  0.000000000E+00  0.000000000E+00 -8.580258191E+02  8.580258191E+02  0.000000000E+00  0.00000E+00  9.000E+00
      25     1     1     2     0     0 -1.384927067E+01  2.597139976E+01 -4.278359768E+02  4.466935589E+02  1.250007865E+02  0.00000E+00  9.000E+00
       5     1     1     2   501     0 -3.559100522E+00 -6.284778492E+00 -4.057447497E+02  4.058368269E+02  4.750000000E+00  0.00000E+00  9.000E+00
      -5     1     1     2     0   503 -1.108350736E+00 -9.994807840E+00 -6.464546614E+00  1.286380535E+01  4.750000000E+00  0.00000E+00  9.000E+00
      21     1     1     2   503   511  1.851672193E+01 -9.691813429E+00  1.527406157E+01  2.588623564E+01  1.238859277E-06  0.00000E+00  9.000E+00
#rwgt            1           9  -53.624569388310476                7     1396330           0
</event>
<event>
      6   9999  3.45752E-01  8.20311E+00 -1.00000E+00  1.96735E-01
      21    -1     0     0   501   502  0.000000000E+00  0.000000000E+00  9.416652407E+00  9.416652407E+00  0.000000000E+00  0.00000E+00  9.000E+00
      21    -1     0     0   512   503  0.000000000E+00  0.000000000E+00 -9.499257542E+02  9.499257542E+02  0.000000000E+00  0.00000E+00  9.000E+00
      25     1     1     2     0     0  8.434777665E+00 -1.157963106E+01 -7.127359759E+02  7.237552417E+02  1.249953808E+02  0.00000E+00  9.000E+00
       5     1     1     2   501     0 -4.510425790E-01 -3.250677091E-01  1.878209586E+00  5.138022934E+00  4.750000000E+00  0.00000E+00  9.000E+00
      -5     1     1     2     0   503 -3.459737389E+00  5.061862714E+00 -4.885575949E+01  4.946756485E+01  4.750000000E+00  0.00000E+00  9.000E+00
      21     1     1     2   512   502 -4.523997696E+00  6.842836051E+00 -1.807955760E+02  1.809815771E+02  3.303624740E-06  0.00000E+00  9.000E+00
#rwgt            1           9   5.1594212589468464E-005           7     1397834           0
</event>
<event>
      6   9999  3.45752E-01  9.89931E+00 -1.00000E+00  1.87658E-01
      21    -1     0     0   502   503  0.000000000E+00  0.000000000E+00  7.751359861E+00  7.751359861E+00  0.000000000E+00  0.00000E+00  9.000E+00
      21    -1     0     0   511   502  0.000000000E+00  0.000000000E+00 -8.904945390E+02  8.904945390E+02  0.000000000E+00  0.00000E+00  9.000E+00
      25     1     1     2     0     0  1.133339184E+01 -4.115487824E+00 -6.861938961E+02  6.975846265E+02  1.249674564E+02  0.00000E+00  9.000E+00
       5     1     1     2   501     0  1.663198508E-01 -2.390622612E-01 -2.180669699E+01  2.231993161E+01  4.750000000E+00  0.00000E+00  9.000E+00
      -5     1     1     2     0   503 -4.115052191E+00 -2.238107907E+00 -5.067285517E+00  8.377509418E+00  4.750000000E+00  0.00000E+00  9.000E+00
      21     1     1     2   511   501 -7.384659495E+00  6.592657992E+00 -1.696753005E+02  1.699638313E+02  1.907348633E-06  0.00000E+00  9.000E+00
#rwgt            1           9   4.9022422554680653E-004           7     1400323           0
</event>
<event>
      6   9999  3.45752E-01  5.97234E+00 -1.00000E+00  2.14338E-01
      21    -1     0     0   501   502  0.000000000E+00  0.000000000E+00  1.070216672E+01  1.070216672E+01  0.000000000E+00  0.00000E+00  9.000E+00
      21    -1     0     0   502   512  0.000000000E+00  0.000000000E+00 -7.548029529E+02  7.548029529E+02  0.000000000E+00  0.00000E+00  9.000E+00
      25     1     1     2     0     0  7.275887267E+00 -1.014800029E+01 -5.491844943E+02  5.633686255E+02  1.249987157E+02  0.00000E+00  9.000E+00
       5     1     1     2   501     0 -4.525558134E-01 -8.912631319E-01  8.520785050E-01  4.928254713E+00  4.750000000E+00  0.00000E+00  9.000E+00
      -5     1     1     2     0   503 -1.232074880E+01  8.705332241E+00 -1.710054970E+02  1.717353376E+02  4.750000000E+00  0.00000E+00  9.000E+00
      21     1     1     2   503   512  5.497417348E+00  2.333931185E+00 -2.476287326E+01  2.547290177E+01  3.371747881E-07  0.00000E+00  9.000E+00
#rwgt            1           9   4.5854250672791056E-003           7     1402496           0
</event>
<event>
      6   9999  3.45752E-01  7.66608E+00 -1.00000E+00  2.00233E-01
      21    -1     0     0   501   502  0.000000000E+00  0.000000000E+00  8.211149911E+01  8.211149911E+01  0.000000000E+00  0.00000E+00  9.000E+00
      21    -1     0     0   511   503  0.000000000E+00  0.000000000E+00 -8.976117754E+02  8.976117754E+02  0.000000000E+00  0.00000E+00  9.000E+00
      25     1     1     2     0     0  1.303092587E+02 -1.320939465E+02 -5.955392700E+02  6.361760253E+02  1.249943973E+02  0.00000E+00  9.000E+00
       5     1     1     2   501     0 -1.227157063E+00  3.949939157E+00  3.195238728E+01  3.256724561E+01  4.750000000E+00  0.00000E+00  9.000E+00
      -5     1     1     2     0   503 -1.231265549E+02  1.233169756E+02 -2.369656192E+02  2.941810534E+02  4.750000000E+00  0.00000E+00  9.000E+00
      21     1     1     2   511   502 -5.955546722E+00  4.827031705E+00 -1.494777432E+01  1.679895024E+01  3.371747881E-07  0.00000E+00  9.000E+00
#rwgt            1           9   2.1996553965419878E-002           7     1405777           0
</event>
<event>
      6   9999  3.45752E-01  1.94249E+01 -1.00000E+00  1.61184E-01
      21    -1     0     0   501   502  0.000000000E+00  0.000000000E+00  1.117429260E+01  1.117429260E+01  0.000000000E+00  0.00000E+00  9.000E+00
      21    -1     0     0   502   512  0.000000000E+00  0.000000000E+00 -1.382004777E+03  1.382004777E+03  0.000000000E+00  0.00000E+00  9.000E+00
      25     1     1     2     0     0  5.135752877E+00  3.942726210E+01 -5.649592597E+02  5.799860127E+02  1.249956995E+02  0.00000E+00  9.000E+00
       5     1     1     2   501     0 -2.225065029E+00  3.604390605E-01 -2.222264013E+00  5.708045904E+00  4.750000000E+00  0.00000E+00  9.000E+00
      -5     1     1     2     0   503 -2.122170963E+01 -3.330445139E+01 -2.235578248E+02  2.270687363E+02  4.750000000E+00  0.00000E+00  9.000E+00
      21     1     1     2   503   512  1.831102179E+01 -6.483249769E+00 -5.800911357E+02  5.804162746E+02  1.525878906E-05  0.00000E+00  9.000E+00
#rwgt            1           9   1.4358421405587058E-003           7     1410584           0
</event>
<event>
      6   9999  3.45752E-01  4.02879E+01 -1.00000E+00  1.40005E-01
      21    -1     0     0   511   503  0.000000000E+00  0.000000000E+00  6.863348027E+02  6.863348027E+02  0.000000000E+00  0.00000E+00  9.000E+00
      21    -1     0     0   501   502  0.000000000E+00  0.000000000E+00 -1.093935700E+03  1.093935700E+03  0.000000000E+00  0.00000E+00  9.000E+00
      25     1     1     2     0     0 -5.769730349E+01 -1.297150947E+02 -4.479451880E+02  4.862440324E+02  1.249935318E+02  0.00000E+00  9.000E+00
       5     1     1     2   501     0  8.224360263E+01  6.550798771E+01 -3.649547930E+02  3.798287378E+02  4.750000000E+00  0.00000E+00  9.000E+00
      -5     1     1     2     0   503  1.066370685E+01  8.378696577E+01 -2.467790172E+02  2.608762467E+02  4.750000000E+00  0.00000E+00  9.000E+00
      21     1     1     2   511   502 -3.521000598E+01 -1.957985875E+01  6.520781004E+02  6.533214863E+02  1.078959322E-05  0.00000E+00  9.000E+00
#rwgt            1           9   3.2548272754224448E-004           7     1411791           0
</event>
<event>
      6   9999  3.45752E-01  1.32547E+01 -1.00000E+00  1.75163E-01
      21    -1     0     0   512   502  0.000000000E+00  0.000000000E+00  9.450748026E+00  9.450748026E+00  0.000000000E+00  0.00000E+00  9.000E+00
      21    -1     0     0   502   503  0.000000000E+00  0.000000000E+00 -2.291893546E+03  2.291893546E+03  0.000000000E+00  0.00000E+00  9.000E+00
      25     1     1     2     0     0 -4.511931047E+00 -8.658453731E+00 -2.167335106E+03  2.170958635E+03  1.249984341E+02  0.00000E+00  9.000E+00
       5     1     1     2   501     0 -7.158001345E+00 -1.487969257E+00  1.056804644E+00  8.782389869E+00  4.750000000E+00  0.00000E+00  9.000E+00
      -5     1     1     2     0   503  5.327883577E-01  2.959632896E+00 -1.021830268E+02  1.023375628E+02  4.750000000E+00  0.00000E+00  9.000E+00
      21     1     1     2   512   501  1.113714403E+01  7.186790092E+00 -1.398146985E+01  1.926570601E+01  9.386548846E-07  0.00000E+00  9.000E+00
#rwgt            1           9   1.9660848539929211E-002           7     1413217           0
</event>
<event>
      6   9999  3.45752E-01  9.29756E+00 -1.00000E+00  1.90588E-01
      21    -1     0     0   501   502  0.000000000E+00  0.000000000E+00  1.506144936E+03  1.506144936E+03  0.000000000E+00  0.00000E+00  9.000E+00
      21    -1     0     0   502   511  0.000000000E+00  0.000000000E+00 -4.058311811E+01  4.058311811E+01  0.000000000E+00  0.00000E+00  9.000E+00
      25     1     1     2     0     0  1.712894023E+02 -1.326963769E+02  6.378860942E+02  6.851808675E+02  1.250030567E+02  0.00000E+00  9.000E+00
       5     1     1     2   501     0  1.416963401E-01 -8.021519188E-01  1.299401650E+02  1.300295063E+02  4.750000000E+00  0.00000E+00  9.000E+00
      -5     1     1     2     0   503 -1.632033731E+02  1.291684980E+02  6.835979914E+02  7.145968221E+02  4.750000000E+00  0.00000E+00  9.000E+00
      21     1     1     2   503   511 -8.227725517E+00  4.330030828E+00  1.413756745E+01  1.692085836E+01  0.000000000E+00  0.00000E+00  9.000E+00
#rwgt            1           9   3.6495131925287604E-002           7     1415282           0
</event>
<event>
      6   9999  3.45752E-01  4.32335E+01 -1.00000E+00  1.38256E-01
      21    -1     0     0   501   502  0.000000000E+00  0.000000000E+00  7.424938454E+01  7.424938454E+01  0.000000000E+00  0.00000E+00  9.000E+00
      21    -1     0     0   512   503  0.000000000E+00  0.000000000E+00 -2.129235495E+02  2.129235495E+02  0.000000000E+00  0.00000E+00  9.000E+00
      25     1     1     2     0     0 -4.290111626E+01  1.449830137E+01 -3.797649260E+01  1.382624198E+02  1.249943048E+02  0.00000E+00  9.000E+00
       5     1     1     2   501     0 -4.519117768E+00  7.801106849E-01  1.346994927E+01  1.500110101E+01  4.750000000E+00  0.00000E+00  9.000E+00
      -5     1     1     2     0   503  7.538775039E+00  1.413166869E+00 -7.509763683E+01  7.563760789E+01  4.750000000E+00  0.00000E+00  9.000E+00
      21     1     1     2   512   502  3.988145899E+01 -1.669157893E+01 -3.906998477E+01  5.827180526E+01  8.259061849E-07  0.00000E+00  9.000E+00
#rwgt            1           9   6.8747974249254239E-005           7     1419982           0
</event>
<event>
      6   9999  3.45752E-01  1.38481E+01 -1.00000E+00  1.73435E-01
      21    -1     0     0   501   502  0.000000000E+00  0.000000000E+00  1.355113520E+01  1.355113520E+01  0.000000000E+00  0.00000E+00  9.000E+00
      21    -1     0     0   502   511  0.000000000E+00  0.000000000E+00 -7.157880288E+02  7.157880288E+02  0.000000000E+00  0.00000E+00  9.000E+00
      25     1     1     2     0     0 -2.962784586E+00  8.638891381E+00 -3.628757703E+02  3.839105396E+02  1.250002768E+02  0.00000E+00  9.000E+00
       5     1     1     2   501     0 -2.078834944E-01  7.278378611E-01 -1.448575932E+00  5.023329148E+00  4.750000000E+00  0.00000E+00  9.000E+00
      -5     1     1     2     0   503 -6.283347778E+00  7.520743130E-01 -1.314567107E+01  1.534331264E+01  4.750000000E+00  0.00000E+00  9.000E+00
      21     1     1     2   503   511  9.454015858E+00 -1.011880356E+01 -3.247668763E+02  3.250619826E+02  6.607249480E-06  0.00000E+00  9.000E+00
#rwgt            1           9   7.9532884693637992E-002           7     1420898           0
</event>
<event>
      6   9999  3.45752E-01  1.36060E+01 -1.00000E+00  1.74126E-01
      21    -1     0     0   501   502  0.000000000E+00  0.000000000E+00  3.163165023E+01  3.163165023E+01  0.000000000E+00  0.00000E+00  9.000E+00
      21    -1     0     0   502   512  0.000000000E+00  0.000000000E+00 -1.547308854E+03  1.547308854E+03  0.000000000E+00  0.00000E+00  9.000E+00
      25     1     1     2     0     0  1.875721277E+01 -1.044743490E+02 -3.459803612E+02  3.828777377E+02  1.250049161E+02  0.00000E+00  9.000E+00
       5     1     1     2   501     0 -2.476007624E+00  4.087298762E+00  7.813595334E+00  1.031752863E+01  4.750000000E+00  0.00000E+00  9.000E+00
      -5     1     1     2     0   503 -2.550348509E+01  1.103906657E+02 -8.007870732E+02  8.087762521E+02  4.750000000E+00  0.00000E+00  9.000E+00
      21     1     1     2   503   512  9.222279944E+00 -1.000361546E+01 -3.767233644E+02  3.769689855E+02  5.394796609E-06  0.00000E+00  9.000E+00
#rwgt            1           9   6.4607750154556176E-005           7     1422464           0
</event>
<event>
      6   9999 -3.45752E-01  1.66321E+01 -1.00000E+00  1.66574E-01
      21    -1     0     0   501   502  0.000000000E+00  0.000000000E+00  1.900506597E+01  1.900506597E+01  0.000000000E+00  0.00000E+00  9.000E+00
      21    -1     0     0   502   511  0.000000000E+00  0.000000000E+00 -1.063795508E+03  1.063795508E+03  0.000000000E+00  0.00000E+00  9.000E+00
      25     1     1     2     0     0  3.527138027E+01 -2.888607753E+01 -6.752155696E+02  6.881994140E+02  1.249955692E+02  0.00000E+00  9.000E+00
       5     1     1     2   501     0  3.596848989E+00 -5.173356783E+00  9.099974680E+00  1.204462462E+01  4.750000000E+00  0.00000E+00  9.000E+00
      -5     1     1     2     0   503 -2.290958762E+01  2.937459877E+01 -2.760475323E+02  2.785902347E+02  4.750000000E+00  0.00000E+00  9.000E+00
      21     1     1     2   503   511 -1.595864164E+01  4.684835543E+00 -1.026273152E+02  1.039663010E+02  1.348699152E-06  0.00000E+00  9.000E+00
#rwgt            1           9  -2.2905898587601424E-005           7     1425342           0
</event>
<event>
      6   9999  3.45752E-01  2.48589E+01 -1.00000E+00  1.53320E-01
      21    -1     0     0   501   502  0.000000000E+00  0.000000000E+00  4.720538874E+01  4.720538874E+01  0.000000000E+00  0.00000E+00  9.000E+00
      21    -1     0     0   512   503  0.000000000E+00  0.000000000E+00 -3.752711780E+03  3.752711780E+03  0.000000000E+00  0.00000E+00  9.000E+00
      25     1     1     2     0     0 -1.945158305E+01 -3.119717183E+01 -2.083792800E+03  2.087861994E+03  1.249945780E+02  0.00000E+00  9.000E+00
       5     1     1     2   501     0  3.547309073E+00 -1.251962727E-01  4.382602518E+01  4.422535538E+01  4.750000000E+00  0.00000E+00  9.000E+00
      -5     1     1     2     0   503  7.766252426E+00  7.833313226E+00 -1.528909495E+03  1.528956664E+03  4.750000000E+00  0.00000E+00  9.000E+00
      21     1     1     2   512   502  8.138021554E+00  2.348905488E+01 -1.366301220E+02  1.388731556E+02  1.907348633E-06  0.00000E+00  9.000E+00
#rwgt            1           9   8.6381317345963479E-002           7     1427764           0
</event>
<event>
      6   9999  3.45752E-01  1.41027E+01 -1.00000E+00  1.72726E-01
      21    -1     0     0   511   502  0.000000000E+00  0.000000000E+00  2.501998930E+01  2.501998930E+01  0.000000000E+00  0.00000E+00  9.000E+00
      21    -1     0     0   502   503  0.000000000E+00  0.000000000E+00 -1.042317118E+03  1.042317118E+03  0.000000000E+00  0.00000E+00  9.000E+00
      25     1     1     2     0     0 -2.982593177E+01 -2.246965645E+01 -1.837248413E+02  2.253337080E+02  1.250039639E+02  0.00000E+00  9.000E+00
       5     1     1     2   501     0 -6.715497239E-02  1.160769359E-01 -3.723623088E+00  6.037040049E+00  4.750000000E+00  0.00000E+00  9.000E+00
      -5     1     1     2     0   503  1.910992071E+01  3.144254068E+01 -8.136234069E+02  8.144688043E+02  4.750000000E+00  0.00000E+00  9.000E+00
      21     1     1     2   511   501  1.078316603E+01 -9.088961164E+00 -1.622525703E+01  2.149755452E+01  2.384185791E-07  0.00000E+00  9.000E+00
#rwgt            1           9   9.1407871936761867E-004           7     1430258           0
</event>
<event>
      6   9999  3.45752E-01  6.56402E+00 -1.00000E+00  2.08763E-01
      21    -1     0     0   501   502  0.000000000E+00  0.000000000E+00  5.933255022E+00  5.933255022E+00  0.000000000E+00  0.00000E+00  9.000E+00
       2    -1     0     0   502     0  0.000000000E+00  0.000000000E+00 -3.095051730E+03  3.095051730E+03  0.000000000E+00  0.00000E+00  9.000E+00
      25     1     1     2     0     0 -2.320808758E+01  3.354048736E+01 -1.805175654E+03  1.809945673E+03  1.248223440E+02  0.00000E+00  9.000E+00
       5     1     1     2   501     0 -1.256811617E+01 -1.794521774E+01 -3.568448944E+01  4.214182804E+01  4.750000000E+00  0.00000E+00  9.000E+00
      -5     1     1     2     0   503  2.996394595E+01 -1.254501273E+01 -1.107048918E+03  1.107535591E+03  4.750000000E+00  0.00000E+00  9.000E+00
       2     1     1     2   503     0  5.812257807E+00 -3.050256885E+00 -1.412094132E+02  1.413618929E+02  2.697398305E-06  0.00000E+00  9.000E+00
#rwgt            1           9   2.8492512528854614E-004           7     1432815           0
</event>
<event>
      6   9999  3.45752E-01  1.31777E+01 -1.00000E+00  1.75395E-01
      21    -1     0     0   501   502  0.000000000E+00  0.000000000E+00  1.254364811E+01  1.254364811E+01  0.000000000E+00  0.00000E+00  9.000E+00
      21    -1     0     0   511   503  0.000000000E+00  0.000000000E+00 -1.976634852E+03  1.976634852E+03  0.000000000E+00  0.00000E+00  9.000E+00
      25     1     1     2     0     0 -5.946306542E+00  8.713189349E+00 -4.086830169E+02  4.275021836E+02  1.250001218E+02  0.00000E+00  9.000E+00
       5     1     1     2   501     0  6.161289026E+00 -9.547982467E-02 -5.062733115E+00  9.282476256E+00  4.750000000E+00  0.00000E+00  9.000E+00
      -5     1     1     2     0   503  4.010658202E+00  3.864143892E+00 -1.245317843E+01  1.444510783E+01  4.750000000E+00  0.00000E+00  9.000E+00
      21     1     1     2   511   502 -4.225640686E+00 -1.248185342E+01 -1.537892275E+03  1.537948732E+03  3.737624730E-05  0.00000E+00  9.000E+00
#rwgt            1           9   1.2395219719150015E-003           7     1436738           0
</event>
<event>
      6   9999  3.45752E-01  1.78443E+01 -1.00000E+00  1.64085E-01
      21    -1     0     0   501   502  0.000000000E+00  0.000000000E+00  2.098431385E+01  2.098431385E+01  0.000000000E+00  0.00000E+00  9.000E+00
      21    -1     0     0   502   512  0.000000000E+00  0.000000000E+00 -1.782387801E+03  1.782387801E+03  0.000000000E+00  0.00000E+00  9.000E+00
      25     1     1     2     0     0 -4.130319753E+01  1.316387849E+01 -4.951839933E+02  5.125505500E+02  1.249865484E+02  0.00000E+00  9.000E+00
       5     1     1     2   501     0 -2.282125257E+00 -1.302443013E+00  1.118932471E+01  1.243655664E+01  4.750000000E+00  0.00000E+00  9.000E+00
      -5     1     1     2     0   503  2.644685249E+01 -6.892408062E+00 -4.980378018E+02  4.988097391E+02  4.750000000E+00  0.00000E+00  9.000E+00
      21     1     1     2   503   512  1.713847030E+01 -4.969027410E+00 -7.793710163E+02  7.795752686E+02  1.078959322E-05  0.00000E+00  9.000E+00
#rwgt            1           9   2.1253222311839220E-002           7     1438262           0
</event>
<event>
      6   9999 -3.45752E-01  4.54551E+00 -1.00000E+00  2.36892E-01
      21    -1     0     0   511   502  0.000000000E+00  0.000000000E+00  1.216510712E+02  1.216510712E+02  0.000000000E+00  0.00000E+00  9.000E+00
      21    -1     0     0   502   503  0.000000000E+00  0.000000000E+00 -6.146320877E+01  6.146320877E+01  0.000000000E+00  0.00000E+00  9.000E+00
      25     1     1     2     0     0 -5.073256293E+00  3.042202279E+00  8.391428262E+00  1.254831898E+02  1.250624721E+02  0.00000E+00  9.000E+00
       5     1     1     2   501     0  9.906927834E-01 -4.538060538E-01  3.414731181E+01  3.449331553E+01  4.750000000E+00  0.00000E+00  9.000E+00
      -5     1     1     2     0   503  6.411342094E+00 -6.492043293E+00  1.358643240E+01  1.704129041E+01  4.750000000E+00  0.00000E+00  9.000E+00
      21     1     1     2   511   501 -2.328778584E+00  3.903647068E+00  4.062689939E+00  6.096484205E+00  5.960464478E-08  0.00000E+00  9.000E+00
#rwgt            1           9 -0.66361685456530761                7     1440597           0
</event>
<event>
      6   9999 -3.45752E-01  9.41803E+00 -1.00000E+00  1.89979E-01
      21    -1     0     0   501   512  0.000000000E+00  0.000000000E+00  4.613316640E+02  4.613316640E+02  0.000000000E+00  0.00000E+00  9.000E+00
      21    -1     0     0   502   503  0.000000000E+00  0.000000000E+00 -1.248611004E+03  1.248611004E+03  0.000000000E+00  0.00000E+00  9.000E+00
      25     1     1     2     0     0 -6.147452402E+00  6.564101365E+00 -1.204391275E+03  1.210894253E+03  1.250026798E+02  0.00000E+00  9.000E+00
       5     1     1     2   501     0  1.863036813E+00  1.904902710E+00  3.868572730E+00  6.680412822E+00  4.750000000E+00  0.00000E+00  9.000E+00
      -5     1     1     2     0   503 -2.522300341E-01 -2.156377309E-01 -3.936988314E+01  3.965678149E+01  4.750000000E+00  0.00000E+00  9.000E+00
      21     1     1     2   502   512  4.536645623E+00 -8.253366343E+00  4.526132455E+02  4.527112206E+02  7.629394531E-06  0.00000E+00  9.000E+00
#rwgt            1           9  -2.5955122899881083E-002           7     1444966           0
</event>
<event>
      6   9999  3.45752E-01  1.19849E+01 -1.00000E+00  1.79274E-01
      21    -1     0     0   501   511  0.000000000E+00  0.000000000E+00  1.320812069E+02  1.320812069E+02  0.000000000E+00  0.00000E+00  9.000E+00
      21    -1     0     0   502   503  0.000000000E+00  0.000000000E+00 -2.646154928E+03  2.646154928E+03  0.000000000E+00  0.00000E+00  9.000E+00
      25     1     1     2     0     0  2.638507456E+01  1.150995149E+01 -1.559233270E+03  1.564500597E+03  1.250003076E+02  0.00000E+00  9.000E+00
       5     1     1     2   501     0  1.556825614E+00 -4.440186204E+00  3.242691196E+00  7.430780963E+00  4.750000000E+00  0.00000E+00  9.000E+00
      -5     1     1     2     0   503 -1.688412216E+01 -1.169189689E+01 -1.081801700E+03  1.082007050E+03  4.750000000E+00  0.00000E+00  9.000E+00
      21     1     1     2   502   511 -1.105777802E+01  4.622131609E+00  1.237185578E+02  1.242977075E+02  4.046097457E-06  0.00000E+00  9.000E+00
#rwgt            1           9   8.6577806250360198E-002           7     1447297           0
</event>
<event>
      6   9999  3.45752E-01  2.06283E+01 -1.00000E+00  1.59192E-01
      21    -1     0     0   502   503  0.000000000E+00  0.000000000E+00  2.021515609E+02  2.021515609E+02  0.000000000E+00  0.00000E+00  9.000E+00
      21    -1     0     0   501   512  0.000000000E+00  0.000000000E+00 -1.443420044E+02  1.443420044E+02  0.000000000E+00  0.00000E+00  9.000E+00
      25     1     1     2     0     0 -3.500220371E+01  9.307591545E+01  1.058146515E+02  1.902204278E+02  1.228771353E+02  0.00000E+00  9.000E+00
       5     1     1     2   501     0  4.045454331E+01 -3.290247505E+01  2.395950340E+00  5.241608548E+01  4.750000000E+00  0.00000E+00  9.000E+00
      -5     1     1     2     0   503 -1.974154976E+00 -3.984050321E+01  8.835594967E+00  4.113141405E+01  4.750000000E+00  0.00000E+00  9.000E+00
      21     1     1     2   502   512 -3.478184627E+00 -2.033293719E+01 -5.923664029E+01  6.272563795E+01  6.743495762E-07  0.00000E+00  9.000E+00
#rwgt            1           9  0.11821081487680851                7     1449916           0
</event>
<event>
      6   9999  3.45752E-01  2.17061E+02 -1.00000E+00  1.07678E-01
       1    -1     0     0   501     0  0.000000000E+00  0.000000000E+00  1.060901262E+02  1.060901262E+02  0.000000000E+00  0.00000E+00  9.000E+00
      21    -1     0     0   511   502  0.000000000E+00  0.000000000E+00 -7.037931983E+02  7.037931983E+02  0.000000000E+00  0.00000E+00  9.000E+00
      25     1     1     2     0     0  6.502254094E+01  2.203748662E+01 -2.600221205E+02  2.965647364E+02  1.250022324E+02  0.00000E+00  9.000E+00
       5     1     1     2   501     0  7.232621296E+01  1.389382212E+02 -1.038433229E+02  1.879917781E+02  4.750000000E+00  0.00000E+00  9.000E+00
      -5     1     1     2     0   502  6.975631289E+00  1.153758947E+00 -1.399281571E+01  1.638145241E+01  4.750000000E+00  0.00000E+00  9.000E+00
       1     1     1     2   511     0 -1.443243852E+02 -1.621294668E+02 -2.198448130E+02  3.089453576E+02  2.697398305E-06  0.00000E+00  9.000E+00
#rwgt            1           2   7.4660160419787731                7     1451809           0
</event>
<event>
      6   9999  3.45752E-01  2.44922E+01 -1.00000E+00  1.53772E-01
      21    -1     0     0   501   502  0.000000000E+00  0.000000000E+00  1.529460870E+01  1.529460870E+01  0.000000000E+00  0.00000E+00  9.000E+00
      21    -1     0     0   502   512  0.000000000E+00  0.000000000E+00 -7.626424294E+02  7.626424294E+02  0.000000000E+00  0.00000E+00  9.000E+00
      25     1     1     2     0     0  3.604881852E+01 -6.550269889E-01 -3.488718264E+02  3.723396737E+02  1.250013400E+02  0.00000E+00  9.000E+00
       5     1     1     2   501     0  1.464134049E+00 -2.156770292E-01  1.358622521E-02  4.975227601E+00  4.750000000E+00  0.00000E+00  9.000E+00
      -5     1     1     2     0   503 -1.408067241E+01 -6.256356517E+00 -1.244232592E+02  1.254636093E+02  4.750000000E+00  0.00000E+00  9.000E+00
      21     1     1     2   503   512 -2.343228015E+01  7.127060535E+00 -2.740663214E+02  2.751585275E+02  3.814697266E-06  0.00000E+00  9.000E+00
#rwgt            1           9   4.6167053258865040E-003           7     1451912           0
</event>
<event>
      6   9999 -3.45752E-01  8.75650E+00 -1.00000E+00  1.93480E-01
      21    -1     0     0   511   502  0.000000000E+00  0.000000000E+00  7.838206542E+01  7.838206542E+01  0.000000000E+00  0.00000E+00  9.000E+00
      21    -1     0     0   502   503  0.000000000E+00  0.000000000E+00 -2.216174625E+02  2.216174625E+02  0.000000000E+00  0.00000E+00  9.000E+00
      25     1     1     2     0     0  3.635265765E+00  5.071802390E+00 -1.907259485E+02  2.281279867E+02  1.250082101E+02  0.00000E+00  9.000E+00
       5     1     1     2   501     0  8.921709868E-02  2.453153219E+00  8.590897864E+00  1.011889058E+01  4.750000000E+00  0.00000E+00  9.000E+00
      -5     1     1     2     0   503 -3.330851207E+00  1.222696666E+00 -1.024342614E+01  1.183553277E+01  4.750000000E+00  0.00000E+00  9.000E+00
      21     1     1     2   511   501 -3.936316562E-01 -8.747652276E+00  4.914307970E+01  4.991711779E+01  6.743495762E-07  0.00000E+00  9.000E+00
#rwgt            1           9  -5.9304834095569824E-004           7     1453169           0
</event>
<event>
      6   9999  3.45752E-01  8.75343E+00 -1.00000E+00  1.93497E-01
      21    -1     0     0   501   502  0.000000000E+00  0.000000000E+00  3.384036895E+01  3.384036895E+01  0.000000000E+00  0.00000E+00  9.000E+00
      21    -1     0     0   502   512  0.000000000E+00  0.000000000E+00 -3.687525486E+02  3.687525486E+02  0.000000000E+00  0.00000E+00  9.000E+00
      25     1     1     2     0     0  6.289756421E+00  2.465410746E+01 -1.693513087E+02  2.119879638E+02  1.249465685E+02  0.00000E+00  9.000E+00
       5     1     1     2   501     0  1.986228003E-01  2.204105427E+00  7.775441534E+00  9.376434440E+00  4.750000000E+00  0.00000E+00  9.000E+00
      -5     1     1     2     0   503 -6.579559117E+00 -1.810526234E+01 -2.194516239E+01  2.958451918E+01  4.750000000E+00  0.00000E+00  9.000E+00
      21     1     1     2   503   512  9.117989561E-02 -8.752950555E+00 -1.513911501E+02  1.516440001E+02  1.907348633E-06  0.00000E+00  9.000E+00
#rwgt            1           9   6.7845969311906937E-002           7     1456071           0
</event>
<event>
      6   9999 -3.45752E-01  2.42409E+01 -1.00000E+00  1.54087E-01
      21    -1     0     0   501   502  0.000000000E+00  0.000000000E+00  5.118858858E+01  5.118858858E+01  0.000000000E+00  0.00000E+00  9.000E+00
      21    -1     0     0   502   511  0.000000000E+00  0.000000000E+00 -1.850372341E+03  1.850372341E+03  0.000000000E+00  0.00000E+00  9.000E+00
      25     1     1     2     0     0 -3.647361422E+01  6.731584469E+01 -5.307534427E+02  5.506224367E+02  1.249964138E+02  0.00000E+00  9.000E+00
       5     1     1     2   501     0  1.267004209E+00  6.685999697E-01  1.498560545E+01  1.578553757E+01  4.750000000E+00  0.00000E+00  9.000E+00
      -5     1     1     2     0   503  5.857136532E+01 -7.444279993E+01 -6.158658039E+01  1.130831759E+02  4.750000000E+00  0.00000E+00  9.000E+00
      21     1     1     2   503   511 -2.336475531E+01  6.458355267E+00 -1.221829334E+03  1.222069779E+03  2.157918644E-05  0.00000E+00  9.000E+00
#rwgt            1           9  -7.4801178989769262E-002           7     1458355           0
</event>
<event>
      6   9999  3.45752E-01  7.01193E+00 -1.00000E+00  2.05044E-01
      21    -1     0     0   501   502  0.000000000E+00  0.000000000E+00  2.168434704E+01  2.168434704E+01  0.000000000E+00  0.00000E+00  9.000E+00
      21    -1     0     0   502   512  0.000000000E+00  0.000000000E+00 -1.194038015E+03  1.194038015E+03  0.000000000E+00  0.00000E+00  9.000E+00
      25     1     1     2     0     0  3.863575789E+01  6.793339605E+00 -3.582307551E+02  3.814352002E+02  1.249986673E+02  0.00000E+00  9.000E+00
       5     1     1     2   501     0  2.414929622E+00 -2.040678472E-01  8.413197570E+00  9.960819349E+00  4.750000000E+00  0.00000E+00  9.000E+00
      -5     1     1     2     0   503 -4.399397810E+01 -1.295355940E+01 -6.416622274E+02  6.433165950E+02  4.750000000E+00  0.00000E+00  9.000E+00
      21     1     1     2   503   512  2.943290587E+00  6.364287642E+00 -1.808738826E+02  1.810097471E+02  0.000000000E+00  0.00000E+00  9.000E+00
#rwgt            1           9   2.0566248952854282E-003           7     1460076           0
</event>
<event>
      6   9999 -3.45752E-01  7.06799E+00 -1.00000E+00  2.04605E-01
      21    -1     0     0   501   502  0.000000000E+00  0.000000000E+00  9.585973160E+00  9.585973160E+00  0.000000000E+00  0.00000E+00  9.000E+00
      21    -1     0     0   502   511  0.000000000E+00  0.000000000E+00 -1.307638436E+03  1.307638436E+03  0.000000000E+00  0.00000E+00  9.000E+00
      25     1     1     2     0     0  2.483039322E+00 -1.670383526E+00 -7.314123274E+02  7.420019932E+02  1.248759767E+02  0.00000E+00  9.000E+00
       5     1     1     2   501     0 -2.338446183E+00  1.450258547E+00  1.761191804E+00  5.765056546E+00  4.750000000E+00  0.00000E+00  9.000E+00
      -5     1     1     2     0   503 -3.352760110E+00  6.518071949E+00 -3.729951921E+01  3.830852249E+01  4.750000000E+00  0.00000E+00  9.000E+00
      21     1     1     2   503   511  3.208166971E+00 -6.297946970E+00 -5.311018084E+02  5.311488373E+02  7.629394531E-06  0.00000E+00  9.000E+00
#rwgt            1           9  -1.5836764080703238E-003           7     1464153           0
</event>
<event>
      6   9999  3.45752E-01  9.96618E+00 -1.00000E+00  1.87349E-01
       1    -1     0     0   501     0  0.000000000E+00  0.000000000E+00  2.689632661E+02  2.689632661E+02  0.000000000E+00  0.00000E+00  9.000E+00
      21    -1     0     0   502   503  0.000000000E+00  0.000000000E+00 -1.822652062E+03  1.822652062E+03  0.000000000E+00  0.00000E+00  9.000E+00
      25     1     1     2     0     0  7.204123292E+00  7.354865746E+00 -1.799175933E+03  1.803542427E+03  1.250010114E+02  0.00000E+00  9.000E+00
       5     1     1     2   501     0  8.329027188E-02  2.868329386E-01 -3.260220893E+00  5.768947103E+00  4.750000000E+00  0.00000E+00  9.000E+00
      -5     1     1     2     0   503 -6.764914043E-01 -1.837916181E-01 -1.633922317E+01  1.703009494E+01  4.750000000E+00  0.00000E+00  9.000E+00
       1     1     1     2   502     0 -6.610922160E+00 -7.457907066E+00  2.650865815E+02  2.652738592E+02  8.529922400E-06  0.00000E+00  9.000E+00
#rwgt            1           9   1.2035356130184281E-002           7     1467214           0
</event>
<event>
      6   9999  3.45752E-01  2.03885E+01 -1.00000E+00  1.59575E-01
      21    -1     0     0   501   502  0.000000000E+00  0.000000000E+00  9.465586347E+02  9.465586347E+02  0.000000000E+00  0.00000E+00  9.000E+00
      21    -1     0     0   511   503  0.000000000E+00  0.000000000E+00 -1.062932004E+01  1.062932004E+01  0.000000000E+00  0.00000E+00  9.000E+00
      25     1     1     2     0     0  1.712051204E+01 -4.306442667E+00  6.108204622E+02  6.237299752E+02  1.250031503E+02  0.00000E+00  9.000E+00
       5     1     1     2   501     0  2.866073902E+00 -1.102877822E+00  2.683510576E+02  2.684106617E+02  4.750000000E+00  0.00000E+00  9.000E+00
      -5     1     1     2     0   503 -1.066255858E+00 -2.187626839E+00  6.826513045E-01  5.380625015E+00  4.750000000E+00  0.00000E+00  9.000E+00
      21     1     1     2   511   502 -1.892033008E+01  7.596947328E+00  5.607514358E+01  5.966669278E+01  9.536743164E-07  0.00000E+00  9.000E+00
#rwgt            1           9   1372.5354519575606                7     1469374           0
</event>
<event>
      6   9999  3.45752E-01  1.34536E+01 -1.00000E+00  1.74571E-01
       2    -1     0     0   501     0  0.000000000E+00  0.000000000E+00  4.513444680E+02  4.513444680E+02  0.000000000E+00  0.00000E+00  9.000E+00
      21    -1     0     0   502   503  0.000000000E+00  0.000000000E+00 -1.322133986E+03  1.322133986E+03  0.000000000E+00  0.00000E+00  9.000E+00
      25     1     1     2     0     0 -4.039835879E+01  3.112234322E+01 -1.190174252E+03  1.197806535E+03  1.250004749E+02  0.00000E+00  9.000E+00
       5     1     1     2   501     0 -9.565392106E-01  4.508960451E+00  4.125119485E+01  4.177881362E+01  4.750000000E+00  0.00000E+00  9.000E+00
      -5     1     1     2     0   503  2.897639283E+01 -3.036145033E+01 -1.242766267E+02  1.312581100E+02  4.750000000E+00  0.00000E+00  9.000E+00
       2     1     1     2   502     0  1.237850517E+01 -5.269853344E+00  4.024101651E+02  4.026349957E+02  5.394796609E-06  0.00000E+00  9.000E+00
#rwgt            1           9   1.0496884551215756E-003           7     1470677           0
</event>
<event>
      6   9999  3.45752E-01  1.38417E+02 -1.00000E+00  1.14726E-01
      21    -1     0     0   501   511  0.000000000E+00  0.000000000E+00  2.520539574E+02  2.520539574E+02  0.000000000E+00  0.00000E+00  9.000E+00
      -3    -1     0     0     0   502  0.000000000E+00  0.000000000E+00 -1.529552874E+02  1.529552874E+02  0.000000000E+00  0.00000E+00  9.000E+00
      25     1     1     2     0     0  1.188200383E+01  7.975772454E+01  8.367161354E+01  1.706699710E+02  1.249992937E+02  0.00000E+00  9.000E+00
       5     1     1     2   501     0  1.087947465E+01  3.928523834E+01  4.893344243E+01  6.386499204E+01  4.750000000E+00  0.00000E+00  9.000E+00
      -5     1     1     2     0   502 -2.067177079E+01  1.935803151E+01 -6.651975630E+00  2.947654612E+01  4.750000000E+00  0.00000E+00  9.000E+00
      -3     1     1     2     0   511 -2.089707689E+00 -1.384009944E+02 -2.685441031E+01  1.409977357E+02  2.880822652E-06  0.00000E+00  9.000E+00
#rwgt            1           8   2.7076032599524076E-002           7     1474492           0
</event>
<event>
      6   9999  3.45752E-01  4.51128E+00 -1.00000E+00  2.37511E-01
      21    -1     0     0   501   502  0.000000000E+00  0.000000000E+00  2.485049433E+01  2.485049433E+01  0.000000000E+00  0.00000E+00  9.000E+00
      21    -1     0     0   512   503  0.000000000E+00  0.000000000E+00 -1.137180286E+03  1.137180286E+03  0.000000000E+00  0.00000E+00  9.000E+00
      25     1     1     2     0     0 -7.044979785E+01 -4.726313575E+01 -6.010199248E+02  6.197155199E+02  1.250015906E+02  0.00000E+00  9.000E+00
       5     1     1     2   501     0  1.962906130E+00  2.292745432E-01  1.129474694E+01  1.241126004E+01  4.750000000E+00  0.00000E+00  9.000E+00
      -5     1     1     2     0   503  6.403104833E+01  4.773893242E+01 -4.426916899E+02  4.498638412E+02  4.750000000E+00  0.00000E+00  9.000E+00
      21     1     1     2   512   502  4.455843385E+00 -7.050712175E-01 -7.991292347E+01  8.004015869E+01  9.536743164E-07  0.00000E+00  9.000E+00
#rwgt            1           9   4.0632617074018839E-003           7     1474677           0
</event>
<event>
      6   9999  3.45752E-01  2.33757E+01 -1.00000E+00  1.55207E-01
      21    -1     0     0   501   502  0.000000000E+00  0.000000000E+00  7.195210530E+01  7.195210530E+01  0.000000000E+00  0.00000E+00  9.000E+00
      21    -1     0     0   511   503  0.000000000E+00  0.000000000E+00 -1.582088666E+03  1.582088666E+03  0.000000000E+00  0.00000E+00  9.000E+00
      25     1     1     2     0     0  7.594073484E+01 -1.022681185E+02 -1.017270531E+03  1.032806564E+03  1.249972030E+02  0.00000E+00  9.000E+00
       5     1     1     2   501     0 -5.334668612E+00 -3.536228080E+00  5.659957361E+01  5.715800759E+01  4.750000000E+00  0.00000E+00  9.000E+00
      -5     1     1     2     0   503 -5.587129300E+01  8.765747440E+01 -4.577710685E+02  4.694489833E+02  4.750000000E+00  0.00000E+00  9.000E+00
      21     1     1     2   511   502 -1.473477323E+01  1.814687215E+01 -9.169453432E+01  9.462721667E+01  0.000000000E+00  0.00000E+00  9.000E+00
#rwgt            1           9   1.5904148991518353E-003           7     1480395           0
</event>
<event>
      6   9999  3.45752E-01  9.43465E+00 -1.00000E+00  1.89896E-01
      21    -1     0     0   501   502  0.000000000E+00  0.000000000E+00  2.274716989E+01  2.274716989E+01  0.000000000E+00  0.00000E+00  9.000E+00
       2    -1     0     0   502     0  0.000000000E+00  0.000000000E+00 -2.543333370E+03  2.543333370E+03  0.000000000E+00  0.00000E+00  9.000E+00
      25     1     1     2     0     0 -2.053783508E+00  2.153406475E+00 -2.055513877E+03  2.059313437E+03  1.250027145E+02  0.00000E+00  9.000E+00
       5     1     1     2   501     0  6.818650149E+00 -5.770600629E-01  1.913152063E+01  2.086635018E+01  4.750000000E+00  0.00000E+00  9.000E+00
      -5     1     1     2     0   503 -1.130828441E+01 -8.373135087E+00 -6.856702756E+01  7.015687034E+01  4.750000000E+00  0.00000E+00  9.000E+00
       2     1     1     2   503     0  6.543417771E+00  6.796788675E+00 -4.156368163E+02  4.157438824E+02  7.629394531E-06  0.00000E+00  9.000E+00
#rwgt            1           9   2.6927983303731576E-004           7     1482872           0
</event>
<event>
      6   9999  3.45752E-01  1.86701E+01 -1.00000E+00  1.62525E-01
      21    -1     0     0   501   511  0.000000000E+00  0.000000000E+00  9.691931408E+01  9.691931408E+01  0.000000000E+00  0.00000E+00  9.000E+00
      21    -1     0     0   502   503  0.000000000E+00  0.000000000E+00 -9.088540331E+02  9.088540331E+02  0.000000000E+00  0.00000E+00  9.000E+00
      25     1     1     2     0     0 -5.605632582E+01  2.184237591E+00 -5.965082639E+02  6.120410383E+02  1.250001645E+02  0.00000E+00  9.000E+00
       5     1     1     2   501     0  1.962882424E+01 -3.492083121E+01 -7.145586586E+01  8.205643460E+01  4.750000000E+00  0.00000E+00  9.000E+00
      -5     1     1     2     0   503  4.321169832E+01  1.534267551E+01 -2.244110338E+02  2.290971915E+02  4.750000000E+00  0.00000E+00  9.000E+00
      21     1     1     2   502   511 -6.784196734E+00  1.739391812E+01  8.044044459E+01  8.257868271E+01  1.348699152E-06  0.00000E+00  9.000E+00
#rwgt            1           9   1.0367386179056380E-005           7     1486364           0
</event>
<event>
      6   9999  3.45752E-01  6.79370E+00 -1.00000E+00  2.06808E-01
      21    -1     0     0   502   503  0.000000000E+00  0.000000000E+00  1.066350956E+01  1.066350956E+01  0.000000000E+00  0.00000E+00  9.000E+00
      21    -1     0     0   512   502  0.000000000E+00  0.000000000E+00 -1.958879999E+03  1.958879999E+03  0.000000000E+00  0.00000E+00  9.000E+00
      25     1     1     2     0     0 -6.181554953E+00  1.415128475E+01 -4.968984178E+02  5.126129414E+02  1.250020785E+02  0.00000E+00  9.000E+00
       5     1     1     2   501     0 -1.071885430E+01 -9.684141531E-01 -2.759896902E+02  2.762402998E+02  4.750000000E+00  0.00000E+00  9.000E+00
      -5     1     1     2     0   503  1.079010877E+01 -1.021325057E+01 -2.010174727E+01  2.544365692E+01  4.750000000E+00  0.00000E+00  9.000E+00
      21     1     1     2   512   501  6.110300488E+00 -2.969620027E+00 -1.155226634E+03  1.155246610E+03  1.525878906E-05  0.00000E+00  9.000E+00
#rwgt            1           9   5.7630380189269588E-005           7     1488066           0
</event>
<event>
      6   9999 -3.45752E-01  1.50865E+00 -1.00000E+00  3.88808E-01
      21    -1     0     0   501   502  0.000000000E+00  0.000000000E+00  2.107286251E+01  2.107286251E+01  0.000000000E+00  0.00000E+00  9.000E+00
      21    -1     0     0   502   511  0.000000000E+00  0.000000000E+00 -4.324455131E+02  4.324455131E+02  0.000000000E+00  0.00000E+00  9.000E+00
      25     1     1     2     0     0 -2.616936113E+00 -6.460161706E+00 -2.895590002E+02  3.154670706E+02  1.250059039E+02  0.00000E+00  9.000E+00
       5     1     1     2   501     0  1.828633226E+00 -2.532922842E-01  6.903876439E+00  8.581029445E+00  4.750000000E+00  0.00000E+00  9.000E+00
      -5     1     1     2     0   503  2.281250728E+00  6.496330174E+00 -4.698195212E+01  4.772077887E+01  4.750000000E+00  0.00000E+00  9.000E+00
      21     1     1     2   503   511 -1.492947840E+00  2.171238164E-01 -8.173557469E+01  8.174949667E+01  9.536743164E-07  0.00000E+00  9.000E+00
#rwgt            1           9  -1.5863073547732403E-002           7     1491126           0
</event>
<event>
      6   9999  3.45752E-01  3.54362E+01 -1.00000E+00  1.43307E-01
      21    -1     0     0   502   503  0.000000000E+00  0.000000000E+00  9.375135802E+01  9.375135802E+01  0.000000000E+00  0.00000E+00  9.000E+00
       2    -1     0     0   501     0  0.000000000E+00  0.000000000E+00 -2.641824939E+03  2.641824939E+03  0.000000000E+00  0.00000E+00  9.000E+00
      25     1     1     2     0     0  2.175257809E+01 -4.335150670E+01  2.872629335E+01  1.371206815E+02  1.249974143E+02  0.00000E+00  9.000E+00
       5     1     1     2   501     0 -6.815374372E+01  6.377726441E+01 -1.534474808E+03  1.537318436E+03  4.750000000E+00  0.00000E+00  9.000E+00
      -5     1     1     2     0   503  1.712792560E+01 -4.556811701E-01  4.248763023E-01  1.778528888E+01  4.750000000E+00  0.00000E+00  9.000E+00
       2     1     1     2   502     0  2.927324002E+01 -1.997007654E+01 -1.042749942E+03  1.043351891E+03  0.000000000E+00  0.00000E+00  9.000E+00
#rwgt            1           9   2.0078526538496693                7     1500322           0
</event>
<event>
      6   9999  3.45752E-01  3.22594E+00 -1.00000E+00  2.68916E-01
      21    -1     0     0   501   502  0.000000000E+00  0.000000000E+00  7.792790776E+00  7.792790776E+00  0.000000000E+00  0.00000E+00  9.000E+00
      21    -1     0     0   502   511  0.000000000E+00  0.000000000E+00 -8.035877657E+02  8.035877657E+02  0.000000000E+00  0.00000E+00  9.000E+00
      25     1     1     2     0     0 -4.828877639E+00  1.054909081E+01 -5.656789058E+02  5.794415465E+02  1.250011202E+02  0.00000E+00  9.000E+00
       5     1     1     2   501     0 -6.941305041E-02  4.334997213E-01 -7.397817506E+00  8.802439663E+00  4.750000000E+00  0.00000E+00  9.000E+00
      -5     1     1     2     0   503  4.228612335E+00 -7.826921352E+00 -1.442898938E+02  1.446418951E+02  4.750000000E+00  0.00000E+00  9.000E+00
      21     1     1     2   503   511  6.696783546E-01 -3.155669180E+00 -7.842835785E+01  7.849467518E+01  1.907348633E-06  0.00000E+00  9.000E+00
#rwgt            1           9   1.1535857290985000E-003           7     1503021           0
</event>
<event>
      6   9999  3.45752E-01  4.33241E+01 -1.00000E+00  1.38204E-01
      21    -1     0     0   501   502  0.000000000E+00  0.000000000E+00  1.245592250E+02  1.245592250E+02  0.000000000E+00  0.00000E+00  9.000E+00
      21    -1     0     0   502   512  0.000000000E+00  0.000000000E+00 -4.188375645E+02  4.188375645E+02  0.000000000E+00  0.00000E+00  9.000E+00
      25     1     1     2     0     0 -2.523517060E+01  2.894539469E+01  5.810300388E+01  1.430926324E+02  1.249995707E+02  0.00000E+00  9.000E+00
       5     1     1     2   501     0 -2.403324770E+00  2.271953298E+00  2.124319195E+01  2.201757130E+01  4.750000000E+00  0.00000E+00  9.000E+00
      -5     1     1     2     0   503 -1.021588243E+01 -1.014544861E+01 -7.313626801E+01  7.469116802E+01  4.750000000E+00  0.00000E+00  9.000E+00
      21     1     1     2   503   512  3.785437780E+01 -2.107189939E+01 -3.004882673E+02  3.035954177E+02  5.394796609E-06  0.00000E+00  9.000E+00
#rwgt            1           9   5.2546779479466617                7     1508046           0
</event>
<event>
      6   9999  3.45752E-01  5.10969E+00 -1.00000E+00  2.24259E-01
      21    -1     0     0   501   511  0.000000000E+00  0.000000000E+00  1.264656413E+01  1.264656413E+01  0.000000000E+00  0.00000E+00  9.000E+00
      21    -1     0     0   502   503  0.000000000E+00  0.000000000E+00 -1.540046921E+03  1.540046921E+03  0.000000000E+00  0.00000E+00  9.000E+00
      25     1     1     2     0     0 -5.330079197E+00  1.922261486E+00 -1.479946204E+03  1.485226934E+03  1.250046941E+02  0.00000E+00  9.000E+00
       5     1     1     2   501     0  1.445180380E-01 -9.507570478E-01 -3.945571854E+00  6.249388905E+00  4.750000000E+00  0.00000E+00  9.000E+00
      -5     1     1     2     0   503  1.029292866E+01 -8.173853315E-01 -5.094336564E+01  5.219579966E+01  4.750000000E+00  0.00000E+00  9.000E+00
      21     1     1     2   502   511 -5.107367503E+00 -1.541191066E-01  7.434784839E+00  9.021362487E+00  1.278377210E-06  0.00000E+00  9.000E+00
#rwgt            1           9   2.0822352654632423E-002           7     1509108           0
</event>
<event>
      6   9999  3.45752E-01  9.25376E+00 -1.00000E+00  1.90813E-01
      21    -1     0     0   501   502  0.000000000E+00  0.000000000E+00  3.861516387E+02  3.861516387E+02  0.000000000E+00  0.00000E+00  9.000E+00
      21    -1     0     0   502   512  0.000000000E+00  0.000000000E+00 -1.518691854E+02  1.518691854E+02  0.000000000E+00  0.00000E+00  9.000E+00
      25     1     1     2     0     0 -1.570959668E+01  3.275609229E+01 -9.501622982E+01  1.611603985E+02  1.249993484E+02  0.00000E+00  9.000E+00
       5     1     1     2   501     0 -4.230697354E+00 -1.927060990E+00  3.216937465E+02  3.217623990E+02  4.750000000E+00  0.00000E+00  9.000E+00
      -5     1     1     2     0   503  1.919156529E+01 -2.160561483E+01  2.293056302E+01  3.719532216E+01  4.750000000E+00  0.00000E+00  9.000E+00
      21     1     1     2   503   512  7.487287433E-01 -9.223416467E+00 -1.532562633E+01  1.790270450E+01  1.685873940E-07  0.00000E+00  9.000E+00
#rwgt            1           9   2.1804650305159325E-004           7     1512764           0
</event>
<event>
      6   9999  3.45752E-01  2.23492E+01 -1.00000E+00  1.56614E-01
      21    -1     0     0   501   502  0.000000000E+00  0.000000000E+00  6.078565183E+02  6.078565183E+02  0.000000000E+00  0.00000E+00  9.000E+00
      21    -1     0     0   511   503  0.000000000E+00  0.000000000E+00 -9.398687725E+01  9.398687725E+01  0.000000000E+00  0.00000E+00  9.000E+00
      25     1     1     2     0     0  3.226898844E+01  1.411549723E+02  2.873422995E+02  3.451901089E+02  1.249984014E+02  0.00000E+00  9.000E+00
       5     1     1     2   501     0 -3.753580957E+00  3.858067335E+00  2.069188562E+02  2.070433520E+02  4.750000000E+00  0.00000E+00  9.000E+00
      -5     1     1     2     0   503 -2.736014061E+01 -1.226937189E+02  1.922406991E+01  1.272574293E+02  4.750000000E+00  0.00000E+00  9.000E+00
      21     1     1     2   511   502 -1.155266872E+00 -2.231932072E+01  3.844153770E-01  2.235250532E+01  3.711855026E-07  0.00000E+00  9.000E+00
#rwgt            1           9   2.6926961118733760E-004           7     1516536           0
</event>
<event>
      6   9999  3.45752E-01  4.46516E+00 -1.00000E+00  2.38359E-01
      21    -1     0     0   501   502  0.000000000E+00  0.000000000E+00  1.239103957E+01  1.239103957E+01  0.000000000E+00  0.00000E+00  9.000E+00
      21    -1     0     0   502   512  0.000000000E+00  0.000000000E+00 -6.740933754E+02  6.740933754E+02  0.000000000E+00  0.00000E+00  9.000E+00
      25     1     1     2     0     0 -2.304557339E+00  2.065066419E+00 -6.011771172E+02  6.140437742E+02  1.250050198E+02  0.00000E+00  9.000E+00
       5     1     1     2   501     0 -7.331322001E-01 -5.632986939E-02  4.405035676E+00  6.519777235E+00  4.750000000E+00  0.00000E+00  9.000E+00
      -5     1     1     2     0   503 -1.311755202E+00 -9.987795495E-01 -1.563011148E+01  1.641892650E+01  4.750000000E+00  0.00000E+00  9.000E+00
      21     1     1     2   503   512  4.349444742E+00 -1.009957000E+00 -4.930014287E+01  4.950193703E+01  6.743495762E-07  0.00000E+00  9.000E+00
#rwgt            1           9   3.3473625057605181E-003           7     1518738           0
</event>
<event>
      6   9999  3.45752E-01  4.72303E+00 -1.00000E+00  2.33803E-01
      21    -1     0     0   501   511  0.000000000E+00  0.000000000E+00  3.183551354E+01  3.183551354E+01  0.000000000E+00  0.00000E+00  9.000E+00
      21    -1     0     0   502   503  0.000000000E+00  0.000000000E+00 -1.121237993E+03  1.121237993E+03  0.000000000E+00  0.00000E+00  9.000E+00
      25     1     1     2     0     0 -1.158144473E+01  9.730637511E+00 -7.190837375E+02  7.300217812E+02  1.249862568E+02  0.00000E+00  9.000E+00
       5     1     1     2   501     0  6.537672307E+00 -1.022894556E+00  2.293740592E+01  2.434080038E+01  4.750000000E+00  0.00000E+00  9.000E+00
      -5     1     1     2     0   503  3.617569193E+00 -4.205191993E+00 -3.938792700E+02  3.939469663E+02  4.750000000E+00  0.00000E+00  9.000E+00
      21     1     1     2   502   511  1.426203230E+00 -4.502550962E+00  6.231220642E-01  4.763958640E+00  1.363680155E-07  0.00000E+00  9.000E+00
#rwgt            1           9  0.13950505551941511                7     1523777           0
</event>
<event>
      6   9999  3.45752E-01  3.60487E+01 -1.00000E+00  1.42857E-01
      21    -1     0     0   501   502  0.000000000E+00  0.000000000E+00  7.019275999E+01  7.019275999E+01  0.000000000E+00  0.00000E+00  9.000E+00
      21    -1     0     0   502   512  0.000000000E+00  0.000000000E+00 -1.805336463E+03  1.805336463E+03  0.000000000E+00  0.00000E+00  9.000E+00
      25     1     1     2     0     0 -6.249259573E+01 -1.612083223E+02 -3.425682116E+02  4.035923390E+02  1.250613801E+02  0.00000E+00  9.000E+00
       5     1     1     2   501     0  1.658606442E+00  5.862149577E+00  2.877851211E+01  2.979733264E+01  4.750000000E+00  0.00000E+00  9.000E+00
      -5     1     1     2     0   503  5.314674971E+01  1.905657298E+02 -1.009713361E+03  1.028923470E+03  4.750000000E+00  0.00000E+00  9.000E+00
      21     1     1     2   503   512  7.687239582E+00 -3.521955708E+01 -4.116406428E+02  4.132160811E+02  7.629394531E-06  0.00000E+00  9.000E+00
#rwgt            1           9   1.1630626245584367E-002           7     1529173           0
</event>
<event>
      6   9999  3.45752E-01  3.60763E+01 -1.00000E+00  1.42837E-01
      21    -1     0     0   501   511  0.000000000E+00  0.000000000E+00  8.786237545E+01  8.786237545E+01  0.000000000E+00  0.00000E+00  9.000E+00
      21    -1     0     0   502   503  0.000000000E+00  0.000000000E+00 -1.539400591E+03  1.539400591E+03  0.000000000E+00  0.00000E+00  9.000E+00
      25     1     1     2     0     0 -6.599717298E+00 -3.052714623E+01 -1.416318551E+03  1.422166855E+03  1.249994444E+02  0.00000E+00  9.000E+00
       5     1     1     2   501     0 -1.730115848E+01  7.618760229E+00  6.300723444E+01  6.595339023E+01  4.750000000E+00  0.00000E+00  9.000E+00
      -5     1     1     2     0   503 -8.002000622E+00  6.064894819E+00 -1.022421142E+02  1.028437036E+02  4.750000000E+00  0.00000E+00  9.000E+00
      21     1     1     2   502   511  3.190287640E+01  1.684349118E+01  4.015215763E+00  3.629901756E+01  1.035818291E-06  0.00000E+00  9.000E+00
#rwgt            1           9   1.5015166133988383E-003           7     1530873           0
</event>
<event>
      6   9999  3.45752E-01  6.52462E+00 -1.00000E+00  2.09110E-01
      21    -1     0     0   501   502  0.000000000E+00  0.000000000E+00  6.655367452E+00  6.655367452E+00  0.000000000E+00  0.00000E+00  9.000E+00
      21    -1     0     0   512   503  0.000000000E+00  0.000000000E+00 -1.083273208E+03  1.083273208E+03  0.000000000E+00  0.00000E+00  9.000E+00
      25     1     1     2     0     0 -2.056687814E+01 -7.076194858E+00 -9.310103458E+02  9.396160646E+02  1.250000632E+02  0.00000E+00  9.000E+00
       5     1     1     2   501     0  3.490146143E-01 -7.086555589E-01 -5.194853867E+00  7.083290945E+00  4.750000000E+00  0.00000E+00  9.000E+00
      -5     1     1     2     0   503  1.781660045E+01  1.718176047E+00 -6.653783480E+01  6.906684690E+01  4.750000000E+00  0.00000E+00  9.000E+00
      21     1     1     2   512   502  2.401263078E+00  6.066674369E+00 -7.387480648E+01  7.416237344E+01  9.536743164E-07  0.00000E+00  9.000E+00
#rwgt            1           9   1.5016755671019245E-003           7     1533041           0
</event>
<event>
      6   9999  3.45752E-01  9.69521E+00 -1.00000E+00  1.88621E-01
      21    -1     0     0   511   502  0.000000000E+00  0.000000000E+00  3.823695927E+02  3.823695927E+02  0.000000000E+00  0.00000E+00  9.000E+00
      21    -1     0     0   502   503  0.000000000E+00  0.000000000E+00 -1.103497553E+03  1.103497553E+03  0.000000000E+00  0.00000E+00  9.000E+00
      25     1     1     2     0     0 -2.793950064E+01  3.781595165E+01 -3.374004163E+02  3.628722572E+02  1.250062889E+02  0.00000E+00  9.000E+00
       5     1     1     2   501     0 -5.097921827E-01  2.704933550E+00  1.301752959E+01  1.412781407E+01  4.750000000E+00  0.00000E+00  9.000E+00
      -5     1     1     2     0   503  3.779365088E+01 -4.310548550E+01 -7.516408846E+02  7.538388586E+02  4.750000000E+00  0.00000E+00  9.000E+00
      21     1     1     2   511   501 -9.344358048E+00  2.584600297E+00  3.548958111E+02  3.550282157E+02  7.629394531E-06  0.00000E+00  9.000E+00
#rwgt            1           9   2.1480330867589360E-002           7     1536077           0
</event>
<event>
      6   9999  3.45752E-01  5.58160E+00 -1.00000E+00  2.18526E-01
      21    -1     0     0   501   502  0.000000000E+00  0.000000000E+00  1.974011809E+01  1.974011809E+01  0.000000000E+00  0.00000E+00  9.000E+00
      21    -1     0     0   512   503  0.000000000E+00  0.000000000E+00 -3.905195052E+02  3.905195052E+02  0.000000000E+00  0.00000E+00  9.000E+00
      25     1     1     2     0     0 -5.027831855E+00 -9.355088149E+00 -2.906123750E+02  3.165321123E+02  1.249969152E+02  0.00000E+00  9.000E+00
       5     1     1     2   501     0 -2.493116396E-02  4.923927894E-01  3.506251306E+00  5.924472166E+00  4.750000000E+00  0.00000E+00  9.000E+00
      -5     1     1     2     0   503  4.796326697E-01  1.206281714E+01 -1.970785891E+01  2.359457157E+01  4.750000000E+00  0.00000E+00  9.000E+00
      21     1     1     2   512   502  4.573130350E+00 -3.200121776E+00 -6.396540445E+01  6.420846725E+01  9.536743164E-07  0.00000E+00  9.000E+00
#rwgt            1           9   4.5225675212696927E-005           7     1540999           0
</event>
<event>
      6   9999  3.45752E-01  4.30112E+00 -1.00000E+00  2.41501E-01
      21    -1     0     0   511   502  0.000000000E+00  0.000000000E+00  8.720630544E+00  8.720630544E+00  0.000000000E+00  0.00000E+00  9.000E+00
      21    -1     0     0   502   503  0.000000000E+00  0.000000000E+00 -7.264538093E+02  7.264538093E+02  0.000000000E+00  0.00000E+00  9.000E+00
      25     1     1     2     0     0  3.861348800E+00  3.118177138E+00 -6.636176475E+02  6.753066979E+02  1.250044844E+02  0.00000E+00  9.000E+00
       5     1     1     2   501     0 -1.659650907E+00  1.192465239E+00 -2.815834262E+01  2.862920141E+01  4.750000000E+00  0.00000E+00  9.000E+00
      -5     1     1     2     0   503 -3.791863843E-01 -4.147320101E-01 -2.647749600E+01  2.690606027E+01  4.750000000E+00  0.00000E+00  9.000E+00
      21     1     1     2   511   501 -1.822511508E+00 -3.895910367E+00  5.203073249E-01  4.332480294E+00  1.868596107E-07  0.00000E+00  9.000E+00
#rwgt            1           9   8.0097591729050784E-005           7     1544572           0
</event>
<event>
      6   9999  3.45752E-01  8.74385E+00 -1.00000E+00  1.93551E-01
      21    -1     0     0   501   502  0.000000000E+00  0.000000000E+00  3.574144334E+01  3.574144334E+01  0.000000000E+00  0.00000E+00  9.000E+00
      21    -1     0     0   512   503  0.000000000E+00  0.000000000E+00 -3.944694617E+02  3.944694617E+02  0.000000000E+00  0.00000E+00  9.000E+00
      25     1     1     2     0     0  9.554703747E+00 -4.428639283E+00 -1.705103658E+02  2.116805427E+02  1.249958483E+02  0.00000E+00  9.000E+00
       5     1     1     2   501     0 -1.011318477E+00 -1.819953623E+00  9.047442799E+00  1.042850504E+01  4.750000000E+00  0.00000E+00  9.000E+00
      -5     1     1     2     0   503 -1.007491611E+01 -2.360089496E+00 -7.694594501E-01  1.141177133E+01  4.750000000E+00  0.00000E+00  9.000E+00
      21     1     1     2   512   502  1.531530838E+00  8.608682402E+00 -1.964956359E+02  1.966900860E+02  0.000000000E+00  0.00000E+00  9.000E+00
#rwgt            1           9   1.4567865929366289E-003           7     1548901           0
</event>
<event>
      6   9999  3.45752E-01  1.70566E+01 -1.00000E+00  1.65673E-01
      21    -1     0     0   501   502  0.000000000E+00  0.000000000E+00  1.035571111E+01  1.035571111E+01  0.000000000E+00  0.00000E+00  9.000E+00
      21    -1     0     0   502   511  0.000000000E+00  0.000000000E+00 -9.498542590E+02  9.498542590E+02  0.000000000E+00  0.00000E+00  9.000E+00
      25     1     1     2     0     0  3.349719693E+01  1.379917290E+01 -6.050874692E+02  6.189214470E+02  1.249817300E+02  0.00000E+00  9.000E+00
       5     1     1     2   501     0  1.013776360E+00  1.756888363E+00 -6.525771665E-01  5.206030752E+00  4.750000000E+00  0.00000E+00  9.000E+00
      -5     1     1     2     0   503 -2.110289176E+01 -5.013229423E+00 -1.720315815E+02  1.734586177E+02  4.750000000E+00  0.00000E+00  9.000E+00
      21     1     1     2   503   511 -1.340808153E+01 -1.054283184E+01 -1.617269200E+02  1.626238746E+02  0.000000000E+00  0.00000E+00  9.000E+00
#rwgt            1           9   6.7446714885609942E-005           7     1551537           0
</event>
<event>
      6   9999  3.45752E-01  1.38873E+01 -1.00000E+00  1.73324E-01
      21    -1     0     0   501   512  0.000000000E+00  0.000000000E+00  4.501520591E+01  4.501520591E+01  0.000000000E+00  0.00000E+00  9.000E+00
      21    -1     0     0   502   503  0.000000000E+00  0.000000000E+00 -9.054440861E+02  9.054440861E+02  0.000000000E+00  0.00000E+00  9.000E+00
      25     1     1     2     0     0 -5.823491011E+01  2.371918791E+00 -5.362986578E+02  5.537496785E+02  1.250021013E+02  0.00000E+00  9.000E+00
       5     1     1     2   501     0  1.123629060E+01 -1.221224291E+01 -1.613474030E+01  2.362806484E+01  4.750000000E+00  0.00000E+00  9.000E+00
      -5     1     1     2     0   503  4.622420650E+01 -4.025403761E+00 -3.373757192E+02  3.405845263E+02  4.750000000E+00  0.00000E+00  9.000E+00
      21     1     1     2   502   512  7.744130080E-01  1.386572788E+01  2.938023716E+01  3.249702234E+01  1.936921693E-06  0.00000E+00  9.000E+00
#rwgt            1           9   8.6720732625827773E-003           7     1553122           0
</event>
<event>
      6   9999  3.45752E-01  1.18566E+02 -1.00000E+00  1.17374E-01
      -2    -1     0     0     0   502  0.000000000E+00  0.000000000E+00  2.750457485E+01  2.750457485E+01  0.000000000E+00  0.00000E+00  9.000E+00
      21    -1     0     0   501   511  0.000000000E+00  0.000000000E+00 -3.683083706E+03  3.683083706E+03  0.000000000E+00  0.00000E+00  9.000E+00
      25     1     1     2     0     0  1.551607211E+02 -7.482033990E+01 -2.989224631E+03  2.996791875E+03  1.249988730E+02  0.00000E+00  9.000E+00
       5     1     1     2   501     0  6.179519036E+00 -2.417020063E+00 -2.207946033E+01  2.353919094E+01  4.750000000E+00  0.00000E+00  9.000E+00
      -5     1     1     2     0   502 -5.592400000E+01  2.296592125E+01 -4.993131752E+02  5.029822430E+02  4.750000000E+00  0.00000E+00  9.000E+00
      -2     1     1     2     0   511 -1.054162401E+02  5.427143872E+01 -1.449618650E+02  1.872749717E+02  6.877043296E-06  0.00000E+00  9.000E+00
#rwgt            1           3   1.0873031054840928E-004           7     1555022           0
</event>
<event>
      6   9999  3.45752E-01  6.74060E+01 -1.00000E+00  1.28194E-01
      21    -1     0     0   512   503  0.000000000E+00  0.000000000E+00  5.081258329E+02  5.081258329E+02  0.000000000E+00  0.00000E+00  9.000E+00
      21    -1     0     0   501   502  0.000000000E+00  0.000000000E+00 -9.019630793E+02  9.019630793E+02  0.000000000E+00  0.00000E+00  9.000E+00
      25     1     1     2     0     0 -4.579470528E+01  5.418855591E+01 -4.562351833E+02  4.783410266E+02  1.250041622E+02  0.00000E+00  9.000E+00
       5     1     1     2   501     0 -5.454251655E+01 -1.196642534E+01 -3.179043396E+02  3.228061541E+02  4.750000000E+00  0.00000E+00  9.000E+00
      -5     1     1     2     0   503  4.332259245E+01 -6.265196226E+00 -1.076757175E+02  1.163302297E+02  4.750000000E+00  0.00000E+00  9.000E+00
      21     1     1     2   512   502  5.701462938E+01 -3.595693435E+01  4.879779940E+02  4.926115018E+02  5.394796609E-06  0.00000E+00  9.000E+00
#rwgt            1           9   2.0532593770707585E-004           7     1555471           0
</event>
<event>
      6   9999  3.45752E-01  6.89659E+00 -1.00000E+00  2.05966E-01
      21    -1     0     0   501   502  0.000000000E+00  0.000000000E+00  1.244459937E+01  1.244459937E+01  0.000000000E+00  0.00000E+00  9.000E+00
      21    -1     0     0   502   511  0.000000000E+00  0.000000000E+00 -9.476796277E+02  9.476796277E+02  0.000000000E+00  0.00000E+00  9.000E+00
      25     1     1     2     0     0 -5.715322267E+00  4.981140618E+01 -5.761723152E+02  5.917036163E+02  1.249991669E+02  0.00000E+00  9.000E+00
       5     1     1     2   501     0  9.735868027E-01 -7.552339287E-01 -2.880186443E-02  4.907298554E+00  4.750000000E+00  0.00000E+00  9.000E+00
      -5     1     1     2     0   503  1.124809699E+01 -4.676922059E+01 -2.766287257E+02  2.808200386E+02  4.750000000E+00  0.00000E+00  9.000E+00
      21     1     1     2   503   511 -6.506361522E+00 -2.286951654E+00 -8.240518561E+01  8.269327363E+01  9.536743164E-07  0.00000E+00  9.000E+00
#rwgt            1           9   2.5295802328168243E-005           7     1556012           0
</event>
<event>
      6   9999  3.45752E-01  1.49211E+01 -1.00000E+00  1.70570E-01
      21    -1     0     0   501   502  0.000000000E+00  0.000000000E+00  4.805747115E+01  4.805747115E+01  0.000000000E+00  0.00000E+00  9.000E+00
      21    -1     0     0   512   503  0.000000000E+00  0.000000000E+00 -3.334328854E+02  3.334328854E+02  0.000000000E+00  0.00000E+00  9.000E+00
      25     1     1     2     0     0 -8.503874112E-01 -4.659902879E+00 -1.979585356E+02  2.341693360E+02  1.250010330E+02  0.00000E+00  9.000E+00
       5     1     1     2   501     0  2.285764598E-01  1.671453229E+00  2.005736879E+01  2.068106733E+01  4.750000000E+00  0.00000E+00  9.000E+00
      -5     1     1     2     0   503  1.216514709E+01  1.244309526E+01  9.713044700E-02  1.803866286E+01  4.750000000E+00  0.00000E+00  9.000E+00
      21     1     1     2   512   502 -1.154333614E+01 -9.454645608E+00 -1.075713779E+02  1.086012904E+02  1.907348633E-06  0.00000E+00  9.000E+00
#rwgt            1           9   1.5699323538498915E-003           7     1559175           0
</event>
<event>
      6   9999  3.45752E-01  2.21558E+01 -1.00000E+00  1.56890E-01
      21    -1     0     0   501   502  0.000000000E+00  0.000000000E+00  3.147596763E+01  3.147596763E+01  0.000000000E+00  0.00000E+00  9.000E+00
       2    -1     0     0   502     0  0.000000000E+00  0.000000000E+00 -3.330697547E+03  3.330697547E+03  0.000000000E+00  0.00000E+00  9.000E+00
      25     1     1     2     0     0  1.063338795E+02  5.725861355E+01 -4.367643594E+02  4.700780105E+02  1.249991501E+02  0.00000E+00  9.000E+00
       5     1     1     2   501     0  1.669814692E-01 -4.118412224E+00  8.826685666E+00  1.083799252E+01  4.750000000E+00  0.00000E+00  9.000E+00
      -5     1     1     2     0   503 -9.020487452E+01 -6.815081843E+01 -6.441349863E+02  6.539983918E+02  4.750000000E+00  0.00000E+00  9.000E+00
       2     1     1     2   503     0 -1.629598648E+01  1.501061710E+01 -2.227148919E+03  2.227259119E+03  0.000000000E+00  0.00000E+00  9.000E+00
#rwgt            1           9   2.9493171682822852E-004           7     1561137           0
</event>
<event>
      6   9999 -3.45752E-01  8.06566E+00 -1.00000E+00  1.97596E-01
      21    -1     0     0   501   511  0.000000000E+00  0.000000000E+00  4.884352455E+01  4.884352455E+01  0.000000000E+00  0.00000E+00  9.000E+00
      21    -1     0     0   502   503  0.000000000E+00  0.000000000E+00 -3.470118578E+03  3.470118578E+03  0.000000000E+00  0.00000E+00  9.000E+00
      25     1     1     2     0     0 -1.773303905E+01 -2.588190176E+01 -3.324874254E+03  3.327371149E+03  1.250024958E+02  0.00000E+00  9.000E+00
       5     1     1     2   501     0  2.942896216E+00  4.759129065E+00  8.526636040E+00  1.125059864E+01  4.750000000E+00  0.00000E+00  9.000E+00
      -5     1     1     2     0   503  7.808576987E+00  1.708389380E+01 -1.415348849E+02  1.428548895E+02  4.750000000E+00  0.00000E+00  9.000E+00
      21     1     1     2   502   511  6.981565847E+00  4.038878900E+00  3.660744922E+01  3.748546576E+01  2.739220927E-06  0.00000E+00  9.000E+00
#rwgt            1           9  -2.1449080183401925E-004           7     1562844           0
</event>
<event>
      6   9999  3.45752E-01  9.29415E+00 -1.00000E+00  1.90606E-01
      21    -1     0     0   501   502  0.000000000E+00  0.000000000E+00  2.679079502E+01  2.679079502E+01  0.000000000E+00  0.00000E+00  9.000E+00
      21    -1     0     0   502   512  0.000000000E+00  0.000000000E+00 -1.302388724E+03  1.302388724E+03  0.000000000E+00  0.00000E+00  9.000E+00
      25     1     1     2     0     0  1.193037062E+02  1.608411651E+01 -8.202967498E+02  8.384534488E+02  1.250014199E+02  0.00000E+00  9.000E+00
       5     1     1     2   501     0 -1.262371665E+02 -7.486656610E+00 -2.119945864E+02  2.468929716E+02  4.750000000E+00  0.00000E+00  9.000E+00
      -5     1     1     2     0   503  7.898322226E-01 -1.623432914E+00 -4.108787070E+01  4.140090564E+01  4.750000000E+00  0.00000E+00  9.000E+00
      21     1     1     2   503   512  6.143627992E+00 -6.974026983E+00 -2.022187222E+02  2.024321932E+02  0.000000000E+00  0.00000E+00  9.000E+00
#rwgt            1           9  0.61345377851121774                7     1566621           0
</event>
<event>
      6   9999  3.45752E-01  1.05600E+01 -1.00000E+00  1.84735E-01
      21    -1     0     0   501   502  0.000000000E+00  0.000000000E+00  1.257505603E+01  1.257505603E+01  0.000000000E+00  0.00000E+00  9.000E+00
      21    -1     0     0   511   503  0.000000000E+00  0.000000000E+00 -1.904040533E+03  1.904040533E+03  0.000000000E+00  0.00000E+00  9.000E+00
      25     1     1     2     0     0  1.079307133E+01 -1.924480511E-02 -6.434831896E+02  6.556010506E+02  1.250025259E+02  0.00000E+00  9.000E+00
       5     1     1     2   501     0  9.776857286E-01 -8.278786673E-01  5.436239996E+00  7.331879552E+00  4.750000000E+00  0.00000E+00  9.000E+00
      -5     1     1     2     0   503 -3.274760527E+00  7.118561280E+00 -1.985944954E+02  1.988057697E+02  4.750000000E+00  0.00000E+00  9.000E+00
      21     1     1     2   511   502 -8.495996533E+00 -6.271437808E+00 -1.054824032E+03  1.054876890E+03  2.157918644E-05  0.00000E+00  9.000E+00
#rwgt            1           9   1.6832038422736595E-003           7     1570227           0
</event>
<event>
      6   9999  3.45752E-01  1.14979E+01 -1.00000E+00  1.81027E-01
      21    -1     0     0   501   502  0.000000000E+00  0.000000000E+00  3.485640589E+00  3.485640589E+00  0.000000000E+00  0.00000E+00  9.000E+00
       2    -1     0     0   502     0  0.000000000E+00  0.000000000E+00 -1.878055061E+03  1.878055061E+03  0.000000000E+00  0.00000E+00  9.000E+00
      25     1     1     2     0     0  1.668199234E+01 -2.215554061E-01 -1.369353238E+03  1.375148100E+03  1.250026724E+02  0.00000E+00  9.000E+00
       5     1     1     2   501     0  3.616439287E-01  2.763196510E-01 -2.162925227E+01  2.214936099E+01  4.750000000E+00  0.00000E+00  9.000E+00
      -5     1     1     2     0   503 -5.822241532E+00  2.451593601E+00 -6.229151128E+01  6.279095226E+01  4.750000000E+00  0.00000E+00  9.000E+00
       2     1     1     2   503     0 -1.122139473E+01 -2.506357846E+00 -4.212954188E+02  4.214522884E+02  0.000000000E+00  0.00000E+00  9.000E+00
#rwgt            1           9   1.5546031431492300E-004           7     1573804           0
</event>
<event>
      6   9999  3.45752E-01  1.72597E+01 -1.00000E+00  1.65254E-01
      21    -1     0     0   501   502  0.000000000E+00  0.000000000E+00  1.525067330E+01  1.525067330E+01  0.000000000E+00  0.00000E+00  9.000E+00
       2    -1     0     0   502     0  0.000000000E+00  0.000000000E+00 -1.447251177E+03  1.447251177E+03  0.000000000E+00  0.00000E+00  9.000E+00
      25     1     1     2     0     0  3.798815532E+00  7.114005478E+00 -8.638470396E+02  8.728811835E+02  1.249992507E+02  0.00000E+00  9.000E+00
       5     1     1     2   501     0  9.087250232E+00  3.772571805E+00  7.520795850E+00  1.326405990E+01  4.750000000E+00  0.00000E+00  9.000E+00
      -5     1     1     2     0   503  1.182051282E+00 -8.873954145E-01 -3.001561560E+01  3.042506197E+01  4.750000000E+00  0.00000E+00  9.000E+00
       2     1     1     2   503     0 -1.406811705E+01 -9.999181869E+00 -5.456586441E+02  5.459315446E+02  1.078959322E-05  0.00000E+00  9.000E+00
#rwgt            1           9   3.0353864507963696E-004           7     1575742           0
</event>
<event>
      6   9999  3.45752E-01  3.34317E+01 -1.00000E+00  1.44858E-01
      21    -1     0     0   501   502  0.000000000E+00  0.000000000E+00  1.742690143E+02  1.742690143E+02  0.000000000E+00  0.00000E+00  9.000E+00
      21    -1     0     0   511   503  0.000000000E+00  0.000000000E+00 -6.111106716E+01  6.111106716E+01  0.000000000E+00  0.00000E+00  9.000E+00
      25     1     1     2     0     0  1.480182361E+01 -3.201598978E+01  7.410255392E+01  1.495209506E+02  1.249848334E+02  0.00000E+00  9.000E+00
       5     1     1     2   501     0  1.142055107E+00 -2.191017351E+00  2.674080303E+01  2.727155833E+01  4.750000000E+00  0.00000E+00  9.000E+00
      -5     1     1     2     0   503 -5.414929577E+00  2.476624505E+00  2.240660887E+01  2.366587738E+01  4.750000000E+00  0.00000E+00  9.000E+00
      21     1     1     2   511   502 -1.052894914E+01  3.173038263E+01 -1.009201867E+01  3.492169516E+01  1.685873940E-07  0.00000E+00  9.000E+00
#rwgt            1           9   4.1524709359992603E-004           7     1577890           0
</event>
<event>
      6   9999  3.45752E-01  1.00203E+01 -1.00000E+00  1.87101E-01
      21    -1     0     0   501   502  0.000000000E+00  0.000000000E+00  8.438494791E+00  8.438494791E+00  0.000000000E+00  0.00000E+00  9.000E+00
      21    -1     0     0   512   503  0.000000000E+00  0.000000000E+00 -8.457447657E+02  8.457447657E+02  0.000000000E+00  0.00000E+00  9.000E+00
      25     1     1     2     0     0  1.979446967E+01 -7.915384596E+00 -6.494514091E+02  6.617147347E+02  1.249991319E+02  0.00000E+00  9.000E+00
       5     1     1     2   501     0 -7.880811756E+00  2.733193735E+00 -2.021371620E+01  2.237709464E+01  4.750000000E+00  0.00000E+00  9.000E+00
      -5     1     1     2     0   503 -1.109572741E+01 -4.804684060E+00 -3.998008338E+01  4.203771786E+01  4.750000000E+00  0.00000E+00  9.000E+00
      21     1     1     2   512   502 -8.179305042E-01  9.986874921E+00 -1.276610622E+02  1.280537133E+02  1.907348633E-06  0.00000E+00  9.000E+00
#rwgt            1           9   1.5939212754300229E-004           7     1578701           0
</event>
<event>
      6   9999  3.45752E-01  2.89508E+00 -1.00000E+00  2.81019E-01
      21    -1     0     0   501   502  0.000000000E+00  0.000000000E+00  9.588394083E+00  9.588394083E+00  0.000000000E+00  0.00000E+00  9.000E+00
      21    -1     0     0   511   503  0.000000000E+00  0.000000000E+00 -8.135863149E+02  8.135863149E+02  0.000000000E+00  0.00000E+00  9.000E+00
      25     1     1     2     0     0  5.620122878E+00  7.981778183E+00 -4.806205096E+02  4.967051432E+02  1.249985218E+02  0.00000E+00  9.000E+00
       5     1     1     2   501     0 -8.114480349E-01  1.308360850E-01 -2.893603319E+00  5.622366598E+00  4.750000000E+00  0.00000E+00  9.000E+00
      -5     1     1     2     0   503 -7.696065164E+00 -7.901765934E+00 -2.814864975E+02  2.817425741E+02  4.750000000E+00  0.00000E+00  9.000E+00
      21     1     1     2   511   502  2.887390321E+00 -2.108483348E-01 -3.899731045E+01  3.910462507E+01  4.768371582E-07  0.00000E+00  9.000E+00
#rwgt            1           9   4.1676389843922720E-005           7     1581168           0
</event>
<event>
      6   9999  3.45752E-01  1.88613E+01 -1.00000E+00  1.62178E-01
      21    -1     0     0   501   512  0.000000000E+00  0.000000000E+00  8.191661026E+01  8.191661026E+01  0.000000000E+00  0.00000E+00  9.000E+00
      21    -1     0     0   502   503  0.000000000E+00  0.000000000E+00 -1.524288714E+03  1.524288714E+03  0.000000000E+00  0.00000E+00  9.000E+00
      25     1     1     2     0     0  9.942855982E+01  6.458806400E+01 -4.283322308E+01  1.775323154E+02  1.250015259E+02  0.00000E+00  9.000E+00
       5     1     1     2   501     0  2.663115957E+00  5.851135237E-01  8.828946993E+00  1.038977139E+01  4.750000000E+00  0.00000E+00  9.000E+00
      -5     1     1     2     0   503 -8.613169190E+01 -5.512184314E+01 -1.382417007E+03  1.386202160E+03  4.750000000E+00  0.00000E+00  9.000E+00
      21     1     1     2   502   512 -1.595998388E+01 -1.005133439E+01 -2.595082049E+01  3.208107686E+01  3.371747881E-07  0.00000E+00  9.000E+00
#rwgt            1           9   1.3390468334719664E-002           7     1586746           0
</event>
<event>
      6   9999  3.45752E-01  4.79059E+00 -1.00000E+00  2.32680E-01
      21    -1     0     0   501   502  0.000000000E+00  0.000000000E+00  5.921545985E+01  5.921545985E+01  0.000000000E+00  0.00000E+00  9.000E+00
      21    -1     0     0   502   511  0.000000000E+00  0.000000000E+00 -1.560684829E+02  1.560684829E+02  0.000000000E+00  0.00000E+00  9.000E+00
      25     1     1     2     0     0  1.620349827E+01  1.926456571E+00 -8.479935536E+01  1.519376587E+02  1.250114269E+02  0.00000E+00  9.000E+00
       5     1     1     2   501     0  2.342893683E-01  1.752174077E+00  2.138500112E+01  2.197739244E+01  4.750000000E+00  0.00000E+00  9.000E+00
      -5     1     1     2     0   503 -1.393637551E+01  4.070388359E-01 -1.089230196E+01  1.831919717E+01  4.750000000E+00  0.00000E+00  9.000E+00
      21     1     1     2   503   511 -2.501412126E+00 -4.085669484E+00 -2.254636682E+01  2.304969446E+01  2.384185791E-07  0.00000E+00  9.000E+00
#rwgt            1           9   2.2576201211384241E-004           7     1589620           0
</event>
<event>
      6   9999 -3.45752E-01  3.13857E+01 -1.00000E+00  1.46581E-01
      21    -1     0     0   501   512  0.000000000E+00  0.000000000E+00  1.295720077E+02  1.295720077E+02  0.000000000E+00  0.00000E+00  9.000E+00
      21    -1     0     0   502   503  0.000000000E+00  0.000000000E+00 -8.532145842E+02  8.532145842E+02  0.000000000E+00  0.00000E+00  9.000E+00
      25     1     1     2     0     0  2.288323147E+01  1.011002813E+01 -8.376634173E+02  8.473084536E+02  1.250030392E+02  0.00000E+00  9.000E+00
       5     1     1     2   501     0  7.084301492E+00  7.989086263E+00  5.616453198E+00  1.296610479E+01  4.750000000E+00  0.00000E+00  9.000E+00
      -5     1     1     2     0   503 -2.798030949E+00 -2.386621467E+00 -3.039822518E+00  6.732604263E+00  4.750000000E+00  0.00000E+00  9.000E+00
      21     1     1     2   502   512 -2.716950201E+01 -1.571249293E+01  1.114442102E+02  1.157794293E+02  4.046097457E-06  0.00000E+00  9.000E+00
#rwgt            1           9  -7.4354911644726980E-005           7     1594029           0
</event>
<event>
      6   9999  3.45752E-01  6.97943E+00 -1.00000E+00  2.05302E-01
      21    -1     0     0   501   511  0.000000000E+00  0.000000000E+00  5.883335068E+01  5.883335068E+01  0.000000000E+00  0.00000E+00  9.000E+00
      21    -1     0     0   502   503  0.000000000E+00  0.000000000E+00 -1.325956921E+03  1.325956921E+03  0.000000000E+00  0.00000E+00  9.000E+00
      25     1     1     2     0     0 -3.419989283E+01 -5.801438902E+00 -2.615114418E+02  2.919197988E+02  1.250025814E+02  0.00000E+00  9.000E+00
       5     1     1     2   501     0 -8.069905429E+00  3.706158751E+00  4.119881370E+01  4.241183486E+01  4.750000000E+00  0.00000E+00  9.000E+00
      -5     1     1     2     0   503  4.801902267E+01  6.052407016E+00 -1.038360063E+03  1.039498264E+03  4.750000000E+00  0.00000E+00  9.000E+00
      21     1     1     2   502   511 -5.749224413E+00 -3.957126864E+00 -8.450878628E+00  1.096037335E+01  1.192092896E-07  0.00000E+00  9.000E+00
#rwgt            1           9   3.2259164076811404E-002           7     1595043           0
</event>
<event>
      6   9999  3.45752E-01  4.81866E+00 -1.00000E+00  2.32221E-01
      21    -1     0     0   501   502  0.000000000E+00  0.000000000E+00  1.760143517E+01  1.760143517E+01  0.000000000E+00  0.00000E+00  9.000E+00
      21    -1     0     0   512   503  0.000000000E+00  0.000000000E+00 -1.088046159E+03  1.088046159E+03  0.000000000E+00  0.00000E+00  9.000E+00
      25     1     1     2     0     0 -1.923096574E+01 -2.783716689E+01 -9.244274752E+02  9.334538093E+02  1.250004771E+02  0.00000E+00  9.000E+00
       5     1     1     2   501     0  4.111130160E+00 -1.036246494E+00  9.443705006E+00  1.138952423E+01  4.750000000E+00  0.00000E+00  9.000E+00
      -5     1     1     2     0   503  1.862731125E+01  2.556931589E+01 -9.686639645E+01  1.020119008E+02  4.750000000E+00  0.00000E+00  9.000E+00
      21     1     1     2   512   502 -3.507475668E+00  3.304097487E+00 -5.859455694E+01  5.879235961E+01  6.743495762E-07  0.00000E+00  9.000E+00
#rwgt            1           9   1.0055307017155263E-003           7     1600204           0
</event>
<event>
      6   9999  3.45752E-01  7.74286E+00 -1.00000E+00  1.99710E-01
      21    -1     0     0   502   511  0.000000000E+00  0.000000000E+00  9.653308099E+00  9.653308099E+00  0.000000000E+00  0.00000E+00  9.000E+00
      21    -1     0     0   501   502  0.000000000E+00  0.000000000E+00 -7.312246517E+02  7.312246517E+02  0.000000000E+00  0.00000E+00  9.000E+00
      25     1     1     2     0     0  5.461800309E+00 -2.067236035E+00 -6.833401708E+02  6.947044055E+02  1.250052691E+02  0.00000E+00  9.000E+00
       5     1     1     2   501     0  2.042519558E+00 -3.447076201E-01  4.005055460E-01  5.197462283E+00  4.750000000E+00  0.00000E+00  9.000E+00
      -5     1     1     2     0   503  1.796010164E-01  1.458376728E+00 -8.332302578E+00  9.703034858E+00  4.750000000E+00  0.00000E+00  9.000E+00
      21     1     1     2   503   511 -7.683920883E+00  9.535669275E-01 -3.029937576E+01  3.127305712E+01  7.539457465E-07  0.00000E+00  9.000E+00
#rwgt            1           9   3.8230813717479903E-003           7     1604697           0
</event>
<event>
      6   9999  3.45752E-01  2.83983E+01 -1.00000E+00  1.49396E-01
      21    -1     0     0   512   502  0.000000000E+00  0.000000000E+00  2.933813498E+01  2.933813498E+01  0.000000000E+00  0.00000E+00  9.000E+00
      21    -1     0     0   502   503  0.000000000E+00  0.000000000E+00 -9.881863997E+02  9.881863997E+02  0.000000000E+00  0.00000E+00  9.000E+00
      25     1     1     2     0     0  2.447482506E-02 -9.288644993E+01 -7.087901690E+02  7.256964847E+02  1.249959645E+02  0.00000E+00  9.000E+00
       5     1     1     2   501     0 -2.793621911E+00 -2.842949851E+00  7.912033507E+00  1.005233612E+01  4.750000000E+00  0.00000E+00  9.000E+00
      -5     1     1     2     0   503 -1.036497498E+01  7.055085307E+01 -2.338175742E+02  2.444955543E+02  4.750000000E+00  0.00000E+00  9.000E+00
      21     1     1     2   512   501  1.313412207E+01  2.517854671E+01 -2.415255504E+01  3.728015949E+01  8.920806376E-07  0.00000E+00  9.000E+00
#rwgt            1           9   3.4823831123135770E-004           7     1607612           0
</event>
<event>
      6   9999  3.45752E-01  3.71742E+00 -1.00000E+00  2.54625E-01
      21    -1     0     0   501   502  0.000000000E+00  0.000000000E+00  2.927655112E+02  2.927655112E+02  0.000000000E+00  0.00000E+00  9.000E+00
      21    -1     0     0   502   511  0.000000000E+00  0.000000000E+00 -1.189030193E+02  1.189030193E+02  0.000000000E+00  0.00000E+00  9.000E+00
      25     1     1     2     0     0  6.841348937E+00 -1.312555931E+00 -3.092974524E+00  1.252266299E+02  1.249944618E+02  0.00000E+00  9.000E+00
       5     1     1     2   501     0 -3.638613646E+00  3.771804263E+00  2.304074341E+02  2.305159739E+02  4.750000000E+00  0.00000E+00  9.000E+00
      -5     1     1     2     0   503  5.047511982E-02 -6.604145140E-01 -3.757518505E+00  6.092630006E+00  4.750000000E+00  0.00000E+00  9.000E+00
      21     1     1     2   503   511 -3.253210412E+00 -1.798833819E+00 -4.969444924E+01  4.983329676E+01  9.536743164E-07  0.00000E+00  9.000E+00
#rwgt            1           9   1.2821303151779948E-004           7     1609234           0
</event>
<event>
      6   9999  3.45752E-01  4.19492E+01 -1.00000E+00  1.38998E-01
      21    -1     0     0   501   512  0.000000000E+00  0.000000000E+00  9.975084762E+01  9.975084762E+01  0.000000000E+00  0.00000E+00  9.000E+00
      21    -1     0     0   502   503  0.000000000E+00  0.000000000E+00 -1.082879673E+03  1.082879673E+03  0.000000000E+00  0.00000E+00  9.000E+00
      25     1     1     2     0     0  3.118572657E+01 -1.001389667E+01 -8.320818659E+02  8.420559259E+02  1.250004925E+02  0.00000E+00  9.000E+00
       5     1     1     2   501     0  1.462806017E+01  1.185795594E+01  1.607590585E+01  2.521088083E+01  4.750000000E+00  0.00000E+00  9.000E+00
      -5     1     1     2     0   503 -5.861886435E+00  1.094582844E+01 -2.351050384E+02  2.354806032E+02  4.750000000E+00  0.00000E+00  9.000E+00
      21     1     1     2   502   512 -3.995190031E+01 -1.278988770E+01  6.798217294E+01  7.988311088E+01  2.523185073E-06  0.00000E+00  9.000E+00
#rwgt            1           9   1.7102319354997530E-004           7     1615829           0
</event>
<event>
      6   9999  3.45752E-01  1.20138E+01 -1.00000E+00  1.79173E-01
      21    -1     0     0   502   503  0.000000000E+00  0.000000000E+00  4.296342634E+01  4.296342634E+01  0.000000000E+00  0.00000E+00  9.000E+00
      21    -1     0     0   511   502  0.000000000E+00  0.000000000E+00 -3.302546801E+02  3.302546801E+02  0.000000000E+00  0.00000E+00  9.000E+00
      25     1     1     2     0     0 -1.156865369E+01  2.927271534E+00 -8.472945748E+01  1.514874118E+02  1.250078089E+02  0.00000E+00  9.000E+00
       5     1     1     2   501     0 -4.703644777E+00 -1.075434208E+00 -2.982073198E+01  3.057972186E+01  4.750000000E+00  0.00000E+00  9.000E+00
      -5     1     1     2     0   503  5.361123480E+00 -6.879548600E+00  6.264917538E+00  1.174229644E+01  4.750000000E+00  0.00000E+00  9.000E+00
      21     1     1     2   511   501  1.091117498E+01  5.027711274E+00 -1.790059818E+02  1.794086763E+02  1.907348633E-06  0.00000E+00  9.000E+00
#rwgt            1           9   2.7983513821805790                7     1616970           0
</event>
<event>
      6   9999  3.45752E-01  1.73681E+01 -1.00000E+00  1.65033E-01
      21    -1     0     0   501   502  0.000000000E+00  0.000000000E+00  6.933875397E+01  6.933875397E+01  0.000000000E+00  0.00000E+00  9.000E+00
      21    -1     0     0   502   512  0.000000000E+00  0.000000000E+00 -1.293893138E+03  1.293893138E+03  0.000000000E+00  0.00000E+00  9.000E+00
      25     1     1     2     0     0 -4.686776304E-01  2.639512611E+01 -9.651100657E+02  9.735298047E+02  1.250036775E+02  0.00000E+00  9.000E+00
       5     1     1     2   501     0  5.846030136E-01 -9.134364511E+00  6.358665257E+01  6.441741426E+01  4.750000000E+00  0.00000E+00  9.000E+00
      -5     1     1     2     0   503  1.637121902E+01 -1.179963869E+01 -1.887494913E+02  1.898846525E+02  4.750000000E+00  0.00000E+00  9.000E+00
      21     1     1     2   503   512 -1.648714440E+01 -5.461122909E+00 -1.342814795E+02  1.354000204E+02  1.907348633E-06  0.00000E+00  9.000E+00
#rwgt            1           9   2.9393747277398828E-004           7     1619316           0
</event>
<event>
      6   9999  3.45752E-01  2.23981E+01 -1.00000E+00  1.56545E-01
      21    -1     0     0   501   502  0.000000000E+00  0.000000000E+00  1.537949669E+03  1.537949669E+03  0.000000000E+00  0.00000E+00  9.000E+00
      21    -1     0     0   502   511  0.000000000E+00  0.000000000E+00 -3.889219309E+03  3.889219309E+03  0.000000000E+00  0.00000E+00  9.000E+00
      25     1     1     2     0     0  1.567618506E+02 -4.807734464E+02 -8.394060686E+02  9.878994482E+02  1.250015495E+02  0.00000E+00  9.000E+00
       5     1     1     2   501     0  4.893057786E+01  2.334383776E+01  1.440499216E+03  1.441526861E+03  4.750000000E+00  0.00000E+00  9.000E+00
      -5     1     1     2     0   503 -2.132555294E+02  4.363470295E+02 -2.620873060E+03  2.665497104E+03  4.750000000E+00  0.00000E+00  9.000E+00
      21     1     1     2   503   511  7.563100896E+00  2.108257913E+01 -3.314897271E+02  3.322455641E+02  3.814697266E-06  0.00000E+00  9.000E+00
#rwgt            1           9   7.0699667658975069E-004           7     1622380           0
</event>
<event>
      6   9999  3.45752E-01  8.01966E+00 -1.00000E+00  1.97889E-01
      21    -1     0     0   512   502  0.000000000E+00  0.000000000E+00  5.498630415E+00  5.498630415E+00  0.000000000E+00  0.00000E+00  9.000E+00
      21    -1     0     0   502   503  0.000000000E+00  0.000000000E+00 -1.975257443E+03  1.975257443E+03  0.000000000E+00  0.00000E+00  9.000E+00
      25     1     1     2     0     0  8.955776543E+00 -4.025709735E+00 -1.903726534E+03  1.907851382E+03  1.250030776E+02  0.00000E+00  9.000E+00
       5     1     1     2   501     0  3.633352531E-01 -7.333825981E-01 -3.724354757E+00  6.091238043E+00  4.750000000E+00  0.00000E+00  9.000E+00
      -5     1     1     2     0   503 -7.502858625E+00 -3.052189241E+00 -5.551499488E+01  5.630351590E+01  4.750000000E+00  0.00000E+00  9.000E+00
      21     1     1     2   512   501 -1.816253170E+00  7.811281574E+00 -6.792929666E+00  1.050993762E+01  9.039491944E-07  0.00000E+00  9.000E+00
#rwgt            1           9   1.4045504837023512                7     1627919           0
</event>
<event>
      6   9999  3.45752E-01  4.10627E+00 -1.00000E+00  2.45516E-01
      21    -1     0     0   501   502  0.000000000E+00  0.000000000E+00  3.966679960E+01  3.966679960E+01  0.000000000E+00  0.00000E+00  9.000E+00
      21    -1     0     0   511   503  0.000000000E+00  0.000000000E+00 -2.113465261E+03  2.113465261E+03  0.000000000E+00  0.00000E+00  9.000E+00
      25     1     1     2     0     0  5.628080133E+00 -2.553687676E-02 -1.091683319E+03  1.098831079E+03  1.250023837E+02  0.00000E+00  9.000E+00
       5     1     1     2   501     0 -8.011116991E+00  3.505906854E-01  3.542393356E+01  3.662947554E+01  4.750000000E+00  0.00000E+00  9.000E+00
      -5     1     1     2     0   503  3.878850823E-01  3.263933995E+00 -1.357179339E+02  1.358408031E+02  4.750000000E+00  0.00000E+00  9.000E+00
      21     1     1     2   511   502  1.995151775E+00 -3.588987804E+00 -8.818211419E+02  8.818307024E+02  1.868812365E-05  0.00000E+00  9.000E+00
#rwgt            1           9   1.1853636613355890E-003           7     1630483           0
</event>
<event>
      6   9999 -3.45752E-01  1.75628E+01 -1.00000E+00  1.64641E-01
      21    -1     0     0   501   502  0.000000000E+00  0.000000000E+00  1.075413677E+03  1.075413677E+03  0.000000000E+00  0.00000E+00  9.000E+00
      21    -1     0     0   512   503  0.000000000E+00  0.000000000E+00 -4.788436911E+01  4.788436911E+01  0.000000000E+00  0.00000E+00  9.000E+00
      25     1     1     2     0     0 -1.031154780E+02 -1.347191258E+02  4.784611046E+02  5.228111134E+02  1.249975479E+02  0.00000E+00  9.000E+00
       5     1     1     2   501     0 -4.004822715E+00 -3.229684426E+00  2.742941762E+02  2.743835401E+02  4.750000000E+00  0.00000E+00  9.000E+00
      -5     1     1     2     0   503  9.571328694E+01  1.245947749E+02  2.559145855E+02  3.003326969E+02  4.750000000E+00  0.00000E+00  9.000E+00
      21     1     1     2   512   502  1.140701378E+01  1.335403529E+01  1.885944138E+01  2.577069558E+01  5.840038640E-07  0.00000E+00  9.000E+00
#rwgt            1           9  -8.3809783170287477E-002           7     1637644           0
</event>
<event>
      6   9999  3.45752E-01  1.12729E+01 -1.00000E+00  1.81874E-01
      21    -1     0     0   501   502  0.000000000E+00  0.000000000E+00  3.599950490E+01  3.599950490E+01  0.000000000E+00  0.00000E+00  9.000E+00
      21    -1     0     0   511   503  0.000000000E+00  0.000000000E+00 -1.320455965E+03  1.320455965E+03  0.000000000E+00  0.00000E+00  9.000E+00
      25     1     1     2     0     0 -2.047119699E+01 -9.222372818E+01 -1.112991531E+03  1.123965857E+03  1.249992583E+02  0.00000E+00  9.000E+00
       5     1     1     2   501     0 -1.586314175E-01  5.360586340E+00  1.636582717E+01  1.786515740E+01  4.750000000E+00  0.00000E+00  9.000E+00
      -5     1     1     2     0   503  9.717665156E+00  8.969206504E+01 -1.495597065E+02  1.747276963E+02  4.750000000E+00  0.00000E+00  9.000E+00
      21     1     1     2   511   502  1.091216326E+01 -2.828923196E+00 -3.827105038E+01  3.989675940E+01  0.000000000E+00  0.00000E+00  9.000E+00
#rwgt            1           9   5.4090479296443298E-004           7     1639820           0
</event>
<event>
      6   9999  3.45752E-01  2.63882E+01 -1.00000E+00  1.51534E-01
       2    -1     0     0   502     0  0.000000000E+00  0.000000000E+00  2.706328392E+03  2.706328392E+03  0.000000000E+00  0.00000E+00  9.000E+00
      21    -1     0     0   501   502  0.000000000E+00  0.000000000E+00 -1.621964589E+02  1.621964589E+02  0.000000000E+00  0.00000E+00  9.000E+00
      25     1     1     2     0     0 -1.906230774E+01  1.007967589E+01 -5.199848395E+01  1.370845431E+02  1.249934325E+02  0.00000E+00  9.000E+00
       5     1     1     2   501     0 -1.798114401E+00 -2.524202751E+00 -2.264289253E+01  2.334240555E+01  4.750000000E+00  0.00000E+00  9.000E+00
      -5     1     1     2     0   503  1.767576140E+01 -3.375077853E+01 -3.633317784E+01  5.286028664E+01  4.750000000E+00  0.00000E+00  9.000E+00
       2     1     1     2   503     0  3.184660741E+00  2.619530539E+01  2.655106487E+03  2.655237616E+03  3.051757812E-05  0.00000E+00  9.000E+00
#rwgt            1           9  0.25470877421611243                7     1643118           0
</event>
<event>
      6   9999  3.45752E-01  1.23337E+01 -1.00000E+00  1.78083E-01
      21    -1     0     0   501   511  0.000000000E+00  0.000000000E+00  9.660529366E+01  9.660529366E+01  0.000000000E+00  0.00000E+00  9.000E+00
      21    -1     0     0   502   503  0.000000000E+00  0.000000000E+00 -1.649317448E+03  1.649317448E+03  0.000000000E+00  0.00000E+00  9.000E+00
      25     1     1     2     0     0 -7.460737831E+00  1.172762882E+01 -9.112828791E+02  9.199208636E+02  1.249988392E+02  0.00000E+00  9.000E+00
       5     1     1     2   501     0 -8.229099797E+00  1.404435663E+01  8.854944544E+01  9.015835416E+01  4.750000000E+00  0.00000E+00  9.000E+00
      -5     1     1     2     0   503  4.895757657E+00 -1.980467252E+01 -7.190781409E+02  7.193831585E+02  4.750000000E+00  0.00000E+00  9.000E+00
      21     1     1     2   502   511  1.079407997E+01 -5.967312923E+00 -1.090057966E+01  1.646036521E+01  3.576278687E-07  0.00000E+00  9.000E+00
#rwgt            1           9   2.7813247261712323E-004           7     1644471           0
</event>
<event>
      6   9999 -3.45752E-01  1.48453E+01 -1.00000E+00  1.70763E-01
      21    -1     0     0   501   502  0.000000000E+00  0.000000000E+00  1.343292392E+01  1.343292392E+01  0.000000000E+00  0.00000E+00  9.000E+00
      21    -1     0     0   502   512  0.000000000E+00  0.000000000E+00 -2.391398751E+03  2.391398751E+03  0.000000000E+00  0.00000E+00  9.000E+00
      25     1     1     2     0     0  3.299902050E+01 -7.008828963E+01 -1.376811361E+03  1.384642778E+03  1.249991777E+02  0.00000E+00  9.000E+00
       5     1     1     2   501     0  3.048944212E+00 -6.734641318E-01  6.743570342E+00  8.819742383E+00  4.750000000E+00  0.00000E+00  9.000E+00
      -5     1     1     2     0   503 -3.796450483E+01  5.604068414E+01 -7.582692905E+02  7.612993770E+02  4.750000000E+00  0.00000E+00  9.000E+00
      21     1     1     2   503   512  1.916540119E+00  1.472106963E+01 -2.496287451E+02  2.500697770E+02  2.697398305E-06  0.00000E+00  9.000E+00
#rwgt            1           9  -2.2914569781039311E-003           7     1649100           0
</event>
<event>
      6   9999  3.45752E-01  2.11669E+01 -1.00000E+00  1.58353E-01
      21    -1     0     0   502   503  0.000000000E+00  0.000000000E+00  3.553468913E+01  3.553468913E+01  0.000000000E+00  0.00000E+00  9.000E+00
      21    -1     0     0   501   511  0.000000000E+00  0.000000000E+00 -1.528328194E+03  1.528328194E+03  0.000000000E+00  0.00000E+00  9.000E+00
      25     1     1     2     0     0 -9.962911378E+01 -5.950187741E+01 -2.965664663E+02  3.421149676E+02  1.249981938E+02  0.00000E+00  9.000E+00
       5     1     1     2   501     0  1.060030280E+02  1.010482405E+02 -8.410425571E+02  8.537110367E+02  4.750000000E+00  0.00000E+00  9.000E+00
      -5     1     1     2     0   503 -9.902404785E+00 -2.067567333E+01 -1.638238765E+01  2.857422288E+01  4.750000000E+00  0.00000E+00  9.000E+00
      21     1     1     2   502   511  3.528490563E+00 -2.087068978E+01 -3.388020941E+02  3.394626562E+02  6.607249480E-06  0.00000E+00  9.000E+00
#rwgt            1           9   5.5644127771809666E-002           7     1651847           0
</event>
<event>
      6   9999  3.45752E-01  2.92779E+01 -1.00000E+00  1.48526E-01
       2    -1     0     0   501     0  0.000000000E+00  0.000000000E+00  1.232256561E+03  1.232256561E+03  0.000000000E+00  0.00000E+00  9.000E+00
      21    -1     0     0   502   503  0.000000000E+00  0.000000000E+00 -1.203581552E+03  1.203581552E+03  0.000000000E+00  0.00000E+00  9.000E+00
      25     1     1     2     0     0 -7.824426899E+01 -1.043632560E+02 -6.611135066E+02  6.853530153E+02  1.249953285E+02  0.00000E+00  9.000E+00
       5     1     1     2   501     0  4.720533808E+01  1.244882873E+02 -1.869452146E+02  2.295577343E+02  4.750000000E+00  0.00000E+00  9.000E+00
      -5     1     1     2     0   503  3.766052507E+01 -4.864434999E+01 -3.189609990E+02  3.248742362E+02  4.750000000E+00  0.00000E+00  9.000E+00
       2     1     1     2   502     0 -6.621594152E+00  2.851931865E+01  1.195694729E+03  1.196053127E+03  1.525878906E-05  0.00000E+00  9.000E+00
#rwgt            1           9   1.9607822655872069E-002           7     1654417           0
</event>
<event>
      6   9999  3.45752E-01  5.40860E+00 -1.00000E+00  2.20534E-01
      21    -1     0     0   511   502  0.000000000E+00  0.000000000E+00  6.814884408E+00  6.814884408E+00  0.000000000E+00  0.00000E+00  9.000E+00
      21    -1     0     0   502   503  0.000000000E+00  0.000000000E+00 -7.344849857E+02  7.344849857E+02  0.000000000E+00  0.00000E+00  9.000E+00
      25     1     1     2     0     0  2.232367208E+00  6.991219971E+00 -6.255424562E+02  6.379515364E+02  1.249997505E+02  0.00000E+00  9.000E+00
       5     1     1     2   501     0  2.297107375E-01  1.308155867E-01 -3.550428195E+01  3.582159148E+01  4.750000000E+00  0.00000E+00  9.000E+00
      -5     1     1     2     0   503  5.216726431E-01 -2.610917600E+00 -3.906049094E+01  3.943822366E+01  4.750000000E+00  0.00000E+00  9.000E+00
      21     1     1     2   511   501 -2.983750589E+00 -4.511117958E+00 -2.756287221E+01  2.808851860E+01  3.371747881E-07  0.00000E+00  9.000E+00
#rwgt            1           9   2.1729652559795992E-004           7     1656052           0
</event>
<event>
      6   9999  3.45752E-01  1.83966E+01 -1.00000E+00  1.63031E-01
      21    -1     0     0   512   502  0.000000000E+00  0.000000000E+00  1.969522268E+01  1.969522268E+01  0.000000000E+00  0.00000E+00  9.000E+00
      21    -1     0     0   502   503  0.000000000E+00  0.000000000E+00 -8.516181444E+02  8.516181444E+02  0.000000000E+00  0.00000E+00  9.000E+00
      25     1     1     2     0     0  4.092104165E+01 -4.730073740E+01 -4.280924533E+02  4.503293579E+02  1.249859616E+02  0.00000E+00  9.000E+00
       5     1     1     2   501     0  2.341776182E+00 -2.450840393E+00  2.271507117E+00  6.262010772E+00  4.750000000E+00  0.00000E+00  9.000E+00
      -5     1     1     2     0   503 -3.672744555E+01  3.255495544E+01 -3.775523611E+02  3.807585563E+02  4.750000000E+00  0.00000E+00  9.000E+00
      21     1     1     2   512   501 -6.535372285E+00  1.719662235E+01 -2.854961448E+01  3.396344208E+01  3.371747881E-07  0.00000E+00  9.000E+00
#rwgt            1           9  0.39280642250796571                7     1659836           0
</event>
<event>
      6   9999  3.45752E-01  1.91134E+00 -1.00000E+00  3.40696E-01
      21    -1     0     0   511   502  0.000000000E+00  0.000000000E+00  4.230337273E+02  4.230337273E+02  0.000000000E+00  0.00000E+00  9.000E+00
      21    -1     0     0   502   503  0.000000000E+00  0.000000000E+00 -8.861010122E+02  8.861010122E+02  0.000000000E+00  0.00000E+00  9.000E+00
      25     1     1     2     0     0  3.482513446E+01  3.816860897E+00 -5.183171114E+02  5.343260688E+02  1.249974456E+02  0.00000E+00  9.000E+00
       5     1     1     2   501     0 -2.764555803E-01 -1.390083701E+00  2.909457272E+00  5.747712763E+00  4.750000000E+00  0.00000E+00  9.000E+00
      -5     1     1     2     0   503 -3.454443802E+01 -4.338108154E+00 -3.574967068E+02  3.592194250E+02  4.750000000E+00  0.00000E+00  9.000E+00
      21     1     1     2   511   501 -4.240861467E-03  1.911330958E+00  4.098370761E+02  4.098415330E+02  0.000000000E+00  0.00000E+00  9.000E+00
#rwgt            1           9   1.3817952963319207E-002           7     1661847           0
</event>
<event>
      6   9999 -3.45752E-01  2.58008E+01 -1.00000E+00  1.52203E-01
      21    -1     0     0   501   502  0.000000000E+00  0.000000000E+00  1.472647909E+01  1.472647909E+01  0.000000000E+00  0.00000E+00  9.000E+00
      21    -1     0     0   512   503  0.000000000E+00  0.000000000E+00 -1.092584133E+03  1.092584133E+03  0.000000000E+00  0.00000E+00  9.000E+00
      25     1     1     2     0     0  2.221859266E+01 -2.043991463E+01 -7.205859957E+02  7.319702266E+02  1.249991177E+02  0.00000E+00  9.000E+00
       5     1     1     2   501     0  2.399899846E+00  2.244903666E+00  4.057917015E+00  7.058916506E+00  4.750000000E+00  0.00000E+00  9.000E+00
      -5     1     1     2     0   503 -1.616222014E+00  2.988152426E+01 -7.644401759E+01  8.222997015E+01  4.750000000E+00  0.00000E+00  9.000E+00
      21     1     1     2   512   502 -2.300227050E+01 -1.168651330E+01 -2.848855571E+02  2.860514983E+02  0.000000000E+00  0.00000E+00  9.000E+00
#rwgt            1           9  -2.1183659245966485E-003           7     1670290           0
</event>
<event>
      6   9999  3.45752E-01  2.56261E+01 -1.00000E+00  1.52406E-01
      21    -1     0     0   501   502  0.000000000E+00  0.000000000E+00  3.192187314E+01  3.192187314E+01  0.000000000E+00  0.00000E+00  9.000E+00
      21    -1     0     0   511   503  0.000000000E+00  0.000000000E+00 -1.285718088E+03  1.285718088E+03  0.000000000E+00  0.00000E+00  9.000E+00
      25     1     1     2     0     0  3.983792809E+00 -1.135153648E+01 -1.042095409E+03  1.049634024E+03  1.249960622E+02  0.00000E+00  9.000E+00
       5     1     1     2   501     0 -7.094423393E+00 -2.365949250E+00  2.311204059E+01  2.475191870E+01  4.750000000E+00  0.00000E+00  9.000E+00
      -5     1     1     2     0   503 -1.830268996E+01  2.779463520E+01 -8.762837431E+01  9.385533917E+01  4.750000000E+00  0.00000E+00  9.000E+00
      21     1     1     2   511   502  2.141332055E+01 -1.407714947E+01 -1.471844730E+02  1.493986798E+02  3.303624740E-06  0.00000E+00  9.000E+00
#rwgt            1           9   4.4873349552674858E-004           7     1671741           0
</event>
<event>
      6   9999  3.45752E-01  3.49633E+01 -1.00000E+00  1.43662E-01
      21    -1     0     0   512   502  0.000000000E+00  0.000000000E+00  4.884812018E+02  4.884812018E+02  0.000000000E+00  0.00000E+00  9.000E+00
      21    -1     0     0   502   503  0.000000000E+00  0.000000000E+00 -4.757527682E+02  4.757527682E+02  0.000000000E+00  0.00000E+00  9.000E+00
      25     1     1     2     0     0  4.616667778E+01 -7.711312350E+01 -4.185096796E+02  4.459259008E+02  1.249870436E+02  0.00000E+00  9.000E+00
       5     1     1     2   501     0 -4.280523695E+00  8.155724260E+00  2.683652735E+02  2.685653016E+02  4.750000000E+00  0.00000E+00  9.000E+00
      -5     1     1     2     0   503 -1.198411294E+01  8.707646780E+01  5.133553240E+00  8.817508762E+01  4.750000000E+00  0.00000E+00  9.000E+00
      21     1     1     2   512   501 -2.990204115E+01 -1.811906856E+01  1.577392865E+02  1.615676800E+02  1.907348633E-06  0.00000E+00  9.000E+00
#rwgt            1           9   7.6444274272413756E-005           7     1673314           0
</event>
<event>
      6   9999 -3.45752E-01  3.67610E+00 -1.00000E+00  2.55693E-01
      21    -1     0     0   501   502  0.000000000E+00  0.000000000E+00  3.903397684E+01  3.903397684E+01  0.000000000E+00  0.00000E+00  9.000E+00
      21    -1     0     0   502   511  0.000000000E+00  0.000000000E+00 -1.288381672E+03  1.288381672E+03  0.000000000E+00  0.00000E+00  9.000E+00
      25     1     1     2     0     0  1.438247489E+02  3.995554020E+01 -5.218737529E+02  5.569817477E+02  1.248777393E+02  0.00000E+00  9.000E+00
       5     1     1     2   501     0 -2.788511796E+00 -2.190775660E+00  1.357330485E+01  1.481122549E+01  4.750000000E+00  0.00000E+00  9.000E+00
      -5     1     1     2     0   503 -1.389288203E+02 -3.475270523E+01 -7.067540552E+02  7.211330146E+02  4.750000000E+00  0.00000E+00  9.000E+00
      21     1     1     2   503   511 -2.107416829E+00 -3.012059309E+00 -3.429319197E+01  3.448966109E+01  0.000000000E+00  0.00000E+00  9.000E+00
#rwgt            1           9  -7.2043906195387683E-004           7     1675370           0
</event>
<event>
      6   9999  3.45752E-01  1.79880E+02 -1.00000E+00  1.10511E-01
       1    -1     0     0   501     0  0.000000000E+00  0.000000000E+00  4.585375366E+02  4.585375366E+02  0.000000000E+00  0.00000E+00  9.000E+00
      21    -1     0     0   502   503  0.000000000E+00  0.000000000E+00 -1.394524599E+03  1.394524599E+03  0.000000000E+00  0.00000E+00  9.000E+00
      25     1     1     2     0     0 -1.746064454E+02  3.168130375E+01 -4.845410426E+02  5.309453397E+02  1.250272613E+02  0.00000E+00  9.000E+00
       5     1     1     2   501     0  1.089543950E+02 -1.849953197E+02 -5.499378783E+02  5.903800140E+02  4.750000000E+00  0.00000E+00  9.000E+00
      -5     1     1     2     0   503 -6.884527903E+01  3.386896132E+01 -2.919235774E+02  3.018753328E+02  4.750000000E+00  0.00000E+00  9.000E+00
       1     1     1     2   502     0  1.344973295E+02  1.194450547E+02  3.904154359E+02  4.298614490E+02  5.394796609E-06  0.00000E+00  9.000E+00
#rwgt            1           9   3.8275101570116772E-003           7     1682807           0
</event>
<event>
      6   9999  3.45752E-01  2.42169E+01 -1.00000E+00  1.54117E-01
      21    -1     0     0   511   502  0.000000000E+00  0.000000000E+00  1.985460976E+02  1.985460976E+02  0.000000000E+00  0.00000E+00  9.000E+00
      21    -1     0     0   502   503  0.000000000E+00  0.000000000E+00 -9.279570752E+02  9.279570752E+02  0.000000000E+00  0.00000E+00  9.000E+00
      25     1     1     2     0     0  2.134285027E+00 -1.081520012E+01 -8.750303760E+02  8.839822557E+02  1.249997833E+02  0.00000E+00  9.000E+00
       5     1     1     2   501     0 -3.363660603E+00 -1.090209267E+01  6.519370827E+00  1.397263515E+01  4.750000000E+00  0.00000E+00  9.000E+00
      -5     1     1     2     0   503  1.006264414E+00 -2.498570093E+00 -4.375610416E+01  4.409551646E+01  4.750000000E+00  0.00000E+00  9.000E+00
      21     1     1     2   511   501  2.231111618E-01  2.421586288E+01  1.828561317E+02  1.844527655E+02  4.672030912E-06  0.00000E+00  9.000E+00
#rwgt            1           9   6.9011607226154227E-005           7     1683472           0
</event>
<event>
      6   9999 -3.45752E-01  3.91086E+01 -1.00000E+00  1.40756E-01
      21    -1     0     0   512   502  0.000000000E+00  0.000000000E+00  1.973182636E+01  1.973182636E+01  0.000000000E+00  0.00000E+00  9.000E+00
      21    -1     0     0   502   503  0.000000000E+00  0.000000000E+00 -9.079947271E+02  9.079947271E+02  0.000000000E+00  0.00000E+00  9.000E+00
      25     1     1     2     0     0  1.403541838E+01  3.049888719E+01 -3.737077733E+02  3.954874095E+02  1.250024648E+02  0.00000E+00  9.000E+00
       5     1     1     2   501     0  6.070207111E-01 -1.225214353E+00 -3.942283457E+00  6.322477616E+00  4.750000000E+00  0.00000E+00  9.000E+00
      -5     1     1     2     0   503 -3.178542142E+00 -6.666436584E+01 -4.412005520E+02  4.462451461E+02  4.750000000E+00  0.00000E+00  9.000E+00
      21     1     1     2   512   501 -1.146389695E+01  3.739069301E+01 -6.941229196E+01  7.967152021E+01  1.907348633E-06  0.00000E+00  9.000E+00
#rwgt            1           9  -2.8595504162496585E-004           7     1685156           0
</event>
<event>
      6   9999  3.45752E-01  6.33137E+01 -1.00000E+00  1.29521E-01
      21    -1     0     0   502   511  0.000000000E+00  0.000000000E+00  6.588706083E+01  6.588706083E+01  0.000000000E+00  0.00000E+00  9.000E+00
      21    -1     0     0   501   502  0.000000000E+00  0.000000000E+00 -9.930212559E+02  9.930212559E+02  0.000000000E+00  0.00000E+00  9.000E+00
      25     1     1     2     0     0  2.017819943E+02  5.457253998E+01 -5.309489786E+02  5.841444573E+02  1.249951750E+02  0.00000E+00  9.000E+00
       5     1     1     2   501     0  4.881835250E+00 -6.224229172E+00 -4.896694901E+01  4.982868591E+01  4.750000000E+00  0.00000E+00  9.000E+00
      -5     1     1     2     0   503 -1.447256331E+02 -6.147423367E+01 -3.188730787E+02  3.555660179E+02  4.750000000E+00  0.00000E+00  9.000E+00
      21     1     1     2   503   511 -6.193819647E+01  1.312592286E+01 -2.834518881E+01  6.936915569E+01  1.390207266E-06  0.00000E+00  9.000E+00
#rwgt            1           9   329.87635760181934                7     1686221           0
</event>
<event>
      6   9999  3.45752E-01  2.45165E+01 -1.00000E+00  1.53742E-01
       1    -1     0     0   501     0  0.000000000E+00  0.000000000E+00  1.055116010E+03  1.055116010E+03  0.000000000E+00  0.00000E+00  9.000E+00
      21    -1     0     0   502   503  0.000000000E+00  0.000000000E+00 -2.101936481E+02  2.101936481E+02  0.000000000E+00  0.00000E+00  9.000E+00
      25     1     1     2     0     0  1.036168800E+01  3.740105978E+01 -1.098354714E+02  1.708708962E+02  1.250073140E+02  0.00000E+00  9.000E+00
       5     1     1     2   501     0  3.357102686E+00  2.598784527E+00  3.227886323E+01  3.290153995E+01  4.750000000E+00  0.00000E+00  9.000E+00
      -5     1     1     2     0   503  7.105229638E+00 -2.706081840E+01 -6.647519174E+01  7.227922107E+01  4.750000000E+00  0.00000E+00  9.000E+00
       1     1     1     2   502     0 -2.082402032E+01 -1.293902591E+01  9.889541617E+02  9.892580008E+02  0.000000000E+00  0.00000E+00  9.000E+00
#rwgt            1           9   1.1596216638294490E-002           7     1687821           0
</event>
<event>
      6   9999  3.45752E-01  3.26763E+01 -1.00000E+00  1.45477E-01
      21    -1     0     0   501   511  0.000000000E+00  0.000000000E+00  8.126516520E+01  8.126516520E+01  0.000000000E+00  0.00000E+00  9.000E+00
      21    -1     0     0   502   503  0.000000000E+00  0.000000000E+00 -1.509626215E+03  1.509626215E+03  0.000000000E+00  0.00000E+00  9.000E+00
      25     1     1     2     0     0  3.952068060E+01 -6.106336411E+00 -1.335455181E+03  1.341886862E+03  1.249825595E+02  0.00000E+00  9.000E+00
       5     1     1     2   501     0 -6.951961072E+00  2.321328958E+01  6.693209246E+01  7.134181156E+01  4.750000000E+00  0.00000E+00  9.000E+00
      -5     1     1     2     0   503 -1.940343329E+01  1.279986275E+01 -1.337826021E+02  1.358700733E+02  4.750000000E+00  0.00000E+00  9.000E+00
      21     1     1     2   502   511 -1.316528623E+01 -2.990681592E+01 -2.605535916E+01  4.179263262E+01  6.743495762E-07  0.00000E+00  9.000E+00
#rwgt            1           9   1.1877339467236735E-004           7     1689224           0
</event>
<event>
      6   9999 -3.45752E-01  9.89653E+00 -1.00000E+00  1.87671E-01
      21    -1     0     0   501   502  0.000000000E+00  0.000000000E+00  5.646306176E+01  5.646306176E+01  0.000000000E+00  0.00000E+00  9.000E+00
      21    -1     0     0   502   512  0.000000000E+00  0.000000000E+00 -2.514623240E+03  2.514623240E+03  0.000000000E+00  0.00000E+00  9.000E+00
      25     1     1     2     0     0 -1.486044288E+01  2.543805452E+01 -2.412316939E+02  2.729622129E+02  1.242888254E+02  0.00000E+00  9.000E+00
       5     1     1     2   501     0  1.185975419E+00 -8.569413117E-01  2.792840492E+01  2.836722029E+01  4.750000000E+00  0.00000E+00  9.000E+00
      -5     1     1     2     0   503  2.274422410E+01 -2.062120356E+01 -6.957456478E+00  3.183555351E+01  4.750000000E+00  0.00000E+00  9.000E+00
      21     1     1     2   503   512 -9.069756643E+00 -3.959909646E+00 -2.237899433E+03  2.237921315E+03  0.000000000E+00  0.00000E+00  9.000E+00
#rwgt            1           9  -3.2298643091139993E-002           7     1691472           0
</event>
<event>
      6   9999  3.45752E-01  3.66216E+00 -1.00000E+00  2.56059E-01
      21    -1     0     0   501   502  0.000000000E+00  0.000000000E+00  8.856041739E+01  8.856041739E+01  0.000000000E+00  0.00000E+00  9.000E+00
      21    -1     0     0   511   503  0.000000000E+00  0.000000000E+00 -1.224355244E+02  1.224355244E+02  0.000000000E+00  0.00000E+00  9.000E+00
      25     1     1     2     0     0 -3.921497485E+00  5.159775547E+00 -5.682378138E+01  1.374606383E+02  1.249979340E+02  0.00000E+00  9.000E+00
       5     1     1     2   501     0  5.310404649E-01 -1.620248988E+00  4.677947135E+01  4.705091551E+01  4.750000000E+00  0.00000E+00  9.000E+00
      -5     1     1     2     0   503  3.867513266E+00  9.142607293E-02 -7.192276696E+00  9.447611426E+00  4.750000000E+00  0.00000E+00  9.000E+00
      21     1     1     2   511   502 -4.770562453E-01 -3.630952632E+00 -1.663852029E+01  1.703677661E+01  0.000000000E+00  0.00000E+00  9.000E+00
#rwgt            1           9   1.4776853775802967E-003           7     1694358           0
</event>
<event>
      6   9999 -3.45752E-01  1.71575E+01 -1.00000E+00  1.65464E-01
      21    -1     0     0   501   502  0.000000000E+00  0.000000000E+00  3.106290067E+02  3.106290067E+02  0.000000000E+00  0.00000E+00  9.000E+00
      21    -1     0     0   512   503  0.000000000E+00  0.000000000E+00 -1.762481803E+02  1.762481803E+02  0.000000000E+00  0.00000E+00  9.000E+00
      25     1     1     2     0     0 -1.469933752E+01 -4.138764853E+01  2.768277715E+02  3.068883028E+02  1.249712262E+02  0.00000E+00  9.000E+00
       5     1     1     2   501     0  3.160216009E+00  1.852290027E+01  4.502314641E+00  1.989769175E+01  4.750000000E+00  0.00000E+00  9.000E+00
      -5     1     1     2     0   503 -4.145545092E+00  2.981966105E+01 -3.325404541E+01  4.510866619E+01  4.750000000E+00  0.00000E+00  9.000E+00
      21     1     1     2   512   502  1.568466661E+01 -6.954912788E+00 -1.136952143E+02  1.149825262E+02  1.348699152E-06  0.00000E+00  9.000E+00
#rwgt            1           9 -0.53826542262835231                7     1699546           0
</event>
<event>
      6   9999  3.45752E-01  5.83989E+01 -1.00000E+00  1.31276E-01
      21    -1     0     0   501   511  0.000000000E+00  0.000000000E+00  1.323582222E+01  1.323582222E+01  0.000000000E+00  0.00000E+00  9.000E+00
      21    -1     0     0   502   503  0.000000000E+00  0.000000000E+00 -9.306375483E+02  9.306375483E+02  0.000000000E+00  0.00000E+00  9.000E+00
      25     1     1     2     0     0  1.702020453E+01  3.612462765E+01 -6.291801979E+02  6.427186514E+02  1.249994697E+02  0.00000E+00  9.000E+00
       5     1     1     2   501     0 -3.889977431E+00  1.931390455E+01 -1.054906885E+02  1.074197687E+02  4.750000000E+00  0.00000E+00  9.000E+00
      -5     1     1     2     0   503 -6.710571873E-02  1.480579798E+00 -2.612926756E+01  2.659882973E+01  4.750000000E+00  0.00000E+00  9.000E+00
      21     1     1     2   502   511 -1.306312138E+01 -5.691911200E+01 -1.566015722E+02  1.671361207E+02  1.907348633E-06  0.00000E+00  9.000E+00
#rwgt            1           9   3.2345484168701331E-004           7     1701995           0
</event>
<event>
      6   9999  3.45752E-01  1.57591E+01 -1.00000E+00  1.68534E-01
      21    -1     0     0   512   502  0.000000000E+00  0.000000000E+00  5.246460072E+01  5.246460072E+01  0.000000000E+00  0.00000E+00  9.000E+00
      21    -1     0     0   502   503  0.000000000E+00  0.000000000E+00 -1.127912550E+03  1.127912550E+03  0.000000000E+00  0.00000E+00  9.000E+00
      25     1     1     2     0     0 -6.299270133E+01 -5.414944088E+01 -7.365369496E+02  7.516718152E+02  1.249943891E+02  0.00000E+00  9.000E+00
       5     1     1     2   501     0  7.303339531E+01  3.649621391E+01 -5.355565860E+01  9.775797424E+01  4.750000000E+00  0.00000E+00  9.000E+00
      -5     1     1     2     0   503 -9.005313681E+00  1.928155474E+00 -3.053293046E+02  3.055050903E+02  4.750000000E+00  0.00000E+00  9.000E+00
      21     1     1     2   512   501 -1.035380300E+00  1.572507150E+01  1.997396402E+01  2.544227043E+01  1.327458468E-06  0.00000E+00  9.000E+00
#rwgt            1           9   1.4577556436962136                7     1702468           0
</event>
<event>
      6   9999  3.45752E-01  1.92786E+01 -1.00000E+00  1.61438E-01
      21    -1     0     0   511   502  0.000000000E+00  0.000000000E+00  8.110520560E+01  8.110520560E+01  0.000000000E+00  0.00000E+00  9.000E+00
      21    -1     0     0   502   503  0.000000000E+00  0.000000000E+00 -1.486317740E+03  1.486317740E+03  0.000000000E+00  0.00000E+00  9.000E+00
      25     1     1     2     0     0  3.918527265E+01  4.182014248E+00 -4.003855292E+02  4.212899859E+02  1.249948215E+02  0.00000E+00  9.000E+00
       5     1     1     2   501     0  3.448544352E+00 -4.887250113E+00  5.767873695E+01  5.818227280E+01  4.750000000E+00  0.00000E+00  9.000E+00
      -5     1     1     2     0   503 -4.469666983E+01  1.987316933E+01 -1.067019511E+03  1.068150708E+03  4.750000000E+00  0.00000E+00  9.000E+00
      21     1     1     2   511   501  2.062852824E+00 -1.916793346E+01  4.513769435E+00  1.979997852E+01  6.391886052E-07  0.00000E+00  9.000E+00
#rwgt            1           9   1.4967307673195131E-002           7     1704911           0
</event>
<event>
      6   9999  3.45752E-01  1.82431E+01 -1.00000E+00  1.63319E-01
      21    -1     0     0   501   502  0.000000000E+00  0.000000000E+00  4.150420539E+01  4.150420539E+01  0.000000000E+00  0.00000E+00  9.000E+00
      21    -1     0     0   502   512  0.000000000E+00  0.000000000E+00 -1.688984920E+03  1.688984920E+03  0.000000000E+00  0.00000E+00  9.000E+00
      25     1     1     2     0     0 -5.482709960E+01  2.532458520E+01 -4.138543043E+02  4.365564952E+02  1.251352981E+02  0.00000E+00  9.000E+00
       5     1     1     2   501     0 -7.227979972E+00 -3.282267290E+00  2.851363676E+01  2.997677358E+01  4.750000000E+00  0.00000E+00  9.000E+00
      -5     1     1     2     0   503  4.413201007E+01 -1.863998558E+01 -7.918337902E+02  7.932959077E+02  4.750000000E+00  0.00000E+00  9.000E+00
      21     1     1     2   503   512  1.792306950E+01 -3.402332329E+00 -4.703062572E+02  4.706599493E+02  5.394796609E-06  0.00000E+00  9.000E+00
#rwgt            1           9   2.1772128580280607E-004           7     1708008           0
</event>
<event>
      6   9999  3.45752E-01  1.78331E+01 -1.00000E+00  1.64107E-01
      21    -1     0     0   502   503  0.000000000E+00  0.000000000E+00  3.575519988E+02  3.575519988E+02  0.000000000E+00  0.00000E+00  9.000E+00
      21    -1     0     0   511   502  0.000000000E+00  0.000000000E+00 -6.413349318E+02  6.413349318E+02  0.000000000E+00  0.00000E+00  9.000E+00
      25     1     1     2     0     0  9.828026931E+01 -2.721165805E+02  4.533569416E+01  3.184131145E+02  1.250005664E+02  0.00000E+00  9.000E+00
       5     1     1     2   501     0  1.469317179E+02  2.145365626E+02 -9.997185626E+01  2.786248391E+02  4.750000000E+00  0.00000E+00  9.000E+00
      -5     1     1     2     0   503 -2.342385409E+02  4.352285792E+01 -7.959344197E+01  2.512361672E+02  4.750000000E+00  0.00000E+00  9.000E+00
      21     1     1     2   511   501 -1.097344637E+01  1.405716001E+01 -1.495533290E+02  1.506128098E+02  1.907348633E-06  0.00000E+00  9.000E+00
#rwgt            1           9   1.6417199602976708E-003           7     1710716           0
</event>
<event>
      6   9999  3.45752E-01  5.50873E+00 -1.00000E+00  2.19360E-01
      21    -1     0     0   501   502  0.000000000E+00  0.000000000E+00  1.202926127E+01  1.202926127E+01  0.000000000E+00  0.00000E+00  9.000E+00
      21    -1     0     0   512   503  0.000000000E+00  0.000000000E+00 -8.875760566E+02  8.875760566E+02  0.000000000E+00  0.00000E+00  9.000E+00
      25     1     1     2     0     0 -1.287986474E+01 -2.881790348E+01 -6.410167060E+02  6.538527099E+02  1.249983460E+02  0.00000E+00  9.000E+00
       5     1     1     2   501     0 -1.961226228E+00 -8.847480650E-01  2.782362572E+00  5.910433905E+00  4.750000000E+00  0.00000E+00  9.000E+00
      -5     1     1     2     0   503  1.501223732E+01  2.419657992E+01 -1.847570848E+02  1.869988894E+02  4.750000000E+00  0.00000E+00  9.000E+00
      21     1     1     2   512   502 -1.711463506E-01  5.506071620E+00 -5.255536712E+01  5.284328461E+01  6.743495762E-07  0.00000E+00  9.000E+00
#rwgt            1           9   1.6385475322749851E-002           7     1713878           0
</event>
<event>
      6   9999  3.45752E-01  1.94348E+01 -1.00000E+00  1.61167E-01
      21    -1     0     0   511   502  0.000000000E+00  0.000000000E+00  1.832519546E+01  1.832519546E+01  0.000000000E+00  0.00000E+00  9.000E+00
      21    -1     0     0   502   503  0.000000000E+00  0.000000000E+00 -9.946008564E+02  9.946008564E+02  0.000000000E+00  0.00000E+00  9.000E+00
      25     1     1     2     0     0  5.032531763E+01  4.229550110E+01 -3.646004865E+02  3.910164152E+02  1.250550886E+02  0.00000E+00  9.000E+00
       5     1     1     2   501     0 -4.001603275E-01  4.544306622E-01 -2.030171094E+00  5.201031646E+00  4.750000000E+00  0.00000E+00  9.000E+00
      -5     1     1     2     0   503 -5.351978469E+01 -2.365045921E+01 -5.646792947E+02  5.677226259E+02  4.750000000E+00  0.00000E+00  9.000E+00
      21     1     1     2   511   501  3.594627393E+00 -1.909947256E+01 -4.496570853E+01  4.898597903E+01  9.536743164E-07  0.00000E+00  9.000E+00
#rwgt            1           9   1.5592471033407653E-003           7     1717756           0
</event>
<event>
      6   9999  3.45752E-01  1.01325E+01 -1.00000E+00  1.86593E-01
      21    -1     0     0   512   502  0.000000000E+00  0.000000000E+00  1.609172703E+01  1.609172703E+01  0.000000000E+00  0.00000E+00  9.000E+00
      21    -1     0     0   502   503  0.000000000E+00  0.000000000E+00 -7.363684730E+02  7.363684730E+02  0.000000000E+00  0.00000E+00  9.000E+00
      25     1     1     2     0     0 -1.200867624E+00 -8.125530368E+00 -6.741309602E+02  6.856712228E+02  1.250000316E+02  0.00000E+00  9.000E+00
       5     1     1     2   501     0  2.248510700E+00 -6.507299486E-01  2.876790018E+00  6.026414410E+00  4.750000000E+00  0.00000E+00  9.000E+00
      -5     1     1     2     0   503  4.901888026E+00  5.743521633E-01 -5.010620343E+01  5.057225039E+01  4.750000000E+00  0.00000E+00  9.000E+00
      21     1     1     2   512   501 -5.949531101E+00  8.201908153E+00  1.083627725E+00  1.019031240E+01  3.557603474E-07  0.00000E+00  9.000E+00
#rwgt            1           9   4.5375797902426976E-002           7     1719598           0
</event>
<event>
      6   9999  3.45752E-01  1.02855E+01 -1.00000E+00  1.85915E-01
      21    -1     0     0   501   502  0.000000000E+00  0.000000000E+00  4.520145597E+01  4.520145597E+01  0.000000000E+00  0.00000E+00  9.000E+00
      21    -1     0     0   511   503  0.000000000E+00  0.000000000E+00 -1.318375057E+03  1.318375057E+03  0.000000000E+00  0.00000E+00  9.000E+00
      25     1     1     2     0     0  1.059450952E+02 -7.215246888E+01 -7.629525689E+02  7.836781713E+02  1.249980477E+02  0.00000E+00  9.000E+00
       5     1     1     2   501     0 -1.264794848E+00 -9.304116229E-01  2.665654119E+01  2.712192951E+01  4.750000000E+00  0.00000E+00  9.000E+00
      -5     1     1     2     0   503 -9.468530631E+01  7.551031951E+01 -5.011547389E+02  5.156023181E+02  4.750000000E+00  0.00000E+00  9.000E+00
      21     1     1     2   511   502 -9.994994060E+00 -2.427439012E+00 -3.572283422E+01  3.717409382E+01  4.768371582E-07  0.00000E+00  9.000E+00
#rwgt            1           9   4.9105963518246843E-004           7     1721790           0
</event>
<event>
      6   9999  3.45752E-01  1.32938E+01 -1.00000E+00  1.75045E-01
      21    -1     0     0   501   502  0.000000000E+00  0.000000000E+00  8.818668998E+01  8.818668998E+01  0.000000000E+00  0.00000E+00  9.000E+00
      21    -1     0     0   502   512  0.000000000E+00  0.000000000E+00 -2.733237211E+03  2.733237211E+03  0.000000000E+00  0.00000E+00  9.000E+00
      25     1     1     2     0     0  2.684442314E+02 -1.058717844E+00 -4.050972548E+02  5.017888395E+02  1.249993093E+02  0.00000E+00  9.000E+00
       5     1     1     2   501     0  1.455572360E+00 -4.234774517E+00  2.603884180E+01  2.684466033E+01  4.750000000E+00  0.00000E+00  9.000E+00
      -5     1     1     2     0   503 -2.652326844E+02  1.774107848E+01 -1.310058478E+03  1.336764341E+03  4.750000000E+00  0.00000E+00  9.000E+00
      21     1     1     2   503   512 -4.667119390E+00 -1.244758612E+01 -9.559336294E+02  9.560260605E+02  0.000000000E+00  0.00000E+00  9.000E+00
#rwgt            1           9   1.0195905063262295E-003           7     1725521           0
</event>
<event>
      6   9999  3.45752E-01  3.45478E+00 -1.00000E+00  2.61804E-01
      21    -1     0     0   501   502  0.000000000E+00  0.000000000E+00  2.972508151E+01  2.972508151E+01  0.000000000E+00  0.00000E+00  9.000E+00
      21    -1     0     0   511   503  0.000000000E+00  0.000000000E+00 -1.136945792E+03  1.136945792E+03  0.000000000E+00  0.00000E+00  9.000E+00
      25     1     1     2     0     0 -1.611908534E+01 -5.078708886E+01 -5.751406692E+02  5.909746941E+02  1.250005857E+02  0.00000E+00  9.000E+00
       5     1     1     2   501     0  2.305099921E+00 -5.693289683E+00  1.943377853E+01  2.092752448E+01  4.750000000E+00  0.00000E+00  9.000E+00
      -5     1     1     2     0   503  1.552634211E+01  5.347982748E+01 -5.340352103E+02  5.369518858E+02  4.750000000E+00  0.00000E+00  9.000E+00
      21     1     1     2   511   502 -1.712356699E+00  3.000551062E+00 -1.747860939E+01  1.781676902E+01  3.371747881E-07  0.00000E+00  9.000E+00
#rwgt            1           9   2.4022731395803819E-003           7     1729466           0
</event>
<event>
      6   9999  3.45752E-01  8.41367E+00 -1.00000E+00  1.95458E-01
      21    -1     0     0   501   502  0.000000000E+00  0.000000000E+00  1.040319577E+02  1.040319577E+02  0.000000000E+00  0.00000E+00  9.000E+00
      21    -1     0     0   512   503  0.000000000E+00  0.000000000E+00 -1.786792069E+03  1.786792069E+03  0.000000000E+00  0.00000E+00  9.000E+00
      25     1     1     2     0     0  1.264761029E+02 -1.156189751E+02 -3.614791584E+02  4.191127793E+02  1.249975514E+02  0.00000E+00  9.000E+00
       5     1     1     2   501     0  1.117538972E+01  8.373799501E+00  6.792791750E+01  6.951096553E+01  4.750000000E+00  0.00000E+00  9.000E+00
      -5     1     1     2     0   503 -1.392599268E+02  1.155036733E+02 -1.289894653E+03  1.302530308E+03  4.750000000E+00  0.00000E+00  9.000E+00
      21     1     1     2   512   502  1.608434226E+00 -8.258497741E+00 -9.931421822E+01  9.966997434E+01  1.348699152E-06  0.00000E+00  9.000E+00
#rwgt            1           9   5.6896555791856546E-004           7     1735985           0
</event>
<event>
      6   9999  3.45752E-01  2.00929E+00 -1.00000E+00  3.32110E-01
      21    -1     0     0   501   502  0.000000000E+00  0.000000000E+00  7.196438555E+00  7.196438555E+00  0.000000000E+00  0.00000E+00  9.000E+00
      21    -1     0     0   511   503  0.000000000E+00  0.000000000E+00 -7.231339206E+02  7.231339206E+02  0.000000000E+00  0.00000E+00  9.000E+00
      25     1     1     2     0     0  5.408188108E+00  4.275018998E+00 -6.627187468E+02  6.744396366E+02  1.250006469E+02  0.00000E+00  9.000E+00
       5     1     1     2   501     0 -2.458466595E+00 -3.652888312E+00 -9.620047892E+00  1.159721831E+01  4.750000000E+00  0.00000E+00  9.000E+00
      -5     1     1     2     0   503 -2.377055898E+00  1.303819584E+00 -2.527477129E+01  2.585975453E+01  4.750000000E+00  0.00000E+00  9.000E+00
      21     1     1     2   511   502 -5.726656145E-01 -1.925950270E+00 -1.832391602E+01  1.843374972E+01  0.000000000E+00  0.00000E+00  9.000E+00
#rwgt            1           9   3.7808630110382435E-002           7     1741756           0
</event>
<event>
      6   9999 -3.45752E-01  2.03230E+01 -1.00000E+00  1.59681E-01
      21    -1     0     0   501   502  0.000000000E+00  0.000000000E+00  2.567951912E+01  2.567951912E+01  0.000000000E+00  0.00000E+00  9.000E+00
      21    -1     0     0   502   512  0.000000000E+00  0.000000000E+00 -1.143117485E+03  1.143117485E+03  0.000000000E+00  0.00000E+00  9.000E+00
      25     1     1     2     0     0  1.185321204E+01  6.694575235E+00 -1.041211243E+03  1.048815592E+03  1.253314697E+02  0.00000E+00  9.000E+00
       5     1     1     2   501     0  8.137300225E-01  1.898286870E+00  1.204277418E+01  1.310940729E+01  4.750000000E+00  0.00000E+00  9.000E+00
      -5     1     1     2     0   503 -1.172854185E+01  1.170845556E+01 -1.001479116E+00  1.726881831E+01  4.750000000E+00  0.00000E+00  9.000E+00
      21     1     1     2   503   512 -9.384002159E-01 -2.030131767E+01 -8.726801772E+01  8.960318639E+01  1.348699152E-06  0.00000E+00  9.000E+00
#rwgt            1           9  -1.0697877489708419E-004           7     1749597           0
</event>
<event>
      6   9999  3.45752E-01  4.62035E+00 -1.00000E+00  2.35565E-01
      21    -1     0     0   501   502  0.000000000E+00  0.000000000E+00  7.293313780E+01  7.293313780E+01  0.000000000E+00  0.00000E+00  9.000E+00
      21    -1     0     0   511   503  0.000000000E+00  0.000000000E+00 -2.388779275E+02  2.388779275E+02  0.000000000E+00  0.00000E+00  9.000E+00
      25     1     1     2     0     0  9.050917220E+00  1.816183453E+00 -2.011326458E+02  2.369897374E+02  1.249983072E+02  0.00000E+00  9.000E+00
       5     1     1     2   501     0 -2.765815514E+00 -3.452479266E+00  5.329817142E+01  5.369196332E+01  4.750000000E+00  0.00000E+00  9.000E+00
      -5     1     1     2     0   503 -2.474955603E+00 -9.772193456E-01 -5.679361427E+00  7.867528780E+00  4.750000000E+00  0.00000E+00  9.000E+00
      21     1     1     2   511   502 -3.810146103E+00  2.613515159E+00 -1.243095389E+01  1.326183583E+01  1.685873940E-07  0.00000E+00  9.000E+00
#rwgt            1           9   3.4242710894152209E-003           7     1751376           0
</event>
<event>
      6   9999 -3.45752E-01  8.88178E+00 -1.00000E+00  1.92787E-01
      21    -1     0     0   512   502  0.000000000E+00  0.000000000E+00  1.488091948E+01  1.488091948E+01  0.000000000E+00  0.00000E+00  9.000E+00
      21    -1     0     0   502   503  0.000000000E+00  0.000000000E+00 -8.620204138E+02  8.620204138E+02  0.000000000E+00  0.00000E+00  9.000E+00
      25     1     1     2     0     0  1.083577461E+01  1.433655434E+01 -7.368478584E+02  7.475920212E+02  1.250044518E+02  0.00000E+00  9.000E+00
       5     1     1     2   501     0 -1.731092628E+00  9.693933447E-01  6.266993284E+00  8.110123918E+00  4.750000000E+00  0.00000E+00  9.000E+00
      -5     1     1     2     0   503 -5.633942486E+00 -7.130372254E+00 -1.091571025E+02  1.096376717E+02  4.750000000E+00  0.00000E+00  9.000E+00
      21     1     1     2   512   501 -3.470739494E+00 -8.175575426E+00 -7.401526729E+00  1.156151651E+01  2.795705652E-07  0.00000E+00  9.000E+00
#rwgt            1           9  -1.7093374391394990E-004           7     1756743           0
</event>
<event>
      6   9999  3.45752E-01  4.03529E+00 -1.00000E+00  2.47063E-01
      21    -1     0     0   501   502  0.000000000E+00  0.000000000E+00  8.165287611E+01  8.165287611E+01  0.000000000E+00  0.00000E+00  9.000E+00
      21    -1     0     0   502   511  0.000000000E+00  0.000000000E+00 -1.661735640E+03  1.661735640E+03  0.000000000E+00  0.00000E+00  9.000E+00
      25     1     1     2     0     0 -9.498016079E+01  1.567336440E+02 -1.107073340E+02  2.479272954E+02  1.250006557E+02  0.00000E+00  9.000E+00
       5     1     1     2   501     0  2.302781240E+00 -5.523706669E+00  5.367757762E+00  9.337529663E+00  4.750000000E+00  0.00000E+00  9.000E+00
      -5     1     1     2     0   503  8.957870970E+01 -1.537948507E+02 -1.400656835E+03  1.411927524E+03  4.750000000E+00  0.00000E+00  9.000E+00
      21     1     1     2   503   511  3.098669846E+00  2.584913372E+00 -7.408635292E+01  7.419616715E+01  9.536743164E-07  0.00000E+00  9.000E+00
#rwgt            1           9   6.5308969546901281                7     1759674           0
</event>
<event>
      6   9999 -3.45752E-01  9.69537E+01 -1.00000E+00  1.21009E-01
      21    -1     0     0   501   502  0.000000000E+00  0.000000000E+00  2.559435701E+03  2.559435701E+03  0.000000000E+00  0.00000E+00  9.000E+00
      21    -1     0     0   502   512  0.000000000E+00  0.000000000E+00 -4.761183338E+01  4.761183338E+01  0.000000000E+00  0.00000E+00  9.000E+00
      25     1     1     2     0     0 -3.332135881E+02  2.897708412E+01  1.271313296E+03  1.320504624E+03  1.249959938E+02  0.00000E+00  9.000E+00
       5     1     1     2   501     0  2.362892932E+02 -2.893540789E+01  8.859491131E+02  9.173866587E+02  4.750000000E+00  0.00000E+00  9.000E+00
      -5     1     1     2     0   503  2.845977993E-02  3.306957875E+00  1.792940255E+01  1.884045531E+01  4.750000000E+00  0.00000E+00  9.000E+00
      21     1     1     2   503   512  9.689583507E+01 -3.348634113E+00  3.366320563E+02  3.503157969E+02  6.607249480E-06  0.00000E+00  9.000E+00
#rwgt            1           9  -2.0203863941345990E-004           7     1768379           0
</event>
<event>
      6   9999  3.45752E-01  6.19766E+00 -1.00000E+00  2.12116E-01
      21    -1     0     0   501   511  0.000000000E+00  0.000000000E+00  1.176304868E+01  1.176304868E+01  0.000000000E+00  0.00000E+00  9.000E+00
      21    -1     0     0   502   503  0.000000000E+00  0.000000000E+00 -8.425515574E+02  8.425515574E+02  0.000000000E+00  0.00000E+00  9.000E+00
      25     1     1     2     0     0  2.386178054E+01 -1.060808315E+00 -7.475061622E+02  7.582646596E+02  1.250172850E+02  0.00000E+00  9.000E+00
       5     1     1     2   501     0 -2.643731589E+01  9.763562034E+00 -3.366170018E+01  4.415802729E+01  4.750000000E+00  0.00000E+00  9.000E+00
      -5     1     1     2     0   503 -5.509366356E-01 -3.351472172E+00 -4.015779312E+01  4.058012747E+01  4.750000000E+00  0.00000E+00  9.000E+00
      21     1     1     2   502   511  3.126471989E+00 -5.351281546E+00 -9.462853248E+00  1.131179176E+01  0.000000000E+00  0.00000E+00  9.000E+00
#rwgt            1           9   1.4062009671545587E-004           7     1769034           0
</event>
<event>
      6   9999  3.45752E-01  1.80230E+01 -1.00000E+00  1.63739E-01
      21    -1     0     0   501   502  0.000000000E+00  0.000000000E+00  2.431166093E+01  2.431166093E+01  0.000000000E+00  0.00000E+00  9.000E+00
      21    -1     0     0   502   512  0.000000000E+00  0.000000000E+00 -1.116043843E+03  1.116043843E+03  0.000000000E+00  0.00000E+00  9.000E+00
      25     1     1     2     0     0  1.938078494E+01  3.868602313E+00 -4.549340343E+02  4.722038906E+02  1.249838302E+02  0.00000E+00  9.000E+00
       5     1     1     2   501     0  2.866166014E+00  6.907897034E+00  1.336164076E+01  1.603215185E+01  4.750000000E+00  0.00000E+00  9.000E+00
      -5     1     1     2     0   503 -4.984807250E+00 -5.595149918E+00 -5.651732044E+02  5.652428394E+02  4.750000000E+00  0.00000E+00  9.000E+00
      21     1     1     2   503   512 -1.726214370E+01 -5.181349429E+00 -8.498658388E+01  8.687662186E+01  9.536743164E-07  0.00000E+00  9.000E+00
#rwgt            1           9   4.9246420657604300E-003           7     1772944           0
</event>
<event>
      6   9999  3.45752E-01  4.03189E+00 -1.00000E+00  2.47138E-01
      21    -1     0     0   511   502  0.000000000E+00  0.000000000E+00  4.105593983E+01  4.105593983E+01  0.000000000E+00  0.00000E+00  9.000E+00
      21    -1     0     0   502   503  0.000000000E+00  0.000000000E+00 -7.497869779E+02  7.497869779E+02  0.000000000E+00  0.00000E+00  9.000E+00
      25     1     1     2     0     0 -5.117212899E+00  2.389450274E+00 -7.247184129E+02  7.354412941E+02  1.250008951E+02  0.00000E+00  9.000E+00
       5     1     1     2   501     0 -6.187473502E-01  4.377784434E-01  4.047152698E+00  6.286210560E+00  4.750000000E+00  0.00000E+00  9.000E+00
      -5     1     1     2     0   503  4.744926712E+00 -6.735418988E+00 -1.722331842E+01  1.967448591E+01  4.750000000E+00  0.00000E+00  9.000E+00
      21     1     1     2   511   501  9.910335375E-01  3.908190271E+00  2.916354050E+01  2.944092718E+01  8.259061849E-07  0.00000E+00  9.000E+00
#rwgt            1           9   1.3924491891101326E-004           7     1775039           0
</event>
<event>
      6   9999  3.45752E-01  6.68239E+00 -1.00000E+00  2.07743E-01
      21    -1     0     0   501   512  0.000000000E+00  0.000000000E+00  2.093858971E+01  2.093858971E+01  0.000000000E+00  0.00000E+00  9.000E+00
      21    -1     0     0   502   503  0.000000000E+00  0.000000000E+00 -8.999245824E+02  8.999245824E+02  0.000000000E+00  0.00000E+00  9.000E+00
      25     1     1     2     0     0  1.426070628E+01  1.352131312E+01 -7.187453555E+02  7.297992652E+02  1.250035510E+02  0.00000E+00  9.000E+00
       5     1     1     2   501     0 -6.216265534E+00  1.837537589E+00  1.126444162E+01  1.383721961E+01  4.750000000E+00  0.00000E+00  9.000E+00
      -5     1     1     2     0   503 -1.472197859E+01 -1.561351825E+01 -1.684520735E+02  1.698799051E+02  4.750000000E+00  0.00000E+00  9.000E+00
      21     1     1     2   502   512  6.677537845E+00  2.546675404E-01 -3.053005357E+00  7.346782217E+00  2.457562462E-07  0.00000E+00  9.000E+00
#rwgt            1           9   1.4951241875742472E-003           7     1779850           0
</event>
<event>
      6   9999  3.45752E-01  6.46519E+00 -1.00000E+00  2.09638E-01
      21    -1     0     0   502   503  0.000000000E+00  0.000000000E+00  1.104217698E+01  1.104217698E+01  0.000000000E+00  0.00000E+00  9.000E+00
      21    -1     0     0   501   511  0.000000000E+00  0.000000000E+00 -8.869038262E+02  8.869038262E+02  0.000000000E+00  0.00000E+00  9.000E+00
      25     1     1     2     0     0 -4.708204720E+01 -3.386898063E+00 -6.674757570E+02  6.807178107E+02  1.249986453E+02  0.00000E+00  9.000E+00
       5     1     1     2   501     0 -4.516877886E+00 -1.405719973E+00 -4.057712517E+01  4.112716646E+01  4.750000000E+00  0.00000E+00  9.000E+00
      -5     1     1     2     0   503  4.540513050E+01  2.939099741E+00 -1.317296031E+02  1.394471765E+02  4.750000000E+00  0.00000E+00  9.000E+00
      21     1     1     2   502   511  6.193794590E+00  1.853518294E+00 -3.607916391E+01  3.665384960E+01  4.768371582E-07  0.00000E+00  9.000E+00
#rwgt            1           9   1.7474572208236751E-002           7     1784008           0
</event>
<event>
      6   9999  3.45752E-01  1.09620E+01 -1.00000E+00  1.83088E-01
      21    -1     0     0   512   502  0.000000000E+00  0.000000000E+00  1.382634968E+01  1.382634968E+01  0.000000000E+00  0.00000E+00  9.000E+00
      21    -1     0     0   502   503  0.000000000E+00  0.000000000E+00 -7.011960921E+02  7.011960921E+02  0.000000000E+00  0.00000E+00  9.000E+00
      25     1     1     2     0     0  4.966118851E+00  1.015370998E+01 -5.732210442E+02  5.868011356E+02  1.250017882E+02  0.00000E+00  9.000E+00
       5     1     1     2   501     0 -8.586385205E-03  1.501301469E+00 -1.809171438E+00  5.299960483E+00  4.750000000E+00  0.00000E+00  9.000E+00
      -5     1     1     2     0   503 -1.049766529E+01 -2.196065947E+00 -1.112931309E+02  1.119095490E+02  4.750000000E+00  0.00000E+00  9.000E+00
      21     1     1     2   512   501  5.540132824E+00 -9.458945504E+00 -1.046395905E+00  1.101179668E+01  3.848425022E-07  0.00000E+00  9.000E+00
#rwgt            1           9   2.3298498202967777E-003           7     1787317           0
</event>
<event>
      6   9999  3.45752E-01  7.11587E+00 -1.00000E+00  2.04234E-01
      21    -1     0     0   511   502  0.000000000E+00  0.000000000E+00  7.117396187E+00  7.117396187E+00  0.000000000E+00  0.00000E+00  9.000E+00
      21    -1     0     0   502   503  0.000000000E+00  0.000000000E+00 -9.790183474E+02  9.790183474E+02  0.000000000E+00  0.00000E+00  9.000E+00
      25     1     1     2     0     0  3.297471635E+00  1.797210326E+01 -8.712416364E+02  8.803520659E+02  1.249956041E+02  0.00000E+00  9.000E+00
       5     1     1     2   501     0  7.494209635E-01  2.210717838E-01 -7.850963484E+00  9.209268817E+00  4.750000000E+00  0.00000E+00  9.000E+00
      -5     1     1     2     0   503  1.305505102E+00 -1.350409095E+01 -8.414175037E+01  8.536077243E+01  4.750000000E+00  0.00000E+00  9.000E+00
      21     1     1     2   511   501 -5.352397701E+00 -4.689084099E+00 -8.666600970E+00  1.121363648E+01  3.953724850E-07  0.00000E+00  9.000E+00
#rwgt            1           9   1.4726318275337148E-002           7     1789388           0
</event>
<event>
      6   9999 -3.45752E-01  1.64023E+01 -1.00000E+00  1.67075E-01
      21    -1     0     0   501   502  0.000000000E+00  0.000000000E+00  2.112498516E+01  2.112498516E+01  0.000000000E+00  0.00000E+00  9.000E+00
      21    -1     0     0   502   512  0.000000000E+00  0.000000000E+00 -1.812969914E+03  1.812969914E+03  0.000000000E+00  0.00000E+00  9.000E+00
      25     1     1     2     0     0  9.572450212E+01 -2.670369788E+01 -3.525734320E+02  3.870528567E+02  1.250024846E+02  0.00000E+00  9.000E+00
       5     1     1     2   501     0  6.772506462E-01 -4.523499894E-01 -1.992873676E+00  5.215106369E+00  4.750000000E+00  0.00000E+00  9.000E+00
      -5     1     1     2     0   503 -9.191318642E+01  1.137982447E+01 -1.014357451E+03  1.018587814E+03  4.750000000E+00  0.00000E+00  9.000E+00
      21     1     1     2   503   512 -4.488566352E+00  1.577622340E+01 -4.229211725E+02  4.232391223E+02  5.394796609E-06  0.00000E+00  9.000E+00
#rwgt            1           9  -19.774681691566627                7     1792358           0
</event>
<event>
      6   9999  3.45752E-01  8.46436E+00 -1.00000E+00  1.95158E-01
      21    -1     0     0   501   511  0.000000000E+00  0.000000000E+00  8.218287542E+01  8.218287542E+01  0.000000000E+00  0.00000E+00  9.000E+00
      21    -1     0     0   502   503  0.000000000E+00  0.000000000E+00 -6.775780914E+02  6.775780914E+02  0.000000000E+00  0.00000E+00  9.000E+00
      25     1     1     2     0     0 -2.611677516E+01  3.263358918E+01 -5.985339482E+02  6.128750875E+02  1.250037948E+02  0.00000E+00  9.000E+00
       5     1     1     2   501     0 -2.208347620E+00  3.937812700E+00  4.706166643E+01  4.751574598E+01  4.750000000E+00  0.00000E+00  9.000E+00
      -5     1     1     2     0   503  2.164218025E+01 -4.176598691E+01 -6.284349633E+01  7.864254039E+01  4.750000000E+00  0.00000E+00  9.000E+00
      21     1     1     2   502   511  6.682942534E+00  5.194585030E+00  1.892056214E+01  2.072759287E+01  4.129530925E-07  0.00000E+00  9.000E+00
#rwgt            1           9   1.5415470669605100                7     1794699           0
</event>
<event>
      6   9999  3.45752E-01  1.78704E+01 -1.00000E+00  1.64034E-01
      21    -1     0     0   512   502  0.000000000E+00  0.000000000E+00  8.406818334E+01  8.406818334E+01  0.000000000E+00  0.00000E+00  9.000E+00
      21    -1     0     0   502   503  0.000000000E+00  0.000000000E+00 -1.509930167E+03  1.509930167E+03  0.000000000E+00  0.00000E+00  9.000E+00
      25     1     1     2     0     0 -7.293645764E-01  2.237183339E+02 -4.388621817E+02  5.082087867E+02  1.250029257E+02  0.00000E+00  9.000E+00
       5     1     1     2   501     0 -6.498169638E-01  5.953907954E-02  2.260643816E+01  2.310929149E+01  4.750000000E+00  0.00000E+00  9.000E+00
      -5     1     1     2     0   503  1.815112015E+01 -2.176092221E+02 -1.019239038E+03  1.042379017E+03  4.750000000E+00  0.00000E+00  9.000E+00
      21     1     1     2   512   501 -1.677193861E+01 -6.168650852E+00  9.632797463E+00  2.030125526E+01  1.685873940E-07  0.00000E+00  9.000E+00
#rwgt            1           9   3.0875452084194851E-004           7     1798875           0
</event>
<event>
      6   9999  3.45752E-01  1.46926E+01 -1.00000E+00  1.71154E-01
      21    -1     0     0   501   502  0.000000000E+00  0.000000000E+00  1.395944749E+01  1.395944749E+01  0.000000000E+00  0.00000E+00  9.000E+00
      21    -1     0     0   502   511  0.000000000E+00  0.000000000E+00 -9.505204086E+02  9.505204086E+02  0.000000000E+00  0.00000E+00  9.000E+00
      25     1     1     2     0     0 -7.778899811E+00  3.609712976E+00 -5.270350472E+02  5.417229404E+02  1.249970477E+02  0.00000E+00  9.000E+00
       5     1     1     2   501     0 -4.807718742E+00 -5.815174844E-02  3.938250668E+00  7.822394739E+00  4.750000000E+00  0.00000E+00  9.000E+00
      -5     1     1     2     0   503 -4.072416011E-01 -1.040960118E+01 -3.291982750E+02  3.293973169E+02  4.750000000E+00  0.00000E+00  9.000E+00
      21     1     1     2   503   511  1.299386015E+01  6.858039951E+00 -8.426588961E+01  8.553720399E+01  0.000000000E+00  0.00000E+00  9.000E+00
#rwgt            1           9   1.5169173546582352E-004           7     1801942           0
</event>
<event>
      6   9999  3.45752E-01  2.69346E+01 -1.00000E+00  1.50931E-01
      21    -1     0     0   502   503  0.000000000E+00  0.000000000E+00  1.389282637E+01  1.389282637E+01  0.000000000E+00  0.00000E+00  9.000E+00
      21    -1     0     0   512   502  0.000000000E+00  0.000000000E+00 -1.569447130E+03  1.569447130E+03  0.000000000E+00  0.00000E+00  9.000E+00
      25     1     1     2     0     0  6.446087471E-02 -4.764421244E+01 -6.294031259E+02  6.434858908E+02  1.251232256E+02  0.00000E+00  9.000E+00
       5     1     1     2   501     0  5.807684565E+00 -3.986506093E+00 -2.292678667E+02  2.294252354E+02  4.750000000E+00  0.00000E+00  9.000E+00
      -5     1     1     2     0   503  1.714538539E+01  3.764266823E+01 -6.030857328E+01  7.328452239E+01  4.750000000E+00  0.00000E+00  9.000E+00
      21     1     1     2   512   501 -2.301753083E+01  1.398805031E+01 -6.365747376E+02  6.371443077E+02  7.629394531E-06  0.00000E+00  9.000E+00
#rwgt            1           9   9.8171932495140807E-002           7     1803892           0
</event>
<event>
      6   9999  3.45752E-01  1.28750E+01 -1.00000E+00  1.76329E-01
      21    -1     0     0   501   502  0.000000000E+00  0.000000000E+00  7.937652352E+01  7.937652352E+01  0.000000000E+00  0.00000E+00  9.000E+00
      21    -1     0     0   502   511  0.000000000E+00  0.000000000E+00 -1.654751801E+03  1.654751801E+03  0.000000000E+00  0.00000E+00  9.000E+00
      25     1     1     2     0     0 -1.319878949E+01 -2.047266706E+02 -3.838544307E+02  4.528307504E+02  1.249969874E+02  0.00000E+00  9.000E+00
       5     1     1     2   501     0 -9.012812251E-01 -2.564918702E+00  3.585441599E+01  3.626972239E+01  4.750000000E+00  0.00000E+00  9.000E+00
      -5     1     1     2     0   503  8.441285039E+00  1.957268487E+02 -1.143534819E+03  1.160204594E+03  4.750000000E+00  0.00000E+00  9.000E+00
      21     1     1     2   503   511  5.658785671E+00  1.156474064E+01 -8.384044401E+01  8.482325820E+01  1.651812370E-06  0.00000E+00  9.000E+00
#rwgt            1           9   1.0138487002498252E-006           7     1805247           0
</event>
<event>
      6   9999  3.45752E-01  1.12389E+01 -1.00000E+00  1.82004E-01
      21    -1     0     0   501   502  0.000000000E+00  0.000000000E+00  3.744664248E+01  3.744664248E+01  0.000000000E+00  0.00000E+00  9.000E+00
      21    -1     0     0   502   512  0.000000000E+00  0.000000000E+00 -1.330158223E+03  1.330158223E+03  0.000000000E+00  0.00000E+00  9.000E+00
      25     1     1     2     0     0 -6.013634078E+01 -1.365690553E+02 -4.772970999E+02  5.154520653E+02  1.249432819E+02  0.00000E+00  9.000E+00
       5     1     1     2   501     0  1.360797292E+00 -1.652537142E+00  1.100688031E+01  1.217770760E+01  4.750000000E+00  0.00000E+00  9.000E+00
      -5     1     1     2     0   503  5.408318107E+01  1.280091002E+02 -7.653257917E+02  7.778543888E+02  4.750000000E+00  0.00000E+00  9.000E+00
      21     1     1     2   503   512  4.692362421E+00  1.021249220E+01 -6.109556884E+01  6.212070343E+01  9.536743164E-07  0.00000E+00  9.000E+00
#rwgt            1           9   1.0431524977780791E-002           7     1809054           0
</event>
<event>
      6   9999  3.45752E-01  1.69845E+01 -1.00000E+00  1.65824E-01
      21    -1     0     0   501   502  0.000000000E+00  0.000000000E+00  4.096950705E+01  4.096950705E+01  0.000000000E+00  0.00000E+00  9.000E+00
      21    -1     0     0   511   503  0.000000000E+00  0.000000000E+00 -1.538773467E+03  1.538773467E+03  0.000000000E+00  0.00000E+00  9.000E+00
      25     1     1     2     0     0 -1.371225098E+01 -8.556693083E+00 -1.046597961E+03  1.054158313E+03  1.249848572E+02  0.00000E+00  9.000E+00
       5     1     1     2   501     0 -7.790978512E-02  7.523150523E+00  3.576785002E+01  3.685790904E+01  4.750000000E+00  0.00000E+00  9.000E+00
      -5     1     1     2     0   503  1.198666513E+01  1.792203724E+01 -1.921814154E+02  1.934454405E+02  4.750000000E+00  0.00000E+00  9.000E+00
      21     1     1     2   511   502  1.803495642E+00 -1.688849468E+01 -2.947924340E+02  2.952813116E+02  5.394796609E-06  0.00000E+00  9.000E+00
#rwgt            1           9   1.3625148859102099E-002           7     1812206           0
</event>
<event>
      6   9999  3.45752E-01  8.21044E+00 -1.00000E+00  1.96690E-01
      21    -1     0     0   501   502  0.000000000E+00  0.000000000E+00  2.383384580E+01  2.383384580E+01  0.000000000E+00  0.00000E+00  9.000E+00
      21    -1     0     0   502   512  0.000000000E+00  0.000000000E+00 -1.185534848E+03  1.185534848E+03  0.000000000E+00  0.00000E+00  9.000E+00
      25     1     1     2     0     0 -5.545244360E-01  2.449323913E+00 -1.123502806E+03  1.130437891E+03  1.249998591E+02  0.00000E+00  9.000E+00
       5     1     1     2   501     0  9.301116372E+00 -1.732659774E+00  1.810233463E+01  2.097069133E+01  4.750000000E+00  0.00000E+00  9.000E+00
      -5     1     1     2     0   503 -1.202387681E+00  2.523134613E+00 -2.503962280E+01  2.563897725E+01  4.750000000E+00  0.00000E+00  9.000E+00
      21     1     1     2   503   512 -7.544204255E+00 -3.239798753E+00 -3.126090819E+01  3.232113387E+01  0.000000000E+00  0.00000E+00  9.000E+00
#rwgt            1           9   8.1599924870128917E-005           7     1814830           0
</event>
<event>
      6   9999  3.45752E-01  5.54547E+00 -1.00000E+00  2.18937E-01
      21    -1     0     0   511   502  0.000000000E+00  0.000000000E+00  1.538073355E+02  1.538073355E+02  0.000000000E+00  0.00000E+00  9.000E+00
      21    -1     0     0   502   503  0.000000000E+00  0.000000000E+00 -1.066322189E+02  1.066322189E+02  0.000000000E+00  0.00000E+00  9.000E+00
      25     1     1     2     0     0 -6.133494959E+00 -2.532798007E+00 -6.401248566E+01  1.405954278E+02  1.250017647E+02  0.00000E+00  9.000E+00
       5     1     1     2   501     0  1.226760824E+00 -4.273559518E+00  1.070580316E+02  1.072555494E+02  4.750000000E+00  0.00000E+00  9.000E+00
      -5     1     1     2     0   503  1.729595544E-02  4.189951778E+00  2.490425489E+00  6.805932278E+00  4.750000000E+00  0.00000E+00  9.000E+00
      21     1     1     2   511   501  4.889438179E+00  2.616405746E+00  1.639145195E+00  5.782644871E+00  1.365713982E-07  0.00000E+00  9.000E+00
#rwgt            1           9   2.1396118648996949E-003           7     1819486           0
</event>
<event>
      6   9999 -3.45752E-01  3.46475E+01 -1.00000E+00  1.43903E-01
      21    -1     0     0   512   503  0.000000000E+00  0.000000000E+00  4.276459369E+01  4.276459369E+01  0.000000000E+00  0.00000E+00  9.000E+00
      21    -1     0     0   501   502  0.000000000E+00  0.000000000E+00 -7.904997360E+02  7.904997360E+02  0.000000000E+00  0.00000E+00  9.000E+00
      25     1     1     2     0     0  2.771947414E+01  2.958224899E+01 -4.906081883E+02  5.079022603E+02  1.249993318E+02  0.00000E+00  9.000E+00
       5     1     1     2   501     0 -4.508006038E-01  4.795529914E+00 -2.152160355E+02  2.153223276E+02  4.750000000E+00  0.00000E+00  9.000E+00
      -5     1     1     2     0   503  5.985576100E-02 -1.307979330E+01 -6.625131626E+01  6.769700127E+01  4.750000000E+00  0.00000E+00  9.000E+00
      21     1     1     2   512   502 -2.732852929E+01 -2.129798560E+01  2.434039777E+01  4.234274044E+01  2.431401974E-06  0.00000E+00  9.000E+00
#rwgt            1           9  -5.0411624178026467E-003           7     1824020           0
</event>
<event>
      6   9999  3.45752E-01  1.00938E+01 -1.00000E+00  1.86768E-01
      21    -1     0     0   501   502  0.000000000E+00  0.000000000E+00  1.827775085E+01  1.827775085E+01  0.000000000E+00  0.00000E+00  9.000E+00
      21    -1     0     0   502   511  0.000000000E+00  0.000000000E+00 -9.928618857E+02  9.928618857E+02  0.000000000E+00  0.00000E+00  9.000E+00
      25     1     1     2     0     0 -1.394392719E+01  2.297152096E+01 -8.128044896E+02  8.227990597E+02  1.250001212E+02  0.00000E+00  9.000E+00
       5     1     1     2   501     0  1.038239131E+00 -4.028945263E-01  9.889021547E+00  1.102703549E+01  4.750000000E+00  0.00000E+00  9.000E+00
      -5     1     1     2     0   503  3.948126653E+00 -2.722120069E+01 -7.340876092E+01  7.853655296E+01  4.750000000E+00  0.00000E+00  9.000E+00
      21     1     1     2   503   511  8.957561403E+00  4.652574264E+00 -9.825990587E+01  9.877698849E+01  0.000000000E+00  0.00000E+00  9.000E+00
#rwgt            1           9   3.9671509604431970E-004           7     1825064           0
</event>
<event>
      6   9999  3.45752E-01  9.97291E+00 -1.00000E+00  1.87318E-01
      21    -1     0     0   501   502  0.000000000E+00  0.000000000E+00  1.063168500E+01  1.063168500E+01  0.000000000E+00  0.00000E+00  9.000E+00
      21    -1     0     0   502   512  0.000000000E+00  0.000000000E+00 -6.790862017E+02  6.790862017E+02  0.000000000E+00  0.00000E+00  9.000E+00
      25     1     1     2     0     0  1.071171284E+01  3.223994611E+00 -5.546851036E+02  5.687060383E+02  1.250034357E+02  0.00000E+00  9.000E+00
       5     1     1     2   501     0  1.824999233E+00  2.792849727E-01  1.079795439E-01  5.097330858E+00  4.750000000E+00  0.00000E+00  9.000E+00
      -5     1     1     2     0   503 -3.469119868E+00  6.485441647E-01 -1.046405185E+01  1.202140937E+01  4.750000000E+00  0.00000E+00  9.000E+00
      21     1     1     2   503   512 -9.067592210E+00 -4.151823749E+00 -1.034133409E+02  1.038931082E+02  0.000000000E+00  0.00000E+00  9.000E+00
#rwgt            1           9  0.19147552384800140                7     1827801           0
</event>
<event>
      6   9999  3.45752E-01  4.87143E+00 -1.00000E+00  2.31370E-01
      21    -1     0     0   501   511  0.000000000E+00  0.000000000E+00  2.230438240E+02  2.230438240E+02  0.000000000E+00  0.00000E+00  9.000E+00
      21    -1     0     0   502   503  0.000000000E+00  0.000000000E+00 -4.344415976E+02  4.344415976E+02  0.000000000E+00  0.00000E+00  9.000E+00
      25     1     1     2     0     0  4.553481037E+00 -1.538135024E+00 -4.066989074E+02  4.255006276E+02  1.249947311E+02  0.00000E+00  9.000E+00
       5     1     1     2   501     0 -6.889590946E-01 -2.970924148E-01 -7.797537265E-01  4.871698309E+00  4.750000000E+00  0.00000E+00  9.000E+00
      -5     1     1     2     0   503 -4.511115379E+00 -2.993095113E+00 -1.465067082E+01  1.632523923E+01  4.750000000E+00  0.00000E+00  9.000E+00
      21     1     1     2   502   511  6.465934372E-01  4.828322551E+00  2.107315583E+02  2.107878565E+02  2.697398305E-06  0.00000E+00  9.000E+00
#rwgt            1           9   1.0956406265483047                7     1830320           0
</event>
<event>
      6   9999  3.45752E-01  2.09323E+01 -1.00000E+00  1.58715E-01
      21    -1     0     0   501   512  0.000000000E+00  0.000000000E+00  1.494804442E+02  1.494804442E+02  0.000000000E+00  0.00000E+00  9.000E+00
      21    -1     0     0   502   503  0.000000000E+00  0.000000000E+00 -8.304640625E+02  8.304640625E+02  0.000000000E+00  0.00000E+00  9.000E+00
      25     1     1     2     0     0 -8.167417916E+01  7.065148725E+01 -3.670109503E+02  4.024654249E+02  1.249763035E+02  0.00000E+00  9.000E+00
       5     1     1     2   501     0  2.984985142E+00 -2.516599776E+01 -1.093428282E+02  1.123416849E+02  4.750000000E+00  0.00000E+00  9.000E+00
      -5     1     1     2     0   503  6.096055137E+01 -3.435636345E+01 -3.303364089E+02  3.376999468E+02  4.750000000E+00  0.00000E+00  9.000E+00
      21     1     1     2   502   512  1.772864265E+01 -1.112912605E+01  1.257065690E+02  1.274374502E+02  5.046370146E-06  0.00000E+00  9.000E+00
#rwgt            1           9  0.13197552711992680                7     1834596           0
</event>
<event>
      6   9999  3.45752E-01  1.75560E+01 -1.00000E+00  1.64655E-01
      21    -1     0     0   501   502  0.000000000E+00  0.000000000E+00  4.439177253E+01  4.439177253E+01  0.000000000E+00  0.00000E+00  9.000E+00
      21    -1     0     0   511   503  0.000000000E+00  0.000000000E+00 -1.410489053E+03  1.410489053E+03  0.000000000E+00  0.00000E+00  9.000E+00
      25     1     1     2     0     0  1.022439169E+02  3.375723785E+00 -4.024353954E+02  4.336407759E+02  1.249994440E+02  0.00000E+00  9.000E+00
       5     1     1     2   501     0 -2.333444356E+00 -1.448667105E+00  2.499614534E+01  2.559127549E+01  4.750000000E+00  0.00000E+00  9.000E+00
      -5     1     1     2     0   503 -9.870097429E+01  1.558725291E+01 -8.599009486E+02  8.657003227E+02  4.750000000E+00  0.00000E+00  9.000E+00
      21     1     1     2   511   502 -1.209498210E+00 -1.751430959E+01 -1.287570816E+02  1.299484512E+02  2.697398305E-06  0.00000E+00  9.000E+00
#rwgt            1           9   6.2564382472673260E-004           7     1836066           0
</event>
<event>
      6   9999  3.45752E-01  1.23452E+02 -1.00000E+00  1.16671E-01
      21    -1     0     0   512   502  0.000000000E+00  0.000000000E+00  5.763105353E+01  5.763105353E+01  0.000000000E+00  0.00000E+00  9.000E+00
       1    -1     0     0   501     0  0.000000000E+00  0.000000000E+00 -8.665018224E+02  8.665018224E+02  0.000000000E+00  0.00000E+00  9.000E+00
      25     1     1     2     0     0 -1.120642114E+02  1.448516309E+02 -4.213019627E+02  4.760894618E+02  1.250017974E+02  0.00000E+00  9.000E+00
       5     1     1     2   501     0 -1.057232750E+01 -2.528658818E+01 -1.346445447E+01  3.090371636E+01  4.750000000E+00  0.00000E+00  9.000E+00
      -5     1     1     2     0   502  3.368437904E+01 -3.396146010E+01 -4.581138761E+01  6.640228835E+01  4.750000000E+00  0.00000E+00  9.000E+00
       1     1     1     2   512     0  8.895215991E+01 -8.560358266E+01 -3.282929641E+02  3.507374094E+02  3.814697266E-06  0.00000E+00  9.000E+00
#rwgt            1           1   3.4830877140903330E-005           7     1838950           0
</event>
<event>
      6   9999  3.45752E-01  2.62177E+01 -1.00000E+00  1.51726E-01
      21    -1     0     0   501   502  0.000000000E+00  0.000000000E+00  1.085199789E+01  1.085199789E+01  0.000000000E+00  0.00000E+00  9.000E+00
      21    -1     0     0   502   511  0.000000000E+00  0.000000000E+00 -9.307828715E+02  9.307828715E+02  0.000000000E+00  0.00000E+00  9.000E+00
      25     1     1     2     0     0  6.498604712E+00  4.680185223E+01 -7.096367125E+02  7.221098397E+02  1.250028466E+02  0.00000E+00  9.000E+00
       5     1     1     2   501     0  1.248040590E+00  1.669008741E+00 -2.930091765E+00  5.957443516E+00  4.750000000E+00  0.00000E+00  9.000E+00
      -5     1     1     2     0   503  4.677142453E-01 -2.357326079E+01 -8.019439621E+01  8.372347977E+01  4.750000000E+00  0.00000E+00  9.000E+00
      21     1     1     2   503   511 -8.214359547E+00 -2.489760018E+01 -1.271696731E+02  1.298441064E+02  1.348699152E-06  0.00000E+00  9.000E+00
#rwgt            1           9   9.2483404192360471E-006           7     1839379           0
</event>
<event>
      6   9999 -3.45752E-01  3.89020E+01 -1.00000E+00  1.40891E-01
       2    -1     0     0   501     0  0.000000000E+00  0.000000000E+00  3.135548424E+02  3.135548424E+02  0.000000000E+00  0.00000E+00  9.000E+00
      21    -1     0     0   502   503  0.000000000E+00  0.000000000E+00 -7.876654511E+02  7.876654511E+02  0.000000000E+00  0.00000E+00  9.000E+00
      25     1     1     2     0     0 -2.675855760E+01  1.770634391E+01 -5.373138270E+02  5.526170644E+02  1.250997051E+02  0.00000E+00  9.000E+00
       5     1     1     2   501     0 -2.536090637E+00  3.145883427E+00 -4.752970417E+00  7.841018176E+00  4.750000000E+00  0.00000E+00  9.000E+00
      -5     1     1     2     0   503  3.938022528E+00  8.650481305E+00 -2.350394169E+02  2.352794696E+02  4.750000000E+00  0.00000E+00  9.000E+00
       2     1     1     2   502     0  2.535662571E+01 -2.950270864E+01  3.029956055E+02  3.054827413E+02  3.814697266E-06  0.00000E+00  9.000E+00
#rwgt            1           9  -3.0983081208266181E-002           7     1840864           0
</event>
<event>
      6   9999  3.45752E-01  1.73883E+01 -1.00000E+00  1.64992E-01
      21    -1     0     0   511   502  0.000000000E+00  0.000000000E+00  1.696152465E+01  1.696152465E+01  0.000000000E+00  0.00000E+00  9.000E+00
      21    -1     0     0   502   503  0.000000000E+00  0.000000000E+00 -1.053941601E+03  1.053941601E+03  0.000000000E+00  0.00000E+00  9.000E+00
      25     1     1     2     0     0 -3.752227195E+01  3.236512860E+01 -8.872898888E+02  8.974204777E+02  1.249989789E+02  0.00000E+00  9.000E+00
       5     1     1     2   501     0  3.264150007E-01 -7.224251961E-01 -5.312476845E+00  7.170310673E+00  4.750000000E+00  0.00000E+00  9.000E+00
      -5     1     1     2     0   503  3.570277987E+01 -4.896678806E+01 -8.539766941E+01  1.048225132E+02  4.750000000E+00  0.00000E+00  9.000E+00
      21     1     1     2   511   501  1.493077075E+00  1.732408466E+01 -5.898004114E+01  6.148982388E+01  9.536743164E-07  0.00000E+00  9.000E+00
#rwgt            1           9   5.4429404006976596E-006           7     1841674           0
</event>
<event>
      6   9999  3.45752E-01  2.01733E+01 -1.00000E+00  1.59925E-01
      21    -1     0     0   512   502  0.000000000E+00  0.000000000E+00  3.168735985E+02  3.168735985E+02  0.000000000E+00  0.00000E+00  9.000E+00
      21    -1     0     0   502   503  0.000000000E+00  0.000000000E+00 -7.538360432E+02  7.538360432E+02  0.000000000E+00  0.00000E+00  9.000E+00
      25     1     1     2     0     0 -1.393488547E+01 -1.844986679E+00 -7.200037480E+02  7.309088650E+02  1.249991470E+02  0.00000E+00  9.000E+00
       5     1     1     2   501     0 -8.688168926E+00  2.723027440E+00 -6.839627008E+00  1.233864479E+01  4.750000000E+00  0.00000E+00  9.000E+00
      -5     1     1     2     0   503  2.455148173E+00 -4.134840059E-01 -1.807108300E+01  1.885007327E+01  4.750000000E+00  0.00000E+00  9.000E+00
      21     1     1     2   512   501  2.016790623E+01 -4.645567544E-01  3.079520133E+02  3.086120587E+02  0.000000000E+00  0.00000E+00  9.000E+00
#rwgt            1           9  0.30228845783232533                7     1843920           0
</event>
<event>
      6   9999 -3.45752E-01  1.11580E+01 -1.00000E+00  1.82317E-01
      21    -1     0     0   502   511  0.000000000E+00  0.000000000E+00  2.987410367E+02  2.987410367E+02  0.000000000E+00  0.00000E+00  9.000E+00
      21    -1     0     0   501   502  0.000000000E+00  0.000000000E+00 -1.237445197E+02  1.237445197E+02  0.000000000E+00  0.00000E+00  9.000E+00
      25     1     1     2     0     0 -6.779251031E+00 -2.298515239E+01 -5.335839823E+01  1.379951774E+02  1.249850985E+02  0.00000E+00  9.000E+00
       5     1     1     2   501     0  1.343001187E+01  2.385125287E+00 -8.466336154E-01  1.446835616E+01  4.750000000E+00  0.00000E+00  9.000E+00
      -5     1     1     2     0   503 -2.609533133E+00  1.019956887E+01 -1.864057896E+01  2.192885205E+01  4.750000000E+00  0.00000E+00  9.000E+00
      21     1     1     2   503   511 -4.041227709E+00  1.040045823E+01  2.478421279E+02  2.480931708E+02  2.697398305E-06  0.00000E+00  9.000E+00
#rwgt            1           9  -10707.327673361979                7     1845410           0
</event>
<event>
      6   9999  3.45752E-01  2.67086E+01 -1.00000E+00  1.51179E-01
      -3    -1     0     0     0   502  0.000000000E+00  0.000000000E+00  5.031779065E+02  5.031779065E+02  0.000000000E+00  0.00000E+00  9.000E+00
      21    -1     0     0   502   503  0.000000000E+00  0.000000000E+00 -1.441936817E+03  1.441936817E+03  0.000000000E+00  0.00000E+00  9.000E+00
      25     1     1     2     0     0  6.827306434E+00  6.880162378E+00 -1.381497172E+03  1.387174561E+03  1.249995043E+02  0.00000E+00  9.000E+00
       5     1     1     2   501     0 -2.495375890E+01 -2.787634456E+00  4.984660403E+01  5.601524277E+01  4.750000000E+00  0.00000E+00  9.000E+00
      -5     1     1     2     0   503 -6.613937438E+00 -1.415534058E+01 -5.288496741E+01  5.534889441E+01  4.750000000E+00  0.00000E+00  9.000E+00
      -3     1     1     2     0   501  2.474038990E+01  1.006281266E+01  4.457766252E+02  4.465760256E+02  7.629394531E-06  0.00000E+00  9.000E+00
#rwgt            1           9   2.9116794150260353E-004           7     1847844           0
</event>
<event>
      6   9999  3.45752E-01  1.84700E+01 -1.00000E+00  1.62894E-01
      21    -1     0     0   511   502  0.000000000E+00  0.000000000E+00  8.584351948E+00  8.584351948E+00  0.000000000E+00  0.00000E+00  9.000E+00
      21    -1     0     0   502   503  0.000000000E+00  0.000000000E+00 -8.652593869E+02  8.652593869E+02  0.000000000E+00  0.00000E+00  9.000E+00
      25     1     1     2     0     0 -1.804278328E+01  9.650890812E+00 -6.239127687E+02  6.366399172E+02  1.249982379E+02  0.00000E+00  9.000E+00
       5     1     1     2   501     0  9.046967429E+00  1.692941396E+00 -1.048178037E+02  1.053282875E+02  4.750000000E+00  0.00000E+00  9.000E+00
      -5     1     1     2     0   503  3.789556858E+00  6.377265679E+00 -8.021138609E+01  8.069361324E+01  4.750000000E+00  0.00000E+00  9.000E+00
      21     1     1     2   511   501  5.206258991E+00 -1.772109789E+01 -4.773307644E+01  5.118192093E+01  1.168007728E-06  0.00000E+00  9.000E+00
#rwgt            1           9   1.3138952975068740E-003           7     1850475           0
</event>
<event>
      6   9999  3.45752E-01  9.25444E+00 -1.00000E+00  1.90809E-01
      21    -1     0     0   501   502  0.000000000E+00  0.000000000E+00  1.650164790E+01  1.650164790E+01  0.000000000E+00  0.00000E+00  9.000E+00
      21    -1     0     0   512   503  0.000000000E+00  0.000000000E+00 -1.524073321E+03  1.524073321E+03  0.000000000E+00  0.00000E+00  9.000E+00
      25     1     1     2     0     0 -3.105977490E+01  3.924860416E+01 -5.023455292E+02  5.200778385E+02  1.249990591E+02  0.00000E+00  9.000E+00
       5     1     1     2   501     0  1.468941727E+00  2.575932960E+00  5.037049633E+00  7.531771997E+00  4.750000000E+00  0.00000E+00  9.000E+00
      -5     1     1     2     0   503  2.600842542E+01 -3.329159973E+01 -3.412168660E+02  3.438550290E+02  4.750000000E+00  0.00000E+00  9.000E+00
      21     1     1     2   512   502  3.582407748E+00 -8.532937386E+00 -6.690463276E+02  6.691103295E+02  7.629394531E-06  0.00000E+00  9.000E+00
#rwgt            1           9   7.3197891462775102E-004           7     1851551           0
</event>
<event>
      6   9999  3.45752E-01  2.60076E+00 -1.00000E+00  2.94207E-01
      21    -1     0     0   511   502  0.000000000E+00  0.000000000E+00  3.018546489E+02  3.018546489E+02  0.000000000E+00  0.00000E+00  9.000E+00
      21    -1     0     0   502   503  0.000000000E+00  0.000000000E+00 -1.493696024E+02  1.493696024E+02  0.000000000E+00  0.00000E+00  9.000E+00
      25     1     1     2     0     0 -2.092485060E+01  2.161193856E+01 -9.076465080E+01  1.573741892E+02  1.249939532E+02  0.00000E+00  9.000E+00
       5     1     1     2   501     0 -9.217808105E-02 -5.008968553E-01  1.235073536E+01  1.324245288E+01  4.750000000E+00  0.00000E+00  9.000E+00
      -5     1     1     2     0   503  2.310512064E+01 -1.956060963E+01 -1.539954468E+01  3.429537178E+01  4.750000000E+00  0.00000E+00  9.000E+00
      21     1     1     2   511   501 -2.088091961E+00 -1.550432078E+00  2.462985066E+02  2.463122374E+02  3.814697266E-06  0.00000E+00  9.000E+00
#rwgt            1           9  0.12154320445515236                7     1854427           0
</event>
<event>
      6   9999  3.45752E-01  1.23675E+01 -1.00000E+00  1.77970E-01
       1    -1     0     0   501     0  0.000000000E+00  0.000000000E+00  2.317236037E+03  2.317236037E+03  0.000000000E+00  0.00000E+00  9.000E+00
      21    -1     0     0   502   503  0.000000000E+00  0.000000000E+00 -4.724172843E+01  4.724172843E+01  0.000000000E+00  0.00000E+00  9.000E+00
      25     1     1     2     0     0 -7.497729630E+00  1.092671394E+00  3.910599973E+01  1.311859396E+02  1.249922464E+02  0.00000E+00  9.000E+00
       5     1     1     2   501     0 -3.657006453E+00  6.205583239E+00  4.835771074E+02  4.836540750E+02  4.750000000E+00  0.00000E+00  9.000E+00
      -5     1     1     2     0   503  6.987579123E-02 -1.813616035E+00  4.522343706E+00  6.805011267E+00  4.750000000E+00  0.00000E+00  9.000E+00
       1     1     1     2   502     0  1.108486029E+01 -5.484638598E+00  1.742788858E+03  1.742832740E+03  2.157918644E-05  0.00000E+00  9.000E+00
#rwgt            1           9   7.9793533460346174E-003           7     1860799           0
</event>
<event>
      6   9999 -3.45752E-01  3.26160E+01 -1.00000E+00  1.45527E-01
      21    -1     0     0   502   503  0.000000000E+00  0.000000000E+00  1.564491352E+01  1.564491352E+01  0.000000000E+00  0.00000E+00  9.000E+00
      21    -1     0     0   511   502  0.000000000E+00  0.000000000E+00 -1.172346795E+03  1.172346795E+03  0.000000000E+00  0.00000E+00  9.000E+00
      25     1     1     2     0     0 -5.019637590E+01  6.681670092E+01 -4.281203498E+02  4.537564049E+02  1.249947735E+02  0.00000E+00  9.000E+00
       5     1     1     2   501     0  1.413955881E+01 -3.305520404E+01 -3.276839119E+02  3.296845192E+02  4.750000000E+00  0.00000E+00  9.000E+00
      -5     1     1     2     0   503  6.831005047E+00 -1.928209073E+01 -1.280523117E+02  1.297629326E+02  4.750000000E+00  0.00000E+00  9.000E+00
      21     1     1     2   511   501  2.922581204E+01 -1.447940614E+01 -2.728453076E+02  2.747878512E+02  0.000000000E+00  0.00000E+00  9.000E+00
#rwgt            1           9  -2.8023399179549852E-002           7     1863837           0
</event>
<event>
      6   9999  3.45752E-01  7.06955E+00 -1.00000E+00  2.04593E-01
      21    -1     0     0   512   502  0.000000000E+00  0.000000000E+00  9.760945896E+00  9.760945896E+00  0.000000000E+00  0.00000E+00  9.000E+00
      21    -1     0     0   502   503  0.000000000E+00  0.000000000E+00 -8.252480606E+02  8.252480606E+02  0.000000000E+00  0.00000E+00  9.000E+00
      25     1     1     2     0     0  1.140050129E+00  6.183464841E+00 -6.657478474E+02  6.774090226E+02  1.249930106E+02  0.00000E+00  9.000E+00
       5     1     1     2   501     0  4.650884460E-01 -8.252940197E-01  1.350075620E+00  5.028182739E+00  4.750000000E+00  0.00000E+00  9.000E+00
      -5     1     1     2     0   503  4.587924546E+00 -1.948691668E+00 -1.325743925E+02  1.327530734E+02  4.750000000E+00  0.00000E+00  9.000E+00
      21     1     1     2   512   501 -6.193063121E+00 -3.409479153E+00 -1.851495048E+01  1.981872776E+01  4.129530925E-07  0.00000E+00  9.000E+00
#rwgt            1           9   1.6595528959930232E-004           7     1865269           0
</event>
<event>
      6   9999  3.45752E-01  1.27674E+01 -1.00000E+00  1.76669E-01
       1    -1     0     0   501     0  0.000000000E+00  0.000000000E+00  5.941168568E+02  5.941168568E+02  0.000000000E+00  0.00000E+00  9.000E+00
      21    -1     0     0   502   503  0.000000000E+00  0.000000000E+00 -3.508326693E+02  3.508326693E+02  0.000000000E+00  0.00000E+00  9.000E+00
      25     1     1     2     0     0  9.437530085E+01 -3.054392253E+01 -2.806532027E+02  3.228476768E+02  1.249990944E+02  0.00000E+00  9.000E+00
       5     1     1     2   501     0  3.658934577E+00  1.104013419E+01  1.222213551E+02  1.228653512E+02  4.750000000E+00  0.00000E+00  9.000E+00
      -5     1     1     2     0   503 -8.739157100E+01  2.655648972E+01 -5.683155232E+00  9.163729908E+01  4.750000000E+00  0.00000E+00  9.000E+00
       1     1     1     2   502     0 -1.064266443E+01 -7.052701372E+00  4.073991903E+02  4.075991991E+02  5.394796609E-06  0.00000E+00  9.000E+00
#rwgt            1           9   3.0389705961708646E-004           7     1868818           0
</event>
<event>
      6   9999  3.45752E-01  1.11414E+01 -1.00000E+00  1.82381E-01
      21    -1     0     0   501   502  0.000000000E+00  0.000000000E+00  9.425429684E+00  9.425429684E+00  0.000000000E+00  0.00000E+00  9.000E+00
      21    -1     0     0   502   511  0.000000000E+00  0.000000000E+00 -8.980172266E+02  8.980172266E+02  0.000000000E+00  0.00000E+00  9.000E+00
      25     1     1     2     0     0  2.180546051E+00 -6.534926320E+00 -6.083641868E+02  6.211121645E+02  1.250035086E+02  0.00000E+00  9.000E+00
       5     1     1     2   501     0  8.379106241E-01 -1.003672833E-01  6.723805828E-01  4.871012570E+00  4.750000000E+00  0.00000E+00  9.000E+00
      -5     1     1     2     0   503  3.777288503E+00 -2.193550178E+00 -1.208544346E+02  1.210265939E+02  4.750000000E+00  0.00000E+00  9.000E+00
      21     1     1     2   503   511 -6.795745178E+00  8.828843781E+00 -1.600455562E+02  1.604328853E+02  2.697398305E-06  0.00000E+00  9.000E+00
#rwgt            1           9   7.8647193152560722E-003           7     1872270           0
</event>
<event>
      6   9999  3.45752E-01  9.52870E+00 -1.00000E+00  1.89430E-01
      21    -1     0     0   501   502  0.000000000E+00  0.000000000E+00  1.076319484E+01  1.076319484E+01  0.000000000E+00  0.00000E+00  9.000E+00
      21    -1     0     0   502   512  0.000000000E+00  0.000000000E+00 -8.400426891E+02  8.400426891E+02  0.000000000E+00  0.00000E+00  9.000E+00
      25     1     1     2     0     0  2.326096968E+01  3.476337098E+00 -6.035888581E+02  6.168451061E+02  1.250008708E+02  0.00000E+00  9.000E+00
       5     1     1     2   501     0 -1.916452874E-01 -4.107749816E-02  3.677056891E-01  4.768241054E+00  4.750000000E+00  0.00000E+00  9.000E+00
      -5     1     1     2     0   503 -2.471478048E+01 -1.282080924E+01 -1.694476431E+02  1.717855051E+02  4.750000000E+00  0.00000E+00  9.000E+00
      21     1     1     2   503   512  1.645456090E+00  9.385549639E+00 -5.661069877E+01  5.740703165E+01  9.536743164E-07  0.00000E+00  9.000E+00
#rwgt            1           9   1.8844389338799702E-004           7     1874637           0
</event>
<event>
      6   9999  3.45752E-01  3.78011E+01 -1.00000E+00  1.41625E-01
      21    -1     0     0   502   503  0.000000000E+00  0.000000000E+00  7.178119851E+02  7.178119851E+02  0.000000000E+00  0.00000E+00  9.000E+00
      21    -1     0     0   501   511  0.000000000E+00  0.000000000E+00 -2.627143899E+02  2.627143899E+02  0.000000000E+00  0.00000E+00  9.000E+00
      25     1     1     2     0     0 -8.807256595E+01  4.778946832E+01  1.444337431E+02  2.157004280E+02  1.249998333E+02  0.00000E+00  9.000E+00
       5     1     1     2   501     0 -1.140280074E+02 -2.390666394E+02  1.007119906E+02  2.834090897E+02  4.750000000E+00  0.00000E+00  9.000E+00
      -5     1     1     2     0   503  2.074375985E+02  2.286996466E+02  2.701797089E+02  4.103090582E+02  4.750000000E+00  0.00000E+00  9.000E+00
      21     1     1     2   502   511 -5.337025118E+00 -3.742247554E+01 -6.022784733E+01  7.110779920E+01  1.507891493E-06  0.00000E+00  9.000E+00
#rwgt            1           9   1.0029377214188457                7     1876879           0
</event>
<event>
      6   9999  3.45752E-01  1.32573E+01 -1.00000E+00  1.75155E-01
      21    -1     0     0   501   502  0.000000000E+00  0.000000000E+00  2.208589314E+01  2.208589314E+01  0.000000000E+00  0.00000E+00  9.000E+00
      21    -1     0     0   502   512  0.000000000E+00  0.000000000E+00 -1.139563560E+03  1.139563560E+03  0.000000000E+00  0.00000E+00  9.000E+00
      25     1     1     2     0     0 -4.864226188E+01  5.299232194E+01 -5.123034992E+02  5.322156067E+02  1.249972834E+02  0.00000E+00  9.000E+00
       5     1     1     2   501     0 -4.944904330E-01 -7.212549881E-02  8.285469839E+00  9.563536654E+00  4.750000000E+00  0.00000E+00  9.000E+00
      -5     1     1     2     0   503  5.970773494E+01 -4.491952823E+01 -4.876046443E+02  4.933189934E+02  4.750000000E+00  0.00000E+00  9.000E+00
      21     1     1     2   503   512 -1.057098263E+01 -8.000668210E+00 -1.258549932E+02  1.265513164E+02  1.907348633E-06  0.00000E+00  9.000E+00
#rwgt            1           9   1.6799695550680447E-005           7     1878809           0
</event>
<event>
      6   9999  3.45752E-01  2.61860E+01 -1.00000E+00  1.51762E-01
      21    -1     0     0   501   511  0.000000000E+00  0.000000000E+00  1.027243938E+02  1.027243938E+02  0.000000000E+00  0.00000E+00  9.000E+00
      21    -1     0     0   502   503  0.000000000E+00  0.000000000E+00 -6.178871648E+02  6.178871648E+02  0.000000000E+00  0.00000E+00  9.000E+00
      25     1     1     2     0     0 -1.442850208E+01  2.495282045E+01 -5.874099784E+02  6.012527516E+02  1.249942545E+02  0.00000E+00  9.000E+00
       5     1     1     2   501     0 -5.192154622E+00  1.175413419E+01  1.603286952E+01  2.108870658E+01  4.750000000E+00  0.00000E+00  9.000E+00
      -5     1     1     2     0   503  8.641908471E+00 -1.293356434E+01 -1.516606877E+01  2.223807120E+01  4.750000000E+00  0.00000E+00  9.000E+00
      21     1     1     2   502   511  1.097874823E+01 -2.377339031E+01  7.138040675E+01  7.603202922E+01  2.336015456E-06  0.00000E+00  9.000E+00
#rwgt            1           9   8.5826053877648329E-005           7     1881613           0
</event>
<event>
      6   9999  3.45752E-01  9.19954E+00 -1.00000E+00  1.91093E-01
      21    -1     0     0   501   512  0.000000000E+00  0.000000000E+00  4.068451105E+01  4.068451105E+01  0.000000000E+00  0.00000E+00  9.000E+00
      21    -1     0     0   502   503  0.000000000E+00  0.000000000E+00 -1.161918851E+03  1.161918851E+03  0.000000000E+00  0.00000E+00  9.000E+00
      25     1     1     2     0     0 -8.420128399E+00 -1.647466718E+01 -7.207544266E+02  7.317497362E+02  1.250136783E+02  0.00000E+00  9.000E+00
       5     1     1     2   501     0  9.834262899E+00  5.886878915E+00  2.323498725E+01  2.633999246E+01  4.750000000E+00  0.00000E+00  9.000E+00
      -5     1     1     2     0   503  5.052346822E+00  1.713119370E+01 -4.318426666E+02  4.322379613E+02  4.750000000E+00  0.00000E+00  9.000E+00
      21     1     1     2   502   512 -6.466481322E+00 -6.543405433E+00  8.127766219E+00  1.227567184E+01  7.539457465E-07  0.00000E+00  9.000E+00
#rwgt            1           9   3.6532471717675157E-003           7     1883161           0
</event>
<event>
      6   9999  3.45752E-01  1.11073E+01 -1.00000E+00  1.82514E-01
      21    -1     0     0   501   502  0.000000000E+00  0.000000000E+00  8.740873275E+00  8.740873275E+00  0.000000000E+00  0.00000E+00  9.000E+00
       1    -1     0     0   502     0  0.000000000E+00  0.000000000E+00 -3.406023886E+03  3.406023886E+03  0.000000000E+00  0.00000E+00  9.000E+00
      25     1     1     2     0     0  9.732856665E+00  4.694718178E+00 -7.084903158E+02  7.195145726E+02  1.250036949E+02  0.00000E+00  9.000E+00
       5     1     1     2   501     0  2.602421985E-01 -1.340326206E+00  1.827170224E-01  4.945713887E+00  4.750000000E+00  0.00000E+00  9.000E+00
      -5     1     1     2     0   503 -5.801899641E-01 -9.250906565E+00 -4.088538772E+01  4.219115218E+01  4.750000000E+00  0.00000E+00  9.000E+00
       1     1     1     2   503     0 -9.412908900E+00  5.896514593E+00 -2.648090026E+03  2.648113320E+03  0.000000000E+00  0.00000E+00  9.000E+00
#rwgt            1           9   2.8240910908583315E-004           7     1886555           0
</event>
<event>
      6   9999  3.45752E-01  2.96911E+00 -1.00000E+00  2.78092E-01
      21    -1     0     0   501   502  0.000000000E+00  0.000000000E+00  2.828575067E+01  2.828575067E+01  0.000000000E+00  0.00000E+00  9.000E+00
      21    -1     0     0   502   511  0.000000000E+00  0.000000000E+00 -1.145285938E+03  1.145285938E+03  0.000000000E+00  0.00000E+00  9.000E+00
      25     1     1     2     0     0 -2.927630815E+01 -3.207158032E+01 -5.383419263E+02  5.543671079E+02  1.250006889E+02  0.00000E+00  9.000E+00
       5     1     1     2   501     0 -8.855371953E-01  3.764730247E+00  1.906672538E+01  2.002647964E+01  4.750000000E+00  0.00000E+00  9.000E+00
      -5     1     1     2     0   503  2.768716831E+01  2.666623748E+01 -5.567409359E+02  5.580866418E+02  4.750000000E+00  0.00000E+00  9.000E+00
      21     1     1     2   503   511  2.474677030E+00  1.640612586E+00 -4.098405086E+01  4.109145970E+01  4.768371582E-07  0.00000E+00  9.000E+00
#rwgt            1           9   7.2502720553833640E-003           7     1888428           0
</event>
<event>
      6   9999  3.45752E-01  1.12063E+01 -1.00000E+00  1.82130E-01
      21    -1     0     0   501   502  0.000000000E+00  0.000000000E+00  9.489098736E+00  9.489098736E+00  0.000000000E+00  0.00000E+00  9.000E+00
      21    -1     0     0   502   512  0.000000000E+00  0.000000000E+00 -1.160156098E+03  1.160156098E+03  0.000000000E+00  0.00000E+00  9.000E+00
      25     1     1     2     0     0  7.412844916E+00 -5.195960948E+00 -8.394242376E+02  8.487280043E+02  1.249969054E+02  0.00000E+00  9.000E+00
       5     1     1     2   501     0  2.053394696E-01 -2.975727706E+00  2.862944447E+00  6.297306613E+00  4.750000000E+00  0.00000E+00  9.000E+00
      -5     1     1     2     0   503  1.164314834E+00  1.211192346E+00 -4.504262013E+01  4.532353410E+01  4.750000000E+00  0.00000E+00  9.000E+00
      21     1     1     2   503   512 -8.782499219E+00  6.960496308E+00 -2.690630859E+02  2.692963516E+02  3.814697266E-06  0.00000E+00  9.000E+00
#rwgt            1           9   1.6152082266126689E-004           7     1896174           0
</event>
<event>
      6   9999  3.45752E-01  1.00753E+01 -1.00000E+00  1.86851E-01
      21    -1     0     0   501   511  0.000000000E+00  0.000000000E+00  3.782994100E+01  3.782994100E+01  0.000000000E+00  0.00000E+00  9.000E+00
      21    -1     0     0   502   503  0.000000000E+00  0.000000000E+00 -8.393746725E+02  8.393746725E+02  0.000000000E+00  0.00000E+00  9.000E+00
      25     1     1     2     0     0 -2.217496759E+01 -2.808482838E+01 -5.656800427E+02  5.804309941E+02  1.250029655E+02  0.00000E+00  9.000E+00
       5     1     1     2   501     0 -1.216427209E+00 -2.989950026E+00  1.663821599E+00  5.979155344E+00  4.750000000E+00  0.00000E+00  9.000E+00
      -5     1     1     2     0   503  1.907811098E+01  2.196946248E+01 -2.623524591E+02  2.640038010E+02  4.750000000E+00  0.00000E+00  9.000E+00
      21     1     1     2   502   511  4.313283816E+00  9.105315931E+00  2.482394880E+01  2.679066310E+01  1.305872339E-06  0.00000E+00  9.000E+00
#rwgt            1           9   2.2213179911322528E-004           7     1898388           0
</event>
<event>
      6   9999  3.45752E-01  1.95010E+02 -1.00000E+00  1.09275E-01
      21    -1     0     0   512   502  0.000000000E+00  0.000000000E+00  6.823829736E+01  6.823829736E+01  0.000000000E+00  0.00000E+00  9.000E+00
       1    -1     0     0   501     0  0.000000000E+00  0.000000000E+00 -2.066006768E+03  2.066006768E+03  0.000000000E+00  0.00000E+00  9.000E+00
      25     1     1     2     0     0  5.473968389E+01 -7.375713749E+01 -1.694078377E+02  2.296944949E+02  1.249959888E+02  0.00000E+00  9.000E+00
       5     1     1     2   501     0 -5.751636202E+01  9.614929402E+01 -5.464424578E+02  5.578303872E+02  4.750000000E+00  0.00000E+00  9.000E+00
      -5     1     1     2     0   502  2.195684919E+01 -2.164564472E+02 -6.616344156E+02  6.965042420E+02  4.750000000E+00  0.00000E+00  9.000E+00
       1     1     1     2   512     0 -1.918017106E+01  1.940642906E+02 -6.202837592E+02  6.502159409E+02  1.078959322E-05  0.00000E+00  9.000E+00
#rwgt            1           1   1.8946250890014176                7     1900905           0
</event>
<event>
      6   9999  3.45752E-01  1.61133E+01 -1.00000E+00  1.67720E-01
      21    -1     0     0   501   502  0.000000000E+00  0.000000000E+00  1.221190711E+03  1.221190711E+03  0.000000000E+00  0.00000E+00  9.000E+00
       2    -1     0     0   502     0  0.000000000E+00  0.000000000E+00 -7.796129026E+01  7.796129026E+01  0.000000000E+00  0.00000E+00  9.000E+00
      25     1     1     2     0     0  3.626617181E+00  1.229399403E+01  8.245832827E+02  8.341026894E+02  1.250016465E+02  0.00000E+00  9.000E+00
       5     1     1     2   501     0  1.623022423E+00  1.149261996E+00  2.742899066E+02  2.743382408E+02  4.750000000E+00  0.00000E+00  9.000E+00
      -5     1     1     2     0   503  5.495386498E+00 -1.435664228E+00  1.165277109E+02  1.167627094E+02  4.750000000E+00  0.00000E+00  9.000E+00
       2     1     1     2   503     0 -1.074502610E+01 -1.200759180E+01 -7.217147913E+01  7.394836202E+01  3.015782986E-06  0.00000E+00  9.000E+00
#rwgt            1           9   1.1557321007722844E-004           7     1901040           0
</event>
<event>
      6   9999  3.45752E-01  1.38081E+01 -1.00000E+00  1.73548E-01
      21    -1     0     0   501   511  0.000000000E+00  0.000000000E+00  1.284267687E+02  1.284267687E+02  0.000000000E+00  0.00000E+00  9.000E+00
      21    -1     0     0   502   503  0.000000000E+00  0.000000000E+00 -1.362546082E+03  1.362546082E+03  0.000000000E+00  0.00000E+00  9.000E+00
      25     1     1     2     0     0 -7.794347310E+01  2.644493079E+01 -5.814857043E+02  6.004349683E+02  1.249880293E+02  0.00000E+00  9.000E+00
       5     1     1     2   501     0  1.723578227E+00  1.110301827E+01  4.119564625E+01  4.296383952E+01  4.750000000E+00  0.00000E+00  9.000E+00
      -5     1     1     2     0   503  7.248511470E+01 -2.425449262E+01 -7.681617951E+02  7.719698687E+02  4.750000000E+00  0.00000E+00  9.000E+00
      21     1     1     2   502   511  3.734780172E+00 -1.329345643E+01  7.433254016E+01  7.560417378E+01  1.907348633E-06  0.00000E+00  9.000E+00
#rwgt            1           9   1.8931566451759607E-004           7     1902309           0
</event>
<event>
      6   9999  3.45752E-01  1.12450E+01 -1.00000E+00  1.81981E-01
      21    -1     0     0   501   502  0.000000000E+00  0.000000000E+00  3.527912648E+01  3.527912648E+01  0.000000000E+00  0.00000E+00  9.000E+00
       2    -1     0     0   502     0  0.000000000E+00  0.000000000E+00 -2.688125875E+03  2.688125875E+03  0.000000000E+00  0.00000E+00  9.000E+00
      25     1     1     2     0     0 -4.142594382E+01  1.578955724E+02 -7.817078258E+02  8.082922418E+02  1.249884101E+02  0.00000E+00  9.000E+00
       5     1     1     2   501     0  9.307717482E-01  1.591537240E-01  3.471877387E+00  5.958867220E+00  4.750000000E+00  0.00000E+00  9.000E+00
      -5     1     1     2     0   503  5.160372401E+01 -1.563084598E+02 -3.757513610E+02  4.102522721E+02  4.750000000E+00  0.00000E+00  9.000E+00
       2     1     1     2   503     0 -1.110855194E+01 -1.746266324E+00 -1.498859439E+03  1.498901620E+03  2.157918644E-05  0.00000E+00  9.000E+00
#rwgt            1           9   8.8942179883692675E-005           7     1906541           0
</event>
<event>
      6   9999  3.45752E-01  1.40021E+01 -1.00000E+00  1.73004E-01
      21    -1     0     0   501   511  0.000000000E+00  0.000000000E+00  2.355441217E+01  2.355441217E+01  0.000000000E+00  0.00000E+00  9.000E+00
      21    -1     0     0   502   503  0.000000000E+00  0.000000000E+00 -9.410377197E+02  9.410377197E+02  0.000000000E+00  0.00000E+00  9.000E+00
      25     1     1     2     0     0  4.576617768E+01 -4.027740613E+01 -7.959428937E+02  8.080012698E+02  1.249965985E+02  0.00000E+00  9.000E+00
       5     1     1     2   501     0 -1.018789907E+00 -2.206453728E-01 -3.355170163E+00  5.908154033E+00  4.750000000E+00  0.00000E+00  9.000E+00
      -5     1     1     2     0   503 -5.826294602E+01  3.683919272E+01 -1.179266229E+02  1.366782641E+02  4.750000000E+00  0.00000E+00  9.000E+00
      21     1     1     2   502   511  1.351555825E+01  3.658858777E+00 -2.586207935E-01  1.400444383E+01  4.371783317E-07  0.00000E+00  9.000E+00
#rwgt            1           9   7.9612242483479635E-005           7     1910298           0
</event>
<event>
      6   9999  3.45752E-01  2.04069E+01 -1.00000E+00  1.59546E-01
      21    -1     0     0   502   512  0.000000000E+00  0.000000000E+00  5.913654676E+01  5.913654676E+01  0.000000000E+00  0.00000E+00  9.000E+00
      21    -1     0     0   501   502  0.000000000E+00  0.000000000E+00 -1.015805846E+03  1.015805846E+03  0.000000000E+00  0.00000E+00  9.000E+00
      25     1     1     2     0     0 -4.199144745E+01 -6.942278358E-01 -3.131248576E+02  3.397582210E+02  1.249988347E+02  0.00000E+00  9.000E+00
       5     1     1     2   501     0  8.474233670E+01 -2.170856300E+01 -3.481473008E+02  3.590008787E+02  4.750000000E+00  0.00000E+00  9.000E+00
      -5     1     1     2     0   503 -4.326356728E+01  4.280321276E+01 -3.302235813E+02  3.358184442E+02  4.750000000E+00  0.00000E+00  9.000E+00
      21     1     1     2   503   512  5.126780246E-01 -2.040042192E+01  3.482644061E+01  4.036484880E+01  1.348699152E-06  0.00000E+00  9.000E+00
#rwgt            1           9   9.3113286363802217E-003           7     1912426           0
</event>
<event>
      6   9999  3.45752E-01  2.14258E+01 -1.00000E+00  1.57961E-01
      21    -1     0     0   501   511  0.000000000E+00  0.000000000E+00  4.445001857E+01  4.445001857E+01  0.000000000E+00  0.00000E+00  9.000E+00
      21    -1     0     0   502   503  0.000000000E+00  0.000000000E+00 -9.795145015E+02  9.795145015E+02  0.000000000E+00  0.00000E+00  9.000E+00
      25     1     1     2     0     0 -4.830801283E+00 -7.867183370E+01 -5.672114603E+02  5.861404233E+02  1.249766424E+02  0.00000E+00  9.000E+00
       5     1     1     2   501     0 -1.074874217E+00  2.574658606E+00  2.561222485E+00  6.075078776E+00  4.750000000E+00  0.00000E+00  9.000E+00
      -5     1     1     2     0   503 -8.935518741E+00  9.155043581E+01 -3.912002150E+02  4.018973706E+02  4.750000000E+00  0.00000E+00  9.000E+00
      21     1     1     2   502   511  1.484119424E+01 -1.545326072E+01  2.078596978E+01  2.985164741E+01  1.469710828E-06  0.00000E+00  9.000E+00
#rwgt            1           9   5.5375370028837333E-004           7     1914119           0
</event>
<event>
      6   9999  3.45752E-01  1.60430E+01 -1.00000E+00  1.67880E-01
      21    -1     0     0   501   502  0.000000000E+00  0.000000000E+00  3.770142078E+01  3.770142078E+01  0.000000000E+00  0.00000E+00  9.000E+00
      21    -1     0     0   502   512  0.000000000E+00  0.000000000E+00 -1.152728635E+03  1.152728635E+03  0.000000000E+00  0.00000E+00  9.000E+00
      25     1     1     2     0     0  3.046854750E+01  2.864533570E+01 -7.434425471E+02  7.550368628E+02  1.249998227E+02  0.00000E+00  9.000E+00
       5     1     1     2   501     0  2.924481459E-01 -1.146687512E+00  2.918972627E+01  2.959734850E+01  4.750000000E+00  0.00000E+00  9.000E+00
      -5     1     1     2     0   503 -1.614006668E+01 -3.410216324E+01 -1.587722497E+02  1.632625158E+02  4.750000000E+00  0.00000E+00  9.000E+00
      21     1     1     2   503   512 -1.462092896E+01  6.603515051E+00 -2.420021433E+02  2.425333283E+02  2.697398305E-06  0.00000E+00  9.000E+00
#rwgt            1           9   1.3979203010355673E-003           7     1916246           0
</event>
<event>
      6   9999  3.45752E-01  1.05941E+02 -1.00000E+00  1.19380E-01
      21    -1     0     0   501   502  0.000000000E+00  0.000000000E+00  4.632053360E+01  4.632053360E+01  0.000000000E+00  0.00000E+00  9.000E+00
      21    -1     0     0   502   511  0.000000000E+00  0.000000000E+00 -8.066190347E+02  8.066190347E+02  0.000000000E+00  0.00000E+00  9.000E+00
      25     1     1     2     0     0 -4.037256146E+01 -1.255841744E+01 -1.090995019E+02  1.712191298E+02  1.250025261E+02  0.00000E+00  9.000E+00
       5     1     1     2   501     0 -5.188291576E+00  6.742337710E-01 -9.501950236E-02  7.067141527E+00  4.750000000E+00  0.00000E+00  9.000E+00
      -5     1     1     2     0   503 -6.025721741E+01  1.698804037E+01 -1.525106263E+02  1.649290132E+02  4.750000000E+00  0.00000E+00  9.000E+00
      21     1     1     2   503   511  1.058180704E+02 -5.103856696E+00 -4.985933534E+02  5.097242837E+02  0.000000000E+00  0.00000E+00  9.000E+00
#rwgt            1           9   3.8438220676811137E-002           7     1918652           0
</event>
<event>
      6   9999  3.45752E-01  4.05261E+01 -1.00000E+00  1.39858E-01
      21    -1     0     0   512   502  0.000000000E+00  0.000000000E+00  5.383141636E+02  5.383141636E+02  0.000000000E+00  0.00000E+00  9.000E+00
      21    -1     0     0   502   503  0.000000000E+00  0.000000000E+00 -6.240667749E+02  6.240667749E+02  0.000000000E+00  0.00000E+00  9.000E+00
      25     1     1     2     0     0  5.533586825E+01 -1.881767752E+01 -1.589538562E+02  2.104952678E+02  1.250030642E+02  0.00000E+00  9.000E+00
       5     1     1     2   501     0  1.609507371E+02  1.013654653E+01 -2.415519864E+02  2.904785947E+02  4.750000000E+00  0.00000E+00  9.000E+00
      -5     1     1     2     0   503 -1.763965060E+02  1.529433601E+00 -1.272423705E+02  2.175574633E+02  4.750000000E+00  0.00000E+00  9.000E+00
      21     1     1     2   512   501 -3.989009936E+01  7.151697395E+00  4.419956018E+02  4.438496128E+02  7.629394531E-06  0.00000E+00  9.000E+00
#rwgt            1           9   4.8402833231299652E-002           7     1918988           0
</event>
<event>
      6   9999  3.45752E-01  5.80612E+00 -1.00000E+00  2.16064E-01
      21    -1     0     0   511   502  0.000000000E+00  0.000000000E+00  2.614741290E+01  2.614741290E+01  0.000000000E+00  0.00000E+00  9.000E+00
      21    -1     0     0   502   503  0.000000000E+00  0.000000000E+00 -1.884243619E+03  1.884243619E+03  0.000000000E+00  0.00000E+00  9.000E+00
      25     1     1     2     0     0  2.954748625E+01 -3.517081137E+01 -2.148292543E+02  2.527589695E+02  1.250017929E+02  0.00000E+00  9.000E+00
       5     1     1     2   501     0  1.582142848E+00  6.814479699E-01  5.513171408E+00  7.478309053E+00  4.750000000E+00  0.00000E+00  9.000E+00
      -5     1     1     2     0   503 -2.765992409E+01  2.983403081E+01 -1.629586185E+03  1.630100867E+03  4.750000000E+00  0.00000E+00  9.000E+00
      21     1     1     2   511   501 -3.469705000E+00  4.655332585E+00 -1.919393764E+01  2.005288549E+01  3.371747881E-07  0.00000E+00  9.000E+00
#rwgt            1           9  0.19678325693802845                7     1920542           0
</event>
<event>
      6   9999  3.45752E-01  1.83432E+01 -1.00000E+00  1.63131E-01
      21    -1     0     0   512   502  0.000000000E+00  0.000000000E+00  1.004473174E+02  1.004473174E+02  0.000000000E+00  0.00000E+00  9.000E+00
      21    -1     0     0   502   503  0.000000000E+00  0.000000000E+00 -1.644032725E+03  1.644032725E+03  0.000000000E+00  0.00000E+00  9.000E+00
      25     1     1     2     0     0  7.823897879E+01  1.357178886E+02 -1.304903468E+03  1.320204011E+03  1.249995501E+02  0.00000E+00  9.000E+00
       5     1     1     2   501     0 -7.090555964E+01 -1.669478706E+02 -1.199527753E+01  1.818395971E+02  4.750000000E+00  0.00000E+00  9.000E+00
      -5     1     1     2     0   503  8.887329574E+00  2.266481372E+01 -2.221633322E+02  2.235437029E+02  4.750000000E+00  0.00000E+00  9.000E+00
      21     1     1     2   512   501 -1.622074873E+01  8.565168320E+00 -4.523330492E+00  1.889273184E+01  3.674277069E-07  0.00000E+00  9.000E+00
#rwgt            1           9   1.2430898444368013E-003           7     1925949           0
</event>
<event>
      6   9999  3.45752E-01  2.58235E+01 -1.00000E+00  1.52177E-01
      21    -1     0     0   501   502  0.000000000E+00  0.000000000E+00  1.012548475E+02  1.012548475E+02  0.000000000E+00  0.00000E+00  9.000E+00
      21    -1     0     0   502   511  0.000000000E+00  0.000000000E+00 -2.801007360E+03  2.801007360E+03  0.000000000E+00  0.00000E+00  9.000E+00
      25     1     1     2     0     0 -6.976144870E+01 -2.714832020E+00 -3.632732955E+02  3.904703150E+02  1.250021983E+02  0.00000E+00  9.000E+00
       5     1     1     2   501     0 -7.877953277E+00 -3.325391981E+00  8.556707872E+01  8.612437426E+01  4.750000000E+00  0.00000E+00  9.000E+00
      -5     1     1     2     0   503  8.779129474E+01  2.978452739E+01 -1.293843489E+03  1.297169213E+03  4.750000000E+00  0.00000E+00  9.000E+00
      21     1     1     2   503   511 -1.015189276E+01 -2.374430339E+01 -1.128202807E+03  1.128498306E+03  1.525878906E-05  0.00000E+00  9.000E+00
#rwgt            1           9   1.8730199263998888E-005           7     1929406           0
</event>
<event>
      6   9999  3.45752E-01  2.04675E+01 -1.00000E+00  1.59448E-01
      21    -1     0     0   501   502  0.000000000E+00  0.000000000E+00  9.826849945E+01  9.826849945E+01  0.000000000E+00  0.00000E+00  9.000E+00
      21    -1     0     0   512   503  0.000000000E+00  0.000000000E+00 -2.350534153E+03  2.350534153E+03  0.000000000E+00  0.00000E+00  9.000E+00
      25     1     1     2     0     0  4.209576060E+02 -4.878519605E+01 -8.941135560E+02  9.973211914E+02  1.250008259E+02  0.00000E+00  9.000E+00
       5     1     1     2   501     0  1.086846553E+00  3.345807726E+00  1.396740824E+01  1.516662974E+01  4.750000000E+00  0.00000E+00  9.000E+00
      -5     1     1     2     0   503 -4.018165949E+02  4.231666601E+01 -1.300186888E+03  1.361527004E+03  4.750000000E+00  0.00000E+00  9.000E+00
      21     1     1     2   512   502 -2.022785766E+01  3.122722306E+00 -7.193261803E+01  7.478782760E+01  0.000000000E+00  0.00000E+00  9.000E+00
#rwgt            1           9   9.0869304109513199E-004           7     1931942           0
</event>
<event>
      6   9999 -3.45752E-01  1.41173E+01 -1.00000E+00  1.72686E-01
      21    -1     0     0   501   502  0.000000000E+00  0.000000000E+00  3.848379194E+03  3.848379194E+03  0.000000000E+00  0.00000E+00  9.000E+00
      21    -1     0     0   502   511  0.000000000E+00  0.000000000E+00 -2.437518536E+01  2.437518536E+01  0.000000000E+00  0.00000E+00  9.000E+00
      25     1     1     2     0     0 -1.008992594E+01 -1.122501839E+01  1.563996409E+02  2.009999650E+02  1.253488357E+02  0.00000E+00  9.000E+00
       5     1     1     2   501     0 -6.256299939E+00  7.149269163E+00  3.611271756E+03  3.611287376E+03  4.750000000E+00  0.00000E+00  9.000E+00
      -5     1     1     2     0   503  4.253357349E+00 -3.208539155E+00  2.679102722E+01  2.772557324E+01  4.750000000E+00  0.00000E+00  9.000E+00
      21     1     1     2   503   511  1.209286853E+01  7.284288382E+00  2.954158428E+01  3.274146497E+01  8.259061849E-07  0.00000E+00  9.000E+00
#rwgt            1           9  -2.5066768440335481E-003           7     1935342           0
</event>
<event>
      6   9999  3.45752E-01  8.38086E+01 -1.00000E+00  1.23788E-01
      21    -1     0     0   512   502  0.000000000E+00  0.000000000E+00  5.670022323E+01  5.670022323E+01  0.000000000E+00  0.00000E+00  9.000E+00
      21    -1     0     0   502   503  0.000000000E+00  0.000000000E+00 -3.114145871E+03  3.114145871E+03  0.000000000E+00  0.00000E+00  9.000E+00
      25     1     1     2     0     0 -1.072133947E+02  1.275205908E+02 -1.430366764E+03  1.445451710E+03  1.250014107E+02  0.00000E+00  9.000E+00
       5     1     1     2   501     0 -3.092473067E+01 -2.550158347E+01 -4.413086909E+02  4.431507564E+02  4.750000000E+00  0.00000E+00  9.000E+00
      -5     1     1     2     0   503  1.173477672E+02 -2.083004004E+01 -1.192234415E+03  1.198186067E+03  4.750000000E+00  0.00000E+00  9.000E+00
      21     1     1     2   512   501  2.079035824E+01 -8.118896732E+01  6.464221825E+00  8.405756107E+01  3.231869152E-06  0.00000E+00  9.000E+00
#rwgt            1           9   2.0892671915729143E-003           7     1938565           0
</event>
<event>
      6   9999  3.45752E-01  2.63965E+01 -1.00000E+00  1.51525E-01
      21    -1     0     0   502   511  0.000000000E+00  0.000000000E+00  7.955455962E+01  7.955455962E+01  0.000000000E+00  0.00000E+00  9.000E+00
      21    -1     0     0   501   502  0.000000000E+00  0.000000000E+00 -2.232490827E+02  2.232490827E+02  0.000000000E+00  0.00000E+00  9.000E+00
      25     1     1     2     0     0  1.473845694E+01 -4.173777335E+01 -1.487858726E+02  1.993038146E+02  1.250020432E+02  0.00000E+00  9.000E+00
       5     1     1     2   501     0  4.637907563E+00  1.051567039E+01 -2.044179392E+01  2.392736820E+01  4.750000000E+00  0.00000E+00  9.000E+00
      -5     1     1     2     0   503 -4.198326310E+00  9.625767458E+00 -2.220745463E+01  2.502028945E+01  4.750000000E+00  0.00000E+00  9.000E+00
      21     1     1     2   503   511 -1.517803819E+01  2.159633550E+01  4.774059808E+01  5.455217003E+01  1.348699152E-06  0.00000E+00  9.000E+00
#rwgt            1           9   3.3341575454250906E-002           7     1939727           0
</event>
<event>
      6   9999  3.45752E-01  4.45752E+01 -1.00000E+00  1.37512E-01
      -1    -1     0     0     0   512  0.000000000E+00  0.000000000E+00  3.275131967E+02  3.275131967E+02  0.000000000E+00  0.00000E+00  9.000E+00
       1    -1     0     0   501     0  0.000000000E+00  0.000000000E+00 -1.605280959E+03  1.605280959E+03  0.000000000E+00  0.00000E+00  9.000E+00
      25     1     1     2     0     0 -2.404915168E+02  1.795896335E+02 -1.120412423E+03  1.166635004E+03  1.249985183E+02  0.00000E+00  9.000E+00
       5     1     1     2   501     0  2.720617350E+01 -1.935279056E+01 -1.660156049E+01  3.758830522E+01  4.750000000E+00  0.00000E+00  9.000E+00
      -5     1     1     2     0   502  2.366608813E+02 -1.981912131E+02 -3.775000089E+02  4.876647916E+02  4.750000000E+00  0.00000E+00  9.000E+00
      21     1     1     2   502   512 -2.337553806E+01  3.795437019E+01  2.367462297E+02  2.409060549E+02  3.814697266E-06  0.00000E+00  9.000E+00
#rwgt            1           1   2.1564775401393669E-005           7     1940975           0
</event>
<event>
      6   9999 -3.45752E-01  3.53804E+00 -1.00000E+00  2.59424E-01
      21    -1     0     0   511   502  0.000000000E+00  0.000000000E+00  1.048062795E+02  1.048062795E+02  0.000000000E+00  0.00000E+00  9.000E+00
      21    -1     0     0   502   503  0.000000000E+00  0.000000000E+00 -9.511722583E+02  9.511722583E+02  0.000000000E+00  0.00000E+00  9.000E+00
      25     1     1     2     0     0  2.522528881E+00 -2.586842103E+00 -9.282786366E+02  9.366634952E+02  1.249968840E+02  0.00000E+00  9.000E+00
       5     1     1     2   501     0 -1.047828776E-01 -2.151415567E+00  1.190662467E+01  1.299883761E+01  4.750000000E+00  0.00000E+00  9.000E+00
      -5     1     1     2     0   503 -3.042213457E+00  1.255763927E+00 -1.765864654E+01  1.858015887E+01  4.750000000E+00  0.00000E+00  9.000E+00
      21     1     1     2   511   501  6.244674536E-01  3.482493743E+00  8.766467969E+01  8.773604611E+01  2.861022949E-06  0.00000E+00  9.000E+00
#rwgt            1           9 -0.10110219947332601                7     1941259           0
</event>
<event>
      6   9999  3.45752E-01  2.10974E+01 -1.00000E+00  1.58460E-01
      21    -1     0     0   501   502  0.000000000E+00  0.000000000E+00  4.381865399E+01  4.381865399E+01  0.000000000E+00  0.00000E+00  9.000E+00
      21    -1     0     0   512   503  0.000000000E+00  0.000000000E+00 -2.175309750E+03  2.175309750E+03  0.000000000E+00  0.00000E+00  9.000E+00
      25     1     1     2     0     0 -7.003453688E+01  3.982435863E+01 -7.602927215E+02  7.747009031E+02  1.250026036E+02  0.00000E+00  9.000E+00
       5     1     1     2   501     0  3.358886620E-01 -2.797759036E+00  3.332925344E+01  3.378375218E+01  4.750000000E+00  0.00000E+00  9.000E+00
      -5     1     1     2     0   503  7.293602850E+01 -1.617908346E+01 -4.738320601E+02  4.797090896E+02  4.750000000E+00  0.00000E+00  9.000E+00
      21     1     1     2   512   502 -3.237380280E+00 -2.084751614E+01 -9.306955675E+02  9.309346588E+02  1.078959322E-05  0.00000E+00  9.000E+00
#rwgt            1           9   1.8278407143692624E-004           7     1947419           0
</event>
<event>
      6   9999  3.45752E-01  4.58057E+00 -1.00000E+00  2.36266E-01
      -1    -1     0     0     0   502  0.000000000E+00  0.000000000E+00  3.896271890E+01  3.896271890E+01  0.000000000E+00  0.00000E+00  9.000E+00
      21    -1     0     0   502   503  0.000000000E+00  0.000000000E+00 -1.054728367E+03  1.054728367E+03  0.000000000E+00  0.00000E+00  9.000E+00
      25     1     1     2     0     0  3.515606058E+01  2.336675531E+01 -5.644230382E+02  5.796544579E+02  1.250758596E+02  0.00000E+00  9.000E+00
       5     1     1     2   501     0 -3.532062367E+00  2.422828618E+00  1.342602405E+01  1.487165710E+01  4.750000000E+00  0.00000E+00  9.000E+00
      -5     1     1     2     0   503 -3.603612954E+01 -2.455884263E+01 -4.806441767E+02  4.826418201E+02  4.750000000E+00  0.00000E+00  9.000E+00
      -1     1     1     2     0   501  4.412131331E+00 -1.230741302E+00  1.587554319E+01  1.652315039E+01  3.769728732E-07  0.00000E+00  9.000E+00
#rwgt            1           9   9.4079646793813703E-005           7     1950309           0
</event>
<event>
      6   9999  3.45752E-01  2.22951E+01 -1.00000E+00  1.56691E-01
      21    -1     0     0   502   503  0.000000000E+00  0.000000000E+00  5.421409249E+01  5.421409249E+01  0.000000000E+00  0.00000E+00  9.000E+00
      21    -1     0     0   501   511  0.000000000E+00  0.000000000E+00 -1.457595137E+03  1.457595137E+03  0.000000000E+00  0.00000E+00  9.000E+00
      25     1     1     2     0     0  1.163442185E+02 -5.502198538E+00 -1.138548522E+02  2.053144155E+02  1.249993220E+02  0.00000E+00  9.000E+00
       5     1     1     2   501     0 -1.259670577E+02 -1.142663562E+01 -1.069918379E+03  1.077379306E+03  4.750000000E+00  0.00000E+00  9.000E+00
      -5     1     1     2     0   503  3.191775442E+01  1.683407733E+01 -8.201676331E+01  8.972982319E+01  4.750000000E+00  0.00000E+00  9.000E+00
      21     1     1     2   502   511 -2.229491519E+01  9.475682473E-02 -1.375910501E+02  1.393856854E+02  1.907348633E-06  0.00000E+00  9.000E+00
#rwgt            1           9   2.5837250199605681                7     1955670           0
</event>
<event>
      6   9999  3.45752E-01  1.37480E+01 -1.00000E+00  1.73718E-01
      21    -1     0     0   501   502  0.000000000E+00  0.000000000E+00  1.498316549E+01  1.498316549E+01  0.000000000E+00  0.00000E+00  9.000E+00
      21    -1     0     0   502   512  0.000000000E+00  0.000000000E+00 -1.061424051E+03  1.061424051E+03  0.000000000E+00  0.00000E+00  9.000E+00
      25     1     1     2     0     0 -1.180519959E+01 -1.037994008E+01 -4.050289664E+02  4.241706281E+02  1.250006090E+02  0.00000E+00  9.000E+00
       5     1     1     2   501     0 -3.871867255E+00  1.776489686E+00  2.913432931E+00  7.014118839E+00  4.750000000E+00  0.00000E+00  9.000E+00
      -5     1     1     2     0   503  4.444674360E+00  1.653075761E+01 -4.779631231E+02  4.782931429E+02  4.750000000E+00  0.00000E+00  9.000E+00
      21     1     1     2   503   512  1.123239249E+01 -7.927307222E+00 -1.663622285E+02  1.669293261E+02  1.907348633E-06  0.00000E+00  9.000E+00
#rwgt            1           9   1.3254049544357909E-003           7     1957858           0
</event>
<event>
      6   9999  3.45752E-01  1.17348E+01 -1.00000E+00  1.80161E-01
      21    -1     0     0   501   502  0.000000000E+00  0.000000000E+00  9.817582748E+01  9.817582748E+01  0.000000000E+00  0.00000E+00  9.000E+00
      21    -1     0     0   502   511  0.000000000E+00  0.000000000E+00 -3.182053434E+02  3.182053434E+02  0.000000000E+00  0.00000E+00  9.000E+00
      25     1     1     2     0     0 -4.420583085E+01  4.155738500E+01 -9.618264229E+01  1.689895524E+02  1.250007857E+02  0.00000E+00  9.000E+00
       5     1     1     2   501     0 -1.030165464E-01  1.122074249E+00  3.785073669E+01  3.816425593E+01  4.750000000E+00  0.00000E+00  9.000E+00
      -5     1     1     2     0   503  3.262056723E+01 -4.372320714E+01 -8.301662314E+00  5.538321358E+01  4.750000000E+00  0.00000E+00  9.000E+00
      21     1     1     2   503   511  1.168828017E+01  1.043747889E+00 -1.533959480E+02  1.538441490E+02  2.697398305E-06  0.00000E+00  9.000E+00
#rwgt            1           9   7.5648515603716326E-002           7     1959871           0
</event>
<event>
      6   9999  3.45752E-01  2.86245E+00 -1.00000E+00  2.82354E-01
      21    -1     0     0   502   503  0.000000000E+00  0.000000000E+00  6.211443162E+00  6.211443162E+00  0.000000000E+00  0.00000E+00  9.000E+00
      21    -1     0     0   512   502  0.000000000E+00  0.000000000E+00 -9.101797045E+02  9.101797045E+02  0.000000000E+00  0.00000E+00  9.000E+00
      25     1     1     2     0     0  1.289793916E-01  4.986554333E+00 -7.033332631E+02  7.143718930E+02  1.249985606E+02  0.00000E+00  9.000E+00
       5     1     1     2   501     0  2.066864268E-01  2.928488957E-01 -1.075884616E+01  1.176621224E+01  4.750000000E+00  0.00000E+00  9.000E+00
      -5     1     1     2     0   503 -1.108791331E-01 -2.425795263E+00 -4.054436307E+01  4.089382170E+01  4.750000000E+00  0.00000E+00  9.000E+00
      21     1     1     2   512   501 -2.247866853E-01 -2.853607965E+00 -1.493317890E+02  1.493592207E+02  1.907348633E-06  0.00000E+00  9.000E+00
#rwgt            1           9  0.34121400825723769                7     1962697           0
</event>
<event>
      6   9999  3.45752E-01  1.15171E+01 -1.00000E+00  1.80956E-01
      21    -1     0     0   511   502  0.000000000E+00  0.000000000E+00  1.880872757E+01  1.880872757E+01  0.000000000E+00  0.00000E+00  9.000E+00
      21    -1     0     0   502   503  0.000000000E+00  0.000000000E+00 -7.501134372E+02  7.501134372E+02  0.000000000E+00  0.00000E+00  9.000E+00
      25     1     1     2     0     0 -3.606465030E+00 -8.592495759E+00 -6.593505898E+02  6.711592428E+02  1.249987651E+02  0.00000E+00  9.000E+00
       5     1     1     2   501     0  4.423239573E-01 -3.008886861E-01 -3.695467830E+00  6.041950593E+00  4.750000000E+00  0.00000E+00  9.000E+00
      -5     1     1     2     0   503  1.464874990E+01  9.757726421E+00 -7.579538028E+01  7.795704760E+01  4.750000000E+00  0.00000E+00  9.000E+00
      21     1     1     2   511   501 -1.148460882E+01 -8.643419759E-01  7.536728269E+00  1.376392386E+01  8.800520337E-07  0.00000E+00  9.000E+00
#rwgt            1           9   9.4662088952917741E-005           7     1967607           0
</event>
<event>
      6   9999  3.45752E-01  1.44970E+01 -1.00000E+00  1.71665E-01
      21    -1     0     0   512   502  0.000000000E+00  0.000000000E+00  1.049827296E+01  1.049827296E+01  0.000000000E+00  0.00000E+00  9.000E+00
      21    -1     0     0   502   503  0.000000000E+00  0.000000000E+00 -7.804481311E+02  7.804481311E+02  0.000000000E+00  0.00000E+00  9.000E+00
      25     1     1     2     0     0  5.313135406E+00 -1.032005151E+01 -6.048853536E+02  6.177746063E+02  1.249977612E+02  0.00000E+00  9.000E+00
       5     1     1     2   501     0  2.037757449E+00 -3.678921092E-01  6.785941069E-01  5.225972635E+00  4.750000000E+00  0.00000E+00  9.000E+00
      -5     1     1     2     0   503  2.765574937E+00  3.043257072E-01 -1.160707368E+02  1.162012025E+02  4.750000000E+00  0.00000E+00  9.000E+00
      21     1     1     2   512   501 -1.011646779E+01  1.038361791E+01 -4.967236183E+01  5.174462263E+01  1.168007728E-06  0.00000E+00  9.000E+00
#rwgt            1           9   9.2415522742730297E-003           7     1970978           0
</event>
<event>
      6   9999  3.45752E-01  1.62145E+01 -1.00000E+00  1.67492E-01
      21    -1     0     0   501   502  0.000000000E+00  0.000000000E+00  3.944853415E+01  3.944853415E+01  0.000000000E+00  0.00000E+00  9.000E+00
      21    -1     0     0   511   503  0.000000000E+00  0.000000000E+00 -1.391823559E+03  1.391823559E+03  0.000000000E+00  0.00000E+00  9.000E+00
      25     1     1     2     0     0 -5.325592349E+01  5.387032476E+01 -5.740203202E+02  5.923364864E+02  1.249999194E+02  0.00000E+00  9.000E+00
       5     1     1     2   501     0  3.314214761E-01 -2.269719010E+00  2.732830145E+01  2.783271501E+01  4.750000000E+00  0.00000E+00  9.000E+00
      -5     1     1     2     0   503  6.250092217E+01 -3.851615066E+01 -5.488760813E+02  5.537845919E+02  4.750000000E+00  0.00000E+00  9.000E+00
      21     1     1     2   511   502 -9.576420158E+00 -1.308445509E+01 -2.568069250E+02  2.573183000E+02  3.814697266E-06  0.00000E+00  9.000E+00
#rwgt            1           9   1.6248701524639088E-004           7     1972600           0
</event>
<event>
      6   9999  3.45752E-01  7.33691E+00 -1.00000E+00  2.02571E-01
      21    -1     0     0   501   512  0.000000000E+00  0.000000000E+00  2.168773879E+01  2.168773879E+01  0.000000000E+00  0.00000E+00  9.000E+00
      21    -1     0     0   502   503  0.000000000E+00  0.000000000E+00 -7.385842214E+02  7.385842214E+02  0.000000000E+00  0.00000E+00  9.000E+00
      25     1     1     2     0     0 -4.238902217E+00 -4.106982312E+00 -7.021319421E+02  7.131971293E+02  1.250041822E+02  0.00000E+00  9.000E+00
       5     1     1     2   501     0 -2.147155344E-01  5.862128862E-01 -6.518137266E-01  4.834988050E+00  4.750000000E+00  0.00000E+00  9.000E+00
      -5     1     1     2     0   503  1.076205220E+01  7.266944789E+00 -2.531711301E+01  2.884699231E+01  4.750000000E+00  0.00000E+00  9.000E+00
      21     1     1     2   502   512 -6.308434449E+00 -3.746175363E+00  1.120438620E+01  1.339285053E+01  6.951036328E-07  0.00000E+00  9.000E+00
#rwgt            1           9   1.7323144990938272E-005           7     1975011           0
</event>
<event>
      6   9999  3.45752E-01  1.57400E+01 -1.00000E+00  1.68579E-01
      21    -1     0     0   501   511  0.000000000E+00  0.000000000E+00  4.944316303E+02  4.944316303E+02  0.000000000E+00  0.00000E+00  9.000E+00
      21    -1     0     0   502   503  0.000000000E+00  0.000000000E+00 -4.760419944E+02  4.760419944E+02  0.000000000E+00  0.00000E+00  9.000E+00
      25     1     1     2     0     0 -2.630695624E+01  2.057468190E+01 -4.515747478E+02  4.697444718E+02  1.249989699E+02  0.00000E+00  9.000E+00
       5     1     1     2   501     0  1.209361789E+00 -8.660664730E+00  2.034418816E+02  2.036851279E+02  4.750000000E+00  0.00000E+00  9.000E+00
      -5     1     1     2     0   503  1.475020033E+01 -5.317735795E-02 -1.104562983E+01  1.902996784E+01  4.750000000E+00  0.00000E+00  9.000E+00
      21     1     1     2   502   511  1.034739412E+01 -1.186083981E+01  2.775681320E+02  2.780140572E+02  0.000000000E+00  0.00000E+00  9.000E+00
#rwgt            1           9   1.9499241820240674E-002           7     1978212           0
</event>
<event>
      6   9999  3.45752E-01  1.78879E+01 -1.00000E+00  1.64000E-01
      21    -1     0     0   512   502  0.000000000E+00  0.000000000E+00  7.126087957E+01  7.126087957E+01  0.000000000E+00  0.00000E+00  9.000E+00
      21    -1     0     0   502   503  0.000000000E+00  0.000000000E+00 -1.471062183E+03  1.471062183E+03  0.000000000E+00  0.00000E+00  9.000E+00
      25     1     1     2     0     0  1.026965966E+02  1.851157865E+02 -7.436107333E+02  7.831763970E+02  1.248755413E+02  0.00000E+00  9.000E+00
       5     1     1     2   501     0 -9.213640151E+01 -1.019406658E+02 -6.366760237E+01  1.515161441E+02  4.750000000E+00  0.00000E+00  9.000E+00
      -5     1     1     2     0   503  7.307720613E-01 -6.930103050E+01 -5.834541947E+02  5.875751242E+02  4.750000000E+00  0.00000E+00  9.000E+00
      21     1     1     2   512   501 -1.129096717E+01 -1.387409019E+01 -9.068773335E+00  2.005539748E+01  2.384185791E-07  0.00000E+00  9.000E+00
#rwgt            1           9   1.8397645195986249E-002           7     1981889           0
</event>
<event>
      6   9999  3.45752E-01  2.97557E+00 -1.00000E+00  2.77844E-01
      21    -1     0     0   501   502  0.000000000E+00  0.000000000E+00  5.680191297E+01  5.680191297E+01  0.000000000E+00  0.00000E+00  9.000E+00
      21    -1     0     0   511   503  0.000000000E+00  0.000000000E+00 -1.556913718E+03  1.556913718E+03  0.000000000E+00  0.00000E+00  9.000E+00
      25     1     1     2     0     0 -4.266026185E+00 -1.946328130E+01 -3.150518257E+02  3.395288569E+02  1.250006939E+02  0.00000E+00  9.000E+00
       5     1     1     2   501     0  7.982285881E+00 -8.200281015E-01  4.398245952E+01  4.496007762E+01  4.750000000E+00  0.00000E+00  9.000E+00
      -5     1     1     2     0   503 -3.598687558E+00  1.731006494E+01 -1.057877587E+03  1.058035982E+03  4.750000000E+00  0.00000E+00  9.000E+00
      21     1     1     2   511   502 -1.175721374E-01  2.973244462E+00 -1.711648523E+02  1.711907143E+02  0.000000000E+00  0.00000E+00  9.000E+00
#rwgt            1           9   6.6460158740976115E-004           7     1984831           0
</event>
<event>
      6   9999  3.45752E-01  8.40680E+01 -1.00000E+00  1.23727E-01
       1    -1     0     0   502     0  0.000000000E+00  0.000000000E+00  1.731232453E+03  1.731232453E+03  0.000000000E+00  0.00000E+00  9.000E+00
      21    -1     0     0   501   502  0.000000000E+00  0.000000000E+00 -1.063372990E+03  1.063372990E+03  0.000000000E+00  0.00000E+00  9.000E+00
      25     1     1     2     0     0 -2.755308203E+01  1.191240440E+02 -5.216421961E+02  5.501641139E+02  1.249810439E+02  0.00000E+00  9.000E+00
       5     1     1     2   501     0  2.681462457E+01 -7.220470716E+00 -8.296071787E+01  8.761394009E+01  4.750000000E+00  0.00000E+00  9.000E+00
      -5     1     1     2     0   503  7.729782581E+01 -7.717462816E+01 -4.343739133E+02  4.479220202E+02  4.750000000E+00  0.00000E+00  9.000E+00
       1     1     1     2   503     0 -7.655936835E+01 -3.472894514E+01  1.706836291E+03  1.708905369E+03  0.000000000E+00  0.00000E+00  9.000E+00
#rwgt            1           9   7.4270939206365514E-003           7     1993843           0
</event>
<event>
      6   9999  3.45752E-01  2.11697E+01 -1.00000E+00  1.58349E-01
      -2    -1     0     0     0   502  0.000000000E+00  0.000000000E+00  1.072378791E+02  1.072378791E+02  0.000000000E+00  0.00000E+00  9.000E+00
      21    -1     0     0   502   503  0.000000000E+00  0.000000000E+00 -1.143629533E+03  1.143629533E+03  0.000000000E+00  0.00000E+00  9.000E+00
      25     1     1     2     0     0  1.187174803E+01 -1.374863162E+02 -7.808747177E+02  8.027701182E+02  1.250244475E+02  0.00000E+00  9.000E+00
       5     1     1     2   501     0 -2.927657217E+01  1.686408135E+02 -2.479936688E+02  3.013640057E+02  4.750000000E+00  0.00000E+00  9.000E+00
      -5     1     1     2     0   503  3.524022189E+00 -1.517073608E+01 -7.462012715E+01  7.637601614E+01  4.750000000E+00  0.00000E+00  9.000E+00
      -2     1     1     2     0   501  1.388080196E+01 -1.598376121E+01  6.709685923E+01  7.035727258E+01  1.907348633E-06  0.00000E+00  9.000E+00
#rwgt            1           9   3.0142876090442864E-003           7     1995151           0
</event>
<event>
      6   9999  3.45752E-01  2.77213E+00 -1.00000E+00  2.86203E-01
      21    -1     0     0   501   502  0.000000000E+00  0.000000000E+00  2.415894477E+02  2.415894477E+02  0.000000000E+00  0.00000E+00  9.000E+00
      21    -1     0     0   502   511  0.000000000E+00  0.000000000E+00 -6.999789126E+01  6.999789126E+01  0.000000000E+00  0.00000E+00  9.000E+00
      25     1     1     2     0     0 -8.570156248E-01 -9.704549657E-02  1.077626914E+02  1.650421988E+02  1.250015433E+02  0.00000E+00  9.000E+00
       5     1     1     2   501     0 -1.377815161E+00  1.378818994E+00  9.673917545E+01  9.687533269E+01  4.750000000E+00  0.00000E+00  9.000E+00
      -5     1     1     2     0   503 -4.548045806E-01 -1.953014043E+00  7.534696263E+00  9.129910122E+00  4.750000000E+00  0.00000E+00  9.000E+00
      21     1     1     2   503   511  2.689635367E+00  6.712405462E-01 -4.044500676E+01  4.053989731E+01  0.000000000E+00  0.00000E+00  9.000E+00
#rwgt            1           9  0.15078651939431365                7     1997050           0
</event>
<event>
      6   9999 -3.45752E-01  1.22432E+01 -1.00000E+00  1.78387E-01
      21    -1     0     0   501   502  0.000000000E+00  0.000000000E+00  2.081490803E+01  2.081490803E+01  0.000000000E+00  0.00000E+00  9.000E+00
      21    -1     0     0   512   503  0.000000000E+00  0.000000000E+00 -1.176241092E+03  1.176241092E+03  0.000000000E+00  0.00000E+00  9.000E+00
      25     1     1     2     0     0  6.011576151E+01 -4.407875924E+01 -4.617635609E+02  4.841559410E+02  1.249981888E+02  0.00000E+00  9.000E+00
       5     1     1     2   501     0  2.144699229E+00 -5.867001813E-01  6.480453901E+00  8.336830012E+00  4.750000000E+00  0.00000E+00  9.000E+00
      -5     1     1     2     0   503 -5.123993869E+01  3.933205436E+01 -5.225770602E+02  5.265756243E+02  4.750000000E+00  0.00000E+00  9.000E+00
      21     1     1     2   512   502 -1.102052205E+01  5.333405061E+00 -1.775660168E+02  1.779876048E+02  2.697398305E-06  0.00000E+00  9.000E+00
#rwgt            1           9  -2.5930467922647934E-004           7     2003176           0
</event>
<event>
      6   9999 -3.45752E-01  1.36439E+01 -1.00000E+00  1.74017E-01
      21    -1     0     0   501   502  0.000000000E+00  0.000000000E+00  1.009234333E+01  1.009234333E+01  0.000000000E+00  0.00000E+00  9.000E+00
      21    -1     0     0   502   511  0.000000000E+00  0.000000000E+00 -9.709592945E+02  9.709592945E+02  0.000000000E+00  0.00000E+00  9.000E+00
      25     1     1     2     0     0 -9.521005419E+00 -1.364856744E+00 -4.873210774E+02  5.031898941E+02  1.250028986E+02  0.00000E+00  9.000E+00
       5     1     1     2   501     0 -1.004108058E+00 -1.735533984E-01 -1.329112341E+00  5.036605344E+00  4.750000000E+00  0.00000E+00  9.000E+00
      -5     1     1     2     0   503  1.432948509E+00 -8.634532682E+00 -2.415704397E+02  2.417756157E+02  4.750000000E+00  0.00000E+00  9.000E+00
      21     1     1     2   503   511  9.092164968E+00  1.017294282E+01 -2.306463217E+02  2.310495227E+02  0.000000000E+00  0.00000E+00  9.000E+00
#rwgt            1           9  -7.0898130401721767E-003           7     2005627           0
</event>
<event>
      6   9999  3.45752E-01  8.63751E+00 -1.00000E+00  1.94153E-01
      21    -1     0     0   501   502  0.000000000E+00  0.000000000E+00  7.079351960E+00  7.079351960E+00  0.000000000E+00  0.00000E+00  9.000E+00
      21    -1     0     0   512   503  0.000000000E+00  0.000000000E+00 -9.632044761E+02  9.632044761E+02  0.000000000E+00  0.00000E+00  9.000E+00
      25     1     1     2     0     0  5.485373379E+00 -6.850499441E+00 -7.765287161E+02  7.865822171E+02  1.250508643E+02  0.00000E+00  9.000E+00
       5     1     1     2   501     0  5.795226392E-01 -1.370164047E-01 -2.266608111E+00  5.296662375E+00  4.750000000E+00  0.00000E+00  9.000E+00
      -5     1     1     2     0   503 -6.438254866E-01  2.630439897E-01 -1.316328286E+01  1.401136036E+01  4.750000000E+00  0.00000E+00  9.000E+00
      21     1     1     2   512   502 -5.421070532E+00  6.724471856E+00 -1.641665171E+02  1.643935883E+02  2.697398305E-06  0.00000E+00  9.000E+00
#rwgt            1           9   6.7433319553785150E-003           7     2007481           0
</event>
<event>
      6   9999  3.45752E-01  8.93328E+00 -1.00000E+00  1.92506E-01
      21    -1     0     0   511   503  0.000000000E+00  0.000000000E+00  1.185680148E+02  1.185680148E+02  0.000000000E+00  0.00000E+00  9.000E+00
      21    -1     0     0   501   502  0.000000000E+00  0.000000000E+00 -3.446353130E+02  3.446353130E+02  0.000000000E+00  0.00000E+00  9.000E+00
      25     1     1     2     0     0 -3.376879395E+01  1.547740454E+01 -2.533498556E+02  2.849399028E+02  1.249988695E+02  0.00000E+00  9.000E+00
       5     1     1     2   501     0  3.041158134E+01 -2.421536486E+01 -5.451582662E+01  6.712515197E+01  4.750000000E+00  0.00000E+00  9.000E+00
      -5     1     1     2     0   503 -3.131275792E+00  2.597687197E+00 -1.378548183E+01  1.513786234E+01  4.750000000E+00  0.00000E+00  9.000E+00
      21     1     1     2   511   502  6.488488403E+00  6.140273118E+00  9.558386584E+01  9.600041065E+01  1.907348633E-06  0.00000E+00  9.000E+00
#rwgt            1           9   31.171879978028198                7     2010066           0
</event>
<event>
      6   9999  3.45752E-01  4.37768E+00 -1.00000E+00  2.40009E-01
      21    -1     0     0   501   502  0.000000000E+00  0.000000000E+00  3.033090982E+02  3.033090982E+02  0.000000000E+00  0.00000E+00  9.000E+00
      21    -1     0     0   512   503  0.000000000E+00  0.000000000E+00 -3.568855118E+02  3.568855118E+02  0.000000000E+00  0.00000E+00  9.000E+00
      25     1     1     2     0     0  9.904198714E+00 -7.535378497E+01 -1.997649609E+02  2.475995906E+02  1.249929261E+02  0.00000E+00  9.000E+00
       5     1     1     2   501     0 -8.571318719E-01  1.609148269E+00  2.689081807E+02  2.689563090E+02  4.750000000E+00  0.00000E+00  9.000E+00
      -5     1     1     2     0   503 -9.736041806E+00  6.942150984E+01 -1.150740828E+02  1.348285710E+02  4.750000000E+00  0.00000E+00  9.000E+00
      21     1     1     2   512   502  6.889749638E-01  4.323126855E+00 -7.645550557E+00  8.810139365E+00  1.192092896E-07  0.00000E+00  9.000E+00
#rwgt            1           9   362.05526696878178                7     2013318           0
</event>
<event>
      6   9999  3.45752E-01  2.03979E+01 -1.00000E+00  1.59560E-01
      21    -1     0     0   501   502  0.000000000E+00  0.000000000E+00  2.144663315E+02  2.144663315E+02  0.000000000E+00  0.00000E+00  9.000E+00
      21    -1     0     0   502   511  0.000000000E+00  0.000000000E+00 -7.967955255E+02  7.967955255E+02  0.000000000E+00  0.00000E+00  9.000E+00
      25     1     1     2     0     0  2.723308851E+02 -1.144447988E+02 -1.817049543E+02  3.686518051E+02  1.250029601E+02  0.00000E+00  9.000E+00
       5     1     1     2   501     0  5.995211626E+00  2.406845823E+00  7.758464855E+01  7.799792087E+01  4.750000000E+00  0.00000E+00  9.000E+00
      -5     1     1     2     0   503 -2.602166730E+02  1.026504549E+02 -4.452147174E+02  5.258217758E+02  4.750000000E+00  0.00000E+00  9.000E+00
      21     1     1     2   503   511 -1.810942377E+01  9.387498086E+00 -3.299417081E+01  3.879035521E+01  6.743495762E-07  0.00000E+00  9.000E+00
#rwgt            1           9   3.3702065185295345                7     2020295           0
</event>
<event>
      6   9999 -3.45752E-01  5.37608E+00 -1.00000E+00  2.20923E-01
      21    -1     0     0   512   502  0.000000000E+00  0.000000000E+00  1.540133413E+01  1.540133413E+01  0.000000000E+00  0.00000E+00  9.000E+00
      21    -1     0     0   502   503  0.000000000E+00  0.000000000E+00 -3.434504114E+03  3.434504114E+03  0.000000000E+00  0.00000E+00  9.000E+00
      25     1     1     2     0     0  2.413642454E+01 -1.164835313E+02 -1.604406081E+03  1.613658545E+03  1.249961948E+02  0.00000E+00  9.000E+00
       5     1     1     2   501     0 -4.103922192E+00 -5.331311098E+00  5.375265985E+00  9.834685546E+00  4.750000000E+00  0.00000E+00  9.000E+00
      -5     1     1     2     0   503 -1.809325412E+01  1.168007022E+02 -1.815515531E+03  1.819364992E+03  4.750000000E+00  0.00000E+00  9.000E+00
      21     1     1     2   512   501 -1.939248231E+00  5.014140153E+00 -4.556433760E+00  7.047224545E+00  3.526258339E-07  0.00000E+00  9.000E+00
#rwgt            1           9  -1.6834597604872537E-002           7     2023223           0
</event>
<event>
      6   9999  3.45752E-01  4.60520E+00 -1.00000E+00  2.35830E-01
      21    -1     0     0   511   502  0.000000000E+00  0.000000000E+00  1.475155489E+02  1.475155489E+02  0.000000000E+00  0.00000E+00  9.000E+00
      21    -1     0     0   502   503  0.000000000E+00  0.000000000E+00 -2.500372002E+02  2.500372002E+02  0.000000000E+00  0.00000E+00  9.000E+00
      25     1     1     2     0     0  3.429900501E+00 -9.085292033E+00 -2.132413085E+02  2.473695237E+02  1.250020754E+02  0.00000E+00  9.000E+00
       5     1     1     2   501     0  1.845107020E+00  5.515765307E+00  8.649634817E+01  8.682170715E+01  4.750000000E+00  0.00000E+00  9.000E+00
      -5     1     1     2     0   503 -2.283895765E+00  6.793364231E-02 -1.908987227E+01  1.980420455E+01  4.750000000E+00  0.00000E+00  9.000E+00
      21     1     1     2   511   501 -2.991111756E+00  3.501593084E+00  4.331318135E+01  4.355731377E+01  8.259061849E-07  0.00000E+00  9.000E+00
#rwgt            1           9   1.1742919328123644E-004           7     2028662           0
</event>
<event>
      6   9999  3.45752E-01  7.02537E+00 -1.00000E+00  2.04938E-01
      21    -1     0     0   501   512  0.000000000E+00  0.000000000E+00  1.381175744E+01  1.381175744E+01  0.000000000E+00  0.00000E+00  9.000E+00
      21    -1     0     0   502   503  0.000000000E+00  0.000000000E+00 -1.302275231E+03  1.302275231E+03  0.000000000E+00  0.00000E+00  9.000E+00
      25     1     1     2     0     0 -5.383769418E+00 -1.555444556E+01 -1.220335406E+03  1.226831077E+03  1.250002507E+02  0.00000E+00  9.000E+00
       5     1     1     2   501     0 -1.277987452E+00  1.022339637E+00  6.744689810E+00  8.410218243E+00  4.750000000E+00  0.00000E+00  9.000E+00
      -5     1     1     2     0   503  1.024665950E+01  2.057398824E+01 -5.801206482E+01  6.257991041E+01  4.750000000E+00  0.00000E+00  9.000E+00
      21     1     1     2   502   512 -3.584902632E+00 -6.041882313E+00 -1.686069339E+01  1.826578359E+01  2.384185791E-07  0.00000E+00  9.000E+00
#rwgt            1           9   3.8104209060179224E-004           7     2034307           0
</event>
<event>
      6   9999  3.45752E-01  1.48266E+01 -1.00000E+00  1.70810E-01
      21    -1     0     0   501   511  0.000000000E+00  0.000000000E+00  2.866938851E+00  2.866938851E+00  0.000000000E+00  0.00000E+00  9.000E+00
      21    -1     0     0   502   503  0.000000000E+00  0.000000000E+00 -2.720783664E+03  2.720783664E+03  0.000000000E+00  0.00000E+00  9.000E+00
      25     1     1     2     0     0 -6.666944686E+00 -1.179659825E+01 -2.486830571E+03  2.490007027E+03  1.250003734E+02  0.00000E+00  9.000E+00
       5     1     1     2   501     0 -9.146136130E-01 -9.252829261E-01 -9.741995776E+00  1.091611874E+01  4.750000000E+00  0.00000E+00  9.000E+00
      -5     1     1     2     0   503 -2.189318516E+00  1.570336164E+00 -1.356684774E+02  1.357783390E+02  4.750000000E+00  0.00000E+00  9.000E+00
      21     1     1     2   502   511  9.770876814E+00  1.115154501E+01 -8.567568021E+01  8.694911828E+01  0.000000000E+00  0.00000E+00  9.000E+00
#rwgt            1           9   3.9813583205271586E-003           7     2038368           0
</event>
<event>
      6   9999  3.45752E-01  1.14088E+01 -1.00000E+00  1.81359E-01
      21    -1     0     0   501   512  0.000000000E+00  0.000000000E+00  2.502474902E+02  2.502474902E+02  0.000000000E+00  0.00000E+00  9.000E+00
      21    -1     0     0   502   503  0.000000000E+00  0.000000000E+00 -8.035260025E+02  8.035260025E+02  0.000000000E+00  0.00000E+00  9.000E+00
      25     1     1     2     0     0  1.087736586E+00  1.419056515E+01 -7.808233598E+02  7.908940598E+02  1.250029571E+02  0.00000E+00  9.000E+00
       5     1     1     2   501     0 -1.584468434E-01  8.775163677E-01  2.739461636E+00  5.555383914E+00  4.750000000E+00  0.00000E+00  9.000E+00
      -5     1     1     2     0   503 -6.228663840E-01 -3.663422351E+00 -1.556010306E+01  1.668795773E+01  4.750000000E+00  0.00000E+00  9.000E+00
      21     1     1     2   502   512 -3.064233590E-01 -1.140465917E+01  2.403654889E+02  2.406360913E+02  3.814697266E-06  0.00000E+00  9.000E+00
#rwgt            1           9   1.4895211301228905E-004           7     2039910           0
</event>
<event>
      6   9999  3.45752E-01  8.89930E+00 -1.00000E+00  1.92691E-01
      21    -1     0     0   501   511  0.000000000E+00  0.000000000E+00  6.373183897E+01  6.373183897E+01  0.000000000E+00  0.00000E+00  9.000E+00
      21    -1     0     0   502   503  0.000000000E+00  0.000000000E+00 -1.691610600E+02  1.691610600E+02  0.000000000E+00  0.00000E+00  9.000E+00
      25     1     1     2     0     0 -2.628994507E+00 -5.626595594E+00 -1.126341914E+02  1.683740354E+02  1.249991382E+02  0.00000E+00  9.000E+00
       5     1     1     2   501     0  8.362622002E-01 -2.071481225E+00  9.420208963E+00  1.078393276E+01  4.750000000E+00  0.00000E+00  9.000E+00
      -5     1     1     2     0   503  6.073891410E+00 -1.037974548E-01 -2.664303997E+01  2.773656449E+01  4.750000000E+00  0.00000E+00  9.000E+00
      21     1     1     2   502   511 -4.281159104E+00  7.801874273E+00  2.442780143E+01  2.599836626E+01  4.768371582E-07  0.00000E+00  9.000E+00
#rwgt            1           9   4.4746427983928560E-004           7     2042732           0
</event>
<event>
      6   9999  3.45752E-01  6.37292E+00 -1.00000E+00  2.10474E-01
      21    -1     0     0   501   502  0.000000000E+00  0.000000000E+00  3.303658559E+01  3.303658559E+01  0.000000000E+00  0.00000E+00  9.000E+00
      21    -1     0     0   502   512  0.000000000E+00  0.000000000E+00 -1.211470898E+03  1.211470898E+03  0.000000000E+00  0.00000E+00  9.000E+00
      25     1     1     2     0     0  8.696679798E+00 -1.973572398E+01 -4.072829087E+02  4.265788980E+02  1.250002298E+02  0.00000E+00  9.000E+00
       5     1     1     2   501     0  5.233571354E+00  4.735107705E-01  2.238463021E+01  2.347868504E+01  4.750000000E+00  0.00000E+00  9.000E+00
      -5     1     1     2     0   503 -1.081332760E+01  2.482089485E+01 -7.437318876E+02  7.442396711E+02  4.750000000E+00  0.00000E+00  9.000E+00
      21     1     1     2   503   512 -3.116923554E+00 -5.558681644E+00 -4.980414643E+01  5.021022960E+01  9.536743164E-07  0.00000E+00  9.000E+00
#rwgt            1           9   3.5396730781477349E-002           7     2046123           0
</event>
<event>
      6   9999  3.45752E-01  6.05011E+01 -1.00000E+00  1.30502E-01
      21    -1     0     0   501   502  0.000000000E+00  0.000000000E+00  3.437667050E+01  3.437667050E+01  0.000000000E+00  0.00000E+00  9.000E+00
       2    -1     0     0   502     0  0.000000000E+00  0.000000000E+00 -3.730063844E+03  3.730063844E+03  0.000000000E+00  0.00000E+00  9.000E+00
      25     1     1     2     0     0 -1.526293390E+02  2.384338238E+02 -1.044442032E+03  1.089325678E+03  1.249994918E+02  0.00000E+00  9.000E+00
       5     1     1     2   501     0  2.732721738E+01  2.206944756E+01 -9.539251131E+01  1.017650777E+02  4.750000000E+00  0.00000E+00  9.000E+00
      -5     1     1     2     0   503  8.381270535E+01 -2.164691265E+02 -1.768397382E+03  1.783573748E+03  4.750000000E+00  0.00000E+00  9.000E+00
       2     1     1     2   503     0  4.148941626E+01 -4.403414489E+01 -7.874552491E+02  7.897760106E+02  0.000000000E+00  0.00000E+00  9.000E+00
#rwgt            1           9   8.4436912751154640                7     2050773           0
</event>
<event>
      6   9999  3.45752E-01  9.48062E+00 -1.00000E+00  1.89667E-01
      21    -1     0     0   502   511  0.000000000E+00  0.000000000E+00  5.728255390E+00  5.728255390E+00  0.000000000E+00  0.00000E+00  9.000E+00
      21    -1     0     0   501   502  0.000000000E+00  0.000000000E+00 -1.250606139E+03  1.250606139E+03  0.000000000E+00  0.00000E+00  9.000E+00
      25     1     1     2     0     0  5.156022159E+00  5.565541712E-01 -1.149731402E+03  1.156518249E+03  1.250010781E+02  0.00000E+00  9.000E+00
       5     1     1     2   501     0 -8.994642472E-01  1.524144477E+00 -1.742811677E+01  1.815031147E+01  4.750000000E+00  0.00000E+00  9.000E+00
      -5     1     1     2     0   503 -6.127877689E+00  7.213399212E+00 -1.576725631E+01  1.899349585E+01  4.750000000E+00  0.00000E+00  9.000E+00
      21     1     1     2   503   511  1.871319776E+00 -9.294097860E+00 -6.195110827E+01  6.267233767E+01  9.536743164E-07  0.00000E+00  9.000E+00
#rwgt            1           9   6.3240384638122283E-004           7     2051885           0
</event>
<event>
      6   9999  3.45752E-01  8.55989E+00 -1.00000E+00  1.94600E-01
      21    -1     0     0   501   512  0.000000000E+00  0.000000000E+00  2.106283199E+01  2.106283199E+01  0.000000000E+00  0.00000E+00  9.000E+00
      21    -1     0     0   502   503  0.000000000E+00  0.000000000E+00 -4.117206255E+03  4.117206255E+03  0.000000000E+00  0.00000E+00  9.000E+00
      25     1     1     2     0     0 -6.610238627E+00 -6.704789162E+00 -3.896358439E+03  3.898374428E+03  1.250018099E+02  0.00000E+00  9.000E+00
       5     1     1     2   501     0  9.910547150E+00 -1.505310858E+00  1.763127196E+01  2.083048623E+01  4.750000000E+00  0.00000E+00  9.000E+00
      -5     1     1     2     0   503 -1.154394351E+01  1.051534483E+01 -1.770259492E+02  1.777767822E+02  4.750000000E+00  0.00000E+00  9.000E+00
      21     1     1     2   502   512  8.243634983E+00 -2.305244807E+00 -4.039030758E+01  4.128739054E+01  4.768371582E-07  0.00000E+00  9.000E+00
#rwgt            1           9   5.3856664450530490E-004           7     2054713           0
</event>
<event>
      6   9999 -3.45752E-01  2.66513E+00 -1.00000E+00  2.91085E-01
      21    -1     0     0   501   502  0.000000000E+00  0.000000000E+00  2.853596833E+00  2.853596833E+00  0.000000000E+00  0.00000E+00  9.000E+00
      21    -1     0     0   511   503  0.000000000E+00  0.000000000E+00 -4.036103412E+03  4.036103412E+03  0.000000000E+00  0.00000E+00  9.000E+00
      25     1     1     2     0     0  4.385692997E-01 -1.089311559E+01 -2.664630793E+03  2.667583400E+03  1.250003236E+02  0.00000E+00  9.000E+00
       5     1     1     2   501     0  1.319086361E+00  5.248765035E-01 -4.369780023E+00  6.608552158E+00  4.750000000E+00  0.00000E+00  9.000E+00
      -5     1     1     2     0   503 -2.595917573E+00  7.838373755E+00 -8.817997822E+01  8.869300959E+01  4.750000000E+00  0.00000E+00  9.000E+00
      21     1     1     2   511   502  8.382619121E-01  2.529865327E+00 -1.276069264E+03  1.276072048E+03  1.525878906E-05  0.00000E+00  9.000E+00
#rwgt            1           9  -9.8125321476467991E-005           7     2059008           0
</event>
<event>
      6   9999  3.45752E-01  2.70206E+01 -1.00000E+00  1.50838E-01
      21    -1     0     0   512   502  0.000000000E+00  0.000000000E+00  9.751182426E+02  9.751182426E+02  0.000000000E+00  0.00000E+00  9.000E+00
      21    -1     0     0   502   503  0.000000000E+00  0.000000000E+00 -8.258547480E+00  8.258547480E+00  0.000000000E+00  0.00000E+00  9.000E+00
      25     1     1     2     0     0 -2.356564695E+01 -6.654061462E+00  5.471604070E+02  5.617912032E+02  1.250009150E+02  0.00000E+00  9.000E+00
       5     1     1     2   501     0 -1.224787770E+00 -5.941574102E-01  6.434834354E+01  6.453777920E+01  4.750000000E+00  0.00000E+00  9.000E+00
      -5     1     1     2     0   503 -9.559212589E-01 -9.518073064E-01  1.964058557E+01  2.025178570E+01  4.750000000E+00  0.00000E+00  9.000E+00
      21     1     1     2   512   501  2.574635598E+01  8.200026178E+00  3.357103590E+02  3.367960220E+02  3.814697266E-06  0.00000E+00  9.000E+00
#rwgt            1           9   2.2295412223155586E-003           7     2064954           0
</event>
<event>
      6   9999  3.45752E-01  6.83158E+00 -1.00000E+00  2.06496E-01
      21    -1     0     0   501   502  0.000000000E+00  0.000000000E+00  1.430852361E+01  1.430852361E+01  0.000000000E+00  0.00000E+00  9.000E+00
      21    -1     0     0   502   511  0.000000000E+00  0.000000000E+00 -9.379935701E+02  9.379935701E+02  0.000000000E+00  0.00000E+00  9.000E+00
      25     1     1     2     0     0 -1.253908892E+01  1.443629923E+01 -8.273732746E+02  8.369811708E+02  1.250012365E+02  0.00000E+00  9.000E+00
       5     1     1     2   501     0  4.915235844E-01 -2.300129062E+00  7.647923735E+00  9.305129048E+00  4.750000000E+00  0.00000E+00  9.000E+00
      -5     1     1     2     0   503  5.233724732E+00 -1.164413939E+01 -5.987061105E+01  6.140057348E+01  4.750000000E+00  0.00000E+00  9.000E+00
      21     1     1     2   503   511  6.813840609E+00 -4.920307816E-01 -4.408908455E+01  4.461522044E+01  4.768371582E-07  0.00000E+00  9.000E+00
#rwgt            1           9   3.5346986751619378E-003           7     2065990           0
</event>
<event>
      6   9999  3.45752E-01  1.17841E+01 -1.00000E+00  1.79984E-01
      21    -1     0     0   502   512  0.000000000E+00  0.000000000E+00  2.023630753E+01  2.023630753E+01  0.000000000E+00  0.00000E+00  9.000E+00
      21    -1     0     0   501   502  0.000000000E+00  0.000000000E+00 -9.916122877E+02  9.916122877E+02  0.000000000E+00  0.00000E+00  9.000E+00
      25     1     1     2     0     0  4.921914785E+01  8.842620724E+01 -6.833660903E+02  7.020363552E+02  1.249964477E+02  0.00000E+00  9.000E+00
       5     1     1     2   501     0 -2.779526524E+01 -2.787252796E+01 -8.826436373E+01  9.676060660E+01  4.750000000E+00  0.00000E+00  9.000E+00
      -5     1     1     2     0   503 -9.639786911E+00 -6.058518578E+01 -1.777438685E+02  1.880928906E+02  4.750000000E+00  0.00000E+00  9.000E+00
      21     1     1     2   503   512 -1.178409569E+01  3.150649081E-02 -2.200165762E+01  2.495874280E+01  2.384185791E-07  0.00000E+00  9.000E+00
#rwgt            1           9   1.1343595180072571E-005           7     2070225           0
</event>
<event>
      6   9999 -3.45752E-01  6.20275E+00 -1.00000E+00  2.12067E-01
       1    -1     0     0   501     0  0.000000000E+00  0.000000000E+00  1.751839037E+02  1.751839037E+02  0.000000000E+00  0.00000E+00  9.000E+00
      21    -1     0     0   502   503  0.000000000E+00  0.000000000E+00 -8.190749447E+02  8.190749447E+02  0.000000000E+00  0.00000E+00  9.000E+00
      25     1     1     2     0     0  6.048789123E+00  2.170732004E+01 -7.351246506E+02  7.460175135E+02  1.250043316E+02  0.00000E+00  9.000E+00
       5     1     1     2   501     0  1.736692176E+00  1.719788687E-01  2.163705552E+00  5.503616825E+00  4.750000000E+00  0.00000E+00  9.000E+00
      -5     1     1     2     0   503 -2.180555512E+00 -2.453616350E+01 -7.472590889E+01  7.882450191E+01  4.750000000E+00  0.00000E+00  9.000E+00
       1     1     1     2   502     0 -5.604925788E+00  2.656864591E+00  1.637958129E+02  1.639132162E+02  4.264961200E-06  0.00000E+00  9.000E+00
#rwgt            1           9  -1.0158529755419946E-004           7     2073400           0
</event>
<event>
      6   9999  3.45752E-01  1.28575E+01 -1.00000E+00  1.76384E-01
      21    -1     0     0   501   502  0.000000000E+00  0.000000000E+00  3.233357613E+01  3.233357613E+01  0.000000000E+00  0.00000E+00  9.000E+00
      21    -1     0     0   502   511  0.000000000E+00  0.000000000E+00 -3.078907985E+03  3.078907985E+03  0.000000000E+00  0.00000E+00  9.000E+00
      25     1     1     2     0     0  4.771739969E+01  1.686487324E+02 -7.548090678E+02  7.849082055E+02  1.249992681E+02  0.00000E+00  9.000E+00
       5     1     1     2   501     0 -1.815696288E+00 -3.586449545E+00  1.333494164E+01  1.471538453E+01  4.750000000E+00  0.00000E+00  9.000E+00
      -5     1     1     2     0   503 -4.076877862E+01 -1.532737630E+02 -2.017371301E+03  2.023601855E+03  4.750000000E+00  0.00000E+00  9.000E+00
      21     1     1     2   503   511 -5.132924779E+00 -1.178851988E+01 -2.877289815E+02  2.880161157E+02  0.000000000E+00  0.00000E+00  9.000E+00
#rwgt            1           9   5.9742838325525299E-003           7     2076772           0
</event>
<event>
      6   9999  3.45752E-01  2.84573E+01 -1.00000E+00  1.49337E-01
      21    -1     0     0   501   502  0.000000000E+00  0.000000000E+00  4.874721444E+02  4.874721444E+02  0.000000000E+00  0.00000E+00  9.000E+00
      21    -1     0     0   512   503  0.000000000E+00  0.000000000E+00 -1.591134100E+03  1.591134100E+03  0.000000000E+00  0.00000E+00  9.000E+00
      25     1     1     2     0     0 -1.820135413E+02  2.022094454E+02 -5.019183712E+02  5.844268136E+02  1.249602342E+02  0.00000E+00  9.000E+00
       5     1     1     2   501     0  2.423677542E+01 -1.233168732E+01  4.312189492E+02  4.321016506E+02  4.750000000E+00  0.00000E+00  9.000E+00
      -5     1     1     2     0   503  1.406376440E+02 -1.671606410E+02 -9.101189242E+02  9.359811139E+02  4.750000000E+00  0.00000E+00  9.000E+00
      21     1     1     2   512   502  1.713912188E+01 -2.271711702E+01 -1.228436095E+02  1.260966665E+02  1.348699152E-06  0.00000E+00  9.000E+00
#rwgt            1           9  0.14696283985145372                7     2080468           0
</event>
<event>
      6   9999  3.45752E-01  1.02741E+01 -1.00000E+00  1.85965E-01
      21    -1     0     0   501   511  0.000000000E+00  0.000000000E+00  1.420877652E+01  1.420877652E+01  0.000000000E+00  0.00000E+00  9.000E+00
      21    -1     0     0   502   503  0.000000000E+00  0.000000000E+00 -8.405753793E+02  8.405753793E+02  0.000000000E+00  0.00000E+00  9.000E+00
      25     1     1     2     0     0  2.348048512E-01  5.152721945E+00 -7.865528988E+02  7.964400065E+02  1.249984625E+02  0.00000E+00  9.000E+00
       5     1     1     2   501     0  5.394006826E-01  4.463693877E+00  4.912571008E+00  8.179937044E+00  4.750000000E+00  0.00000E+00  9.000E+00
      -5     1     1     2     0   503 -1.360278366E+00  6.409125176E-01 -3.693626356E+01  3.727078202E+01  4.750000000E+00  0.00000E+00  9.000E+00
      21     1     1     2   502   511  5.860728317E-01 -1.025732834E+01 -7.790011421E+00  1.289343026E+01  1.460009660E-07  0.00000E+00  9.000E+00
#rwgt            1           9   3.9658842768020571E-005           7     2084693           0
</event>
<event>
      6   9999  3.45752E-01  4.49234E+00 -1.00000E+00  2.37858E-01
      21    -1     0     0   501   502  0.000000000E+00  0.000000000E+00  3.116762506E+03  3.116762506E+03  0.000000000E+00  0.00000E+00  9.000E+00
      21    -1     0     0   512   503  0.000000000E+00  0.000000000E+00 -2.657010831E+00  2.657010831E+00  0.000000000E+00  0.00000E+00  9.000E+00
      25     1     1     2     0     0 -1.476518962E+01 -3.435675251E+00  1.999292918E+03  2.003254087E+03  1.249998105E+02  0.00000E+00  9.000E+00
       5     1     1     2   501     0  9.427603375E-02  2.189475001E-01  9.154498162E+02  9.154621704E+02  4.750000000E+00  0.00000E+00  9.000E+00
      -5     1     1     2     0   503  1.156568229E+01 -2.960177344E-02  1.889442761E+02  1.893575134E+02  4.750000000E+00  0.00000E+00  9.000E+00
      21     1     1     2   512   502  3.105231300E+00  3.246329524E+00  1.041848489E+01  1.134574564E+01  3.769728732E-07  0.00000E+00  9.000E+00
#rwgt            1           9   5.4306160532867458E-003           7     2087204           0
</event>
<event>
      6   9999  3.45752E-01  2.55448E+01 -1.00000E+00  1.52501E-01
      21    -1     0     0   501   502  0.000000000E+00  0.000000000E+00  1.957113073E+02  1.957113073E+02  0.000000000E+00  0.00000E+00  9.000E+00
      21    -1     0     0   502   511  0.000000000E+00  0.000000000E+00 -2.046186826E+03  2.046186826E+03  0.000000000E+00  0.00000E+00  9.000E+00
      25     1     1     2     0     0  1.138377228E+01  4.343546322E+01 -3.788734677E+02  4.014790161E+02  1.249962644E+02  0.00000E+00  9.000E+00
       5     1     1     2   501     0 -8.037433634E+00 -1.203834597E+01  1.675402213E+02  1.682314190E+02  4.750000000E+00  0.00000E+00  9.000E+00
      -5     1     1     2     0   503 -2.835756843E+01 -3.659068341E+01 -1.654530945E+01  4.938967063E+01  4.750000000E+00  0.00000E+00  9.000E+00
      21     1     1     2   503   511  2.501122979E+01  5.193566162E+00 -1.622596962E+03  1.622798027E+03  2.157918644E-05  0.00000E+00  9.000E+00
#rwgt            1           9   3.3672940143901785E-002           7     2091105           0
</event>
<event>
      6   9999 -3.45752E-01  4.60693E+01 -1.00000E+00  1.36718E-01
      21    -1     0     0   502   503  0.000000000E+00  0.000000000E+00  1.159211092E+02  1.159211092E+02  0.000000000E+00  0.00000E+00  9.000E+00
      21    -1     0     0   512   502  0.000000000E+00  0.000000000E+00 -1.916388374E+03  1.916388374E+03  0.000000000E+00  0.00000E+00  9.000E+00
      25     1     1     2     0     0  2.367171702E+02 -3.478308898E+02 -7.098515253E+02  8.345933821E+02  1.250423085E+02  0.00000E+00  9.000E+00
       5     1     1     2   501     0 -1.888831828E+02  2.166939271E+02 -8.498294624E+02  8.971431281E+02  4.750000000E+00  0.00000E+00  9.000E+00
      -5     1     1     2     0   503 -1.597993149E+01  9.785481583E+01 -6.453128878E+01  1.183966762E+02  4.750000000E+00  0.00000E+00  9.000E+00
      21     1     1     2   512   501 -3.185405587E+01  3.328214696E+01 -1.762549883E+02  1.821762967E+02  1.907348633E-06  0.00000E+00  9.000E+00
#rwgt            1           9  -2.0970461486669186E-004           7     2093517           0
</event>
<event>
      6   9999  3.45752E-01  3.11642E+01 -1.00000E+00  1.46776E-01
      21    -1     0     0   501   511  0.000000000E+00  0.000000000E+00  5.947397423E+02  5.947397423E+02  0.000000000E+00  0.00000E+00  9.000E+00
      21    -1     0     0   502   503  0.000000000E+00  0.000000000E+00 -2.066088714E+02  2.066088714E+02  0.000000000E+00  0.00000E+00  9.000E+00
      25     1     1     2     0     0 -3.290001196E+00 -4.581162440E+01 -1.251056648E+02  1.827167930E+02  1.249978801E+02  0.00000E+00  9.000E+00
       5     1     1     2   501     0  7.398122450E+00  7.325957692E+00  4.627424872E+02  4.628839745E+02  4.750000000E+00  0.00000E+00  9.000E+00
      -5     1     1     2     0   503  2.306477137E+01  2.322649384E+01 -4.468614538E+01  5.559557341E+01  4.750000000E+00  0.00000E+00  9.000E+00
      21     1     1     2   502   511 -2.717289262E+01  1.525917286E+01  9.518019386E+01  1.001522728E+02  1.348699152E-06  0.00000E+00  9.000E+00
#rwgt            1           9   4.9221934170321422                7     2095340           0
</event>
<event>
      6   9999  3.45752E-01  8.67066E+00 -1.00000E+00  1.93964E-01
      21    -1     0     0   501   512  0.000000000E+00  0.000000000E+00  1.979440949E+01  1.979440949E+01  0.000000000E+00  0.00000E+00  9.000E+00
      21    -1     0     0   502   503  0.000000000E+00  0.000000000E+00 -8.906920403E+02  8.906920403E+02  0.000000000E+00  0.00000E+00  9.000E+00
      25     1     1     2     0     0 -2.025087086E+01  7.118502408E+01 -5.794907037E+02  5.974217063E+02  1.250032561E+02  0.00000E+00  9.000E+00
       5     1     1     2   501     0 -7.127336765E+00 -1.265390465E+01 -2.233584479E+01  2.706238523E+01  4.750000000E+00  0.00000E+00  9.000E+00
      -5     1     1     2     0   503  3.016134425E+01 -5.031926913E+01 -2.708326965E+02  2.771545553E+02  4.750000000E+00  0.00000E+00  9.000E+00
      21     1     1     2   502   512 -2.783136627E+00 -8.211850299E+00  1.761614093E+00  8.847803063E+00  6.237164002E-07  0.00000E+00  9.000E+00
#rwgt            1           9   1.0162962431333765E-002           7     2097429           0
</event>
<event>
      6   9999  3.45752E-01  7.97360E+00 -1.00000E+00  1.98185E-01
      21    -1     0     0   501   502  0.000000000E+00  0.000000000E+00  1.007916602E+01  1.007916602E+01  0.000000000E+00  0.00000E+00  9.000E+00
      21    -1     0     0   502   511  0.000000000E+00  0.000000000E+00 -2.307097515E+03  2.307097515E+03  0.000000000E+00  0.00000E+00  9.000E+00
      25     1     1     2     0     0  6.156483749E-01 -8.247627075E+00 -7.225489723E+02  7.333278303E+02  1.249971477E+02  0.00000E+00  9.000E+00
       5     1     1     2   501     0  1.129129344E+00  2.675748617E-01  3.224669668E+00  5.857262488E+00  4.750000000E+00  0.00000E+00  9.000E+00
      -5     1     1     2     0   503  8.262652429E-01  4.323383548E-01 -4.218238220E+01  4.245922160E+01  4.750000000E+00  0.00000E+00  9.000E+00
      21     1     1     2   503   511 -2.571042962E+00  7.547713859E+00 -1.535511665E+03  1.535532367E+03  2.157918644E-05  0.00000E+00  9.000E+00
#rwgt            1           9   1.1786107279604989E-002           7     2100395           0
</event>
<event>
      6   9999  3.45752E-01  9.33866E+01 -1.00000E+00  1.21712E-01
      21    -1     0     0   512   502  0.000000000E+00  0.000000000E+00  2.223968525E+01  2.223968525E+01  0.000000000E+00  0.00000E+00  9.000E+00
      21    -1     0     0   502   503  0.000000000E+00  0.000000000E+00 -1.113101671E+03  1.113101671E+03  0.000000000E+00  0.00000E+00  9.000E+00
      25     1     1     2     0     0 -1.078833802E+02 -5.451042666E+00 -8.456866181E+02  8.616720927E+02  1.249976070E+02  0.00000E+00  9.000E+00
       5     1     1     2   501     0 -9.306910579E-01  1.575891082E-01 -1.059460264E-01  4.844042189E+00  4.750000000E+00  0.00000E+00  9.000E+00
      -5     1     1     2     0   503  1.585026981E+01 -3.583292940E+00 -4.330124991E+01  4.649335206E+01  4.750000000E+00  0.00000E+00  9.000E+00
      21     1     1     2   512   501  9.296380144E+01  8.876746498E+00 -2.017681722E+02  2.223318697E+02  4.672030912E-06  0.00000E+00  9.000E+00
#rwgt            1           9   7.3222331896271434E-002           7     2103606           0
</event>
<event>
      6   9999  3.45752E-01  1.60708E+01 -1.00000E+00  1.67816E-01
      21    -1     0     0   501   502  0.000000000E+00  0.000000000E+00  6.273452938E+00  6.273452938E+00  0.000000000E+00  0.00000E+00  9.000E+00
      21    -1     0     0   511   503  0.000000000E+00  0.000000000E+00 -1.435827243E+03  1.435827243E+03  0.000000000E+00  0.00000E+00  9.000E+00
      25     1     1     2     0     0  1.475430604E+01  2.218671396E+01 -8.499132638E+02  8.594692107E+02  1.249993132E+02  0.00000E+00  9.000E+00
       5     1     1     2   501     0  9.405599761E-01 -1.999266399E-01 -7.435540775E+00  8.875493809E+00  4.750000000E+00  0.00000E+00  9.000E+00
      -5     1     1     2     0   503  3.326079021E-01 -2.316668798E+01 -4.291312776E+02  4.297825287E+02  4.750000000E+00  0.00000E+00  9.000E+00
      21     1     1     2   511   502 -1.602747392E+01  1.179900666E+00 -1.430737077E+02  1.439734626E+02  0.000000000E+00  0.00000E+00  9.000E+00
#rwgt            1           9  0.63660159792868654                7     2104025           0
</event>
<event>
      6   9999  3.45752E-01  1.78345E+01 -1.00000E+00  1.64104E-01
      21    -1     0     0   502   512  0.000000000E+00  0.000000000E+00  4.014011787E+01  4.014011787E+01  0.000000000E+00  0.00000E+00  9.000E+00
      21    -1     0     0   501   502  0.000000000E+00  0.000000000E+00 -8.934318677E+02  8.934318677E+02  0.000000000E+00  0.00000E+00  9.000E+00
      25     1     1     2     0     0  2.873278558E+00  2.811726071E+01 -2.161756836E+02  2.513015298E+02  1.249867856E+02  0.00000E+00  9.000E+00
       5     1     1     2   501     0  1.228692764E+01 -3.172085436E+01 -6.354655272E+02  6.363931018E+02  4.750000000E+00  0.00000E+00  9.000E+00
      -5     1     1     2     0   503  2.580334095E+00  1.774907563E+00 -1.969876425E+01  2.050395654E+01  4.750000000E+00  0.00000E+00  9.000E+00
      21     1     1     2   503   512 -1.774054029E+01  1.828686090E+00  1.804822531E+01  2.537339748E+01  1.668930054E-06  0.00000E+00  9.000E+00
#rwgt            1           9   3.2537821942586558E-003           7     2105494           0
</event>
<event>
      6   9999  3.45752E-01  8.50060E+00 -1.00000E+00  1.94945E-01
      21    -1     0     0   501   511  0.000000000E+00  0.000000000E+00  1.195655626E+02  1.195655626E+02  0.000000000E+00  0.00000E+00  9.000E+00
      21    -1     0     0   502   503  0.000000000E+00  0.000000000E+00 -1.412720568E+03  1.412720568E+03  0.000000000E+00  0.00000E+00  9.000E+00
      25     1     1     2     0     0 -4.141454922E+01 -5.598650840E+01 -9.981034136E+01  1.744627113E+02  1.250019175E+02  0.00000E+00  9.000E+00
       5     1     1     2   501     0  2.754474865E+00 -3.796047342E+00  2.118324358E+01  2.221011967E+01  4.750000000E+00  0.00000E+00  9.000E+00
      -5     1     1     2     0   503  3.037209981E+01  5.789319949E+01 -1.273925373E+03  1.275610641E+03  4.750000000E+00  0.00000E+00  9.000E+00
      21     1     1     2   502   511  8.287974541E+00  1.889356247E+00  5.939746561E+01  6.000265919E+01  2.431401974E-06  0.00000E+00  9.000E+00
#rwgt            1           9   9.9303841805520142E-005           7     2107440           0
</event>
<event>
      6   9999  3.45752E-01  1.30555E+01 -1.00000E+00  1.75768E-01
      21    -1     0     0   501   512  0.000000000E+00  0.000000000E+00  2.070639653E+01  2.070639653E+01  0.000000000E+00  0.00000E+00  9.000E+00
      21    -1     0     0   502   503  0.000000000E+00  0.000000000E+00 -1.111671830E+03  1.111671830E+03  0.000000000E+00  0.00000E+00  9.000E+00
      25     1     1     2     0     0  6.964548420E-01 -1.669588632E+01 -9.753389276E+02  9.834580122E+02  1.249976015E+02  0.00000E+00  9.000E+00
       5     1     1     2   501     0 -2.697040067E+00  3.902251552E+00  1.286054902E+01  1.450716421E+01  4.750000000E+00  0.00000E+00  9.000E+00
      -5     1     1     2     0   503  5.217015932E+00  2.544676441E+01 -8.465727769E+01  8.868016825E+01  4.750000000E+00  0.00000E+00  9.000E+00
      21     1     1     2   502   512 -3.216430706E+00 -1.265312965E+01 -4.382977738E+01  4.573288206E+01  9.536743164E-07  0.00000E+00  9.000E+00
#rwgt            1           9   2.1186512029304772E-003           7     2112310           0
</event>
<event>
      6   9999  3.45752E-01  2.73528E+00 -1.00000E+00  2.87843E-01
       2    -1     0     0   501     0  0.000000000E+00  0.000000000E+00  3.241355815E+02  3.241355815E+02  0.000000000E+00  0.00000E+00  9.000E+00
      21    -1     0     0   502   503  0.000000000E+00  0.000000000E+00 -8.494775648E+02  8.494775648E+02  0.000000000E+00  0.00000E+00  9.000E+00
      25     1     1     2     0     0 -1.431835170E+01 -1.411960903E+01 -7.019736686E+02  7.132983376E+02  1.249924340E+02  0.00000E+00  9.000E+00
       5     1     1     2   501     0  2.217473686E+00 -1.450653034E+00  7.415022417E+00  9.196012246E+00  4.750000000E+00  0.00000E+00  9.000E+00
      -5     1     1     2     0   503  1.209126058E+01  1.283499681E+01 -1.403534853E+02  1.415365644E+02  4.750000000E+00  0.00000E+00  9.000E+00
       2     1     1     2   502     0  9.617439898E-03  2.735265257E+00  3.095701481E+02  3.095822320E+02  7.629394531E-06  0.00000E+00  9.000E+00
#rwgt            1           9  0.11962893818822838                7     2114800           0
</event>
<event>
      6   9999  3.45752E-01  1.15434E+01 -1.00000E+00  1.80858E-01
      21    -1     0     0   501   502  0.000000000E+00  0.000000000E+00  9.034644296E+00  9.034644296E+00  0.000000000E+00  0.00000E+00  9.000E+00
      21    -1     0     0   511   503  0.000000000E+00  0.000000000E+00 -8.791213611E+02  8.791213611E+02  0.000000000E+00  0.00000E+00  9.000E+00
      25     1     1     2     0     0 -4.177077153E+00 -1.356260543E+01 -5.841479582E+02  5.975417028E+02  1.250034291E+02  0.00000E+00  9.000E+00
       5     1     1     2   501     0  1.654028696E-01 -1.904269516E+00 -1.172122276E+00  5.252615647E+00  4.750000000E+00  0.00000E+00  9.000E+00
      -5     1     1     2     0   503  7.778676851E-02  4.614440195E+00 -1.275620941E+02  1.277339010E+02  4.750000000E+00  0.00000E+00  9.000E+00
      21     1     1     2   511   502  3.933887515E+00  1.085243475E+01 -1.572045422E+02  1.576277859E+02  2.697398305E-06  0.00000E+00  9.000E+00
#rwgt            1           9   2.1845312395556422                7     2121504           0
</event>
<event>
      6   9999 -3.45752E-01  1.34096E+01 -1.00000E+00  1.74701E-01
      21    -1     0     0   501   502  0.000000000E+00  0.000000000E+00  1.056039158E+02  1.056039158E+02  0.000000000E+00  0.00000E+00  9.000E+00
      21    -1     0     0   502   512  0.000000000E+00  0.000000000E+00 -2.271290491E+02  2.271290491E+02  0.000000000E+00  0.00000E+00  9.000E+00
      25     1     1     2     0     0 -3.577208279E+00  1.110475426E+01 -2.743159442E+01  1.284961276E+02  1.249906014E+02  0.00000E+00  9.000E+00
       5     1     1     2   501     0  2.347606790E+00  4.095651719E+00  4.984017419E+01  5.028808094E+01  4.750000000E+00  0.00000E+00  9.000E+00
      -5     1     1     2     0   503  2.463047689E+00 -1.847626031E+00  2.998594679E+00  6.405809544E+00  4.750000000E+00  0.00000E+00  9.000E+00
      21     1     1     2   503   512 -1.233446199E+00 -1.335277995E+01 -1.469323077E+02  1.475429469E+02  2.697398305E-06  0.00000E+00  9.000E+00
#rwgt            1           9  -6.5282093525493448E-003           7     2123569           0
</event>
<event>
      6   9999 -3.45752E-01  6.99019E+00 -1.00000E+00  2.05216E-01
      21    -1     0     0   501   511  0.000000000E+00  0.000000000E+00  1.725000353E+02  1.725000353E+02  0.000000000E+00  0.00000E+00  9.000E+00
      21    -1     0     0   502   503  0.000000000E+00  0.000000000E+00 -9.788010143E+02  9.788010143E+02  0.000000000E+00  0.00000E+00  9.000E+00
      25     1     1     2     0     0 -2.742709059E+00  2.173996432E-01 -9.587752728E+02  9.668943029E+02  1.250079977E+02  0.00000E+00  9.000E+00
       5     1     1     2   501     0 -1.177046878E+01 -1.579722577E+01  1.549612964E+02  1.562807159E+02  4.750000000E+00  0.00000E+00  9.000E+00
      -5     1     1     2     0   503  1.407074606E+01  8.603651149E+00 -8.272013946E+00  1.905249124E+01  4.750000000E+00  0.00000E+00  9.000E+00
      21     1     1     2   502   511  4.424317788E-01  6.976174977E+00  5.785011444E+00  9.073539585E+00  2.528810911E-07  0.00000E+00  9.000E+00
#rwgt            1           9  -2.6655729600704552                7     2125517           0
</event>
<event>
      6   9999  3.45752E-01  5.67808E+00 -1.00000E+00  2.17449E-01
      21    -1     0     0   501   512  0.000000000E+00  0.000000000E+00  2.766729153E+01  2.766729153E+01  0.000000000E+00  0.00000E+00  9.000E+00
      21    -1     0     0   502   503  0.000000000E+00  0.000000000E+00 -9.993284716E+02  9.993284716E+02  0.000000000E+00  0.00000E+00  9.000E+00
      25     1     1     2     0     0 -1.028887263E+01 -8.051575943E+00 -9.702372618E+02  9.783434144E+02  1.249992142E+02  0.00000E+00  9.000E+00
       5     1     1     2   501     0  1.917885959E+00  4.662762111E+00  1.968606089E+01  2.086919094E+01  4.750000000E+00  0.00000E+00  9.000E+00
      -5     1     1     2     0   503  2.846136699E+00  2.078613597E+00 -2.129592181E+01  2.210203417E+01  4.750000000E+00  0.00000E+00  9.000E+00
      21     1     1     2   502   512  5.524849976E+00  1.310200235E+00  1.859425573E-01  5.681123705E+00  8.028843277E-08  0.00000E+00  9.000E+00
#rwgt            1           9   1.3678022171322461E-005           7     2131531           0
</event>
<event>
      6   9999  3.45752E-01  7.98906E+00 -1.00000E+00  1.98086E-01
      21    -1     0     0   501   511  0.000000000E+00  0.000000000E+00  1.459886796E+01  1.459886796E+01  0.000000000E+00  0.00000E+00  9.000E+00
      21    -1     0     0   502   503  0.000000000E+00  0.000000000E+00 -8.546084324E+02  8.546084324E+02  0.000000000E+00  0.00000E+00  9.000E+00
      25     1     1     2     0     0 -2.162720404E+01  1.483660802E+01 -4.740162649E+02  4.909217978E+02  1.249997251E+02  0.00000E+00  9.000E+00
       5     1     1     2   501     0 -2.031493356E-01  1.716299983E+00  2.578874510E+00  5.674508703E+00  4.750000000E+00  0.00000E+00  9.000E+00
      -5     1     1     2     0   503  2.869971236E+01 -1.247405427E+01 -3.578121922E+02  3.592094137E+02  4.750000000E+00  0.00000E+00  9.000E+00
      21     1     1     2   502   511 -6.869358979E+00 -4.078853738E+00 -1.075998183E+01  1.340158012E+01  1.192092896E-07  0.00000E+00  9.000E+00
#rwgt            1           9   6.6391338239904282E-003           7     2136263           0
</event>
<event>
      6   9999  3.45752E-01  2.74888E+01 -1.00000E+00  1.50337E-01
      21    -1     0     0   501   502  0.000000000E+00  0.000000000E+00  9.756673904E+01  9.756673904E+01  0.000000000E+00  0.00000E+00  9.000E+00
      21    -1     0     0   502   512  0.000000000E+00  0.000000000E+00 -1.672491811E+03  1.672491811E+03  0.000000000E+00  0.00000E+00  9.000E+00
      25     1     1     2     0     0 -1.016181581E+02 -9.050354669E+01 -7.031893542E+02  7.270609099E+02  1.250006271E+02  0.00000E+00  9.000E+00
       5     1     1     2   501     0 -7.185294661E+00 -1.024876780E+01  7.523583233E+01  7.641765939E+01  4.750000000E+00  0.00000E+00  9.000E+00
      -5     1     1     2     0   503  1.303701276E+02  8.370785977E+01 -8.891170968E+02  9.025270911E+02  4.750000000E+00  0.00000E+00  9.000E+00
      21     1     1     2   503   512 -2.156667483E+01  1.704445472E+01 -5.785445320E+01  6.405288952E+01  1.168007728E-06  0.00000E+00  9.000E+00
#rwgt            1           9   1.8571295792740717E-004           7     2139274           0
</event>
<event>
      6   9999 -3.45752E-01  7.81347E+00 -1.00000E+00  1.99236E-01
       4    -1     0     0   501     0  0.000000000E+00  0.000000000E+00  7.652561664E+01  7.652561664E+01  0.000000000E+00  0.00000E+00  9.000E+00
      21    -1     0     0   502   503  0.000000000E+00  0.000000000E+00 -2.333845374E+03  2.333845374E+03  0.000000000E+00  0.00000E+00  9.000E+00
      25     1     1     2     0     0 -2.574751629E+01  1.920234306E+01 -2.198879983E+03  2.202664112E+03  1.249973903E+02  0.00000E+00  9.000E+00
       5     1     1     2   501     0  7.049562570E+00  4.496088751E+00  1.615405172E+01  1.879965514E+01  4.750000000E+00  0.00000E+00  9.000E+00
      -5     1     1     2     0   503  2.646774661E+01 -2.287338531E+01 -1.291020535E+02  1.338418324E+02  4.750000000E+00  0.00000E+00  9.000E+00
       4     1     1     2   502     0 -7.769792892E+00 -8.250465064E-01  5.450822755E+01  5.506539071E+01  2.697398305E-06  0.00000E+00  9.000E+00
#rwgt            1           9  -1.5765200357531207E-004           7     2141625           0
</event>
<event>
      6   9999  3.45752E-01  1.48818E+01 -1.00000E+00  1.70670E-01
      21    -1     0     0   501   511  0.000000000E+00  0.000000000E+00  4.108481114E+02  4.108481114E+02  0.000000000E+00  0.00000E+00  9.000E+00
      21    -1     0     0   502   503  0.000000000E+00  0.000000000E+00 -1.452960286E+02  1.452960286E+02  0.000000000E+00  0.00000E+00  9.000E+00
      25     1     1     2     0     0  3.736396751E+01  2.398889190E+01  1.487137446E+01  1.334830697E+02  1.250001565E+02  0.00000E+00  9.000E+00
       5     1     1     2   501     0 -3.321194316E+00  5.523359042E+01  9.670029584E+00  5.637243843E+01  4.750000000E+00  0.00000E+00  9.000E+00
      -5     1     1     2     0   503 -4.891690122E+01 -7.970030009E+01 -2.732479755E+01  9.754080234E+01  4.750000000E+00  0.00000E+00  9.000E+00
      21     1     1     2   502   511  1.487412803E+01  4.778177732E-01  2.683354763E+02  2.687478295E+02  3.814697266E-06  0.00000E+00  9.000E+00
#rwgt            1           9  0.16608637606616214                7     2145483           0
</event>
<event>
      6   9999  3.45752E-01  1.99298E+01 -1.00000E+00  1.60327E-01
      21    -1     0     0   501   502  0.000000000E+00  0.000000000E+00  3.860129327E+01  3.860129327E+01  0.000000000E+00  0.00000E+00  9.000E+00
      21    -1     0     0   502   512  0.000000000E+00  0.000000000E+00 -2.480447091E+02  2.480447091E+02  0.000000000E+00  0.00000E+00  9.000E+00
      25     1     1     2     0     0 -2.077258308E+01 -1.198750250E+01 -1.468827903E+02  1.943590693E+02  1.250027731E+02  0.00000E+00  9.000E+00
       5     1     1     2   501     0 -8.226097700E-01  1.106337255E+00  5.699362316E+00  7.546250709E+00  4.750000000E+00  0.00000E+00  9.000E+00
      -5     1     1     2     0   503  6.180237941E+00  2.351344736E+01 -1.784697399E+01  3.053120582E+01  4.750000000E+00  0.00000E+00  9.000E+00
      21     1     1     2   503   512  1.541495491E+01 -1.263228212E+01 -5.041301382E+01  5.420947656E+01  9.536743164E-07  0.00000E+00  9.000E+00
#rwgt            1           9   4.3598748919933676E-005           7     2148294           0
</event>
<event>
      6   9999  3.45752E-01  2.37433E+02 -1.00000E+00  1.06377E-01
      21    -1     0     0   511   502  0.000000000E+00  0.000000000E+00  3.651412977E+02  3.651412977E+02  0.000000000E+00  0.00000E+00  9.000E+00
       2    -1     0     0   501     0  0.000000000E+00  0.000000000E+00 -1.738089428E+03  1.738089428E+03  0.000000000E+00  0.00000E+00  9.000E+00
      25     1     1     2     0     0 -1.434484941E+02 -8.190914485E+01 -2.457821399E+02  3.214325387E+02  1.249937525E+02  0.00000E+00  9.000E+00
       5     1     1     2   501     0  5.669252639E+01 -1.337355850E+01 -2.731329907E+02  2.793153911E+02  4.750000000E+00  0.00000E+00  9.000E+00
      -5     1     1     2     0   502  3.234800318E+02  7.694769918E+01 -1.106807457E+03  1.155684035E+03  4.750000000E+00  0.00000E+00  9.000E+00
       2     1     1     2   511     0 -2.367240641E+02  1.833500416E+01  2.527744567E+02  3.467987614E+02  8.529922400E-06  0.00000E+00  9.000E+00
#rwgt            1           3   2.0465133725924958E-005           7     2149606           0
</event>
<event>
      6   9999 -3.45752E-01  2.88478E+01 -1.00000E+00  1.48947E-01
      21    -1     0     0   502   503  0.000000000E+00  0.000000000E+00  1.993290474E+01  1.993290474E+01  0.000000000E+00  0.00000E+00  9.000E+00
      21    -1     0     0   512   502  0.000000000E+00  0.000000000E+00 -8.950976020E+02  8.950976020E+02  0.000000000E+00  0.00000E+00  9.000E+00
      25     1     1     2     0     0  4.747142175E+01 -2.959746175E+01 -2.721304743E+02  3.046486648E+02  1.250050731E+02  0.00000E+00  9.000E+00
       5     1     1     2   501     0 -3.453367516E+01  2.688274376E+01 -3.790387283E+02  3.815863948E+02  4.750000000E+00  0.00000E+00  9.000E+00
      -5     1     1     2     0   503  1.178073483E+01 -1.215786076E+01 -7.506846435E+01  7.710016946E+01  4.750000000E+00  0.00000E+00  9.000E+00
      21     1     1     2   512   501 -2.471848142E+01  1.487257875E+01 -1.489270303E+02  1.516952777E+02  2.697398305E-06  0.00000E+00  9.000E+00
#rwgt            1           9  -979.16765443583563                7     2150259           0
</event>
<event>
      6   9999  3.45752E-01  1.03225E+01 -1.00000E+00  1.85753E-01
      21    -1     0     0   501   502  0.000000000E+00  0.000000000E+00  2.279634554E+01  2.279634554E+01  0.000000000E+00  0.00000E+00  9.000E+00
       2    -1     0     0   502     0  0.000000000E+00  0.000000000E+00 -2.840663748E+03  2.840663748E+03  0.000000000E+00  0.00000E+00  9.000E+00
      25     1     1     2     0     0  9.031725564E+00  1.522871445E+00 -9.954837656E+02  1.003344675E+03  1.250148737E+02  0.00000E+00  9.000E+00
       5     1     1     2   501     0  2.198754812E+00 -2.983585805E+00  1.815823200E+01  1.913165431E+01  4.750000000E+00  0.00000E+00  9.000E+00
      -5     1     1     2     0   503 -1.329191202E+00 -1.457908787E+00 -3.186488223E+01  3.227732124E+01  4.750000000E+00  0.00000E+00  9.000E+00
       2     1     1     2   503     0 -9.901289175E+00  2.918623148E+00 -1.808676987E+03  1.808706443E+03  0.000000000E+00  0.00000E+00  9.000E+00
#rwgt            1           9   4.9279427098154467E-004           7     2151233           0
</event>
<event>
      6   9999  3.45752E-01  6.38856E+00 -1.00000E+00  2.10331E-01
      21    -1     0     0   501   511  0.000000000E+00  0.000000000E+00  1.173195643E+01  1.173195643E+01  0.000000000E+00  0.00000E+00  9.000E+00
      21    -1     0     0   502   503  0.000000000E+00  0.000000000E+00 -9.214716471E+02  9.214716471E+02  0.000000000E+00  0.00000E+00  9.000E+00
      25     1     1     2     0     0  7.453846720E+00  3.451990688E+01 -6.589007271E+02  6.715830804E+02  1.250059278E+02  0.00000E+00  9.000E+00
       5     1     1     2   501     0  1.563180341E+00  1.302751116E+00  2.186240988E+00  5.610957397E+00  4.750000000E+00  0.00000E+00  9.000E+00
      -5     1     1     2     0   503 -1.011563549E+01 -2.952926446E+01 -2.282754467E+02  2.304485747E+02  4.750000000E+00  0.00000E+00  9.000E+00
      21     1     1     2   502   511  1.098608425E+00 -6.293393542E+00 -2.474975797E+01  2.556099103E+01  0.000000000E+00  0.00000E+00  9.000E+00
#rwgt            1           9   5.6416434393312051E-003           7     2154184           0
</event>
<event>
      6   9999  3.45752E-01  1.77485E+01 -1.00000E+00  1.64273E-01
      21    -1     0     0   501   502  0.000000000E+00  0.000000000E+00  2.900620362E+01  2.900620362E+01  0.000000000E+00  0.00000E+00  9.000E+00
      21    -1     0     0   512   503  0.000000000E+00  0.000000000E+00 -2.977401529E+02  2.977401529E+02  0.000000000E+00  0.00000E+00  9.000E+00
      25     1     1     2     0     0  2.130859382E+01  2.043805395E+00 -1.638330885E+02  2.071827021E+02  1.250006314E+02  0.00000E+00  9.000E+00
       5     1     1     2   501     0  1.117883910E+00  2.804570739E-01  4.949995318E+00  6.956527457E+00  4.750000000E+00  0.00000E+00  9.000E+00
      -5     1     1     2     0   503 -4.729114160E+00 -9.778735265E-01 -2.381139052E+01  2.475612199E+01  4.750000000E+00  0.00000E+00  9.000E+00
      21     1     1     2   512   502 -1.769736356E+01 -1.346388942E+00 -8.603946554E+01  8.785100495E+01  1.348699152E-06  0.00000E+00  9.000E+00
#rwgt            1           9  0.24002981958682970                7     2157508           0
</event>
<event>
      6   9999  3.45752E-01  1.13569E+01 -1.00000E+00  1.81555E-01
      21    -1     0     0   511   502  0.000000000E+00  0.000000000E+00  5.362618508E+01  5.362618508E+01  0.000000000E+00  0.00000E+00  9.000E+00
      21    -1     0     0   502   503  0.000000000E+00  0.000000000E+00 -1.356163024E+03  1.356163024E+03  0.000000000E+00  0.00000E+00  9.000E+00
      25     1     1     2     0     0 -5.722893433E+01  2.633848928E+01 -1.097645783E+02  1.778813759E+02  1.249986172E+02  0.00000E+00  9.000E+00
       5     1     1     2   501     0 -2.676297546E+00  8.743761168E-01  1.568690712E+01  1.663035348E+01  4.750000000E+00  0.00000E+00  9.000E+00
      -5     1     1     2     0   503  6.450149317E+01 -3.759810112E+01 -1.196309695E+03  1.198646532E+03  4.750000000E+00  0.00000E+00  9.000E+00
      21     1     1     2   511   501 -4.596261290E+00  1.038523572E+01 -1.214947334E+01  1.663094829E+01  2.384185791E-07  0.00000E+00  9.000E+00
#rwgt            1           9   1.2348792788343345E-003           7     2158951           0
</event>
<event>
      6   9999  3.45752E-01  1.75553E+01 -1.00000E+00  1.64656E-01
      21    -1     0     0   512   502  0.000000000E+00  0.000000000E+00  4.126076564E+02  4.126076564E+02  0.000000000E+00  0.00000E+00  9.000E+00
      21    -1     0     0   502   503  0.000000000E+00  0.000000000E+00 -1.044578709E+03  1.044578709E+03  0.000000000E+00  0.00000E+00  9.000E+00
      25     1     1     2     0     0 -2.931696219E+01  1.798176431E+01 -2.108742494E+02  2.475400497E+02  1.250011961E+02  0.00000E+00  9.000E+00
       5     1     1     2   501     0 -2.689518698E+00 -1.668540252E+00  1.089153554E+01  1.229656797E+01  4.750000000E+00  0.00000E+00  9.000E+00
      -5     1     1     2     0   503  2.427947426E+01 -3.207657132E+01 -8.139637497E+02  8.149711330E+02  4.750000000E+00  0.00000E+00  9.000E+00
      21     1     1     2   512   501  7.727006621E+00  1.576334726E+01  3.819754114E+02  3.823786143E+02  7.629394531E-06  0.00000E+00  9.000E+00
#rwgt            1           9  0.13445098943341730                7     2162517           0
</event>
<event>
      6   9999  3.45752E-01  8.12793E+01 -1.00000E+00  1.24389E-01
      21    -1     0     0   501   502  0.000000000E+00  0.000000000E+00  3.422678776E+03  3.422678776E+03  0.000000000E+00  0.00000E+00  9.000E+00
      21    -1     0     0   502   511  0.000000000E+00  0.000000000E+00 -4.420068083E+01  4.420068083E+01  0.000000000E+00  0.00000E+00  9.000E+00
      25     1     1     2     0     0 -1.162470352E+01  3.141904840E-01  2.411430890E+03  2.414700113E+03  1.250698494E+02  0.00000E+00  9.000E+00
       5     1     1     2   501     0 -4.121739390E+00  1.415047193E+01  2.877363687E+02  2.881527459E+02  4.750000000E+00  0.00000E+00  9.000E+00
      -5     1     1     2     0   503 -5.422838151E+01 -5.581500206E+01  6.782744574E+02  6.827406783E+02  4.750000000E+00  0.00000E+00  9.000E+00
      21     1     1     2   503   511  6.997482442E+01  4.135033965E+01  1.036379320E+00  8.128591959E+01  2.007513282E-06  0.00000E+00  9.000E+00
#rwgt            1           9   211.17095996618133                7     2164822           0
</event>
<event>
      6   9999  3.45752E-01  3.05522E+00 -1.00000E+00  2.74856E-01
      21    -1     0     0   502   503  0.000000000E+00  0.000000000E+00  8.730402471E+00  8.730402471E+00  0.000000000E+00  0.00000E+00  9.000E+00
      21    -1     0     0   501   512  0.000000000E+00  0.000000000E+00 -7.897990247E+02  7.897990247E+02  0.000000000E+00  0.00000E+00  9.000E+00
      25     1     1     2     0     0 -9.875653149E+00 -9.725812205E+00 -7.212410607E+02  7.321211923E+02  1.249826094E+02  0.00000E+00  9.000E+00
       5     1     1     2   501     0  9.951717730E-02 -1.107294210E+00 -8.823883771E+00  1.008263006E+01  4.750000000E+00  0.00000E+00  9.000E+00
      -5     1     1     2     0   503  6.951570823E+00  9.668549249E+00 -1.320940278E+01  1.840804181E+01  4.750000000E+00  0.00000E+00  9.000E+00
      21     1     1     2   502   512  2.824565149E+00  1.164557166E+00 -3.779427494E+01  3.791756295E+01  6.743495762E-07  0.00000E+00  9.000E+00
#rwgt            1           9   7.9014572303551581E-005           7     2165701           0
</event>
<event>
      6   9999  3.45752E-01  4.93160E+01 -1.00000E+00  1.35108E-01
      21    -1     0     0   501   511  0.000000000E+00  0.000000000E+00  9.571141510E+00  9.571141510E+00  0.000000000E+00  0.00000E+00  9.000E+00
      21    -1     0     0   502   503  0.000000000E+00  0.000000000E+00 -1.959490322E+03  1.959490322E+03  0.000000000E+00  0.00000E+00  9.000E+00
      25     1     1     2     0     0  4.905828957E+01 -2.857428470E+01 -1.185132193E+03  1.193055635E+03  1.249809153E+02  0.00000E+00  9.000E+00
       5     1     1     2   501     0  5.581853710E+00 -1.143924046E+00 -7.562314517E+00  1.059324095E+01  4.750000000E+00  0.00000E+00  9.000E+00
      -5     1     1     2     0   503 -7.934288481E+00  1.388690793E+01 -6.084208838E+02  6.086495983E+02  4.750000000E+00  0.00000E+00  9.000E+00
      21     1     1     2   502   511 -4.670585479E+01  1.583130082E+01 -1.488037897E+02  1.567629892E+02  4.264961200E-06  0.00000E+00  9.000E+00
#rwgt            1           9   8.4681962568705069E-002           7     2171034           0
</event>
<event>
      6   9999  3.45752E-01  1.94644E+01 -1.00000E+00  1.61115E-01
      21    -1     0     0   501   502  0.000000000E+00  0.000000000E+00  1.230754822E+02  1.230754822E+02  0.000000000E+00  0.00000E+00  9.000E+00
      21    -1     0     0   502   512  0.000000000E+00  0.000000000E+00 -7.581285332E+02  7.581285332E+02  0.000000000E+00  0.00000E+00  9.000E+00
      25     1     1     2     0     0 -2.944507159E-01 -5.756471601E+01  2.476886421E+01  1.398271418E+02  1.249973988E+02  0.00000E+00  9.000E+00
       5     1     1     2   501     0  7.571123723E-01 -6.138145854E-01  2.497432988E+01  2.544070833E+01  4.750000000E+00  0.00000E+00  9.000E+00
      -5     1     1     2     0   503  1.163082608E+01  4.292696988E+01 -1.698924226E+01  4.784556104E+01  4.750000000E+00  0.00000E+00  9.000E+00
      21     1     1     2   503   512 -1.209348774E+01  1.525156072E+01 -6.678070028E+02  6.680906043E+02  1.078959322E-05  0.00000E+00  9.000E+00
#rwgt            1           9  0.29207271881056307                7     2171583           0
</event>
<event>
      6   9999  3.45752E-01  7.45968E+00 -1.00000E+00  2.01680E-01
      21    -1     0     0   501   502  0.000000000E+00  0.000000000E+00  5.214175689E+02  5.214175689E+02  0.000000000E+00  0.00000E+00  9.000E+00
      21    -1     0     0   502   511  0.000000000E+00  0.000000000E+00 -1.204988680E+02  1.204988680E+02  0.000000000E+00  0.00000E+00  9.000E+00
      25     1     1     2     0     0 -4.114499946E+01 -5.587725131E+01  3.837231570E+01  1.480235222E+02  1.249934011E+02  0.00000E+00  9.000E+00
       5     1     1     2   501     0 -6.242415821E+00  4.422505394E+00  3.850457825E+02  3.851510658E+02  4.750000000E+00  0.00000E+00  9.000E+00
      -5     1     1     2     0   503  4.621118382E+01  5.882111355E+01  9.801103369E+00  7.559114390E+01  4.750000000E+00  0.00000E+00  9.000E+00
      21     1     1     2   503   511  1.176231466E+00 -7.366367635E+00 -3.230050078E+01  3.315070502E+01  8.259061849E-07  0.00000E+00  9.000E+00
#rwgt            1           9   50.836787033999890                7     2172999           0
</event>
<event>
      6   9999  3.45752E-01  7.56881E+00 -1.00000E+00  2.00907E-01
      21    -1     0     0   512   503  0.000000000E+00  0.000000000E+00  9.491183476E+00  9.491183476E+00  0.000000000E+00  0.00000E+00  9.000E+00
      21    -1     0     0   501   502  0.000000000E+00  0.000000000E+00 -7.218843206E+02  7.218843206E+02  0.000000000E+00  0.00000E+00  9.000E+00
      25     1     1     2     0     0  1.031197095E+00  7.097086783E+00 -6.433834966E+02  6.554535883E+02  1.250026027E+02  0.00000E+00  9.000E+00
       5     1     1     2   501     0 -3.296185981E-01  4.522962607E-01 -4.190681528E+01  4.217886778E+01  4.750000000E+00  0.00000E+00  9.000E+00
      -5     1     1     2     0   503 -7.372743227E+00 -3.974133336E+00 -2.342753790E+01  2.532909612E+01  4.750000000E+00  0.00000E+00  9.000E+00
      21     1     1     2   512   502  6.671164730E+00 -3.575249708E+00 -3.675287328E+00  8.413951882E+00  3.500980176E-07  0.00000E+00  9.000E+00
#rwgt            1           9   1.4234724765249571E-002           7     2177433           0
</event>
<event>
      6   9999  3.45752E-01  2.75313E+01 -1.00000E+00  1.50292E-01
      21    -1     0     0   502   511  0.000000000E+00  0.000000000E+00  1.591329760E+01  1.591329760E+01  0.000000000E+00  0.00000E+00  9.000E+00
      21    -1     0     0   501   502  0.000000000E+00  0.000000000E+00 -8.038019178E+02  8.038019178E+02  0.000000000E+00  0.00000E+00  9.000E+00
      25     1     1     2     0     0 -1.995846933E+01 -1.238415465E+01 -4.767033449E+02  4.933796492E+02  1.250027655E+02  0.00000E+00  9.000E+00
       5     1     1     2   501     0  3.974580218E+00 -6.979639125E+00 -1.187335154E+02  1.190996341E+02  4.750000000E+00  0.00000E+00  9.000E+00
      -5     1     1     2     0   503  1.994131954E+01 -7.881623283E+00 -1.708117909E+02  1.722179045E+02  4.750000000E+00  0.00000E+00  9.000E+00
      21     1     1     2   503   511 -3.957430428E+00  2.724541706E+01 -2.163996896E+01  3.501802769E+01  4.768371582E-07  0.00000E+00  9.000E+00
#rwgt            1           9   3.0354460280900889E-005           7     2180046           0
</event>
<event>
      6   9999  3.45752E-01  6.51698E+00 -1.00000E+00  2.09177E-01
      21    -1     0     0   501   502  0.000000000E+00  0.000000000E+00  1.575470775E+01  1.575470775E+01  0.000000000E+00  0.00000E+00  9.000E+00
       2    -1     0     0   502     0  0.000000000E+00  0.000000000E+00 -1.597845209E+03  1.597845209E+03  0.000000000E+00  0.00000E+00  9.000E+00
      25     1     1     2     0     0 -1.221995807E+01  2.041633441E+00 -4.622889415E+02  4.790526906E+02  1.250076771E+02  0.00000E+00  9.000E+00
       5     1     1     2   501     0 -5.766835101E-02 -3.458432299E+00  6.032766899E+00  8.421452135E+00  4.750000000E+00  0.00000E+00  9.000E+00
      -5     1     1     2     0   503  1.349404293E+01 -4.985650624E+00 -4.404442936E+02  4.407047585E+02  4.750000000E+00  0.00000E+00  9.000E+00
       2     1     1     2   503     0 -1.216416507E+00  6.402449482E+00 -6.853900332E+02  6.854210156E+02  7.629394531E-06  0.00000E+00  9.000E+00
#rwgt            1           9   1.8282484697598327E-004           7     2181241           0
</event>
<event>
      6   9999  3.45752E-01  1.00014E+01 -1.00000E+00  1.87187E-01
      21    -1     0     0   501   502  0.000000000E+00  0.000000000E+00  1.870808850E+01  1.870808850E+01  0.000000000E+00  0.00000E+00  9.000E+00
      21    -1     0     0   511   503  0.000000000E+00  0.000000000E+00 -1.326014443E+03  1.326014443E+03  0.000000000E+00  0.00000E+00  9.000E+00
      25     1     1     2     0     0 -3.681350992E+01 -2.593562875E+01 -8.309393340E+02  8.414941868E+02  1.249975931E+02  0.00000E+00  9.000E+00
       5     1     1     2   501     0  5.621687800E-02 -1.637366405E+00  5.826984071E+00  7.694177828E+00  4.750000000E+00  0.00000E+00  9.000E+00
      -5     1     1     2     0   503  4.464607606E+01  2.142529204E+01 -8.704197137E+01  1.002555860E+02  4.750000000E+00  0.00000E+00  9.000E+00
      21     1     1     2   511   502 -7.888783015E+00  6.147703121E+00 -3.951520328E+02  3.952785805E+02  5.394796609E-06  0.00000E+00  9.000E+00
#rwgt            1           9   2.8590081796120831E-003           7     2184882           0
</event>
<event>
      6   9999  3.45752E-01  4.52989E+00 -1.00000E+00  2.37174E-01
      21    -1     0     0   501   512  0.000000000E+00  0.000000000E+00  5.246775126E+01  5.246775126E+01  0.000000000E+00  0.00000E+00  9.000E+00
      21    -1     0     0   502   503  0.000000000E+00  0.000000000E+00 -1.068626222E+03  1.068626222E+03  0.000000000E+00  0.00000E+00  9.000E+00
      25     1     1     2     0     0  2.756077147E+00 -9.549974147E+01 -2.042462326E+02  2.578175477E+02  1.250022710E+02  0.00000E+00  9.000E+00
       5     1     1     2   501     0 -7.887760087E-01 -2.358609224E-02  1.803695113E+00  5.141842078E+00  4.750000000E+00  0.00000E+00  9.000E+00
      -5     1     1     2     0   503  1.783699410E+00  9.298366863E+01 -8.330694691E+02  8.382579836E+02  4.750000000E+00  0.00000E+00  9.000E+00
      21     1     1     2   502   512 -3.751000548E+00  2.539658935E+00  1.935353588E+01  1.987659990E+01  1.348699152E-06  0.00000E+00  9.000E+00
#rwgt            1           9   7.6667385455928081E-003           7     2189434           0
</event>
<event>
      6   9999 -3.45752E-01  1.76713E+01 -1.00000E+00  1.64425E-01
      21    -1     0     0   501   502  0.000000000E+00  0.000000000E+00  6.788836898E+02  6.788836898E+02  0.000000000E+00  0.00000E+00  9.000E+00
      21    -1     0     0   502   511  0.000000000E+00  0.000000000E+00 -4.746404696E+01  4.746404696E+01  0.000000000E+00  0.00000E+00  9.000E+00
      25     1     1     2     0     0 -6.725394003E+01 -3.362051844E+01  1.934844064E+02  2.422918995E+02  1.249628639E+02  0.00000E+00  9.000E+00
       5     1     1     2   501     0 -3.502913234E+00 -4.279257916E-01  3.646670226E+02  3.647150304E+02  4.750000000E+00  0.00000E+00  9.000E+00
      -5     1     1     2     0   503  5.330646724E+01  3.683414773E+01  7.754046784E+01  1.011603704E+02  4.750000000E+00  0.00000E+00  9.000E+00
      21     1     1     2   503   511  1.745038602E+01 -2.785703493E+00 -4.272253940E+00  1.818043646E+01  4.730972012E-07  0.00000E+00  9.000E+00
#rwgt            1           9  -1.2980831547490215E-002           7     2195407           0
</event>
<event>
      6   9999  3.45752E-01  1.14432E+01 -1.00000E+00  1.81230E-01
      21    -1     0     0   501   502  0.000000000E+00  0.000000000E+00  4.664020945E+02  4.664020945E+02  0.000000000E+00  0.00000E+00  9.000E+00
      21    -1     0     0   502   512  0.000000000E+00  0.000000000E+00 -6.300964361E+02  6.300964361E+02  0.000000000E+00  0.00000E+00  9.000E+00
      25     1     1     2     0     0  3.675662395E+00 -1.679876276E+00  3.524133920E+02  3.739474970E+02  1.250007968E+02  0.00000E+00  9.000E+00
       5     1     1     2   501     0  7.250508832E-01 -2.864270333E-01  5.677889350E+01  5.698256739E+01  4.750000000E+00  0.00000E+00  9.000E+00
      -5     1     1     2     0   503  7.035682425E+00  1.570973978E+00  4.588547702E+01  4.669055887E+01  4.750000000E+00  0.00000E+00  9.000E+00
      21     1     1     2   503   512 -1.143639570E+01  3.953293320E-01 -6.187721041E+02  6.188779074E+02  1.078959322E-05  0.00000E+00  9.000E+00
#rwgt            1           9  0.57635526675275295                7     2197441           0
</event>
<event>
      6   9999 -3.45752E-01  5.80577E+01 -1.00000E+00  1.31405E-01
      -4    -1     0     0     0   502  0.000000000E+00  0.000000000E+00  1.132592313E+01  1.132592313E+01  0.000000000E+00  0.00000E+00  9.000E+00
      21    -1     0     0   501   511  0.000000000E+00  0.000000000E+00 -3.513600771E+03  3.513600771E+03  0.000000000E+00  0.00000E+00  9.000E+00
      25     1     1     2     0     0 -8.483049741E+01 -1.025837970E+02 -1.497636001E+03  1.508727772E+03  1.250049995E+02  0.00000E+00  9.000E+00
       5     1     1     2   501     0  9.028338055E+01  3.141936014E+01 -1.563723965E+03  1.566650397E+03  4.750000000E+00  0.00000E+00  9.000E+00
      -5     1     1     2     0   502 -3.633003324E+00  1.313530870E+01 -2.394621372E+02  2.398966709E+02  4.750000000E+00  0.00000E+00  9.000E+00
      -4     1     1     2     0   511 -1.819879808E+00  5.802912812E+01 -2.014527447E+02  2.096518543E+02  5.394796609E-06  0.00000E+00  9.000E+00
#rwgt            1           5  -5.2577087579160569E-009           7     2199489           0
</event>
<event>
      6   9999  3.45752E-01  6.91464E+00 -1.00000E+00  2.05820E-01
      21    -1     0     0   501   502  0.000000000E+00  0.000000000E+00  4.653592667E+01  4.653592667E+01  0.000000000E+00  0.00000E+00  9.000E+00
      21    -1     0     0   512   503  0.000000000E+00  0.000000000E+00 -1.916909972E+03  1.916909972E+03  0.000000000E+00  0.00000E+00  9.000E+00
      25     1     1     2     0     0  4.509892076E+01 -2.323186153E+01 -3.190374160E+02  3.463826495E+02  1.249897397E+02  0.00000E+00  9.000E+00
       5     1     1     2   501     0 -4.934341994E+00 -6.170599357E+00  3.129620257E+01  3.262573865E+01  4.750000000E+00  0.00000E+00  9.000E+00
      -5     1     1     2     0   503 -4.498398547E+01  3.436083761E+01 -9.111118872E+02  9.128809669E+02  4.750000000E+00  0.00000E+00  9.000E+00
      21     1     1     2   512   502  4.819406709E+00 -4.958376725E+00 -6.715209446E+02  6.715565435E+02  7.629394531E-06  0.00000E+00  9.000E+00
#rwgt            1           9   1.8753964801701162E-002           7     2199833           0
</event>
<event>
      6   9999  3.45752E-01  1.51770E+01 -1.00000E+00  1.69931E-01
      21    -1     0     0   501   511  0.000000000E+00  0.000000000E+00  1.223760556E+02  1.223760556E+02  0.000000000E+00  0.00000E+00  9.000E+00
      21    -1     0     0   502   503  0.000000000E+00  0.000000000E+00 -1.034219843E+03  1.034219843E+03  0.000000000E+00  0.00000E+00  9.000E+00
      25     1     1     2     0     0 -2.191580865E+01  2.339782172E+01 -5.729721416E+02  5.873243836E+02  1.250003835E+02  0.00000E+00  9.000E+00
       5     1     1     2   501     0 -4.065239643E+00  1.956952876E+00  1.455887323E+01  1.596493431E+01  4.750000000E+00  0.00000E+00  9.000E+00
      -5     1     1     2     0   503  2.665595789E+01 -1.019282238E+01 -4.523275318E+02  4.532517979E+02  4.750000000E+00  0.00000E+00  9.000E+00
      21     1     1     2   502   511 -6.749095946E-01 -1.516195222E+01  9.889701311E+01  1.000547825E+02  4.046097457E-06  0.00000E+00  9.000E+00
#rwgt            1           9   2.3837970606733846E-004           7     2204669           0
</event>
<event>
      6   9999  3.45752E-01  4.96373E+01 -1.00000E+00  1.34957E-01
      21    -1     0     0   501   512  0.000000000E+00  0.000000000E+00  4.101686904E+01  4.101686904E+01  0.000000000E+00  0.00000E+00  9.000E+00
      21    -1     0     0   502   503  0.000000000E+00  0.000000000E+00 -1.006984055E+03  1.006984055E+03  0.000000000E+00  0.00000E+00  9.000E+00
      25     1     1     2     0     0 -1.742267029E+00  3.883887181E+01 -4.356880259E+02  4.549153826E+02  1.249498137E+02  0.00000E+00  9.000E+00
       5     1     1     2   501     0 -1.354853109E+01 -6.567505849E+01 -1.422812122E+02  1.573635340E+02  4.750000000E+00  0.00000E+00  9.000E+00
      -5     1     1     2     0   503  6.175380830E+01  4.430181912E+01 -3.773482582E+02  3.849551331E+02  4.750000000E+00  0.00000E+00  9.000E+00
      21     1     1     2   502   512 -4.646301018E+01 -1.746563245E+01 -1.064968959E+01  5.076687424E+01  8.920806376E-07  0.00000E+00  9.000E+00
#rwgt            1           9   2.3711959536277361E-002           7     2206870           0
</event>
<event>
      6   9999  3.45752E-01  1.44178E+02 -1.00000E+00  1.14049E-01
      21    -1     0     0   501   511  0.000000000E+00  0.000000000E+00  2.107361542E+03  2.107361542E+03  0.000000000E+00  0.00000E+00  9.000E+00
      21    -1     0     0   502   503  0.000000000E+00  0.000000000E+00 -1.620901722E+03  1.620901722E+03  0.000000000E+00  0.00000E+00  9.000E+00
      25     1     1     2     0     0  9.379035400E+01  2.394180653E+02 -1.279974802E+03  1.311518701E+03  1.250126782E+02  0.00000E+00  9.000E+00
       5     1     1     2   501     0  1.591192465E+01 -1.786570849E+02 -4.443649047E+01  1.848477956E+02  4.750000000E+00  0.00000E+00  9.000E+00
      -5     1     1     2     0   503 -2.334730150E+00  3.546509807E+01 -2.063940795E+02  2.094858055E+02  4.750000000E+00  0.00000E+00  9.000E+00
      21     1     1     2   502   511 -1.073675485E+02 -9.622607840E+01  2.017265191E+03  2.022410962E+03  0.000000000E+00  0.00000E+00  9.000E+00
#rwgt            1           9   1.4301785324706890E-004           7     2207649           0
</event>
<event>
      6   9999  3.45752E-01  5.94943E+00 -1.00000E+00  2.14571E-01
      21    -1     0     0   501   502  0.000000000E+00  0.000000000E+00  3.825062633E+01  3.825062633E+01  0.000000000E+00  0.00000E+00  9.000E+00
      21    -1     0     0   502   512  0.000000000E+00  0.000000000E+00 -1.739294392E+03  1.739294392E+03  0.000000000E+00  0.00000E+00  9.000E+00
      25     1     1     2     0     0  3.173893763E+01  2.112873452E+01 -6.756307888E+02  6.881539772E+02  1.250005998E+02  0.00000E+00  9.000E+00
       5     1     1     2   501     0  7.657106830E+00 -6.178446887E+00  3.033425309E+01  3.224180363E+01  4.750000000E+00  0.00000E+00  9.000E+00
      -5     1     1     2     0   503 -3.388863456E+01 -1.720064583E+01 -5.354531169E+02  5.368211105E+02  4.750000000E+00  0.00000E+00  9.000E+00
      21     1     1     2   503   512 -5.507409900E+00  2.250358197E+00 -5.202941134E+02  5.203281274E+02  1.078959322E-05  0.00000E+00  9.000E+00
#rwgt            1           9   4.2674754547457226E-003           7     2208376           0
</event>
<event>
      6   9999  3.45752E-01  2.58332E+01 -1.00000E+00  1.52165E-01
      21    -1     0     0   501   502  0.000000000E+00  0.000000000E+00  4.684961651E+01  4.684961651E+01  0.000000000E+00  0.00000E+00  9.000E+00
      21    -1     0     0   511   503  0.000000000E+00  0.000000000E+00 -4.414958271E+02  4.414958271E+02  0.000000000E+00  0.00000E+00  9.000E+00
      25     1     1     2     0     0  1.468314296E+01  1.678539944E+01 -1.686821370E+02  2.111304457E+02  1.250002297E+02  0.00000E+00  9.000E+00
       5     1     1     2   501     0 -5.800209759E+00  7.941005553E+00  2.159415223E+01  2.419859320E+01  4.750000000E+00  0.00000E+00  9.000E+00
      -5     1     1     2     0   503 -2.137493010E+01 -2.114385288E+00 -1.663514245E+02  1.677996341E+02  4.750000000E+00  0.00000E+00  9.000E+00
      21     1     1     2   511   502  1.249199690E+01 -2.261201971E+01 -8.120680130E+01  8.521677064E+01  9.536743164E-07  0.00000E+00  9.000E+00
#rwgt            1           9   1.1387618144930414                7     2213531           0
</event>
<event>
      6   9999  3.45752E-01  2.23189E+01 -1.00000E+00  1.56657E-01
      21    -1     0     0   512   503  0.000000000E+00  0.000000000E+00  8.237015705E+01  8.237015705E+01  0.000000000E+00  0.00000E+00  9.000E+00
      21    -1     0     0   501   502  0.000000000E+00  0.000000000E+00 -1.189558755E+03  1.189558755E+03  0.000000000E+00  0.00000E+00  9.000E+00
      25     1     1     2     0     0 -2.360833533E+01  1.146674320E+01 -9.618710527E+02  9.703153960E+02  1.250088238E+02  0.00000E+00  9.000E+00
       5     1     1     2   501     0  2.920238999E+00 -1.718405497E+01 -1.778570995E+02  1.787722850E+02  4.750000000E+00  0.00000E+00  9.000E+00
      -5     1     1     2     0   503 -7.946983441E-01 -3.342585784E-01 -4.341133066E+01  4.367893547E+01  4.750000000E+00  0.00000E+00  9.000E+00
      21     1     1     2   512   502  2.148279468E+01  6.051570352E+00  7.595088540E+01  7.916229509E+01  4.473129043E-06  0.00000E+00  9.000E+00
#rwgt            1           9   11.976909991662364                7     2214975           0
</event>
<event>
      6   9999  3.45752E-01  3.59312E+00 -1.00000E+00  2.57905E-01
      21    -1     0     0   501   502  0.000000000E+00  0.000000000E+00  4.120446493E+01  4.120446493E+01  0.000000000E+00  0.00000E+00  9.000E+00
       2    -1     0     0   502     0  0.000000000E+00  0.000000000E+00 -7.025414060E+02  7.025414060E+02  0.000000000E+00  0.00000E+00  9.000E+00
      25     1     1     2     0     0  1.236427083E+00 -2.019552956E+01 -1.496155045E+02  1.960035937E+02  1.249928853E+02  0.00000E+00  9.000E+00
       5     1     1     2   501     0  7.700639064E-01 -2.402554451E-01  1.043472229E+01  1.149333069E+01  4.750000000E+00  0.00000E+00  9.000E+00
      -5     1     1     2     0   503 -1.038785809E+00  1.697543113E+01 -4.032262831E+00  1.811259179E+01  4.750000000E+00  0.00000E+00  9.000E+00
       2     1     1     2   503     0 -9.677051801E-01  3.460353875E+00 -5.181238960E+02  5.181363548E+02  7.629394531E-06  0.00000E+00  9.000E+00
#rwgt            1           9   4.6890696821957645E-004           7     2215879           0
</event>
<event>
      6   9999  3.45752E-01  5.33766E+00 -1.00000E+00  2.21388E-01
      21    -1     0     0   501   511  0.000000000E+00  0.000000000E+00  4.664820731E+01  4.664820731E+01  0.000000000E+00  0.00000E+00  9.000E+00
      21    -1     0     0   502   503  0.000000000E+00  0.000000000E+00 -8.047805797E+02  8.047805797E+02  0.000000000E+00  0.00000E+00  9.000E+00
      25     1     1     2     0     0 -3.312455989E+01  1.867650645E+01 -5.700141245E+02  5.847971317E+02  1.250021386E+02  0.00000E+00  9.000E+00
       5     1     1     2   501     0  5.508630096E-01  5.886214933E-02 -3.156741522E+00  5.730133668E+00  4.750000000E+00  0.00000E+00  9.000E+00
      -5     1     1     2     0   503  3.507969645E+01 -2.344817739E+01 -2.207096868E+02  2.247570477E+02  4.750000000E+00  0.00000E+00  9.000E+00
      21     1     1     2   502   511 -2.505999572E+00  4.712808794E+00  3.574818043E+01  3.614447406E+01  6.743495762E-07  0.00000E+00  9.000E+00
#rwgt            1           9   4.8763850947553680E-005           7     2220948           0
</event>
<event>
      6   9999  3.45752E-01  8.77195E+00 -1.00000E+00  1.93394E-01
      21    -1     0     0   501   512  0.000000000E+00  0.000000000E+00  4.278845376E+01  4.278845376E+01  0.000000000E+00  0.00000E+00  9.000E+00
      21    -1     0     0   502   503  0.000000000E+00  0.000000000E+00 -9.535330442E+02  9.535330442E+02  0.000000000E+00  0.00000E+00  9.000E+00
      25     1     1     2     0     0  3.029622139E+00  3.342948245E+01 -3.684908952E+02  3.905612926E+02  1.250034982E+02  0.00000E+00  9.000E+00
       5     1     1     2   501     0 -2.712908821E+00 -1.067179575E+00  3.915231692E+00  6.811041456E+00  4.750000000E+00  0.00000E+00  9.000E+00
      -5     1     1     2     0   503 -6.507324004E+00 -3.857707564E+01 -5.711318297E+02  5.724898824E+02  4.750000000E+00  0.00000E+00  9.000E+00
      21     1     1     2   502   512  6.190610686E+00  6.214772759E+00  2.496290278E+01  2.645928148E+01  1.118282261E-06  0.00000E+00  9.000E+00
#rwgt            1           9   2.0147008595570738E-004           7     2226324           0
</event>
<event>
      6   9999  3.45752E-01  1.65983E+01 -1.00000E+00  1.66647E-01
      21    -1     0     0   501   511  0.000000000E+00  0.000000000E+00  2.134026419E+01  2.134026419E+01  0.000000000E+00  0.00000E+00  9.000E+00
      21    -1     0     0   502   503  0.000000000E+00  0.000000000E+00 -6.883086564E+02  6.883086564E+02  0.000000000E+00  0.00000E+00  9.000E+00
      25     1     1     2     0     0 -9.609591015E+00  3.312502068E+00 -5.572251534E+02  5.711638204E+02  1.249996850E+02  0.00000E+00  9.000E+00
       5     1     1     2   501     0 -9.478842831E-01  1.874685124E+00 -6.656820065E+01  6.677050821E+01  4.750000000E+00  0.00000E+00  9.000E+00
      -5     1     1     2     0   503 -5.305827638E+00 -3.025827566E-01 -5.229315512E+01  5.277669880E+01  4.750000000E+00  0.00000E+00  9.000E+00
      21     1     1     2   502   511  1.586330294E+01 -4.884604435E+00  9.118116975E+00  1.893789317E+01  1.174075341E-06  0.00000E+00  9.000E+00
#rwgt            1           9   1.1437328927313612E-004           7     2229821           0
</event>
<event>
      6   9999  3.45752E-01  8.32501E+01 -1.00000E+00  1.23918E-01
      21    -1     0     0   501   512  0.000000000E+00  0.000000000E+00  1.202967286E+02  1.202967286E+02  0.000000000E+00  0.00000E+00  9.000E+00
      21    -1     0     0   502   503  0.000000000E+00  0.000000000E+00 -1.780289503E+03  1.780289503E+03  0.000000000E+00  0.00000E+00  9.000E+00
      25     1     1     2     0     0 -9.182119538E+00  7.057106327E+01 -1.440216817E+03  1.447381549E+03  1.249971338E+02  0.00000E+00  9.000E+00
       5     1     1     2   501     0  5.455703031E+00  2.019849937E+01  9.437486773E+01  9.678286125E+01  4.750000000E+00  0.00000E+00  9.000E+00
      -5     1     1     2     0   503 -8.525472876E+00 -8.425938580E+00 -2.525008545E+02  2.528298324E+02  4.750000000E+00  0.00000E+00  9.000E+00
      21     1     1     2   502   512  1.225188938E+01 -8.234362406E+01 -6.164997089E+01  1.035919887E+02  1.507891493E-06  0.00000E+00  9.000E+00
#rwgt            1           9   1.5029605898433036E-003           7     2232258           0
</event>
<event>
      6   9999  3.45752E-01  4.56255E+00 -1.00000E+00  2.36586E-01
      -2    -1     0     0     0   502  0.000000000E+00  0.000000000E+00  4.245050814E+01  4.245050814E+01  0.000000000E+00  0.00000E+00  9.000E+00
      21    -1     0     0   502   503  0.000000000E+00  0.000000000E+00 -1.150641901E+03  1.150641901E+03  0.000000000E+00  0.00000E+00  9.000E+00
      25     1     1     2     0     0  8.347480104E+00 -2.421889993E+01 -9.509081066E+02  9.594310154E+02  1.250016425E+02  0.00000E+00  9.000E+00
       5     1     1     2   501     0 -1.332468702E+00  2.174783462E+00  5.335013110E+00  7.584854701E+00  4.750000000E+00  0.00000E+00  9.000E+00
      -5     1     1     2     0   503 -2.481558257E+00  2.255855826E+01 -1.934875868E+02  1.948718949E+02  4.750000000E+00  0.00000E+00  9.000E+00
      -2     1     1     2     0   501 -4.533453145E+00 -5.144417902E-01  3.086928790E+01  3.120464362E+01  1.719260824E-06  0.00000E+00  9.000E+00
#rwgt            1           9  0.10026247535378527                7     2233320           0
</event>
<event>
      6   9999 -3.45752E-01  2.37307E+01 -1.00000E+00  1.54740E-01
      21    -1     0     0   511   502  0.000000000E+00  0.000000000E+00  2.812371963E+02  2.812371963E+02  0.000000000E+00  0.00000E+00  9.000E+00
      21    -1     0     0   502   503  0.000000000E+00  0.000000000E+00 -5.400950264E+02  5.400950264E+02  0.000000000E+00  0.00000E+00  9.000E+00
      25     1     1     2     0     0  2.953708553E+01 -4.173413129E+01 -3.132569497E+02  3.411306979E+02  1.250042375E+02  0.00000E+00  9.000E+00
       5     1     1     2   501     0 -1.248542817E+00 -1.576760537E+01  4.671772995E+01  4.955083279E+01  4.750000000E+00  0.00000E+00  9.000E+00
      -5     1     1     2     0   503 -3.285033942E+01  3.421360095E+01 -2.081398921E+02  2.135286689E+02  4.750000000E+00  0.00000E+00  9.000E+00
      21     1     1     2   511   501  4.561796710E+00  2.328813570E+01  2.158212817E+02  2.171220230E+02  0.000000000E+00  0.00000E+00  9.000E+00
#rwgt            1           9  -17.146040873399684                7     2237719           0
</event>
<event>
      6   9999  3.45752E-01  1.04332E+01 -1.00000E+00  1.85274E-01
      21    -1     0     0   512   502  0.000000000E+00  0.000000000E+00  1.652123065E+02  1.652123065E+02  0.000000000E+00  0.00000E+00  9.000E+00
      21    -1     0     0   502   503  0.000000000E+00  0.000000000E+00 -4.426793742E+02  4.426793742E+02  0.000000000E+00  0.00000E+00  9.000E+00
      25     1     1     2     0     0  1.303861050E+02 -1.172457961E+01 -3.230221913E+02  3.702792556E+02  1.250015556E+02  0.00000E+00  9.000E+00
       5     1     1     2   501     0  2.059890246E+00  4.411861538E+00  9.551788855E+01  9.575978907E+01  4.750000000E+00  0.00000E+00  9.000E+00
      -5     1     1     2     0   503 -1.220845846E+02  6.090613132E+00 -4.615436670E+01  1.307460493E+02  4.750000000E+00  0.00000E+00  9.000E+00
      21     1     1     2   512   501 -1.036141069E+01  1.222104944E+00 -3.808398244E+00  1.110658674E+01  1.460009660E-07  0.00000E+00  9.000E+00
#rwgt            1           9   8.5802417683620637E-006           7     2239601           0
</event>
<event>
      6   9999  3.45752E-01  5.77115E+00 -1.00000E+00  2.16438E-01
      21    -1     0     0   501   502  0.000000000E+00  0.000000000E+00  1.021024652E+03  1.021024652E+03  0.000000000E+00  0.00000E+00  9.000E+00
      21    -1     0     0   511   503  0.000000000E+00  0.000000000E+00 -3.021279547E+01  3.021279547E+01  0.000000000E+00  0.00000E+00  9.000E+00
      25     1     1     2     0     0 -6.085763470E+01  1.505941204E+01  2.940073449E+02  3.255722353E+02  1.250060958E+02  0.00000E+00  9.000E+00
       5     1     1     2   501     0 -1.003277960E+00 -5.305151782E+00  5.650935781E+02  5.651393330E+02  4.750000000E+00  0.00000E+00  9.000E+00
      -5     1     1     2     0   503  5.732288200E+01 -1.331970873E+01  1.391225815E+02  1.511323349E+02  4.750000000E+00  0.00000E+00  9.000E+00
      21     1     1     2   511   502  4.538030657E+00  3.565448469E+00 -7.411648099E+00  9.393544196E+00  1.192092896E-07  0.00000E+00  9.000E+00
#rwgt            1           9   2.6086296224166940E-002           7     2243656           0
</event>
<event>
      6   9999  3.45752E-01  4.07245E+00 -1.00000E+00  2.46247E-01
      21    -1     0     0   512   502  0.000000000E+00  0.000000000E+00  3.600846189E+02  3.600846189E+02  0.000000000E+00  0.00000E+00  9.000E+00
      21    -1     0     0   502   503  0.000000000E+00  0.000000000E+00 -7.412243560E+02  7.412243560E+02  0.000000000E+00  0.00000E+00  9.000E+00
      25     1     1     2     0     0 -4.218856359E+00 -1.578425980E+01 -6.805018706E+02  6.920800699E+02  1.250003427E+02  0.00000E+00  9.000E+00
       5     1     1     2   501     0  1.012224119E+00 -1.950787817E-01 -6.847539803E-01  4.908568163E+00  4.750000000E+00  0.00000E+00  9.000E+00
      -5     1     1     2     0   503  7.170434278E+00  1.504491350E+01 -5.068448325E+01  5.356532360E+01  4.750000000E+00  0.00000E+00  9.000E+00
      21     1     1     2   512   501 -3.963802039E+00  9.344250893E-01  3.507313708E+02  3.507550133E+02  3.814697266E-06  0.00000E+00  9.000E+00
#rwgt            1           9   1.9383239497259113E-004           7     2248661           0
</event>
<event>
      6   9999  3.45752E-01  2.21515E+01 -1.00000E+00  1.56896E-01
      21    -1     0     0   511   503  0.000000000E+00  0.000000000E+00  1.434710234E+03  1.434710234E+03  0.000000000E+00  0.00000E+00  9.000E+00
      21    -1     0     0   501   502  0.000000000E+00  0.000000000E+00 -8.033686348E+02  8.033686348E+02  0.000000000E+00  0.00000E+00  9.000E+00
      25     1     1     2     0     0  5.780623083E+00 -1.676891053E+01 -4.277201435E+02  4.459645965E+02  1.250011532E+02  0.00000E+00  9.000E+00
       5     1     1     2   501     0 -4.344073629E+00  7.444703896E+00 -3.294259764E+02  3.295729525E+02  4.750000000E+00  0.00000E+00  9.000E+00
      -5     1     1     2     0   503 -2.100707677E+00 -1.281731440E+01 -3.564630125E+01  3.823503385E+01  4.750000000E+00  0.00000E+00  9.000E+00
      21     1     1     2   511   502  6.641582233E-01  2.214152104E+01  1.424134020E+03  1.424306286E+03  3.051757812E-05  0.00000E+00  9.000E+00
#rwgt            1           9  0.29710724090700369                7     2253849           0
</event>
<event>
      6   9999  3.45752E-01  3.80693E+00 -1.00000E+00  2.52382E-01
      -3    -1     0     0     0   502  0.000000000E+00  0.000000000E+00  3.344032427E+00  3.344032427E+00  0.000000000E+00  0.00000E+00  9.000E+00
      21    -1     0     0   502   503  0.000000000E+00  0.000000000E+00 -2.150781323E+03  2.150781323E+03  0.000000000E+00  0.00000E+00  9.000E+00
      25     1     1     2     0     0 -1.840054382E+01 -1.554880426E+01 -1.922916346E+03  1.927125618E+03  1.250021174E+02  0.00000E+00  9.000E+00
       5     1     1     2   501     0  3.777300041E+00  1.818100543E-01 -3.353147613E+01  3.407672875E+01  4.750000000E+00  0.00000E+00  9.000E+00
      -5     1     1     2     0   503  1.730408994E+01  1.266407385E+01 -1.790323733E+02  1.803745090E+02  4.750000000E+00  0.00000E+00  9.000E+00
      -3     1     1     2     0   501 -2.680846153E+00  2.702920359E+00 -1.195709441E+01  1.254849876E+01  7.348554138E-07  0.00000E+00  9.000E+00
#rwgt            1           9   6.9772346201931162E-003           7     2255283           0
</event>
<event>
      6   9999  3.45752E-01  9.47244E+00 -1.00000E+00  1.89708E-01
      21    -1     0     0   501   502  0.000000000E+00  0.000000000E+00  1.901505073E+03  1.901505073E+03  0.000000000E+00  0.00000E+00  9.000E+00
      21    -1     0     0   511   503  0.000000000E+00  0.000000000E+00 -2.611653226E+03  2.611653226E+03  0.000000000E+00  0.00000E+00  9.000E+00
      25     1     1     2     0     0  9.188004939E+00  1.375067285E+01  1.709688738E+02  2.124337644E+02  1.249969920E+02  0.00000E+00  9.000E+00
       5     1     1     2   501     0 -3.818089102E+00 -4.809864224E+00  1.696757281E+03  1.696775043E+03  4.750000000E+00  0.00000E+00  9.000E+00
      -5     1     1     2     0   503  3.362604447E+00 -5.270617879E+00  1.184600415E+01  1.421185547E+01  4.750000000E+00  0.00000E+00  9.000E+00
      21     1     1     2   511   502 -8.732520284E+00 -3.670190749E+00 -2.589720312E+03  2.589737636E+03  0.000000000E+00  0.00000E+00  9.000E+00
#rwgt            1           9   1.7853411128495247E-004           7     2259670           0
</event>
<event>
      6   9999  3.45752E-01  1.20785E+01 -1.00000E+00  1.78949E-01
      21    -1     0     0   501   502  0.000000000E+00  0.000000000E+00  1.597912964E+01  1.597912964E+01  0.000000000E+00  0.00000E+00  9.000E+00
       2    -1     0     0   502     0  0.000000000E+00  0.000000000E+00 -1.612475002E+03  1.612475002E+03  0.000000000E+00  0.00000E+00  9.000E+00
      25     1     1     2     0     0 -3.950993623E+01  3.574415723E+00 -5.115105001E+02  5.280540252E+02  1.249970015E+02  0.00000E+00  9.000E+00
       5     1     1     2   501     0  1.383077826E+00  3.024547406E-01  4.780291086E+00  6.886077694E+00  4.750000000E+00  0.00000E+00  9.000E+00
      -5     1     1     2     0   503  4.495116394E+01 -1.384281104E+01 -3.038429996E+02  3.074985552E+02  4.750000000E+00  0.00000E+00  9.000E+00
       2     1     1     2   503     0 -6.824305539E+00  9.965940581E+00 -7.859226638E+02  7.860154735E+02  1.078959322E-05  0.00000E+00  9.000E+00
#rwgt            1           9   1.2873232419825279E-003           7     2263625           0
</event>
<event>
      6   9999  3.45752E-01  8.74523E+00 -1.00000E+00  1.93543E-01
      21    -1     0     0   511   503  0.000000000E+00  0.000000000E+00  5.712112403E+01  5.712112403E+01  0.000000000E+00  0.00000E+00  9.000E+00
      21    -1     0     0   501   502  0.000000000E+00  0.000000000E+00 -7.556104359E+02  7.556104359E+02  0.000000000E+00  0.00000E+00  9.000E+00
      25     1     1     2     0     0 -2.661306671E+01  1.137525485E+01 -5.609341407E+02  5.754204257E+02  1.249956173E+02  0.00000E+00  9.000E+00
       5     1     1     2   501     0  2.204292746E+01 -1.812153530E+01 -1.617964453E+02  1.643622003E+02  4.750000000E+00  0.00000E+00  9.000E+00
      -5     1     1     2     0   503 -1.963035519E-01 -5.858415380E-01 -2.371901453E+01  2.419784899E+01  4.750000000E+00  0.00000E+00  9.000E+00
      21     1     1     2   511   502  4.766442808E+00  7.332121985E+00  4.796028867E+01  4.875108490E+01  2.132480600E-06  0.00000E+00  9.000E+00
#rwgt            1           9   1.3459584377072784E-003           7     2266044           0
</event>
<event>
      6   9999  3.45752E-01  2.63220E+01 -1.00000E+00  1.51609E-01
      21    -1     0     0   512   503  0.000000000E+00  0.000000000E+00  2.098001305E+01  2.098001305E+01  0.000000000E+00  0.00000E+00  9.000E+00
      21    -1     0     0   501   502  0.000000000E+00  0.000000000E+00 -7.682994836E+02  7.682994836E+02  0.000000000E+00  0.00000E+00  9.000E+00
      25     1     1     2     0     0  1.182448702E+01 -5.779899714E+00 -3.859075810E+02  4.058700272E+02  1.250303650E+02  0.00000E+00  9.000E+00
       5     1     1     2   501     0  3.614385712E+00  2.747358692E+01 -2.746409456E+02  2.760762092E+02  4.750000000E+00  0.00000E+00  9.000E+00
      -5     1     1     2     0   503 -1.052619862E+01  4.165770735E+00 -7.891464179E+01  7.986386976E+01  4.750000000E+00  0.00000E+00  9.000E+00
      21     1     1     2   512   502 -4.912674118E+00 -2.585945794E+01 -7.856302144E+00  2.746939051E+01  1.195069412E-06  0.00000E+00  9.000E+00
#rwgt            1           9   1.1215092301939621E-003           7     2268299           0
</event>
<event>
      6   9999  3.45752E-01  5.18983E+00 -1.00000E+00  2.23227E-01
      21    -1     0     0   501   502  0.000000000E+00  0.000000000E+00  1.111517186E+01  1.111517186E+01  0.000000000E+00  0.00000E+00  9.000E+00
      21    -1     0     0   511   503  0.000000000E+00  0.000000000E+00 -8.610448700E+02  8.610448700E+02  0.000000000E+00  0.00000E+00  9.000E+00
      25     1     1     2     0     0  3.149726841E+00 -3.244013765E+00 -7.838542666E+02  7.937713634E+02  1.250000867E+02  0.00000E+00  9.000E+00
       5     1     1     2   501     0  5.295646288E-01 -3.445648842E+00  4.163145784E+00  7.214375749E+00  4.750000000E+00  0.00000E+00  9.000E+00
      -5     1     1     2     0   503 -8.243334512E-01  2.355662207E+00 -2.146935589E+01  2.212971786E+01  4.750000000E+00  0.00000E+00  9.000E+00
      21     1     1     2   511   502 -2.854958018E+00  4.334000399E+00 -4.876922142E+01  4.904458485E+01  9.536743164E-07  0.00000E+00  9.000E+00
#rwgt            1           9   1.1722585187940763E-003           7     2269354           0
</event>
<event>
      6   9999  3.45752E-01  5.16988E+00 -1.00000E+00  2.23481E-01
      21    -1     0     0   501   502  0.000000000E+00  0.000000000E+00  1.780118314E+01  1.780118314E+01  0.000000000E+00  0.00000E+00  9.000E+00
      21    -1     0     0   512   503  0.000000000E+00  0.000000000E+00 -9.749541105E+02  9.749541105E+02  0.000000000E+00  0.00000E+00  9.000E+00
      25     1     1     2     0     0  1.160796545E+00 -6.482171405E+01 -6.488953739E+02  6.640005610E+02  1.250133461E+02  0.00000E+00  9.000E+00
       5     1     1     2   501     0  2.903548944E+00  1.572686180E+00  4.957148008E+00  7.618382680E+00  4.750000000E+00  0.00000E+00  9.000E+00
      -5     1     1     2     0   503  6.472533260E-01  6.537705582E+01 -2.839498991E+02  2.914184038E+02  4.750000000E+00  0.00000E+00  9.000E+00
      21     1     1     2   512   502 -4.711598814E+00 -2.128027951E+00 -2.926480234E+01  2.971794613E+01  3.371747881E-07  0.00000E+00  9.000E+00
#rwgt            1           9   1.3223455693131651E-006           7     2273442           0
</event>
<event>
      6   9999  3.45752E-01  6.83455E+00 -1.00000E+00  2.06471E-01
      21    -1     0     0   502   511  0.000000000E+00  0.000000000E+00  2.465022493E+01  2.465022493E+01  0.000000000E+00  0.00000E+00  9.000E+00
      21    -1     0     0   501   502  0.000000000E+00  0.000000000E+00 -8.749918351E+02  8.749918351E+02  0.000000000E+00  0.00000E+00  9.000E+00
      25     1     1     2     0     0 -5.675849034E+00 -1.127667981E+01 -2.937156751E+02  3.194578002E+02  1.250000381E+02  0.00000E+00  9.000E+00
       5     1     1     2   501     0  5.270570594E-01 -1.548180554E-01 -5.098569319E+02  5.098793537E+02  4.750000000E+00  0.00000E+00  9.000E+00
      -5     1     1     2     0   503 -1.640297604E+00  1.221847795E+01 -5.671698036E+01  5.823538565E+01  4.750000000E+00  0.00000E+00  9.000E+00
      21     1     1     2   503   511  6.789089579E+00 -7.869800864E-01  9.947977218E+00  1.206952052E+01  2.384185791E-07  0.00000E+00  9.000E+00
#rwgt            1           9  0.13821272395323445                7     2277560           0
</event>
<event>
      6   9999  3.45752E-01  7.25645E+00 -1.00000E+00  2.03167E-01
      21    -1     0     0   501   502  0.000000000E+00  0.000000000E+00  3.822409105E+02  3.822409105E+02  0.000000000E+00  0.00000E+00  9.000E+00
      21    -1     0     0   502   512  0.000000000E+00  0.000000000E+00 -7.027897887E+01  7.027897887E+01  0.000000000E+00  0.00000E+00  9.000E+00
      25     1     1     2     0     0 -2.623591431E+00 -2.885587372E+00  1.772515803E+02  2.169279959E+02  1.249976913E+02  0.00000E+00  9.000E+00
       5     1     1     2   501     0 -2.855819098E+00 -2.544405469E+00  1.784454986E+02  1.785496799E+02  4.750000000E+00  0.00000E+00  9.000E+00
      -5     1     1     2     0   503 -3.185041055E-01  1.066483801E+00  5.455784068E+00  7.318942024E+00  4.750000000E+00  0.00000E+00  9.000E+00
      21     1     1     2   503   512  5.797914634E+00  4.363509040E+00 -4.919093129E+01  4.972327168E+01  1.168007728E-06  0.00000E+00  9.000E+00
#rwgt            1           9   3.9021185493077405E-002           7     2280759           0
</event>
<event>
      6   9999  3.45752E-01  1.13304E+01 -1.00000E+00  1.81655E-01
      21    -1     0     0   501   502  0.000000000E+00  0.000000000E+00  1.108874466E+01  1.108874466E+01  0.000000000E+00  0.00000E+00  9.000E+00
      21    -1     0     0   502   511  0.000000000E+00  0.000000000E+00 -1.927222446E+03  1.927222446E+03  0.000000000E+00  0.00000E+00  9.000E+00
      25     1     1     2     0     0 -2.285750992E+01 -7.151635602E+01 -6.837127170E+02  6.990899483E+02  1.250064862E+02  0.00000E+00  9.000E+00
       5     1     1     2   501     0  3.858234195E-01  5.028835425E-01 -4.530139812E+00  6.594423271E+00  4.750000000E+00  0.00000E+00  9.000E+00
      -5     1     1     2     0   503  1.835122724E+01  8.156807325E+01 -7.601537476E+02  7.647525093E+02  4.750000000E+00  0.00000E+00  9.000E+00
      21     1     1     2   503   511  4.120459257E+00 -1.055460077E+01 -4.677370969E+02  4.678743096E+02  7.629394531E-06  0.00000E+00  9.000E+00
#rwgt            1           9   2.3981764982567471E-005           7     2283969           0
</event>
<event>
      6   9999  3.45752E-01  3.31485E+01 -1.00000E+00  1.45088E-01
      21    -1     0     0   512   503  0.000000000E+00  0.000000000E+00  2.481064275E+01  2.481064275E+01  0.000000000E+00  0.00000E+00  9.000E+00
      21    -1     0     0   501   502  0.000000000E+00  0.000000000E+00 -8.998688610E+02  8.998688610E+02  0.000000000E+00  0.00000E+00  9.000E+00
      25     1     1     2     0     0  1.989008162E+01  1.306967385E+01 -4.044775319E+02  4.240213852E+02  1.250025180E+02  0.00000E+00  9.000E+00
       5     1     1     2   501     0 -6.212505894E+00  6.157573422E+00 -2.057815972E+02  2.060221813E+02  4.750000000E+00  0.00000E+00  9.000E+00
      -5     1     1     2     0   503 -4.650237688E+01 -2.384867337E+01 -2.546029634E+02  2.599547301E+02  4.750000000E+00  0.00000E+00  9.000E+00
      21     1     1     2   512   502  3.282480116E+01  4.621426092E+00 -1.019612577E+01  3.468120717E+01  1.209842153E-06  0.00000E+00  9.000E+00
#rwgt            1           9   1.8934135483391343E-003           7     2286646           0
</event>
<event>
      6   9999  3.45752E-01  6.20315E+00 -1.00000E+00  2.12063E-01
      21    -1     0     0   501   511  0.000000000E+00  0.000000000E+00  5.519880998E+01  5.519880998E+01  0.000000000E+00  0.00000E+00  9.000E+00
      21    -1     0     0   502   503  0.000000000E+00  0.000000000E+00 -1.092694850E+03  1.092694850E+03  0.000000000E+00  0.00000E+00  9.000E+00
      25     1     1     2     0     0  5.451647738E+00  1.166764771E+00 -1.058802458E+03  1.066170231E+03  1.250009408E+02  0.00000E+00  9.000E+00
       5     1     1     2   501     0 -6.063888531E+00  4.171801474E-01  2.236239596E+01  2.365552867E+01  4.750000000E+00  0.00000E+00  9.000E+00
      -5     1     1     2     0   503 -2.328717908E+00 -7.045608666E+00 -2.855219067E+01  2.988065629E+01  4.750000000E+00  0.00000E+00  9.000E+00
      21     1     1     2   502   511  2.940958701E+00  5.461663748E+00  2.749621258E+01  2.818724384E+01  0.000000000E+00  0.00000E+00  9.000E+00
#rwgt            1           9   5.4594082885719303E-004           7     2287642           0
</event>
<event>
      6   9999 -3.45752E-01  5.20424E+00 -1.00000E+00  2.23044E-01
      21    -1     0     0   512   502  0.000000000E+00  0.000000000E+00  5.671104396E+01  5.671104396E+01  0.000000000E+00  0.00000E+00  9.000E+00
      21    -1     0     0   502   503  0.000000000E+00  0.000000000E+00 -1.162238533E+02  1.162238533E+02  0.000000000E+00  0.00000E+00  9.000E+00
      25     1     1     2     0     0 -9.212254328E+00 -4.107768065E+00 -7.548055845E+01  1.463680377E+02  1.249981935E+02  0.00000E+00  9.000E+00
       5     1     1     2   501     0 -1.300353548E-01  4.949709244E-01  1.271489891E+01  1.358282223E+01  4.750000000E+00  0.00000E+00  9.000E+00
      -5     1     1     2     0   503  5.469042343E+00  1.368640640E-01  2.773244217E+00  7.757740613E+00  4.750000000E+00  0.00000E+00  9.000E+00
      21     1     1     2   512   501  3.873247339E+00  3.475933077E+00  4.796059404E-01  5.226296735E+00  7.048580024E-08  0.00000E+00  9.000E+00
#rwgt            1           9  -2.7786565579813961E-004           7     2292460           0
</event>
<event>
      6   9999  3.45752E-01  1.33519E+01 -1.00000E+00  1.74872E-01
      21    -1     0     0   501   502  0.000000000E+00  0.000000000E+00  2.439286442E+02  2.439286442E+02  0.000000000E+00  0.00000E+00  9.000E+00
      21    -1     0     0   511   503  0.000000000E+00  0.000000000E+00 -5.880370876E+01  5.880370876E+01  0.000000000E+00  0.00000E+00  9.000E+00
      25     1     1     2     0     0  5.604686736E+00 -8.983154210E+00  9.563787242E+01  1.577493743E+02  1.250046114E+02  0.00000E+00  9.000E+00
       5     1     1     2   501     0  5.609877888E-01 -7.884901540E-01  1.093222973E+02  1.094297200E+02  4.750000000E+00  0.00000E+00  9.000E+00
      -5     1     1     2     0   503  1.524317708E-01 -1.990820890E+00  5.111677856E+00  7.257985517E+00  4.750000000E+00  0.00000E+00  9.000E+00
      21     1     1     2   511   502 -6.318106296E+00  1.176246525E+01 -2.494691217E+01  2.829527315E+01  6.743495762E-07  0.00000E+00  9.000E+00
#rwgt            1           9   4.9691873763536898E-002           7     2296935           0
</event>
<event>
      6   9999  3.45752E-01  1.52745E+01 -1.00000E+00  1.69692E-01
      21    -1     0     0   501   502  0.000000000E+00  0.000000000E+00  4.491118773E+01  4.491118773E+01  0.000000000E+00  0.00000E+00  9.000E+00
      21    -1     0     0   512   503  0.000000000E+00  0.000000000E+00 -2.489437142E+03  2.489437142E+03  0.000000000E+00  0.00000E+00  9.000E+00
      25     1     1     2     0     0 -1.677936343E+01 -2.249602814E+00 -7.278068758E+02  7.386571675E+02  1.249998194E+02  0.00000E+00  9.000E+00
       5     1     1     2   501     0 -3.358908997E+00  3.431896654E+00  3.904037675E+01  3.962036977E+01  4.750000000E+00  0.00000E+00  9.000E+00
      -5     1     1     2     0   503  9.447274448E+00  9.727045173E+00 -4.673503018E+02  4.675710999E+02  4.750000000E+00  0.00000E+00  9.000E+00
      21     1     1     2   512   502  1.069099798E+01 -1.090933901E+01 -1.288409153E+03  1.288499693E+03  0.000000000E+00  0.00000E+00  9.000E+00
#rwgt            1           9   3.3283344441845661E-004           7     2299036           0
</event>
<event>
      6   9999  3.45752E-01  5.14116E+00 -1.00000E+00  2.23851E-01
      21    -1     0     0   501   502  0.000000000E+00  0.000000000E+00  1.415463340E+01  1.415463340E+01  0.000000000E+00  0.00000E+00  9.000E+00
      21    -1     0     0   511   503  0.000000000E+00  0.000000000E+00 -2.074592329E+03  2.074592329E+03  0.000000000E+00  0.00000E+00  9.000E+00
      25     1     1     2     0     0  6.870642756E+00  1.650232965E+00 -1.082812600E+03  1.090026619E+03  1.249999019E+02  0.00000E+00  9.000E+00
       5     1     1     2   501     0 -3.141454949E+00  1.501497821E+00  9.424379938E+00  1.111326559E+01  4.750000000E+00  0.00000E+00  9.000E+00
      -5     1     1     2     0   503  5.279086592E-01 -2.692526977E-01 -2.079132912E+01  2.133525372E+01  4.750000000E+00  0.00000E+00  9.000E+00
      21     1     1     2   511   502 -4.257096466E+00 -2.882478088E+00 -9.662581463E+02  9.662718235E+02  2.157918644E-05  0.00000E+00  9.000E+00
#rwgt            1           9   1.4201341157782828E-003           7     2301740           0
</event>
<event>
      6   9999 -3.45752E-01  6.21564E+00 -1.00000E+00  2.11944E-01
      21    -1     0     0   501   512  0.000000000E+00  0.000000000E+00  4.308842233E+00  4.308842233E+00  0.000000000E+00  0.00000E+00  9.000E+00
      21    -1     0     0   502   503  0.000000000E+00  0.000000000E+00 -1.515065863E+03  1.515065863E+03  0.000000000E+00  0.00000E+00  9.000E+00
      25     1     1     2     0     0 -5.673486974E+00  2.584933732E+00 -1.355081828E+03  1.360848937E+03  1.249967933E+02  0.00000E+00  9.000E+00
       5     1     1     2   501     0 -2.218666514E+00 -1.613688785E+00 -1.096880316E+01  1.226391518E+01  4.750000000E+00  0.00000E+00  9.000E+00
      -5     1     1     2     0   503  1.804631225E+00 -2.226743031E+00 -1.320012674E+02  1.321177965E+02  4.750000000E+00  0.00000E+00  9.000E+00
      21     1     1     2   502   512  6.087522263E+00  1.255498084E+00 -1.270512165E+01  1.414405596E+01  4.129530925E-07  0.00000E+00  9.000E+00
#rwgt            1           9  -1.2023672327790409                7     2305850           0
</event>
<event>
      6   9999  3.45752E-01  2.04207E+01 -1.00000E+00  1.59523E-01
      21    -1     0     0   501   511  0.000000000E+00  0.000000000E+00  1.156820058E+02  1.156820058E+02  0.000000000E+00  0.00000E+00  9.000E+00
      21    -1     0     0   502   503  0.000000000E+00  0.000000000E+00 -1.211940959E+03  1.211940959E+03  0.000000000E+00  0.00000E+00  9.000E+00
      25     1     1     2     0     0  4.390259182E+01 -8.854161241E-01 -2.255118237E+02  2.615487022E+02  1.249956777E+02  0.00000E+00  9.000E+00
       5     1     1     2   501     0  7.612265104E+00  4.399357276E+00  1.506745261E+01  1.808014250E+01  4.750000000E+00  0.00000E+00  9.000E+00
      -5     1     1     2     0   503 -3.110558505E+01 -2.829600070E+00 -9.653561904E+02  9.658730253E+02  4.750000000E+00  0.00000E+00  9.000E+00
      21     1     1     2   502   511 -2.040927187E+01 -6.843410821E-01  7.954160849E+01  8.212109463E+01  3.015782986E-06  0.00000E+00  9.000E+00
#rwgt            1           9   6.5360678680994235E-003           7     2309977           0
</event>
<event>
      6   9999  3.45752E-01  2.42903E+01 -1.00000E+00  1.54024E-01
      21    -1     0     0   501   502  0.000000000E+00  0.000000000E+00  3.794091770E+00  3.794091770E+00  0.000000000E+00  0.00000E+00  9.000E+00
      21    -1     0     0   512   503  0.000000000E+00  0.000000000E+00 -1.830054218E+03  1.830054218E+03  0.000000000E+00  0.00000E+00  9.000E+00
      25     1     1     2     0     0  9.871647630E+00 -2.074386982E+01 -1.305109438E+03  1.311283173E+03  1.250006286E+02  0.00000E+00  9.000E+00
       5     1     1     2   501     0  3.515297974E-01 -8.375196944E-01 -2.689800528E+01  2.732929198E+01  4.750000000E+00  0.00000E+00  9.000E+00
      -5     1     1     2     0   503  1.033781691E+00  5.704311245E-02 -3.436983867E+01  3.471196147E+01  4.750000000E+00  0.00000E+00  9.000E+00
      21     1     1     2   512   502 -1.125695912E+01  2.152434640E+01 -4.598828437E+02  4.605238827E+02  5.394796609E-06  0.00000E+00  9.000E+00
#rwgt            1           9   6.4354214100335796E-004           7     2312104           0
</event>
<event>
      6   9999  3.45752E-01  4.58166E+00 -1.00000E+00  2.36246E-01
      21    -1     0     0   501   511  0.000000000E+00  0.000000000E+00  2.692263985E+02  2.692263985E+02  0.000000000E+00  0.00000E+00  9.000E+00
      21    -1     0     0   502   503  0.000000000E+00  0.000000000E+00 -5.902583175E+02  5.902583175E+02  0.000000000E+00  0.00000E+00  9.000E+00
      25     1     1     2     0     0 -2.800345832E+01 -3.463825648E+00 -3.775901734E+02  3.987703256E+02  1.250889355E+02  0.00000E+00  9.000E+00
       5     1     1     2   501     0 -2.633061284E-01  1.389553357E+00  3.104979304E+00  5.848383121E+00  4.750000000E+00  0.00000E+00  9.000E+00
      -5     1     1     2     0   503  3.231223347E+01  4.225034667E+00 -1.993346216E+02  2.020365938E+02  4.750000000E+00  0.00000E+00  9.000E+00
      21     1     1     2   502   511 -4.045469027E+00 -2.150762376E+00  2.527878968E+02  2.528294135E+02  6.031565972E-06  0.00000E+00  9.000E+00
#rwgt            1           9  0.23402385854796981                7     2312939           0
</event>
<event>
      6   9999  3.45752E-01  1.13569E+01 -1.00000E+00  1.81555E-01
      21    -1     0     0   512   503  0.000000000E+00  0.000000000E+00  4.723252342E+02  4.723252342E+02  0.000000000E+00  0.00000E+00  9.000E+00
      21    -1     0     0   501   502  0.000000000E+00  0.000000000E+00 -4.425925542E+01  4.425925542E+01  0.000000000E+00  0.00000E+00  9.000E+00
      25     1     1     2     0     0 -2.360338604E+01  1.748886217E+01  5.527670036E+01  1.397967217E+02  1.249985186E+02  0.00000E+00  9.000E+00
       5     1     1     2   501     0 -1.456411117E+00  2.459487045E+00  1.032719160E+02  1.034206040E+02  4.750000000E+00  0.00000E+00  9.000E+00
      -5     1     1     2     0   503  1.693830485E+01 -1.200984251E+01  2.490571404E+02  2.499663261E+02  4.750000000E+00  0.00000E+00  9.000E+00
      21     1     1     2   512   502  8.121492308E+00 -7.938506705E+00  2.046022204E+01  2.340083784E+01  2.384185791E-07  0.00000E+00  9.000E+00
#rwgt            1           9   3.3581395742501622E-003           7     2317236           0
</event>
<event>
      6   9999  3.45752E-01  8.77535E+00 -1.00000E+00  1.93375E-01
      21    -1     0     0   501   502  0.000000000E+00  0.000000000E+00  1.935951615E+01  1.935951615E+01  0.000000000E+00  0.00000E+00  9.000E+00
      21    -1     0     0   511   503  0.000000000E+00  0.000000000E+00 -1.033382757E+03  1.033382757E+03  0.000000000E+00  0.00000E+00  9.000E+00
      25     1     1     2     0     0  3.213649104E+01  3.608164544E+00 -4.401444188E+02  4.586924132E+02  1.250033903E+02  0.00000E+00  9.000E+00
       5     1     1     2   501     0  9.298957025E-01 -2.528932764E+00  8.237745288E+00  9.883478860E+00  4.750000000E+00  0.00000E+00  9.000E+00
      -5     1     1     2     0   503 -3.709659616E+01 -8.874371504E+00 -5.219252065E+02  5.233387007E+02  4.750000000E+00  0.00000E+00  9.000E+00
      21     1     1     2   511   502  4.030209415E+00  7.795139724E+00 -6.019136035E+01  6.082767998E+01  1.168007728E-06  0.00000E+00  9.000E+00
#rwgt            1           9   5.8582753591076176E-004           7     2320506           0
</event>
<event>
      6   9999  3.45752E-01  1.02797E+01 -1.00000E+00  1.85940E-01
      21    -1     0     0   512   502  0.000000000E+00  0.000000000E+00  2.632941090E+01  2.632941090E+01  0.000000000E+00  0.00000E+00  9.000E+00
      21    -1     0     0   502   503  0.000000000E+00  0.000000000E+00 -1.054375128E+03  1.054375128E+03  0.000000000E+00  0.00000E+00  9.000E+00
      25     1     1     2     0     0 -9.545062640E+00 -1.514012587E+00 -1.023736176E+03  1.031383989E+03  1.249950976E+02  0.00000E+00  9.000E+00
       5     1     1     2   501     0 -2.313799547E+00 -5.476432767E+00  1.627739989E+01  1.796833970E+01  4.750000000E+00  0.00000E+00  9.000E+00
      -5     1     1     2     0   503  4.759711810E+00 -4.442598147E-01 -1.994468646E+01  2.105244027E+01  4.750000000E+00  0.00000E+00  9.000E+00
      21     1     1     2   512   501  7.099150377E+00  7.434705168E+00 -6.422549876E-01  1.029977031E+01  4.479651903E-07  0.00000E+00  9.000E+00
#rwgt            1           9   5.4215093388672276E-004           7     2323682           0
</event>
<event>
      6   9999  3.45752E-01  1.03909E+01 -1.00000E+00  1.85457E-01
      21    -1     0     0   501   502  0.000000000E+00  0.000000000E+00  1.087519577E+01  1.087519577E+01  0.000000000E+00  0.00000E+00  9.000E+00
      21    -1     0     0   511   503  0.000000000E+00  0.000000000E+00 -9.524261396E+02  9.524261396E+02  0.000000000E+00  0.00000E+00  9.000E+00
      25     1     1     2     0     0  1.343545925E+01  5.221504582E+00 -7.234234421E+02  7.342844576E+02  1.249976494E+02  0.00000E+00  9.000E+00
       5     1     1     2   501     0 -3.748484494E-01 -2.096111557E+00  2.117553199E+00  5.619673173E+00  4.750000000E+00  0.00000E+00  9.000E+00
      -5     1     1     2     0   503 -1.448071819E+01 -1.341875162E+01 -7.257744844E+01  7.536446521E+01  4.750000000E+00  0.00000E+00  9.000E+00
      21     1     1     2   511   502  1.420107385E+00  1.029335860E+01 -1.476676064E+02  1.480327394E+02  2.697398305E-06  0.00000E+00  9.000E+00
#rwgt            1           9   2.6649103215049640E-004           7     2326907           0
</event>
<event>
      6   9999  3.45752E-01  5.40414E+01 -1.00000E+00  1.33006E-01
      21    -1     0     0   501   502  0.000000000E+00  0.000000000E+00  2.281929639E+02  2.281929639E+02  0.000000000E+00  0.00000E+00  9.000E+00
      21    -1     0     0   502   512  0.000000000E+00  0.000000000E+00 -1.081498318E+02  1.081498318E+02  0.000000000E+00  0.00000E+00  9.000E+00
      25     1     1     2     0     0  6.686565412E+00 -7.091114413E+01  1.197573415E+02  1.871881705E+02  1.249979593E+02  0.00000E+00  9.000E+00
       5     1     1     2   501     0 -2.495866533E+00  2.168166314E+01  4.087926990E+00  2.270677241E+01  4.750000000E+00  0.00000E+00  9.000E+00
      -5     1     1     2     0   503 -5.719237601E+01  3.867987649E+01  1.178464066E+01  7.020356811E+01  4.750000000E+00  0.00000E+00  9.000E+00
      21     1     1     2   503   512  5.300167714E+01  1.054960450E+01 -1.558677708E+01  5.624428464E+01  5.591411304E-07  0.00000E+00  9.000E+00
#rwgt            1           9   2.2615190702386028                7     2329043           0
</event>
<event>
      6   9999  3.45752E-01  4.08209E+01 -1.00000E+00  1.39676E-01
      21    -1     0     0   511   503  0.000000000E+00  0.000000000E+00  9.736744862E+01  9.736744862E+01  0.000000000E+00  0.00000E+00  9.000E+00
      21    -1     0     0   501   502  0.000000000E+00  0.000000000E+00 -7.769108322E+02  7.769108322E+02  0.000000000E+00  0.00000E+00  9.000E+00
      25     1     1     2     0     0 -2.705688391E+01 -2.255898385E+01 -5.307106240E+02  5.463689800E+02  1.249972525E+02  0.00000E+00  9.000E+00
       5     1     1     2   501     0  6.773311346E+00 -7.358375963E+00 -1.322056849E+02  1.326684931E+02  4.750000000E+00  0.00000E+00  9.000E+00
      -5     1     1     2     0   503  1.298832037E+01 -1.024640270E+01 -1.004991261E+02  1.019623562E+02  4.750000000E+00  0.00000E+00  9.000E+00
      21     1     1     2   511   502  7.295252198E+00  4.016376251E+01  8.387205138E+01  9.327845157E+01  1.651812370E-06  0.00000E+00  9.000E+00
#rwgt            1           9   2.0613413409325916E-004           7     2330593           0
</event>
<event>
      6   9999  3.45752E-01  1.10936E+01 -1.00000E+00  1.82568E-01
      21    -1     0     0   501   502  0.000000000E+00  0.000000000E+00  1.895382691E+02  1.895382691E+02  0.000000000E+00  0.00000E+00  9.000E+00
       4    -1     0     0   502     0  0.000000000E+00  0.000000000E+00 -2.977518994E+02  2.977518994E+02  0.000000000E+00  0.00000E+00  9.000E+00
      25     1     1     2     0     0 -3.766153488E+00  1.544147590E+00  4.579095545E+01  1.331843206E+02  1.249987334E+02  0.00000E+00  9.000E+00
       5     1     1     2   501     0  3.003701625E+00  2.840856250E+00  9.745093880E+01  9.765418916E+01  4.750000000E+00  0.00000E+00  9.000E+00
      -5     1     1     2     0   503  8.464292484E-01  6.708286462E+00 -4.818884515E+00  9.565651974E+00  4.750000000E+00  0.00000E+00  9.000E+00
       4     1     1     2   503     0 -8.397738560E-02 -1.109329030E+01 -2.466366400E+02  2.468860067E+02  0.000000000E+00  0.00000E+00  9.000E+00
#rwgt            1           9  0.15446396784126015                7     2331280           0
</event>
<event>
      6   9999  3.45752E-01  1.44007E+01 -1.00000E+00  1.71920E-01
      21    -1     0     0   501   502  0.000000000E+00  0.000000000E+00  2.408903625E+01  2.408903625E+01  0.000000000E+00  0.00000E+00  9.000E+00
      21    -1     0     0   511   503  0.000000000E+00  0.000000000E+00 -1.307959362E+03  1.307959362E+03  0.000000000E+00  0.00000E+00  9.000E+00
      25     1     1     2     0     0 -1.130855941E+01 -8.190916849E+00 -7.456345972E+02  7.561681726E+02  1.249975121E+02  0.00000E+00  9.000E+00
       5     1     1     2   501     0 -1.345572544E+00 -6.191018100E-01  1.776083841E+01  1.844461259E+01  4.750000000E+00  0.00000E+00  9.000E+00
      -5     1     1     2     0   503  2.483121079E+01  1.122393898E+00 -3.192132829E+02  3.202148205E+02  4.750000000E+00  0.00000E+00  9.000E+00
      21     1     1     2   511   502 -1.217707883E+01  7.687624761E+00 -2.367832839E+02  2.372207924E+02  2.697398305E-06  0.00000E+00  9.000E+00
#rwgt            1           9   5.7406938813425821E-004           7     2333732           0
</event>
<event>
      6   9999  3.45752E-01  3.07769E+00 -1.00000E+00  2.74040E-01
      21    -1     0     0   512   502  0.000000000E+00  0.000000000E+00  5.342802246E+00  5.342802246E+00  0.000000000E+00  0.00000E+00  9.000E+00
      21    -1     0     0   502   503  0.000000000E+00  0.000000000E+00 -2.207942869E+03  2.207942869E+03  0.000000000E+00  0.00000E+00  9.000E+00
      25     1     1     2     0     0 -5.248094480E+00 -2.209236325E+00 -2.094785569E+03  2.098519426E+03  1.249991061E+02  0.00000E+00  9.000E+00
       5     1     1     2   501     0  1.583006012E+00 -2.322505106E+00 -2.756595825E+00  6.169380726E+00  4.750000000E+00  0.00000E+00  9.000E+00
      -5     1     1     2     0   503  2.407512311E+00  1.722707966E+00 -1.053561903E+02  1.055047543E+02  4.750000000E+00  0.00000E+00  9.000E+00
      21     1     1     2   512   501  1.257576157E+00  2.809033465E+00  2.982891434E-01  3.092109832E+00  3.892170753E-07  0.00000E+00  9.000E+00
#rwgt            1           9   9.6795958182480609E-005           7     2336806           0
</event>
<event>
      6   9999  3.45752E-01  6.79005E+00 -1.00000E+00  2.06838E-01
      21    -1     0     0   501   502  0.000000000E+00  0.000000000E+00  1.069380124E+02  1.069380124E+02  0.000000000E+00  0.00000E+00  9.000E+00
      21    -1     0     0   502   511  0.000000000E+00  0.000000000E+00 -1.744452498E+03  1.744452498E+03  0.000000000E+00  0.00000E+00  9.000E+00
      25     1     1     2     0     0 -4.201217056E-01 -4.666160192E-01 -1.627262823E+03  1.632057210E+03  1.250041857E+02  0.00000E+00  9.000E+00
       5     1     1     2   501     0 -1.660558535E+01 -9.159630255E+00  1.026552090E+02  1.045002331E+02  4.750000000E+00  0.00000E+00  9.000E+00
      -5     1     1     2     0   503  1.243090873E+01  4.626980777E+00 -7.181329711E+01  7.318229694E+01  4.750000000E+00  0.00000E+00  9.000E+00
      21     1     1     2   503   511  4.594798324E+00  4.999265498E+00 -4.109357426E+01  4.165077037E+01  4.768371582E-07  0.00000E+00  9.000E+00
#rwgt            1           9   2.1142737744196324E-003           7     2342585           0
</event>
<event>
      6   9999  3.45752E-01  2.67429E+00 -1.00000E+00  2.90653E-01
      21    -1     0     0   501   502  0.000000000E+00  0.000000000E+00  1.238764003E+03  1.238764003E+03  0.000000000E+00  0.00000E+00  9.000E+00
      21    -1     0     0   512   503  0.000000000E+00  0.000000000E+00 -2.091393309E+02  2.091393309E+02  0.000000000E+00  0.00000E+00  9.000E+00
      25     1     1     2     0     0  4.497463450E+01 -2.519857283E+01  4.675533137E+02  4.867144646E+02  1.250087321E+02  0.00000E+00  9.000E+00
       5     1     1     2   501     0 -2.795009615E+00  3.232782261E+00  6.705375106E+02  6.705679523E+02  4.750000000E+00  0.00000E+00  9.000E+00
      -5     1     1     2     0   503 -4.104816116E+01  2.438892829E+01  8.474776806E+01  9.738849033E+01  4.750000000E+00  0.00000E+00  9.000E+00
      21     1     1     2   512   502 -1.131463726E+00 -2.423137725E+00 -1.932139202E+02  1.932324268E+02  4.672030912E-06  0.00000E+00  9.000E+00
#rwgt            1           9   48.838285559586978                7     2348914           0
</event>
<event>
      6   9999  3.45752E-01  2.53113E+01 -1.00000E+00  1.52776E-01
      21    -1     0     0   511   502  0.000000000E+00  0.000000000E+00  5.850322505E+02  5.850322505E+02  0.000000000E+00  0.00000E+00  9.000E+00
      21    -1     0     0   502   503  0.000000000E+00  0.000000000E+00 -5.386521291E+01  5.386521291E+01  0.000000000E+00  0.00000E+00  9.000E+00
      25     1     1     2     0     0 -2.642845127E+01  6.220827058E+01  5.155037363E+01  1.511626040E+02  1.249974395E+02  0.00000E+00  9.000E+00
       5     1     1     2   501     0 -1.585804211E-01  3.586561996E+00  1.201035029E+02  1.202509978E+02  4.750000000E+00  0.00000E+00  9.000E+00
      -5     1     1     2     0   503  1.652917397E+01 -4.256769065E+01  1.628251341E+02  1.691739007E+02  4.750000000E+00  0.00000E+00  9.000E+00
      21     1     1     2   511   501  1.005785772E+01 -2.322714193E+01  1.966880270E+02  1.983099609E+02  0.000000000E+00  0.00000E+00  9.000E+00
#rwgt            1           9   4.5261117454861171E-005           7     2356559           0
</event>
<event>
      6   9999  3.45752E-01  2.95928E+00 -1.00000E+00  2.78473E-01
      21    -1     0     0   501   502  0.000000000E+00  0.000000000E+00  1.069248552E+01  1.069248552E+01  0.000000000E+00  0.00000E+00  9.000E+00
      21    -1     0     0   502   512  0.000000000E+00  0.000000000E+00 -8.906428651E+02  8.906428651E+02  0.000000000E+00  0.00000E+00  9.000E+00
      25     1     1     2     0     0 -9.715144384E+00 -1.042532100E+00 -7.190278948E+02  7.298779062E+02  1.250006946E+02  0.00000E+00  9.000E+00
       5     1     1     2   501     0 -1.178894461E+00  1.469092818E+00  3.641261729E+00  6.274497019E+00  4.750000000E+00  0.00000E+00  9.000E+00
      -5     1     1     2     0   503  8.064709812E+00  4.407625075E-01 -7.682295257E+01  7.739226291E+01  4.750000000E+00  0.00000E+00  9.000E+00
      21     1     1     2   503   512  2.829329032E+00 -8.673232247E-01 -8.774079390E+01  8.779068440E+01  1.651812370E-06  0.00000E+00  9.000E+00
#rwgt            1           9   1.4865884549730322E-003           7     2358207           0
</event>
<event>
      6   9999  3.45752E-01  1.35915E+01 -1.00000E+00  1.74168E-01
      21    -1     0     0   501   502  0.000000000E+00  0.000000000E+00  3.231168088E+01  3.231168088E+01  0.000000000E+00  0.00000E+00  9.000E+00
      21    -1     0     0   502   511  0.000000000E+00  0.000000000E+00 -1.405074127E+03  1.405074127E+03  0.000000000E+00  0.00000E+00  9.000E+00
      25     1     1     2     0     0 -7.170406535E+01  1.227817980E+02 -7.552539084E+02  7.786214368E+02  1.250041313E+02  0.00000E+00  9.000E+00
       5     1     1     2   501     0  5.133257963E-01  5.353429880E+00  9.549915847E+00  1.194512903E+01  4.750000000E+00  0.00000E+00  9.000E+00
      -5     1     1     2     0   503  6.677240530E+01 -1.152819213E+02 -4.523814897E+02  4.716143024E+02  4.750000000E+00  0.00000E+00  9.000E+00
      21     1     1     2   503   511  4.418334258E+00 -1.285330652E+01 -1.746769639E+02  1.752049397E+02  2.697398305E-06  0.00000E+00  9.000E+00
#rwgt            1           9   3.5453303840938779E-004           7     2364073           0
</event>
<event>
      6   9999  3.45752E-01  1.95359E+00 -1.00000E+00  3.36882E-01
      21    -1     0     0   501   502  0.000000000E+00  0.000000000E+00  1.340832467E+03  1.340832467E+03  0.000000000E+00  0.00000E+00  9.000E+00
      21    -1     0     0   502   512  0.000000000E+00  0.000000000E+00 -6.053939883E+00  6.053939883E+00  0.000000000E+00  0.00000E+00  9.000E+00
      25     1     1     2     0     0  1.767031995E+01 -6.072251025E+00  9.123738628E+02  9.210865864E+02  1.250012868E+02  0.00000E+00  9.000E+00
       5     1     1     2   501     0  6.169496214E-01  1.127686767E+00  3.656443528E+02  3.656774639E+02  4.750000000E+00  0.00000E+00  9.000E+00
      -5     1     1     2     0   503 -1.640046160E+01  4.438145271E+00  4.780360420E+01  5.095507186E+01  4.750000000E+00  0.00000E+00  9.000E+00
      21     1     1     2   503   512 -1.886807971E+00  5.064189872E-01  8.956707341E+00  9.167284817E+00  2.384185791E-07  0.00000E+00  9.000E+00
#rwgt            1           9  0.30063933648997321                7     2366880           0
</event>
<event>
      6   9999  3.45752E-01  2.42144E+01 -1.00000E+00  1.54120E-01
      21    -1     0     0   501   502  0.000000000E+00  0.000000000E+00  2.245150586E+01  2.245150586E+01  0.000000000E+00  0.00000E+00  9.000E+00
       2    -1     0     0   502     0  0.000000000E+00  0.000000000E+00 -2.516411796E+03  2.516411796E+03  0.000000000E+00  0.00000E+00  9.000E+00
      25     1     1     2     0     0 -9.642064440E+01 -2.335177887E+01 -1.025226070E+03  1.037577484E+03  1.250451729E+02  0.00000E+00  9.000E+00
       5     1     1     2   501     0  8.813870728E-01  2.015841501E+00  9.325579751E+00  1.069436290E+01  4.750000000E+00  0.00000E+00  9.000E+00
      -5     1     1     2     0   503  8.761120221E+01  4.421573440E+01 -3.874679321E+02  3.997308030E+02  4.750000000E+00  0.00000E+00  9.000E+00
       2     1     1     2   503     0  7.928055110E+00 -2.287979703E+01 -1.090591868E+03  1.090860652E+03  2.157918644E-05  0.00000E+00  9.000E+00
#rwgt            1           9   2.4853395436038399E-003           7     2374489           0
</event>
<event>
      6   9999  3.45752E-01  9.66791E+00 -1.00000E+00  1.88752E-01
      21    -1     0     0   501   502  0.000000000E+00  0.000000000E+00  6.493033410E+02  6.493033410E+02  0.000000000E+00  0.00000E+00  9.000E+00
       2    -1     0     0   502     0  0.000000000E+00  0.000000000E+00 -6.683912252E+02  6.683912252E+02  0.000000000E+00  0.00000E+00  9.000E+00
      25     1     1     2     0     0  1.477308147E+00 -1.382117446E+01 -1.069785072E+02  1.651140312E+02  1.250001399E+02  0.00000E+00  9.000E+00
       5     1     1     2   501     0 -6.427259037E+00  8.373186384E+00  6.161693273E+02  6.162780398E+02  4.750000000E+00  0.00000E+00  9.000E+00
      -5     1     1     2     0   503  7.293345619E+00 -3.931618159E+00 -1.779969983E+00  9.715004107E+00  4.750000000E+00  0.00000E+00  9.000E+00
       2     1     1     2   503     0 -2.343394728E+00  9.379606237E+00 -5.264987343E+02  5.265874910E+02  7.629394531E-06  0.00000E+00  9.000E+00
#rwgt            1           9  0.15168775266632464                7     2376922           0
</event>
<event>
      6   9999  3.45752E-01  5.15274E+00 -1.00000E+00  2.23701E-01
      21    -1     0     0   501   511  0.000000000E+00  0.000000000E+00  7.076149277E+01  7.076149277E+01  0.000000000E+00  0.00000E+00  9.000E+00
      21    -1     0     0   502   503  0.000000000E+00  0.000000000E+00 -1.482884373E+03  1.482884373E+03  0.000000000E+00  0.00000E+00  9.000E+00
      25     1     1     2     0     0 -1.046084047E+02 -9.356058892E+01 -8.646597328E+01  2.068765752E+02  1.250002027E+02  0.00000E+00  9.000E+00
       5     1     1     2   501     0  4.004916754E-01 -5.491276251E-01  4.671236019E+00  6.696632040E+00  4.750000000E+00  0.00000E+00  9.000E+00
      -5     1     1     2     0   503  9.982860784E+01  9.139450331E+01 -1.327099671E+03  1.333992056E+03  4.750000000E+00  0.00000E+00  9.000E+00
      21     1     1     2   502   511  4.379305213E+00  2.715213239E+00 -3.228472080E+00  6.080602689E+00  8.429369702E-08  0.00000E+00  9.000E+00
#rwgt            1           9   7.8380938907268642E-007           7     2381120           0
</event>
<event>
      6   9999 -3.45752E-01  1.24824E+01 -1.00000E+00  1.77590E-01
      21    -1     0     0   501   512  0.000000000E+00  0.000000000E+00  8.473503072E+01  8.473503072E+01  0.000000000E+00  0.00000E+00  9.000E+00
      21    -1     0     0   502   503  0.000000000E+00  0.000000000E+00 -1.808033995E+02  1.808033995E+02  0.000000000E+00  0.00000E+00  9.000E+00
      25     1     1     2     0     0 -2.028984075E+01 -1.337267772E+01 -1.181599990E+02  1.737134627E+02  1.249963024E+02  0.00000E+00  9.000E+00
       5     1     1     2   501     0  5.289999281E-01  4.396226568E-01  1.319514414E+01  1.404092012E+01  4.750000000E+00  0.00000E+00  9.000E+00
      -5     1     1     2     0   503  2.162271909E+01  2.527581940E+01 -2.485778062E+01  4.179570294E+01  4.750000000E+00  0.00000E+00  9.000E+00
      21     1     1     2   502   512 -1.861878265E+00 -1.234276433E+01  3.375426667E+01  3.598834450E+01  6.743495762E-07  0.00000E+00  9.000E+00
#rwgt            1           9  -11.188203798385128                7     2387821           0
</event>
<event>
      6   9999  3.45752E-01  5.33564E+00 -1.00000E+00  2.21412E-01
      21    -1     0     0   501   502  0.000000000E+00  0.000000000E+00  1.658177698E+01  1.658177698E+01  0.000000000E+00  0.00000E+00  9.000E+00
      21    -1     0     0   502   511  0.000000000E+00  0.000000000E+00 -9.430528423E+02  9.430528423E+02  0.000000000E+00  0.00000E+00  9.000E+00
      25     1     1     2     0     0 -2.340161570E+01  3.459830686E+00 -5.729300429E+02  5.868842449E+02  1.249987072E+02  0.00000E+00  9.000E+00
       5     1     1     2   501     0 -1.444028674E+00  2.331258651E-01  8.471026922E+00  9.821423705E+00  4.750000000E+00  0.00000E+00  9.000E+00
      -5     1     1     2     0   503  1.960203343E+01 -2.706248587E+00 -2.733042944E+02  2.740608752E+02  4.750000000E+00  0.00000E+00  9.000E+00
      21     1     1     2   503   511  5.243610942E+00 -9.867079638E-01 -8.870775498E+01  8.886807550E+01  1.348699152E-06  0.00000E+00  9.000E+00
#rwgt            1           9   4.8390354833424902E-002           7     2389904           0
</event>
<event>
      6   9999  3.45752E-01  2.06031E+01 -1.00000E+00  1.59232E-01
      21    -1     0     0   501   512  0.000000000E+00  0.000000000E+00  8.243866019E+02  8.243866019E+02  0.000000000E+00  0.00000E+00  9.000E+00
      21    -1     0     0   502   503  0.000000000E+00  0.000000000E+00 -2.891481813E+01  2.891481813E+01  0.000000000E+00  0.00000E+00  9.000E+00
      25     1     1     2     0     0  8.741740957E+00  3.864457157E+01  2.257130079E+02  2.610495056E+02  1.250226440E+02  0.00000E+00  9.000E+00
       5     1     1     2   501     0  1.489591434E+00  1.239672980E+00  4.930121277E+02  4.930388182E+02  4.750000000E+00  0.00000E+00  9.000E+00
      -5     1     1     2     0   503  8.544263445E+00 -3.140096360E+01  1.918273814E+01  3.807315190E+01  4.750000000E+00  0.00000E+00  9.000E+00
      21     1     1     2   502   512 -1.877559584E+01 -8.483280944E+00  5.756391005E+01  6.113994434E+01  6.743495762E-07  0.00000E+00  9.000E+00
#rwgt            1           9   1.6801091253614193E-002           7     2394144           0
</event>
<event>
      6   9999  3.45752E-01  7.24895E+00 -1.00000E+00  2.03223E-01
      21    -1     0     0   501   502  0.000000000E+00  0.000000000E+00  4.367877575E+03  4.367877575E+03  0.000000000E+00  0.00000E+00  9.000E+00
      21    -1     0     0   511   503  0.000000000E+00  0.000000000E+00 -3.714709624E+00  3.714709624E+00  0.000000000E+00  0.00000E+00  9.000E+00
      25     1     1     2     0     0 -8.578294267E+00  2.165755064E+00  2.195371005E+03  2.198944507E+03  1.249992744E+02  0.00000E+00  9.000E+00
       5     1     1     2   501     0  8.514264812E-01  2.620394569E+00  2.060360728E+03  2.060368045E+03  4.750000000E+00  0.00000E+00  9.000E+00
      -5     1     1     2     0   503  3.686374718E+00  1.232294060E+00  1.030974624E+02  1.032799940E+02  4.750000000E+00  0.00000E+00  9.000E+00
      21     1     1     2   511   502  4.040493068E+00 -6.018443693E+00  5.333670485E+00  8.999738305E+00  3.318646170E-07  0.00000E+00  9.000E+00
#rwgt            1           9   1.2462503224380073E-002           7     2396338           0
</event>
<event>
      6   9999 -3.45752E-01  4.14012E+01 -1.00000E+00  1.39324E-01
      21    -1     0     0   501   502  0.000000000E+00  0.000000000E+00  1.709888370E+02  1.709888370E+02  0.000000000E+00  0.00000E+00  9.000E+00
      21    -1     0     0   512   503  0.000000000E+00  0.000000000E+00 -4.177252979E+02  4.177252979E+02  0.000000000E+00  0.00000E+00  9.000E+00
      25     1     1     2     0     0  1.850996956E+00  3.947210778E+00 -2.954894630E+01  1.285216453E+02  1.250026656E+02  0.00000E+00  9.000E+00
       5     1     1     2   501     0  7.665765372E+00 -1.140499865E+00  7.504480785E+01  7.559332235E+01  4.750000000E+00  0.00000E+00  9.000E+00
      -5     1     1     2     0   503  3.160603239E+01  1.986278897E+00  3.918524834E+01  5.060565951E+01  4.750000000E+00  0.00000E+00  9.000E+00
      21     1     1     2   512   502 -4.112279472E+01 -4.792989810E+00 -3.314175708E+02  3.339935078E+02  3.814697266E-06  0.00000E+00  9.000E+00
#rwgt            1           9  -4.0885280245641904E-005           7     2398832           0
</event>
<event>
      6   9999  3.45752E-01  5.28564E+00 -1.00000E+00  2.22025E-01
      -1    -1     0     0     0   502  0.000000000E+00  0.000000000E+00  4.933107565E+01  4.933107565E+01  0.000000000E+00  0.00000E+00  9.000E+00
      21    -1     0     0   502   503  0.000000000E+00  0.000000000E+00 -1.155754146E+03  1.155754146E+03  0.000000000E+00  0.00000E+00  9.000E+00
      25     1     1     2     0     0  4.959222262E+00  1.140910768E+01 -9.208679729E+02  9.293959027E+02  1.249966355E+02  0.00000E+00  9.000E+00
       5     1     1     2   501     0 -1.922051921E+00 -2.757343683E+00 -6.065402814E+01  6.093251068E+01  4.750000000E+00  0.00000E+00  9.000E+00
      -5     1     1     2     0   503  8.800036175E-01 -1.220053003E+01 -1.694188870E+02  1.699263049E+02  4.750000000E+00  0.00000E+00  9.000E+00
      -1     1     1     2     0   501 -3.917173958E+00  3.548766038E+00  4.451781736E+01  4.483050361E+01  1.430511475E-06  0.00000E+00  9.000E+00
#rwgt            1           9   3.7826215894226786E-002           7     2399860           0
</event>
<event>
      6   9999  3.45752E-01  2.41302E+02 -1.00000E+00  1.06146E-01
      21    -1     0     0   501   511  0.000000000E+00  0.000000000E+00  7.628912550E+02  7.628912550E+02  0.000000000E+00  0.00000E+00  9.000E+00
      21    -1     0     0   502   503  0.000000000E+00  0.000000000E+00 -3.541751906E+03  3.541751906E+03  0.000000000E+00  0.00000E+00  9.000E+00
      25     1     1     2     0     0  2.546638316E+02 -2.068236807E+02 -5.134322003E+02  6.219845421E+02  1.249897765E+02  0.00000E+00  9.000E+00
       5     1     1     2   501     0  2.334980293E+01 -9.521575297E+00 -6.619670233E+02  6.624641697E+02  4.750000000E+00  0.00000E+00  9.000E+00
      -5     1     1     2     0   503 -1.311161523E+02  2.490974070E+01 -2.289275830E+03  2.293167750E+03  4.750000000E+00  0.00000E+00  9.000E+00
      21     1     1     2   502   511 -1.468974822E+02  1.914355153E+02  6.858144027E+02  7.270266994E+02  1.525878906E-05  0.00000E+00  9.000E+00
#rwgt            1           9   4.0360095070125139E-004           7     2403222           0
</event>
<event>
      6   9999  3.45752E-01  2.14181E+00 -1.00000E+00  3.21785E-01
      21    -1     0     0   501   512  0.000000000E+00  0.000000000E+00  1.942320551E+01  1.942320551E+01  0.000000000E+00  0.00000E+00  9.000E+00
      21    -1     0     0   502   503  0.000000000E+00  0.000000000E+00 -9.488669501E+02  9.488669501E+02  0.000000000E+00  0.00000E+00  9.000E+00
      25     1     1     2     0     0  6.455003910E+00  1.221416938E+00 -8.738379621E+02  8.827557047E+02  1.249867638E+02  0.00000E+00  9.000E+00
       5     1     1     2   501     0  3.126188505E+00 -3.069507267E+00  1.306108130E+01  1.457220896E+01  4.750000000E+00  0.00000E+00  9.000E+00
      -5     1     1     2     0   503 -9.103005534E+00 -2.396601839E-01 -6.792272452E+01  6.869484080E+01  4.750000000E+00  0.00000E+00  9.000E+00
      21     1     1     2   502   512 -4.781868814E-01  2.087750512E+00 -7.441392307E-01  2.267401175E+00  8.560065398E-08  0.00000E+00  9.000E+00
#rwgt            1           9   3.9880032721382341E-004           7     2403651           0
</event>
<event>
      6   9999  3.45752E-01  8.28457E+01 -1.00000E+00  1.24014E-01
      21    -1     0     0   511   502  0.000000000E+00  0.000000000E+00  4.840237132E+01  4.840237132E+01  0.000000000E+00  0.00000E+00  9.000E+00
      21    -1     0     0   502   503  0.000000000E+00  0.000000000E+00 -1.149569515E+03  1.149569515E+03  0.000000000E+00  0.00000E+00  9.000E+00
      25     1     1     2     0     0 -7.150942621E+01  3.569972868E+01 -1.871801131E+02  2.388475556E+02  1.249947655E+02  0.00000E+00  9.000E+00
       5     1     1     2   501     0 -3.538999840E+00  2.033255067E+00  6.207378065E-01  6.293366465E+00  4.750000000E+00  0.00000E+00  9.000E+00
      -5     1     1     2     0   503 -6.003226377E-01 -3.959123393E+00 -8.438735329E+02  8.438964019E+02  4.750000000E+00  0.00000E+00  9.000E+00
      21     1     1     2   511   501  7.564874869E+01 -3.377386035E+01 -7.073423553E+01  1.089345625E+02  0.000000000E+00  0.00000E+00  9.000E+00
#rwgt            1           9   2.5764530464102896E-002           7     2412258           0
</event>
<event>
      6   9999  3.45752E-01  2.42102E+01 -1.00000E+00  1.54125E-01
      21    -1     0     0   501   502  0.000000000E+00  0.000000000E+00  3.770051652E+01  3.770051652E+01  0.000000000E+00  0.00000E+00  9.000E+00
      21    -1     0     0   512   503  0.000000000E+00  0.000000000E+00 -1.448421442E+03  1.448421442E+03  0.000000000E+00  0.00000E+00  9.000E+00
      25     1     1     2     0     0 -1.770785114E+01 -3.974069177E+00 -8.688052667E+02  8.779396705E+02  1.250044498E+02  0.00000E+00  9.000E+00
       5     1     1     2   501     0 -7.928036254E-01 -1.063906590E-01  3.215767559E+01  3.251643363E+01  4.750000000E+00  0.00000E+00  9.000E+00
      -5     1     1     2     0   503 -5.702245423E+00  4.675750636E+00 -3.782379738E+02  3.783396695E+02  4.750000000E+00  0.00000E+00  9.000E+00
      21     1     1     2   512   502  2.420290019E+01 -5.952908006E-01 -1.958353606E+02  1.973261848E+02  2.697398305E-06  0.00000E+00  9.000E+00
#rwgt            1           9   1.3056947775514545E-004           7     2413508           0
</event>
<event>
      6   9999  3.45752E-01  1.22866E+01 -1.00000E+00  1.78241E-01
      21    -1     0     0   501   502  0.000000000E+00  0.000000000E+00  8.313064751E+00  8.313064751E+00  0.000000000E+00  0.00000E+00  9.000E+00
      21    -1     0     0   502   511  0.000000000E+00  0.000000000E+00 -1.484826257E+03  1.484826257E+03  0.000000000E+00  0.00000E+00  9.000E+00
      25     1     1     2     0     0  8.632824723E+00 -4.766413263E+00 -6.955163354E+02  7.067281515E+02  1.249978517E+02  0.00000E+00  9.000E+00
       5     1     1     2   501     0  4.785036115E-01 -7.455214346E-01  1.360842787E-01  4.833817006E+00  4.750000000E+00  0.00000E+00  9.000E+00
      -5     1     1     2     0   503  1.956718843E+00  1.771878037E-01 -3.836827819E+01  3.871107613E+01  4.750000000E+00  0.00000E+00  9.000E+00
      21     1     1     2   503   511 -1.106804718E+01  5.334746894E+00 -7.427646634E+02  7.428662776E+02  1.078959322E-05  0.00000E+00  9.000E+00
#rwgt            1           9   8.2928974758451831E-006           7     2415662           0
</event>
<event>
      6   9999  3.45752E-01  5.57315E+01 -1.00000E+00  1.32313E-01
      21    -1     0     0   501   512  0.000000000E+00  0.000000000E+00  2.140036620E+01  2.140036620E+01  0.000000000E+00  0.00000E+00  9.000E+00
      21    -1     0     0   502   503  0.000000000E+00  0.000000000E+00 -1.050544495E+03  1.050544495E+03  0.000000000E+00  0.00000E+00  9.000E+00
      25     1     1     2     0     0 -4.445067010E+01 -9.174497237E+00 -4.822126458E+02  5.002145292E+02  1.250020242E+02  0.00000E+00  9.000E+00
       5     1     1     2   501     0  2.013426930E+00  4.716466899E+00 -3.013468122E+00  7.611993046E+00  4.750000000E+00  0.00000E+00  9.000E+00
      -5     1     1     2     0   503  5.923585950E+01  5.759752232E+01 -4.223859288E+02  4.304170036E+02  4.750000000E+00  0.00000E+00  9.000E+00
      21     1     1     2   502   512 -1.679861632E+01 -5.313949199E+01 -1.215320862E+02  1.337013355E+02  1.348699152E-06  0.00000E+00  9.000E+00
#rwgt            1           9   2.8375514487891275E-004           7     2417382           0
</event>
<event>
      6   9999  3.45752E-01  1.23980E+02 -1.00000E+00  1.16597E-01
      21    -1     0     0   511   502  0.000000000E+00  0.000000000E+00  2.269502926E+01  2.269502926E+01  0.000000000E+00  0.00000E+00  9.000E+00
       2    -1     0     0   501     0  0.000000000E+00  0.000000000E+00 -1.769000952E+03  1.769000952E+03  0.000000000E+00  0.00000E+00  9.000E+00
      25     1     1     2     0     0  5.570355909E+01  5.242639802E+01 -5.725620940E+02  5.910194729E+02  1.250010083E+02  0.00000E+00  9.000E+00
       5     1     1     2   501     0  1.893976142E+01  9.939349052E-01 -1.493744260E+01  2.460471826E+01  4.750000000E+00  0.00000E+00  9.000E+00
      -5     1     1     2     0   502  4.932775078E+01 -5.493381986E+01 -3.420902011E+02  3.499988854E+02  4.750000000E+00  0.00000E+00  9.000E+00
       2     1     1     2   511     0 -1.239710713E+02  1.513486933E+00 -8.167161852E+02  8.260729050E+02  1.078959322E-05  0.00000E+00  9.000E+00
#rwgt            1           3   1.6305422257915171E-004           7     2418242           0
</event>
<event>
      6   9999  3.45752E-01  1.99221E+01 -1.00000E+00  1.60340E-01
      21    -1     0     0   512   502  0.000000000E+00  0.000000000E+00  2.144553254E+01  2.144553254E+01  0.000000000E+00  0.00000E+00  9.000E+00
      21    -1     0     0   502   503  0.000000000E+00  0.000000000E+00 -7.888786246E+02  7.888786246E+02  0.000000000E+00  0.00000E+00  9.000E+00
      25     1     1     2     0     0  5.831545977E+00 -1.013959041E+01 -5.601904489E+02  5.740863425E+02  1.249998856E+02  0.00000E+00  9.000E+00
       5     1     1     2   501     0  5.676051945E+00  3.556576470E+01 -1.520701176E+02  1.563490465E+02  4.750000000E+00  0.00000E+00  9.000E+00
      -5     1     1     2     0   503 -7.122643355E+00 -5.992628300E+00 -5.872916878E+01  5.965166727E+01  4.750000000E+00  0.00000E+00  9.000E+00
      21     1     1     2   512   501 -4.384954567E+00 -1.943354599E+01  3.556643278E+00  2.023710077E+01  9.291444581E-07  0.00000E+00  9.000E+00
#rwgt            1           9  0.86190533248284662                7     2418931           0
</event>
<event>
      6   9999  3.45752E-01  4.61715E+01 -1.00000E+00  1.36665E-01
      21    -1     0     0   501   502  0.000000000E+00  0.000000000E+00  4.443248682E+02  4.443248682E+02  0.000000000E+00  0.00000E+00  9.000E+00
      21    -1     0     0   511   503  0.000000000E+00  0.000000000E+00 -6.947005133E+02  6.947005133E+02  0.000000000E+00  0.00000E+00  9.000E+00
      25     1     1     2     0     0  2.103336414E+02  3.507329664E+01  1.762709611E+02  3.035900017E+02  1.250002423E+02  0.00000E+00  9.000E+00
       5     1     1     2   501     0  5.138769124E+00  1.429182725E+01  1.823248959E+02  1.830180140E+02  4.750000000E+00  0.00000E+00  9.000E+00
      -5     1     1     2     0   503 -1.721148446E+02 -3.349276445E+01 -5.513471531E+02  5.785771606E+02  4.750000000E+00  0.00000E+00  9.000E+00
      21     1     1     2   511   502 -4.335756591E+01 -1.587235943E+01 -5.762434897E+01  7.384020524E+01  6.743495762E-07  0.00000E+00  9.000E+00
#rwgt            1           9   4.8366916985204175E-003           7     2420391           0
</event>
<event>
      6   9999 -3.45752E-01  8.97990E+00 -1.00000E+00  1.92254E-01
      21    -1     0     0   501   512  0.000000000E+00  0.000000000E+00  2.787851061E+02  2.787851061E+02  0.000000000E+00  0.00000E+00  9.000E+00
      21    -1     0     0   502   503  0.000000000E+00  0.000000000E+00 -9.160295221E+01  9.160295221E+01  0.000000000E+00  0.00000E+00  9.000E+00
      25     1     1     2     0     0  2.830915523E+01  4.019390528E+00 -3.127900621E+01  1.319818641E+02  1.249930896E+02  0.00000E+00  9.000E+00
       5     1     1     2   501     0  1.035993351E-01  1.307410719E+00  1.172547666E+01  1.271885838E+01  4.750000000E+00  0.00000E+00  9.000E+00
      -5     1     1     2     0   503 -2.552273012E+01  3.175333686E+00  8.869431812E+00  2.761741873E+01  4.750000000E+00  0.00000E+00  9.000E+00
      21     1     1     2   502   512 -2.890024446E+00 -8.502134934E+00  1.978662516E+02  1.980699171E+02  2.697398305E-06  0.00000E+00  9.000E+00
#rwgt            1           9  -2.2771928463074594E-003           7     2422713           0
</event>
<event>
      6   9999  3.45752E-01  2.79698E+01 -1.00000E+00  1.49834E-01
      21    -1     0     0   511   502  0.000000000E+00  0.000000000E+00  4.850197271E+02  4.850197271E+02  0.000000000E+00  0.00000E+00  9.000E+00
      21    -1     0     0   502   503  0.000000000E+00  0.000000000E+00 -1.467852137E+03  1.467852137E+03  0.000000000E+00  0.00000E+00  9.000E+00
      25     1     1     2     0     0 -1.666028466E+00 -4.953803449E+01 -1.079611292E+03  1.087953948E+03  1.250058324E+02  0.00000E+00  9.000E+00
       5     1     1     2   501     0 -1.216133753E+01 -2.441574377E+00  5.543691575E+01  5.700590797E+01  4.750000000E+00  0.00000E+00  9.000E+00
      -5     1     1     2     0   503 -1.080384838E+01  6.523150581E+01 -3.799515320E+02  3.856910703E+02  4.750000000E+00  0.00000E+00  9.000E+00
      21     1     1     2   511   501  2.463121438E+01 -1.325189694E+01  4.212934980E+02  4.222209386E+02  7.629394531E-06  0.00000E+00  9.000E+00
#rwgt            1           9   7.1277105779866598E-004           7     2425235           0
</event>
<event>
      6   9999  3.45752E-01  1.01982E+01 -1.00000E+00  1.86300E-01
      21    -1     0     0   501   502  0.000000000E+00  0.000000000E+00  4.942839336E+01  4.942839336E+01  0.000000000E+00  0.00000E+00  9.000E+00
      21    -1     0     0   502   512  0.000000000E+00  0.000000000E+00 -1.687029283E+02  1.687029283E+02  0.000000000E+00  0.00000E+00  9.000E+00
      25     1     1     2     0     0 -1.535416565E+00 -6.979108566E+00 -8.310427841E+01  1.502706580E+02  1.249955363E+02  0.00000E+00  9.000E+00
       5     1     1     2   501     0 -1.631505592E+00 -1.219466333E+00  1.345053553E+01  1.440931347E+01  4.750000000E+00  0.00000E+00  9.000E+00
      -5     1     1     2     0   503 -5.008336751E-01 -1.317271801E+00 -3.142083458E+00  5.866960697E+00  4.750000000E+00  0.00000E+00  9.000E+00
      21     1     1     2   503   512  3.667755832E+00  9.515846700E+00 -4.647870860E+01  4.758438950E+01  9.536743164E-07  0.00000E+00  9.000E+00
#rwgt            1           9   4.8442038869010471E-008           7     2427399           0
</event>
<event>
      6   9999  3.45752E-01  6.20159E+00 -1.00000E+00  2.12078E-01
      21    -1     0     0   502   503  0.000000000E+00  0.000000000E+00  9.120559499E+00  9.120559499E+00  0.000000000E+00  0.00000E+00  9.000E+00
      21    -1     0     0   501   511  0.000000000E+00  0.000000000E+00 -6.033915750E+02  6.033915750E+02  0.000000000E+00  0.00000E+00  9.000E+00
      25     1     1     2     0     0 -1.166380527E+00  1.062667720E+01 -5.368827841E+02  5.513467266E+02  1.250032094E+02  0.00000E+00  9.000E+00
       5     1     1     2   501     0  1.720583032E-01  4.116908182E-02 -8.247752411E+00  9.519412734E+00  4.750000000E+00  0.00000E+00  9.000E+00
      -5     1     1     2     0   503  3.756989518E+00 -5.115604324E+00 -1.519523482E+01  1.713890425E+01  4.750000000E+00  0.00000E+00  9.000E+00
      21     1     1     2   502   511 -2.762667294E+00 -5.552241954E+00 -3.394524413E+01  3.450709087E+01  4.768371582E-07  0.00000E+00  9.000E+00
#rwgt            1           9   4.7691027182338215E-004           7     2429887           0
</event>
<event>
      6   9999 -3.45752E-01  3.44860E+00 -1.00000E+00  2.61984E-01
      21    -1     0     0   512   502  0.000000000E+00  0.000000000E+00  2.187574160E+01  2.187574160E+01  0.000000000E+00  0.00000E+00  9.000E+00
      21    -1     0     0   502   503  0.000000000E+00  0.000000000E+00 -9.992501047E+02  9.992501047E+02  0.000000000E+00  0.00000E+00  9.000E+00
      25     1     1     2     0     0  1.465391089E+00 -1.468162391E+00 -9.882277680E+02  9.961038157E+02  1.249975494E+02  0.00000E+00  9.000E+00
       5     1     1     2   501     0  8.136963122E-01 -1.155914685E+00  1.480293081E+01  1.561049329E+01  4.750000000E+00  0.00000E+00  9.000E+00
      -5     1     1     2     0   503 -1.625988464E+00 -7.621148171E-01 -2.633574312E+00  5.720390820E+00  4.750000000E+00  0.00000E+00  9.000E+00
      21     1     1     2   512   501 -6.530989373E-01  3.386191893E+00 -1.315951605E+00  3.691146487E+00  1.173318606E-07  0.00000E+00  9.000E+00
#rwgt            1           9  -8.3203528916882112E-004           7     2432566           0
</event>
<event>
      6   9999  3.45752E-01  8.24557E+00 -1.00000E+00  1.96473E-01
      21    -1     0     0   502   503  0.000000000E+00  0.000000000E+00  9.178520763E+00  9.178520763E+00  0.000000000E+00  0.00000E+00  9.000E+00
      21    -1     0     0   511   502  0.000000000E+00  0.000000000E+00 -1.156387908E+03  1.156387908E+03  0.000000000E+00  0.00000E+00  9.000E+00
      25     1     1     2     0     0  1.464013728E+01 -2.559129035E+01 -7.179555722E+02  7.293530597E+02  1.250057370E+02  0.00000E+00  9.000E+00
       5     1     1     2   501     0 -4.349981809E-01 -3.680462472E-01 -6.123295758E+00  7.770581213E+00  4.750000000E+00  0.00000E+00  9.000E+00
      -5     1     1     2     0   503 -1.932549337E+01  1.949625780E+01 -7.179909857E+01  7.701462081E+01  4.750000000E+00  0.00000E+00  9.000E+00
      21     1     1     2   511   501  5.120354265E+00  6.463078791E+00 -3.513314209E+02  3.514281673E+02  3.814697266E-06  0.00000E+00  9.000E+00
#rwgt            1           9   3.0950913643843165E-004           7     2439079           0
</event>
<event>
      6   9999  3.45752E-01  7.73143E+00 -1.00000E+00  1.99787E-01
      21    -1     0     0   501   502  0.000000000E+00  0.000000000E+00  1.454239849E+01  1.454239849E+01  0.000000000E+00  0.00000E+00  9.000E+00
      21    -1     0     0   512   503  0.000000000E+00  0.000000000E+00 -8.983074504E+02  8.983074504E+02  0.000000000E+00  0.00000E+00  9.000E+00
      25     1     1     2     0     0  8.506373693E+00 -3.547034205E+01 -3.974896765E+02  4.182758090E+02  1.250044234E+02  0.00000E+00  9.000E+00
       5     1     1     2   501     0  1.514296089E+00 -3.374837054E-01  1.454256378E+00  5.204262629E+00  4.750000000E+00  0.00000E+00  9.000E+00
      -5     1     1     2     0   503 -6.691517659E+00  2.882987667E+01 -4.398263013E+02  4.408465447E+02  4.750000000E+00  0.00000E+00  9.000E+00
      21     1     1     2   512   502 -3.329152123E+00  6.977949089E+00 -4.790333048E+01  4.852323257E+01  6.743495762E-07  0.00000E+00  9.000E+00
#rwgt            1           9   2.2754332261781221E-003           7     2441834           0
</event>
<event>
      6   9999  3.45752E-01  1.85852E+01 -1.00000E+00  1.62681E-01
      21    -1     0     0   501   502  0.000000000E+00  0.000000000E+00  7.109444915E+01  7.109444915E+01  0.000000000E+00  0.00000E+00  9.000E+00
      21    -1     0     0   502   511  0.000000000E+00  0.000000000E+00 -1.451318508E+03  1.451318508E+03  0.000000000E+00  0.00000E+00  9.000E+00
      25     1     1     2     0     0 -6.966522741E+01  1.181667940E+01 -4.765609840E+01  1.512890188E+02  1.249975427E+02  0.00000E+00  9.000E+00
       5     1     1     2   501     0  5.616530617E+00  2.073859786E+00  1.549412425E+01  1.727647814E+01  4.750000000E+00  0.00000E+00  9.000E+00
      -5     1     1     2     0   503  8.175000767E+01 -1.955394023E+01 -1.292908502E+03  1.295646703E+03  4.750000000E+00  0.00000E+00  9.000E+00
      21     1     1     2   503   511 -1.770131087E+01  5.663401045E+00 -5.515358203E+01  5.820075711E+01  9.536743164E-07  0.00000E+00  9.000E+00
#rwgt            1           9   7.5009221228703418E-002           7     2444934           0
</event>
<event>
      6   9999  3.45752E-01  6.43991E+01 -1.00000E+00  1.29158E-01
      21    -1     0     0   512   503  0.000000000E+00  0.000000000E+00  1.071934271E+02  1.071934271E+02  0.000000000E+00  0.00000E+00  9.000E+00
      21    -1     0     0   501   502  0.000000000E+00  0.000000000E+00 -1.069473673E+03  1.069473673E+03  0.000000000E+00  0.00000E+00  9.000E+00
      25     1     1     2     0     0 -5.952817006E+01  4.291133933E+01 -1.631001738E+02  2.182003296E+02  1.249989242E+02  0.00000E+00  9.000E+00
       5     1     1     2   501     0  1.579165417E+00 -9.768858572E+00 -6.775758093E+02  6.776647137E+02  4.750000000E+00  0.00000E+00  9.000E+00
      -5     1     1     2     0   503  3.103185449E+01  2.536144643E+01 -1.856449768E+02  1.899810487E+02  4.750000000E+00  0.00000E+00  9.000E+00
      21     1     1     2   512   502  2.691715015E+01 -5.850392719E+01  6.404071399E+01  9.082100813E+01  1.907348633E-06  0.00000E+00  9.000E+00
#rwgt            1           9   9.6771462737789627E-005           7     2447704           0
</event>
<event>
      6   9999  3.45752E-01  1.45003E+00 -1.00000E+00  4.08748E-01
      21    -1     0     0   511   502  0.000000000E+00  0.000000000E+00  1.087897296E+02  1.087897296E+02  0.000000000E+00  0.00000E+00  9.000E+00
      21    -1     0     0   502   503  0.000000000E+00  0.000000000E+00 -1.104580028E+02  1.104580028E+02  0.000000000E+00  0.00000E+00  9.000E+00
      25     1     1     2     0     0 -2.483553765E-04 -3.159546975E+00 -7.165184983E+01  1.441224783E+02  1.250092733E+02  0.00000E+00  9.000E+00
       5     1     1     2   501     0  5.287499999E-01 -1.322832486E+00  2.018117434E+01  2.078152449E+01  4.750000000E+00  0.00000E+00  9.000E+00
      -5     1     1     2     0   503 -1.011574452E+00  3.115184541E+00  1.423062663E+00  5.942664801E+00  4.750000000E+00  0.00000E+00  9.000E+00
      21     1     1     2   511   501  4.830728078E-01  1.367194920E+00  4.837933961E+01  4.840106489E+01  0.000000000E+00  0.00000E+00  9.000E+00
#rwgt            1           9   1.0345169102949222E-003           7     2448527           0
</event>
<event>
      6   9999  3.45752E-01  5.80295E+00 -1.00000E+00  2.16098E-01
      21    -1     0     0   501   502  0.000000000E+00  0.000000000E+00  7.112435025E+01  7.112435025E+01  0.000000000E+00  0.00000E+00  9.000E+00
      21    -1     0     0   512   503  0.000000000E+00  0.000000000E+00 -5.828173331E+02  5.828173331E+02  0.000000000E+00  0.00000E+00  9.000E+00
      25     1     1     2     0     0  1.807405789E+01 -1.174095506E+01 -1.051698703E+02  1.647751105E+02  1.250024553E+02  0.00000E+00  9.000E+00
       5     1     1     2   501     0 -1.143084380E+00 -2.840632237E+00  3.773819529E+01  3.815900571E+01  4.750000000E+00  0.00000E+00  9.000E+00
      -5     1     1     2     0   503 -1.622350264E+01  8.821925909E+00 -2.375536912E+01  3.046159018E+01  4.750000000E+00  0.00000E+00  9.000E+00
      21     1     1     2   512   502 -7.074708728E-01  5.759661390E+00 -4.205059387E+02  4.205459770E+02  5.394796609E-06  0.00000E+00  9.000E+00
#rwgt            1           9   656.53346808028050                7     2457998           0
</event>
<event>
      6   9999  3.45752E-01  5.59144E+00 -1.00000E+00  2.18415E-01
      21    -1     0     0   511   502  0.000000000E+00  0.000000000E+00  1.453100826E+02  1.453100826E+02  0.000000000E+00  0.00000E+00  9.000E+00
      21    -1     0     0   502   503  0.000000000E+00  0.000000000E+00 -9.976602735E+01  9.976602735E+01  0.000000000E+00  0.00000E+00  9.000E+00
      25     1     1     2     0     0  5.576616622E+00  6.051610498E+00 -4.406083496E+01  1.327913579E+02  1.249978676E+02  0.00000E+00  9.000E+00
       5     1     1     2   501     0 -1.194462385E+01 -5.417392679E+00 -1.351096585E+00  1.401464036E+01  4.750000000E+00  0.00000E+00  9.000E+00
      -5     1     1     2     0   503  2.744532292E+00  3.624255549E+00 -5.458586211E-01  6.597586485E+00  4.750000000E+00  0.00000E+00  9.000E+00
      21     1     1     2   511   501  3.623474936E+00 -4.258473368E+00  9.150184543E+01  9.167252523E+01  1.348699152E-06  0.00000E+00  9.000E+00
#rwgt            1           9   73.739943272239898                7     2462219           0
</event>
<event>
      6   9999 -3.45752E-01  1.19255E+01 -1.00000E+00  1.79482E-01
      21    -1     0     0   501   512  0.000000000E+00  0.000000000E+00  2.316486570E+01  2.316486570E+01  0.000000000E+00  0.00000E+00  9.000E+00
      21    -1     0     0   502   503  0.000000000E+00  0.000000000E+00 -6.773842535E+02  6.773842535E+02  0.000000000E+00  0.00000E+00  9.000E+00
      25     1     1     2     0     0  2.121220027E+00  1.736508973E-02 -5.328849510E+02  5.473598302E+02  1.250276481E+02  0.00000E+00  9.000E+00
       5     1     1     2   501     0  1.283881105E+01  7.611163064E+00 -6.865024287E+01  7.041436799E+01  4.750000000E+00  0.00000E+00  9.000E+00
      -5     1     1     2     0   503 -4.126228695E+00 -2.643936517E+00 -6.515986351E+01  6.551630695E+01  4.750000000E+00  0.00000E+00  9.000E+00
      21     1     1     2   502   512 -1.083380239E+01 -4.984591636E+00  1.247566961E+01  1.725861409E+01  0.000000000E+00  0.00000E+00  9.000E+00
#rwgt            1           9  -65.094551403049678                7     2465319           0
</event>
<event>
      6   9999  3.45752E-01  1.31472E+01 -1.00000E+00  1.75488E-01
      21    -1     0     0   511   502  0.000000000E+00  0.000000000E+00  1.417278591E+02  1.417278591E+02  0.000000000E+00  0.00000E+00  9.000E+00
      21    -1     0     0   502   503  0.000000000E+00  0.000000000E+00 -6.918496686E+02  6.918496686E+02  0.000000000E+00  0.00000E+00  9.000E+00
      25     1     1     2     0     0 -6.665117993E+00 -1.262497951E+01 -6.310167019E+02  6.434359493E+02  1.249957154E+02  0.00000E+00  9.000E+00
       5     1     1     2   501     0  9.343683488E-01  1.117850151E+00 -2.417007188E+01  2.467544342E+01  4.750000000E+00  0.00000E+00  9.000E+00
      -5     1     1     2     0   503  2.822239948E-01 -4.579657576E-01 -2.968947616E+01  3.007186189E+01  4.750000000E+00  0.00000E+00  9.000E+00
      21     1     1     2   511   501  5.448525649E+00  1.196509512E+01  1.347544405E+02  1.353942730E+02  2.697398305E-06  0.00000E+00  9.000E+00
#rwgt            1           9   2.9409831498689102E-004           7     2467221           0
</event>
<event>
      6   9999  3.45752E-01  1.48232E+01 -1.00000E+00  1.70819E-01
      21    -1     0     0   501   502  0.000000000E+00  0.000000000E+00  1.640743558E+01  1.640743558E+01  0.000000000E+00  0.00000E+00  9.000E+00
      21    -1     0     0   502   512  0.000000000E+00  0.000000000E+00 -9.787631269E+02  9.787631269E+02  0.000000000E+00  0.00000E+00  9.000E+00
      25     1     1     2     0     0  1.325701451E+01  2.745528043E+01 -6.296564355E+02  6.426669735E+02  1.249962849E+02  0.00000E+00  9.000E+00
       5     1     1     2   501     0  4.904642651E+00 -1.089359761E+00  6.608173605E+00  9.564135226E+00  4.750000000E+00  0.00000E+00  9.000E+00
      -5     1     1     2     0   503 -4.608928210E+00 -3.237013525E+01 -2.731943128E+02  2.751849613E+02  4.750000000E+00  0.00000E+00  9.000E+00
      21     1     1     2   503   512 -1.355272895E+01  6.004214583E+00 -6.611311671E+01  6.775449251E+01  9.536743164E-07  0.00000E+00  9.000E+00
#rwgt            1           9   6.9849088580755461E-003           7     2469287           0
</event>
<event>
      6   9999  3.45752E-01  1.22262E+01 -1.00000E+00  1.78444E-01
      21    -1     0     0   501   502  0.000000000E+00  0.000000000E+00  7.521553520E+00  7.521553520E+00  0.000000000E+00  0.00000E+00  9.000E+00
      21    -1     0     0   511   503  0.000000000E+00  0.000000000E+00 -9.128885865E+02  9.128885865E+02  0.000000000E+00  0.00000E+00  9.000E+00
      25     1     1     2     0     0 -7.525463437E+00  3.537865664E+00 -7.218681075E+02  7.326577535E+02  1.249986801E+02  0.00000E+00  9.000E+00
       5     1     1     2   501     0 -1.507106772E+00 -5.600184942E-01 -3.706015787E+00  6.235546852E+00  4.750000000E+00  0.00000E+00  9.000E+00
      -5     1     1     2     0   503 -3.169684067E+00 -3.742907604E+00 -1.782189047E+01  1.908503431E+01  4.750000000E+00  0.00000E+00  9.000E+00
      21     1     1     2   511   502  1.220225428E+01  7.650604348E-01 -1.619710192E+02  1.624318053E+02  0.000000000E+00  0.00000E+00  9.000E+00
#rwgt            1           9   3.0766508801231165E-005           7     2471705           0
</event>
<event>
      6   9999  3.45752E-01  2.63071E+01 -1.00000E+00  1.51625E-01
      21    -1     0     0   501   502  0.000000000E+00  0.000000000E+00  3.133227684E+01  3.133227684E+01  0.000000000E+00  0.00000E+00  9.000E+00
      21    -1     0     0   512   503  0.000000000E+00  0.000000000E+00 -1.230308569E+03  1.230308569E+03  0.000000000E+00  0.00000E+00  9.000E+00
      25     1     1     2     0     0 -4.738930502E+00  6.678903280E+01 -7.142616324E+02  7.282019261E+02  1.250005335E+02  0.00000E+00  9.000E+00
       5     1     1     2   501     0 -7.953768490E-02 -7.171103714E+01 -3.643266866E+01  8.057531272E+01  4.750000000E+00  0.00000E+00  9.000E+00
      -5     1     1     2     0   503  2.916813247E+01 -5.035792113E+00 -3.444033963E+02  3.457056566E+02  4.750000000E+00  0.00000E+00  9.000E+00
      21     1     1     2   512   502 -2.434966429E+01  9.957796453E+00 -1.038785951E+02  1.071579506E+02  1.907348633E-06  0.00000E+00  9.000E+00
#rwgt            1           9   1.0734918694588249E-002           7     2473872           0
</event>
<event>
      6   9999  3.45752E-01  9.58706E+00 -1.00000E+00  1.89144E-01
      21    -1     0     0   501   502  0.000000000E+00  0.000000000E+00  1.546876802E+01  1.546876802E+01  0.000000000E+00  0.00000E+00  9.000E+00
      21    -1     0     0   502   511  0.000000000E+00  0.000000000E+00 -1.276004962E+03  1.276004962E+03  0.000000000E+00  0.00000E+00  9.000E+00
      25     1     1     2     0     0 -4.327768441E+01 -1.386878679E+01 -1.021108053E+03  1.029734006E+03  1.250006649E+02  0.00000E+00  9.000E+00
       5     1     1     2   501     0 -5.366843048E+00  2.557606523E-01  6.881773725E+00  9.939302159E+00  4.750000000E+00  0.00000E+00  9.000E+00
      -5     1     1     2     0   503  4.152189060E+01  7.195873296E+00 -1.894935951E+02  1.941809287E+02  4.750000000E+00  0.00000E+00  9.000E+00
      21     1     1     2   503   511  7.122636867E+00  6.417152838E+00 -5.681631977E+01  5.761949322E+01  6.743495762E-07  0.00000E+00  9.000E+00
#rwgt            1           9   3.9416077199108196E-002           7     2476951           0
</event>
<event>
      6   9999 -3.45752E-01  2.25523E+01 -1.00000E+00  1.56328E-01
      21    -1     0     0   501   512  0.000000000E+00  0.000000000E+00  2.384827113E+02  2.384827113E+02  0.000000000E+00  0.00000E+00  9.000E+00
      21    -1     0     0   502   503  0.000000000E+00  0.000000000E+00 -4.109641019E+02  4.109641019E+02  0.000000000E+00  0.00000E+00  9.000E+00
      25     1     1     2     0     0  5.090390350E+01  1.770036120E+01 -3.781908910E+02  4.019409806E+02  1.249947666E+02  0.00000E+00  9.000E+00
       5     1     1     2   501     0  4.173506636E-01 -7.078568945E-01  1.621023181E+02  1.621739784E+02  4.750000000E+00  0.00000E+00  9.000E+00
      -5     1     1     2     0   503 -3.316972264E+01 -3.037634744E+01  4.354017573E+01  6.277947424E+01  4.750000000E+00  0.00000E+00  9.000E+00
      21     1     1     2   502   512 -1.815153152E+01  1.338384314E+01  6.700661190E-02  2.255238000E+01  5.981527538E-08  0.00000E+00  9.000E+00
#rwgt            1           9  -2.2269023725867635E-004           7     2479983           0
</event>
<event>
      6   9999  3.45752E-01  5.70787E+00 -1.00000E+00  2.17123E-01
      21    -1     0     0   501   511  0.000000000E+00  0.000000000E+00  2.643982804E+01  2.643982804E+01  0.000000000E+00  0.00000E+00  9.000E+00
      21    -1     0     0   502   503  0.000000000E+00  0.000000000E+00 -1.092687618E+03  1.092687618E+03  0.000000000E+00  0.00000E+00  9.000E+00
      25     1     1     2     0     0  5.615769745E+01 -1.093774873E+02 -7.501632504E+02  7.703820351E+02  1.250058244E+02  0.00000E+00  9.000E+00
       5     1     1     2   501     0 -1.118949396E+01  7.702768377E+01 -1.326156924E+02  1.538439248E+02  4.750000000E+00  0.00000E+00  9.000E+00
      -5     1     1     2     0   503 -5.065725541E+01  3.188668515E+01 -1.662522462E+02  1.767633731E+02  4.750000000E+00  0.00000E+00  9.000E+00
      21     1     1     2   502   511  5.689051911E+00  4.631183827E-01 -1.721660102E+01  1.813811294E+01  2.384185791E-07  0.00000E+00  9.000E+00
#rwgt            1           9   1.1347052748088891E-004           7     2482608           0
</event>
<event>
      6   9999  3.45752E-01  8.85584E+00 -1.00000E+00  1.92929E-01
      21    -1     0     0   501   502  0.000000000E+00  0.000000000E+00  7.390029859E+01  7.390029859E+01  0.000000000E+00  0.00000E+00  9.000E+00
      21    -1     0     0   512   503  0.000000000E+00  0.000000000E+00 -1.543769918E+03  1.543769918E+03  0.000000000E+00  0.00000E+00  9.000E+00
      25     1     1     2     0     0 -2.206419200E+01  3.724590738E+00 -1.331698209E+03  1.337738965E+03  1.249988717E+02  0.00000E+00  9.000E+00
       5     1     1     2   501     0  1.691523043E+01 -4.601898179E+00  6.896495087E+01  7.131640369E+01  4.750000000E+00  0.00000E+00  9.000E+00
      -5     1     1     2     0   503  5.843914172E+00 -7.951222479E+00 -1.730726062E+02  1.734187498E+02  4.750000000E+00  0.00000E+00  9.000E+00
      21     1     1     2   512   502 -6.949526078E-01  8.828529920E+00 -3.406375551E+01  3.519609835E+01  4.768371582E-07  0.00000E+00  9.000E+00
#rwgt            1           9   3.3042168379314724E-006           7     2487264           0
</event>
<event>
      6   9999  3.45752E-01  6.01515E+00 -1.00000E+00  2.13905E-01
      21    -1     0     0   501   502  0.000000000E+00  0.000000000E+00  4.424184015E+00  4.424184015E+00  0.000000000E+00  0.00000E+00  9.000E+00
      21    -1     0     0   511   503  0.000000000E+00  0.000000000E+00 -1.578457098E+03  1.578457098E+03  0.000000000E+00  0.00000E+00  9.000E+00
      25     1     1     2     0     0  1.699986138E+01 -3.546343925E+00 -1.387495516E+03  1.393223013E+03  1.249999451E+02  0.00000E+00  9.000E+00
       5     1     1     2   501     0 -1.072837292E-01  2.747098690E-01 -4.322990804E+00  6.429442029E+00  4.750000000E+00  0.00000E+00  9.000E+00
      -5     1     1     2     0   503 -1.205967865E+01 -3.095879228E-01 -1.091732582E+02  1.099404134E+02  4.750000000E+00  0.00000E+00  9.000E+00
      21     1     1     2   511   502 -4.832899007E+00  3.581221978E+00 -7.304114899E+01  7.328841320E+01  1.348699152E-06  0.00000E+00  9.000E+00
#rwgt            1           9   1.7383777770131374E-003           7     2491845           0
</event>
<event>
      6   9999  3.45752E-01  4.49347E+01 -1.00000E+00  1.37317E-01
      21    -1     0     0   501   512  0.000000000E+00  0.000000000E+00  9.899220301E+01  9.899220301E+01  0.000000000E+00  0.00000E+00  9.000E+00
      21    -1     0     0   502   503  0.000000000E+00  0.000000000E+00 -1.664823913E+03  1.664823913E+03  0.000000000E+00  0.00000E+00  9.000E+00
      25     1     1     2     0     0 -5.116142128E-01 -2.428188640E+01 -1.223659849E+03  1.230265953E+03  1.249840602E+02  0.00000E+00  9.000E+00
       5     1     1     2   501     0  2.507616243E+01  8.319894262E+00  8.745490326E+01  9.148200460E+01  4.750000000E+00  0.00000E+00  9.000E+00
      -5     1     1     2     0   503  1.584143552E+01 -3.697173770E+00 -3.517467723E+02  3.521547593E+02  4.750000000E+00  0.00000E+00  9.000E+00
      21     1     1     2   502   512 -4.040598374E+01  1.965916591E+01 -7.787999138E+01  8.991339935E+01  0.000000000E+00  0.00000E+00  9.000E+00
#rwgt            1           9   1.1906890430601065E-003           7     2495145           0
</event>
<event>
      6   9999  3.45752E-01  1.07353E+01 -1.00000E+00  1.84005E-01
      21    -1     0     0   501   502  0.000000000E+00  0.000000000E+00  1.518064802E+03  1.518064802E+03  0.000000000E+00  0.00000E+00  9.000E+00
      21    -1     0     0   511   503  0.000000000E+00  0.000000000E+00 -2.524980122E+02  2.524980122E+02  0.000000000E+00  0.00000E+00  9.000E+00
      25     1     1     2     0     0  5.071213252E+00 -4.294370726E+00  1.285018430E+03  1.291100256E+03  1.249933901E+02  0.00000E+00  9.000E+00
       5     1     1     2   501     0  1.274642335E+00 -7.389347710E-02  2.084676372E+02  2.085256541E+02  4.750000000E+00  0.00000E+00  9.000E+00
      -5     1     1     2     0   503  4.296390564E+00  2.958059501E+00  2.081140005E+01  2.197466632E+01  4.750000000E+00  0.00000E+00  9.000E+00
      21     1     1     2   511   502 -1.064224615E+01  1.410204702E+00 -2.487306771E+02  2.489622377E+02  5.394796609E-06  0.00000E+00  9.000E+00
#rwgt            1           9   6.2205512744372436E-002           7     2496850           0
</event>
<event>
      6   9999  3.45752E-01  6.85961E+00 -1.00000E+00  2.06266E-01
      21    -1     0     0   501   502  0.000000000E+00  0.000000000E+00  4.592693584E+01  4.592693584E+01  0.000000000E+00  0.00000E+00  9.000E+00
      21    -1     0     0   502   512  0.000000000E+00  0.000000000E+00 -1.320577720E+03  1.320577720E+03  0.000000000E+00  0.00000E+00  9.000E+00
      25     1     1     2     0     0 -1.697920306E+02  5.232829973E+01 -5.451528163E+02  5.868430321E+02  1.250022663E+02  0.00000E+00  9.000E+00
       5     1     1     2   501     0 -2.526941822E+00  9.388277335E-01  1.339779837E+01  1.446825262E+01  4.750000000E+00  0.00000E+00  9.000E+00
      -5     1     1     2     0   503  1.701426642E+02 -4.676190059E+01 -7.146693695E+02  7.361454147E+02  4.750000000E+00  0.00000E+00  9.000E+00
      21     1     1     2   503   512  2.176308214E+00 -6.505226881E+00 -2.822639639E+01  2.904795599E+01  3.371747881E-07  0.00000E+00  9.000E+00
#rwgt            1           9   2.1384861737283077E-004           7     2499079           0
</event>
<event>
      6   9999  3.45752E-01  1.55268E+00 -1.00000E+00  3.82189E-01
      21    -1     0     0   501   511  0.000000000E+00  0.000000000E+00  1.761514422E+03  1.761514422E+03  0.000000000E+00  0.00000E+00  9.000E+00
      21    -1     0     0   502   503  0.000000000E+00  0.000000000E+00 -8.104790945E+02  8.104790945E+02  0.000000000E+00  0.00000E+00  9.000E+00
      25     1     1     2     0     0 -2.371017806E+00 -4.502781151E+00 -7.860567524E+02  7.959496666E+02  1.249990278E+02  0.00000E+00  9.000E+00
       5     1     1     2   501     0  1.261976179E+00  1.863515233E+00  3.324378326E+00  6.219265564E+00  4.750000000E+00  0.00000E+00  9.000E+00
      -5     1     1     2     0   503  2.588667714E+00  2.168594102E+00 -1.755707552E+01  1.849911894E+01  4.750000000E+00  0.00000E+00  9.000E+00
      21     1     1     2   502   511 -1.479626088E+00  4.706718151E-01  1.751324777E+03  1.751325466E+03  2.157918644E-05  0.00000E+00  9.000E+00
#rwgt            1           9   4.4881966489637833E-005           7     2504701           0
</event>
<event>
      6   9999  3.45752E-01  2.61576E+01 -1.00000E+00  1.51794E-01
      21    -1     0     0   512   502  0.000000000E+00  0.000000000E+00  6.617379489E+01  6.617379489E+01  0.000000000E+00  0.00000E+00  9.000E+00
      21    -1     0     0   502   503  0.000000000E+00  0.000000000E+00 -1.391568362E+03  1.391568362E+03  0.000000000E+00  0.00000E+00  9.000E+00
      25     1     1     2     0     0  1.227237450E+01 -2.317632875E+02 -7.722313221E+02  8.159844863E+02  1.249985382E+02  0.00000E+00  9.000E+00
       5     1     1     2   501     0 -2.934688818E+01  9.742267534E+01 -1.081640314E+02  1.485746873E+02  4.750000000E+00  0.00000E+00  9.000E+00
      -5     1     1     2     0   503  2.458067787E+00  1.560334465E+02 -4.395634322E+02  4.664665604E+02  4.750000000E+00  0.00000E+00  9.000E+00
      21     1     1     2   512   501  1.461644589E+01 -2.169283432E+01 -5.435781867E+00  2.671642334E+01  6.925433897E-07  0.00000E+00  9.000E+00
#rwgt            1           9   2.5811458214229703E-004           7     2514795           0
</event>
<event>
      6   9999 -3.45752E-01  2.02619E+01 -1.00000E+00  1.59780E-01
      21    -1     0     0   502   511  0.000000000E+00  0.000000000E+00  1.096227804E+01  1.096227804E+01  0.000000000E+00  0.00000E+00  9.000E+00
      21    -1     0     0   501   502  0.000000000E+00  0.000000000E+00 -7.705424831E+02  7.705424831E+02  0.000000000E+00  0.00000E+00  9.000E+00
      25     1     1     2     0     0  1.199524925E+01 -5.600062659E+00 -6.112661720E+02  6.240568468E+02  1.250014729E+02  0.00000E+00  9.000E+00
       5     1     1     2   501     0  3.590304535E+00  7.071548879E+00 -8.214700052E+01  8.266552658E+01  4.750000000E+00  0.00000E+00  9.000E+00
      -5     1     1     2     0   503  5.087447573E-01 -1.378073094E+01 -2.777441293E+01  3.137113131E+01  4.750000000E+00  0.00000E+00  9.000E+00
      21     1     1     2   503   511 -1.609429855E+01  1.230924472E+01 -3.839261964E+01  4.341125654E+01  1.168007728E-06  0.00000E+00  9.000E+00
#rwgt            1           9  -752.44692340086533                7     2517194           0
</event>
<event>
      6   9999 -3.45752E-01  4.91775E+00 -1.00000E+00  2.30636E-01
      21    -1     0     0   501   502  0.000000000E+00  0.000000000E+00  8.654351159E+00  8.654351159E+00  0.000000000E+00  0.00000E+00  9.000E+00
      21    -1     0     0   502   512  0.000000000E+00  0.000000000E+00 -7.891010659E+02  7.891010659E+02  0.000000000E+00  0.00000E+00  9.000E+00
      25     1     1     2     0     0  3.103409740E+00 -1.292453874E+01 -6.200718581E+02  6.326857211E+02  1.250017507E+02  0.00000E+00  9.000E+00
       5     1     1     2   501     0 -5.345494866E-01  8.425871841E-02 -1.403890259E+00  4.982594760E+00  4.750000000E+00  0.00000E+00  9.000E+00
      -5     1     1     2     0   503 -4.597941510E+00  8.360645636E+00 -5.639879530E+01  5.739710858E+01  4.750000000E+00  0.00000E+00  9.000E+00
      21     1     1     2   503   512  2.029081257E+00  4.479634385E+00 -1.025721711E+02  1.026899926E+02  0.000000000E+00  0.00000E+00  9.000E+00
#rwgt            1           9  -2.4317844738970288E-004           7     2519327           0
</event>
<event>
      6   9999  3.45752E-01  9.47497E+00 -1.00000E+00  1.89695E-01
      21    -1     0     0   501   511  0.000000000E+00  0.000000000E+00  2.598222889E+01  2.598222889E+01  0.000000000E+00  0.00000E+00  9.000E+00
      21    -1     0     0   502   503  0.000000000E+00  0.000000000E+00 -2.487757714E+02  2.487757714E+02  0.000000000E+00  0.00000E+00  9.000E+00
      25     1     1     2     0     0  3.756432720E+00 -1.249435295E+01 -1.998260498E+02  2.360623780E+02  1.249991060E+02  0.00000E+00  9.000E+00
       5     1     1     2   501     0 -5.895936370E-01  7.157692860E-02  6.216601153E-01  4.827183984E+00  4.750000000E+00  0.00000E+00  9.000E+00
      -5     1     1     2     0   503 -1.128917963E+01  7.543984041E+00 -1.098147893E+01  1.809731061E+01  4.750000000E+00  0.00000E+00  9.000E+00
      21     1     1     2   502   511  8.122340549E+00  4.878791983E+00 -1.260767397E+01  1.577112774E+01  0.000000000E+00  0.00000E+00  9.000E+00
#rwgt            1           9   1.9375375464570490                7     2522719           0
</event>
<event>
      6   9999  3.45752E-01  1.24462E+01 -1.00000E+00  1.77709E-01
      21    -1     0     0   501   512  0.000000000E+00  0.000000000E+00  8.440980101E+01  8.440980101E+01  0.000000000E+00  0.00000E+00  9.000E+00
      21    -1     0     0   502   503  0.000000000E+00  0.000000000E+00 -7.936621593E+02  7.936621593E+02  0.000000000E+00  0.00000E+00  9.000E+00
      25     1     1     2     0     0  1.564023723E+01  1.100991844E+01 -7.355433675E+02  7.463389171E+02  1.250275904E+02  0.00000E+00  9.000E+00
       5     1     1     2   501     0  4.155203326E-01  7.530316867E-01  3.141080906E+00  5.759218969E+00  4.750000000E+00  0.00000E+00  9.000E+00
      -5     1     1     2     0   503 -5.615067702E+00 -4.987926201E+00 -5.050188387E+01  5.127778434E+01  4.750000000E+00  0.00000E+00  9.000E+00
      21     1     1     2   502   512 -1.044068986E+01 -6.775023923E+00  7.365181213E+01  7.469603994E+01  9.536743164E-07  0.00000E+00  9.000E+00
#rwgt            1           9   6.0132343337557501E-006           7     2525157           0
</event>
<event>
      6   9999  3.45752E-01  7.49536E+00 -1.00000E+00  2.01426E-01
      21    -1     0     0   511   503  0.000000000E+00  0.000000000E+00  3.418690666E+01  3.418690666E+01  0.000000000E+00  0.00000E+00  9.000E+00
      21    -1     0     0   501   502  0.000000000E+00  0.000000000E+00 -5.846026438E+02  5.846026438E+02  0.000000000E+00  0.00000E+00  9.000E+00
      25     1     1     2     0     0 -8.811735383E+01 -2.884195691E+01 -3.947061987E+02  4.242916648E+02  1.250356230E+02  0.00000E+00  9.000E+00
       5     1     1     2   501     0  2.475312137E+01  2.644667310E+01 -5.278745790E+01  6.419674250E+01  4.750000000E+00  0.00000E+00  9.000E+00
      -5     1     1     2     0   503  7.069560789E+01  3.954563947E+00 -9.909648032E+01  1.218859404E+02  4.750000000E+00  0.00000E+00  9.000E+00
      21     1     1     2   511   502 -7.331375430E+00 -1.559280143E+00 -3.825600198E+00  8.415202739E+00  2.064765462E-07  0.00000E+00  9.000E+00
#rwgt            1           9   2.9697076615178668E-004           7     2527986           0
</event>
<event>
      6   9999 -3.45752E-01  1.02650E+02 -1.00000E+00  1.19954E-01
      21    -1     0     0   502   503  0.000000000E+00  0.000000000E+00  4.645852609E+01  4.645852609E+01  0.000000000E+00  0.00000E+00  9.000E+00
      21    -1     0     0   501   512  0.000000000E+00  0.000000000E+00 -1.441116253E+03  1.441116253E+03  0.000000000E+00  0.00000E+00  9.000E+00
      25     1     1     2     0     0  1.350899119E+02 -1.456560613E+02 -5.795119525E+02  6.252391452E+02  1.249996527E+02  0.00000E+00  9.000E+00
       5     1     1     2   501     0  4.758141863E+01  8.096942729E+00 -2.019666508E+02  2.077080702E+02  4.750000000E+00  0.00000E+00  9.000E+00
      -5     1     1     2     0   503 -1.051408603E+02  7.028253555E+01 -3.335725797E+02  3.567736870E+02  4.750000000E+00  0.00000E+00  9.000E+00
      21     1     1     2   502   512 -7.753047027E+01  6.727658302E+01 -2.796065440E+02  2.978538767E+02  3.814697266E-06  0.00000E+00  9.000E+00
#rwgt            1           9  -8.6027300956670129E-005           7     2531969           0
</event>
<event>
      6   9999  3.45752E-01  7.95259E+00 -1.00000E+00  1.98321E-01
      21    -1     0     0   501   511  0.000000000E+00  0.000000000E+00  3.019142858E+02  3.019142858E+02  0.000000000E+00  0.00000E+00  9.000E+00
      21    -1     0     0   502   503  0.000000000E+00  0.000000000E+00 -2.259038834E+02  2.259038834E+02  0.000000000E+00  0.00000E+00  9.000E+00
      25     1     1     2     0     0  2.979772206E+00  1.150775001E-01 -2.003708340E+02  2.361834850E+02  1.250011007E+02  0.00000E+00  9.000E+00
       5     1     1     2   501     0  1.721583211E+00  4.082666917E+00  2.095019867E+01  2.193411366E+01  4.750000000E+00  0.00000E+00  9.000E+00
      -5     1     1     2     0   503 -2.132252691E-01  2.367344462E+00 -6.077323464E+00  8.071316206E+00  4.750000000E+00  0.00000E+00  9.000E+00
      21     1     1     2   502   511 -4.488130148E+00 -6.565088879E+00  2.615083613E+02  2.616292543E+02  0.000000000E+00  0.00000E+00  9.000E+00
#rwgt            1           9   139.71079117493792                7     2532485           0
</event>
<event>
      6   9999  3.45752E-01  3.46829E+01 -1.00000E+00  1.43875E-01
      21    -1     0     0   512   502  0.000000000E+00  0.000000000E+00  5.710900860E+01  5.710900860E+01  0.000000000E+00  0.00000E+00  9.000E+00
      21    -1     0     0   502   503  0.000000000E+00  0.000000000E+00 -1.344768666E+03  1.344768666E+03  0.000000000E+00  0.00000E+00  9.000E+00
      25     1     1     2     0     0  9.060509444E+00  5.067636928E+01 -7.124615109E+02  7.251738478E+02  1.250020709E+02  0.00000E+00  9.000E+00
       5     1     1     2   501     0 -1.245186198E+01  6.482685105E+00  4.927805836E+00  1.561793339E+01  4.750000000E+00  0.00000E+00  9.000E+00
      -5     1     1     2     0   503 -2.300925927E+01 -3.466661316E+01 -6.123281252E+02  6.137584994E+02  4.750000000E+00  0.00000E+00  9.000E+00
      21     1     1     2   512   501  2.640061181E+01 -2.249244123E+01  3.220217337E+01  4.732739362E+01  1.261592536E-06  0.00000E+00  9.000E+00
#rwgt            1           9   6.2416552546159743E-002           7     2535865           0
</event>
<event>
      6   9999  3.45752E-01  1.00289E+02 -1.00000E+00  1.20382E-01
      -1    -1     0     0     0   511  0.000000000E+00  0.000000000E+00  5.030641510E+01  5.030641510E+01  0.000000000E+00  0.00000E+00  9.000E+00
       1    -1     0     0   501     0  0.000000000E+00  0.000000000E+00 -1.136608378E+03  1.136608378E+03  0.000000000E+00  0.00000E+00  9.000E+00
      25     1     1     2     0     0  1.067820363E+02 -3.194753407E+01 -9.786069898E+02  9.928338835E+02  1.249977257E+02  0.00000E+00  9.000E+00
       5     1     1     2   501     0  1.735185973E+01 -9.865810078E+00 -4.633716240E+00  2.103461602E+01  4.750000000E+00  0.00000E+00  9.000E+00
      -5     1     1     2     0   502 -3.311022622E+01 -2.888152702E-01 -7.003245163E+00  3.417569952E+01  4.750000000E+00  0.00000E+00  9.000E+00
      21     1     1     2   502   511 -9.102366985E+01  4.210215941E+01 -9.605801177E+01  1.388705942E+02  3.303624740E-06  0.00000E+00  9.000E+00
#rwgt            1           1   8.5547654489515155E-004           7     2537109           0
</event>
<event>
      6   9999  3.45752E-01  3.61983E+00 -1.00000E+00  2.57183E-01
      21    -1     0     0   512   502  0.000000000E+00  0.000000000E+00  1.777530705E+01  1.777530705E+01  0.000000000E+00  0.00000E+00  9.000E+00
      21    -1     0     0   502   503  0.000000000E+00  0.000000000E+00 -8.171093093E+02  8.171093093E+02  0.000000000E+00  0.00000E+00  9.000E+00
      25     1     1     2     0     0 -1.537651498E+00  1.166678842E+01 -5.599011073E+02  5.738059667E+02  1.250022365E+02  0.00000E+00  9.000E+00
       5     1     1     2   501     0 -1.185577182E+00  7.083679339E-01  6.263838633E+00  7.981575835E+00  4.750000000E+00  0.00000E+00  9.000E+00
      -5     1     1     2     0   503  5.930875025E+00 -1.405270150E+01 -2.481887551E+02  2.487023811E+02  4.750000000E+00  0.00000E+00  9.000E+00
      21     1     1     2   512   501 -3.207646344E+00  1.677545142E+00  2.492021540E+00  4.394692723E+00  2.731427965E-07  0.00000E+00  9.000E+00
#rwgt            1           9   1.1591564311430946                7     2537912           0
</event>
<event>
      6   9999  3.45752E-01  3.41928E+00 -1.00000E+00  2.62850E-01
      21    -1     0     0   511   502  0.000000000E+00  0.000000000E+00  5.130851119E+01  5.130851119E+01  0.000000000E+00  0.00000E+00  9.000E+00
      21    -1     0     0   502   503  0.000000000E+00  0.000000000E+00 -3.204812826E+02  3.204812826E+02  0.000000000E+00  0.00000E+00  9.000E+00
      25     1     1     2     0     0 -3.092318793E+00  5.371202620E+00 -2.933645422E+02  3.189455836E+02  1.250004737E+02  0.00000E+00  9.000E+00
       5     1     1     2   501     0 -7.301910320E-01 -3.512690426E+00  3.083867888E+01  3.140794149E+01  4.750000000E+00  0.00000E+00  9.000E+00
      -5     1     1     2     0   503  9.786593782E-01  3.989714001E-02 -1.319012249E+01  1.405351192E+01  4.750000000E+00  0.00000E+00  9.000E+00
      21     1     1     2   511   501  2.843850447E+00 -1.898409334E+00  6.543214379E+00  7.382756787E+00  1.192092896E-07  0.00000E+00  9.000E+00
#rwgt            1           9   9.1554446129783369E-005           7     2543079           0
</event>
<event>
      6   9999  3.45752E-01  4.69870E+00 -1.00000E+00  2.34215E-01
      21    -1     0     0   512   502  0.000000000E+00  0.000000000E+00  5.765413375E+01  5.765413375E+01  0.000000000E+00  0.00000E+00  9.000E+00
      21    -1     0     0   502   503  0.000000000E+00  0.000000000E+00 -1.603810328E+02  1.603810328E+02  0.000000000E+00  0.00000E+00  9.000E+00
      25     1     1     2     0     0 -4.017302505E+00  7.391860858E-01 -1.295699106E+02  1.800815776E+02  1.249973109E+02  0.00000E+00  9.000E+00
       5     1     1     2   501     0 -3.872791895E-01  1.792662685E-02  1.563559911E+00  5.015727877E+00  4.750000000E+00  0.00000E+00  9.000E+00
      -5     1     1     2     0   503  7.107408917E-01  2.146909820E+00 -1.718216101E+00  5.534360032E+00  4.750000000E+00  0.00000E+00  9.000E+00
      21     1     1     2   512   501  3.693840803E+00 -2.904022532E+00  2.699766776E+01  2.740350108E+01  3.371747881E-07  0.00000E+00  9.000E+00
#rwgt            1           9   1.5075141734498335E-004           7     2549056           0
</event>
<event>
      6   9999  3.45752E-01  9.95700E+01 -1.00000E+00  1.20515E-01
      21    -1     0     0   501   502  0.000000000E+00  0.000000000E+00  4.338374006E+02  4.338374006E+02  0.000000000E+00  0.00000E+00  9.000E+00
      21    -1     0     0   502   511  0.000000000E+00  0.000000000E+00 -3.208095175E+03  3.208095175E+03  0.000000000E+00  0.00000E+00  9.000E+00
      25     1     1     2     0     0  2.785480100E+01  2.490033678E+01 -8.768969548E+02  8.865493201E+02  1.250020432E+02  0.00000E+00  9.000E+00
       5     1     1     2   501     0  1.037259797E+01  1.122403252E+01  4.231194952E+02  4.234220583E+02  4.750000000E+00  0.00000E+00  9.000E+00
      -5     1     1     2     0   503 -6.077651971E+01  6.085872530E+01 -1.798943117E+03  1.801004294E+03  4.750000000E+00  0.00000E+00  9.000E+00
      21     1     1     2   503   511  2.254912075E+01 -9.698309460E+01 -5.215371985E+02  5.309569030E+02  1.078959322E-05  0.00000E+00  9.000E+00
#rwgt            1           9   3.8992248166835251E-004           7     2552690           0
</event>
<event>
      6   9999  3.45752E-01  2.49496E+00 -1.00000E+00  2.99677E-01
      21    -1     0     0   501   502  0.000000000E+00  0.000000000E+00  9.907120721E+00  9.907120721E+00  0.000000000E+00  0.00000E+00  9.000E+00
      21    -1     0     0   502   512  0.000000000E+00  0.000000000E+00 -7.306004954E+02  7.306004954E+02  0.000000000E+00  0.00000E+00  9.000E+00
      25     1     1     2     0     0 -1.671352061E+01  1.338462933E+01 -4.266177821E+02  4.450679371E+02  1.249969865E+02  0.00000E+00  9.000E+00
       5     1     1     2   501     0  4.825980323E+00 -7.871040417E+00 -7.143020747E+01  7.218088668E+01  4.750000000E+00  0.00000E+00  9.000E+00
      -5     1     1     2     0   503  9.393589353E+00 -5.584459421E+00 -2.115949454E+02  2.119301987E+02  4.750000000E+00  0.00000E+00  9.000E+00
      21     1     1     2   503   512  2.493950935E+00  7.087050514E-02 -1.105043975E+01  1.132859359E+01  1.192092896E-07  0.00000E+00  9.000E+00
#rwgt            1           9   2.4551642194702798E-004           7     2555690           0
</event>
<event>
      6   9999  3.45752E-01  2.48031E+00 -1.00000E+00  3.00470E-01
      21    -1     0     0   511   502  0.000000000E+00  0.000000000E+00  1.061586425E+01  1.061586425E+01  0.000000000E+00  0.00000E+00  9.000E+00
      21    -1     0     0   502   503  0.000000000E+00  0.000000000E+00 -4.370014586E+03  4.370014586E+03  0.000000000E+00  0.00000E+00  9.000E+00
      25     1     1     2     0     0  1.196025977E+01  2.890424360E+00 -3.491554780E+03  3.493813323E+03  1.250013988E+02  0.00000E+00  9.000E+00
       5     1     1     2   501     0 -9.632262542E+00  2.608765084E+00  6.117807275E+00  1.263234748E+01  4.750000000E+00  0.00000E+00  9.000E+00
      -5     1     1     2     0   503 -3.134373240E+00 -7.844754856E+00 -8.557532123E+02  8.558080903E+02  4.750000000E+00  0.00000E+00  9.000E+00
      21     1     1     2   511   501  8.063760148E-01  2.345565411E+00 -1.820853644E+01  1.837668955E+01  2.384185791E-07  0.00000E+00  9.000E+00
#rwgt            1           9   9.4623577905562602E-005           7     2562257           0
</event>
<event>
      6   9999  3.45752E-01  1.31836E+01 -1.00000E+00  1.75377E-01
      21    -1     0     0   501   502  0.000000000E+00  0.000000000E+00  6.208442908E+01  6.208442908E+01  0.000000000E+00  0.00000E+00  9.000E+00
      21    -1     0     0   502   512  0.000000000E+00  0.000000000E+00 -1.789159703E+02  1.789159703E+02  0.000000000E+00  0.00000E+00  9.000E+00
      25     1     1     2     0     0 -6.604867058E+00 -4.778922435E+00 -2.603846826E+01  1.279305126E+02  1.249870068E+02  0.00000E+00  9.000E+00
       5     1     1     2   501     0 -4.374913553E-01 -4.193658786E-01  7.209803422E+00  8.655115933E+00  4.750000000E+00  0.00000E+00  9.000E+00
      -5     1     1     2     0   503  2.492858321E+00 -7.175470935E+00 -4.571745622E+00  1.005808549E+01  4.750000000E+00  0.00000E+00  9.000E+00
      21     1     1     2   503   512  4.549500092E+00  1.237375925E+01 -9.343113078E+01  9.435668534E+01  0.000000000E+00  0.00000E+00  9.000E+00
#rwgt            1           9   4.0953116483568482E-003           7     2571885           0
</event>
<event>
      6   9999  3.45752E-01  2.22439E+01 -1.00000E+00  1.56764E-01
      21    -1     0     0   501   511  0.000000000E+00  0.000000000E+00  8.990331410E+01  8.990331410E+01  0.000000000E+00  0.00000E+00  9.000E+00
      21    -1     0     0   502   503  0.000000000E+00  0.000000000E+00 -8.466048276E+01  8.466048276E+01  0.000000000E+00  0.00000E+00  9.000E+00
      25     1     1     2     0     0  7.422798609E+00  2.955838731E+01 -1.221059952E+01  1.292387223E+02  1.249990096E+02  0.00000E+00  9.000E+00
       5     1     1     2   501     0 -1.722062101E+00 -2.386523003E+00  6.592727641E+00  8.642195767E+00  4.750000000E+00  0.00000E+00  9.000E+00
      -5     1     1     2     0   503  7.313387551E+00 -9.132351626E+00  2.226761915E+00  1.282210795E+01  4.750000000E+00  0.00000E+00  9.000E+00
      21     1     1     2   502   511 -1.301412406E+01 -1.803951268E+01  8.633941302E+00  2.386077084E+01  3.371747881E-07  0.00000E+00  9.000E+00
#rwgt            1           9  0.45694050292175242                7     2573603           0
</event>
<event>
      6   9999  3.45752E-01  4.01621E+00 -1.00000E+00  2.47487E-01
      21    -1     0     0   512   502  0.000000000E+00  0.000000000E+00  3.887423846E+01  3.887423846E+01  0.000000000E+00  0.00000E+00  9.000E+00
      21    -1     0     0   502   503  0.000000000E+00  0.000000000E+00 -1.021935344E+03  1.021935344E+03  0.000000000E+00  0.00000E+00  9.000E+00
      25     1     1     2     0     0  1.729089356E+01 -7.814417908E+00 -6.781897780E+02  6.898740539E+02  1.249991805E+02  0.00000E+00  9.000E+00
       5     1     1     2   501     0  1.441123105E+00  3.373531748E+00  1.101357525E+01  1.254268281E+01  4.750000000E+00  0.00000E+00  9.000E+00
      -5     1     1     2     0   503 -1.587396851E+01  7.262497980E+00 -3.367041185E+02  3.371897873E+02  4.750000000E+00  0.00000E+00  9.000E+00
      21     1     1     2   512   501 -2.858048150E+00 -2.821611820E+00  2.081921584E+01  2.120305829E+01  1.327458468E-06  0.00000E+00  9.000E+00
#rwgt            1           9  0.36106799293316261                7     2574639           0
</event>
<event>
      6   9999  3.45752E-01  1.92058E+01 -1.00000E+00  1.61565E-01
      21    -1     0     0   501   511  0.000000000E+00  0.000000000E+00  8.287501264E+02  8.287501264E+02  0.000000000E+00  0.00000E+00  9.000E+00
      21    -1     0     0   502   503  0.000000000E+00  0.000000000E+00 -1.184969162E+03  1.184969162E+03  0.000000000E+00  0.00000E+00  9.000E+00
      25     1     1     2     0     0 -1.874106562E+01  3.054814938E+01 -1.094074011E+03  1.101774012E+03  1.249944575E+02  0.00000E+00  9.000E+00
       5     1     1     2   501     0 -2.897905678E+00 -1.790874567E+00  3.760445488E+01  3.805604572E+01  4.750000000E+00  0.00000E+00  9.000E+00
      -5     1     1     2     0   503  1.806238832E+01 -9.887453164E+00 -8.541433066E+01  8.798966976E+01  4.750000000E+00  0.00000E+00  9.000E+00
      21     1     1     2   502   511  3.576582971E+00 -1.886982165E+01  7.856648511E+02  7.858995613E+02  1.078959322E-05  0.00000E+00  9.000E+00
#rwgt            1           9   3.5153554224943246E-004           7     2580647           0
</event>
<event>
      6   9999  3.45752E-01  1.00905E+02 -1.00000E+00  1.20269E-01
      21    -1     0     0   501   502  0.000000000E+00  0.000000000E+00  4.743044876E+02  4.743044876E+02  0.000000000E+00  0.00000E+00  9.000E+00
      21    -1     0     0   512   503  0.000000000E+00  0.000000000E+00 -3.770788716E+03  3.770788716E+03  0.000000000E+00  0.00000E+00  9.000E+00
      25     1     1     2     0     0  3.930282031E+00  1.256213739E+02 -2.515168040E+03  2.521406341E+03  1.249939639E+02  0.00000E+00  9.000E+00
       5     1     1     2   501     0 -7.992863805E-01  3.658629228E+00  4.650152748E+02  4.650546126E+02  4.750000000E+00  0.00000E+00  9.000E+00
      -5     1     1     2     0   503  5.610407174E+01 -4.759117812E+01 -5.903139812E+02  5.948997781E+02  4.750000000E+00  0.00000E+00  9.000E+00
      21     1     1     2   512   502 -5.923506739E+01 -8.168882497E+01 -6.560174823E+02  6.637324720E+02  0.000000000E+00  0.00000E+00  9.000E+00
#rwgt            1           9   1.0522869284334115E-004           7     2583351           0
</event>
<event>
      6   9999 -3.45752E-01  1.72352E+01 -1.00000E+00  1.65304E-01
       2    -1     0     0   502     0  0.000000000E+00  0.000000000E+00  2.019508937E+02  2.019508937E+02  0.000000000E+00  0.00000E+00  9.000E+00
      21    -1     0     0   501   502  0.000000000E+00  0.000000000E+00 -8.396285332E+02  8.396285332E+02  0.000000000E+00  0.00000E+00  9.000E+00
      25     1     1     2     0     0 -2.372517133E+01  2.905953346E+00 -3.626076536E+02  3.842920230E+02  1.249988806E+02  0.00000E+00  9.000E+00
       5     1     1     2   501     0  7.518320425E+00 -1.828727469E+00 -3.899288382E+02  3.900345250E+02  4.750000000E+00  0.00000E+00  9.000E+00
      -5     1     1     2     0   503  1.320686600E+00  7.609206107E+00 -7.553666051E+01  7.607886574E+01  4.750000000E+00  0.00000E+00  9.000E+00
       2     1     1     2   503     0  1.488616431E+01 -8.686431984E+00  1.903955128E+02  1.911740131E+02  2.697398305E-06  0.00000E+00  9.000E+00
#rwgt            1           9  -5.3213766844701542E-005           7     2585034           0
</event>
<event>
      6   9999  3.45752E-01  7.06214E+00 -1.00000E+00  2.04651E-01
      21    -1     0     0   501   511  0.000000000E+00  0.000000000E+00  1.079832252E+02  1.079832252E+02  0.000000000E+00  0.00000E+00  9.000E+00
      21    -1     0     0   502   503  0.000000000E+00  0.000000000E+00 -1.376509266E+02  1.376509266E+02  0.000000000E+00  0.00000E+00  9.000E+00
      25     1     1     2     0     0  2.204277794E+01  1.707720196E+01 -8.394200249E+01  1.531236742E+02  1.249923395E+02  0.00000E+00  9.000E+00
       5     1     1     2   501     0 -2.059176009E+00 -2.128576953E+00  2.922078087E+01  2.975210212E+01  4.750000000E+00  0.00000E+00  9.000E+00
      -5     1     1     2     0   503 -2.103421641E+01 -2.193218030E+01 -5.633588202E+00  3.126913189E+01  4.750000000E+00  0.00000E+00  9.000E+00
      21     1     1     2   502   511  1.050614480E+00  6.983555293E+00  3.068710840E+01  3.148924351E+01  4.768371582E-07  0.00000E+00  9.000E+00
#rwgt            1           9  0.14011719069273804                7     2586701           0
</event>
<event>
      6   9999  3.45752E-01  1.09044E+01 -1.00000E+00  1.83318E-01
      21    -1     0     0   512   502  0.000000000E+00  0.000000000E+00  1.603971415E+01  1.603971415E+01  0.000000000E+00  0.00000E+00  9.000E+00
      21    -1     0     0   502   503  0.000000000E+00  0.000000000E+00 -6.821097063E+02  6.821097063E+02  0.000000000E+00  0.00000E+00  9.000E+00
      25     1     1     2     0     0 -6.782643457E+00  1.100297629E+01 -5.712937969E+02  5.849577754E+02  1.250277044E+02  0.00000E+00  9.000E+00
       5     1     1     2   501     0 -1.307968027E+00  6.315276046E-01 -3.113896910E+00  5.862462063E+00  4.750000000E+00  0.00000E+00  9.000E+00
      -5     1     1     2     0   503 -4.712131228E-02 -4.376210360E+00 -9.553833417E+01  9.575640571E+01  4.750000000E+00  0.00000E+00  9.000E+00
      21     1     1     2   512   501  8.137732796E+00 -7.258293534E+00  3.876035844E+00  1.157277728E+01  2.021291847E-07  0.00000E+00  9.000E+00
#rwgt            1           9   7.7282600894563514E-004           7     2589790           0
</event>
<event>
      6   9999  3.45752E-01  4.74196E+01 -1.00000E+00  1.36030E-01
       1    -1     0     0   501     0  0.000000000E+00  0.000000000E+00  2.228895021E+03  2.228895021E+03  0.000000000E+00  0.00000E+00  9.000E+00
      21    -1     0     0   502   503  0.000000000E+00  0.000000000E+00 -5.272562498E+02  5.272562498E+02  0.000000000E+00  0.00000E+00  9.000E+00
      25     1     1     2     0     0  2.766015013E+01 -1.177963964E+01 -4.181295767E+02  4.374482930E+02  1.249992892E+02  0.00000E+00  9.000E+00
       5     1     1     2   501     0 -9.092990239E-01  3.998294781E+01  3.155253471E+02  3.180853189E+02  4.750000000E+00  0.00000E+00  9.000E+00
      -5     1     1     2     0   503 -3.612531212E+01  1.828042377E+01 -9.364724203E+01  1.021351091E+02  4.750000000E+00  0.00000E+00  9.000E+00
       1     1     1     2   502     0  9.374461015E+00 -4.648373195E+01  1.897890243E+03  1.898482550E+03  2.157918644E-05  0.00000E+00  9.000E+00
#rwgt            1           9   7.3732316110820080E-004           7     2592460           0
</event>
<event>
      6   9999  3.45752E-01  2.19600E+01 -1.00000E+00  1.57172E-01
      21    -1     0     0   501   511  0.000000000E+00  0.000000000E+00  2.080689639E+01  2.080689639E+01  0.000000000E+00  0.00000E+00  9.000E+00
      21    -1     0     0   502   503  0.000000000E+00  0.000000000E+00 -1.086555379E+03  1.086555379E+03  0.000000000E+00  0.00000E+00  9.000E+00
      25     1     1     2     0     0  3.702308662E+01  6.545678505E+01 -9.195265942E+02  9.310259795E+02  1.249996698E+02  0.00000E+00  9.000E+00
       5     1     1     2   501     0  1.837280315E+00 -2.480608075E-01 -1.400801202E+00  5.287899123E+00  4.750000000E+00  0.00000E+00  9.000E+00
      -5     1     1     2     0   503 -1.690055086E+01 -6.530647391E+01 -1.212469663E+02  1.388306648E+02  4.750000000E+00  0.00000E+00  9.000E+00
      21     1     1     2   502   511 -2.195981608E+01  9.774967281E-02 -2.357412102E+01  3.221773206E+01  0.000000000E+00  0.00000E+00  9.000E+00
#rwgt            1           9   2.8819494907698579E-003           7     2593999           0
</event>
<event>
      6   9999  3.45752E-01  3.07448E+01 -1.00000E+00  1.47152E-01
      21    -1     0     0   512   502  0.000000000E+00  0.000000000E+00  1.918006910E+02  1.918006910E+02  0.000000000E+00  0.00000E+00  9.000E+00
      21    -1     0     0   502   503  0.000000000E+00  0.000000000E+00 -2.534634688E+02  2.534634688E+02  0.000000000E+00  0.00000E+00  9.000E+00
      25     1     1     2     0     0  2.629019527E+01 -4.786781987E+00 -2.187746456E+02  2.533809485E+02  1.250018874E+02  0.00000E+00  9.000E+00
       5     1     1     2   501     0  3.424649351E+00 -3.993632685E-02  1.744577919E+00  6.110308519E+00  4.750000000E+00  0.00000E+00  9.000E+00
      -5     1     1     2     0   503  7.374566467E-01  5.959656415E-01 -1.338933464E+01  1.423853221E+01  4.750000000E+00  0.00000E+00  9.000E+00
      21     1     1     2   512   501 -3.045230127E+01  4.230752672E+00  1.687566246E+02  1.715343705E+02  2.697398305E-06  0.00000E+00  9.000E+00
#rwgt            1           9   8.9769687528275634E-004           7     2595990           0
</event>
<event>
      6   9999 -3.45752E-01  1.52229E+01 -1.00000E+00  1.69818E-01
      21    -1     0     0   511   503  0.000000000E+00  0.000000000E+00  1.043285001E+02  1.043285001E+02  0.000000000E+00  0.00000E+00  9.000E+00
      21    -1     0     0   501   502  0.000000000E+00  0.000000000E+00 -1.773672579E+03  1.773672579E+03  0.000000000E+00  0.00000E+00  9.000E+00
      25     1     1     2     0     0  2.222702882E+02  1.851019101E+02 -8.653428222E+02  9.209296088E+02  1.250053853E+02  0.00000E+00  9.000E+00
       5     1     1     2   501     0 -1.498278188E+00  1.072516606E-01 -5.567614953E+02  5.567837835E+02  4.750000000E+00  0.00000E+00  9.000E+00
      -5     1     1     2     0   503 -2.226567412E+02 -2.003149778E+02 -2.366586036E+02  3.817485716E+02  4.750000000E+00  0.00000E+00  9.000E+00
      21     1     1     2   511   502  1.884731258E+00  1.510581604E+01 -1.058115743E+01  1.853911494E+01  1.685873940E-07  0.00000E+00  9.000E+00
#rwgt            1           9  -6.9278848617046933E-003           7     2596733           0
</event>
<event>
      6   9999  3.45752E-01  2.46976E+00 -1.00000E+00  3.01047E-01
      21    -1     0     0   501   502  0.000000000E+00  0.000000000E+00  1.676522786E+02  1.676522786E+02  0.000000000E+00  0.00000E+00  9.000E+00
      21    -1     0     0   502   512  0.000000000E+00  0.000000000E+00 -1.098831024E+02  1.098831024E+02  0.000000000E+00  0.00000E+00  9.000E+00
      25     1     1     2     0     0  2.001170228E+00 -2.976469172E+01 -6.242132291E+01  1.428678656E+02  1.249994557E+02  0.00000E+00  9.000E+00
       5     1     1     2   501     0 -1.752895757E+00 -2.953261531E+00  8.466355368E+01  8.486621364E+01  4.750000000E+00  0.00000E+00  9.000E+00
      -5     1     1     2     0   503 -8.900610558E-01  3.033303977E+01  3.596158647E+01  4.729359060E+01  4.750000000E+00  0.00000E+00  9.000E+00
      21     1     1     2   503   512  6.417865841E-01  2.384913483E+00 -4.346410788E-01  2.507711150E+00  3.907117427E-08  0.00000E+00  9.000E+00
#rwgt            1           9   6.1097800446892477E-004           7     2600152           0
</event>
<event>
      6   9999  3.45752E-01  1.10134E+01 -1.00000E+00  1.82884E-01
      21    -1     0     0   501   511  0.000000000E+00  0.000000000E+00  1.670118455E+01  1.670118455E+01  0.000000000E+00  0.00000E+00  9.000E+00
      21    -1     0     0   502   503  0.000000000E+00  0.000000000E+00 -3.840168936E+02  3.840168936E+02  0.000000000E+00  0.00000E+00  9.000E+00
      25     1     1     2     0     0  2.689708096E+00  1.239024982E+00 -3.040334224E+02  3.287409353E+02  1.250020436E+02  0.00000E+00  9.000E+00
       5     1     1     2   501     0  5.606738629E-01 -1.320692722E+01 -2.784698438E+01  3.118900962E+01  4.750000000E+00  0.00000E+00  9.000E+00
      -5     1     1     2     0   503  4.123928232E+00  3.787803610E+00 -2.316121658E+01  2.429729807E+01  4.750000000E+00  0.00000E+00  9.000E+00
      21     1     1     2   502   511 -7.374310191E+00  8.180098632E+00 -1.227408576E+01  1.649083520E+01  1.685873940E-07  0.00000E+00  9.000E+00
#rwgt            1           9   8.8181238749061780E-002           7     2607860           0
</event>
<event>
      6   9999  3.45752E-01  5.95193E+00 -1.00000E+00  2.14546E-01
      21    -1     0     0   512   503  0.000000000E+00  0.000000000E+00  1.992547584E+01  1.992547584E+01  0.000000000E+00  0.00000E+00  9.000E+00
      21    -1     0     0   501   502  0.000000000E+00  0.000000000E+00 -5.746053629E+02  5.746053629E+02  0.000000000E+00  0.00000E+00  9.000E+00
      25     1     1     2     0     0  4.013854424E+00  1.083168290E+01 -4.750658620E+02  4.913735926E+02  1.250079912E+02  0.00000E+00  9.000E+00
       5     1     1     2   501     0  1.028715924E-01  8.767889651E-02 -1.163305915E+01  1.256617823E+01  4.750000000E+00  0.00000E+00  9.000E+00
      -5     1     1     2     0   503 -1.832501011E+00 -5.423201713E+00 -7.831397451E+01  7.866644952E+01  4.750000000E+00  0.00000E+00  9.000E+00
      21     1     1     2   512   502 -2.284225005E+00 -5.496160080E+00  1.033300856E+01  1.192461846E+01  2.384185791E-07  0.00000E+00  9.000E+00
#rwgt            1           9   4.0306234049614868E-004           7     2609623           0
</event>
<event>
      6   9999  3.45752E-01  8.10450E+00 -1.00000E+00  1.97350E-01
       2    -1     0     0   501     0  0.000000000E+00  0.000000000E+00  1.647955570E+03  1.647955570E+03  0.000000000E+00  0.00000E+00  9.000E+00
      21    -1     0     0   502   503  0.000000000E+00  0.000000000E+00 -9.543186213E+02  9.543186213E+02  0.000000000E+00  0.00000E+00  9.000E+00
      25     1     1     2     0     0  8.885458032E+00 -2.602478043E+01 -4.991975266E+02  5.153454618E+02  1.250061356E+02  0.00000E+00  9.000E+00
       5     1     1     2   501     0 -6.820526389E+00 -1.646013315E+00  1.321921768E+01  1.570156541E+01  4.750000000E+00  0.00000E+00  9.000E+00
      -5     1     1     2     0   503 -8.514690732E+00  2.276329383E+01 -4.454519524E+02  4.461397449E+02  4.750000000E+00  0.00000E+00  9.000E+00
       2     1     1     2   502     0  6.449759088E+00  4.907499919E+00  1.625067210E+03  1.625087419E+03  2.157918644E-05  0.00000E+00  9.000E+00
#rwgt            1           9   8.6972648685295392E-004           7     2612758           0
</event>
<event>
      6   9999  3.45752E-01  4.70586E+00 -1.00000E+00  2.34093E-01
      21    -1     0     0   511   502  0.000000000E+00  0.000000000E+00  1.199190476E+03  1.199190476E+03  0.000000000E+00  0.00000E+00  9.000E+00
      21    -1     0     0   502   503  0.000000000E+00  0.000000000E+00 -2.571736526E+01  2.571736526E+01  0.000000000E+00  0.00000E+00  9.000E+00
      25     1     1     2     0     0  5.933067450E+00  1.318843174E+00  1.439979843E+02  1.907911771E+02  1.250156515E+02  0.00000E+00  9.000E+00
       5     1     1     2   501     0  8.644058790E-01  2.601880872E+00  1.000798956E+03  1.000813984E+03  4.750000000E+00  0.00000E+00  9.000E+00
      -5     1     1     2     0   503 -3.364111918E+00 -7.024766340E-01  1.969877590E+00  6.184952719E+00  4.750000000E+00  0.00000E+00  9.000E+00
      21     1     1     2   511   501 -3.433361411E+00 -3.218247412E+00  2.670629200E+01  2.711772703E+01  0.000000000E+00  0.00000E+00  9.000E+00
#rwgt            1           9   1.2526371309689610E-002           7     2616551           0
</event>
<event>
      6   9999  3.45752E-01  5.11007E+00 -1.00000E+00  2.24254E-01
      21    -1     0     0   501   502  0.000000000E+00  0.000000000E+00  2.017307341E+00  2.017307341E+00  0.000000000E+00  0.00000E+00  9.000E+00
       2    -1     0     0   502     0  0.000000000E+00  0.000000000E+00 -3.551405745E+03  3.551405745E+03  0.000000000E+00  0.00000E+00  9.000E+00
      25     1     1     2     0     0 -1.501496867E+01  5.103910105E+00 -2.578207844E+03  2.581284978E+03  1.249998188E+02  0.00000E+00  9.000E+00
       5     1     1     2   501     0 -3.637257812E-02 -3.246127557E-01 -1.739106757E+01  1.803104067E+01  4.750000000E+00  0.00000E+00  9.000E+00
      -5     1     1     2     0   503  1.030211629E+01 -2.893106454E+00 -2.286743138E+02  2.289738150E+02  4.750000000E+00  0.00000E+00  9.000E+00
       2     1     1     2   503     0  4.749224949E+00 -1.886190895E+00 -7.251152125E+02  7.251332182E+02  0.000000000E+00  0.00000E+00  9.000E+00
#rwgt            1           9   1.6702754706850975E-004           7     2622528           0
</event>
<event>
      6   9999  3.45752E-01  7.60143E+00 -1.00000E+00  2.00680E-01
      21    -1     0     0   501   511  0.000000000E+00  0.000000000E+00  2.925190548E+02  2.925190548E+02  0.000000000E+00  0.00000E+00  9.000E+00
      21    -1     0     0   502   503  0.000000000E+00  0.000000000E+00 -7.941534749E+02  7.941534749E+02  0.000000000E+00  0.00000E+00  9.000E+00
      25     1     1     2     0     0  1.871054011E+00  5.844876127E+00 -7.300106443E+02  7.406613239E+02  1.250039698E+02  0.00000E+00  9.000E+00
       5     1     1     2   501     0 -3.147858658E-03  2.517707554E-01 -2.786800579E+01  2.827103898E+01  4.750000000E+00  0.00000E+00  9.000E+00
      -5     1     1     2     0   503  1.517425644E+00  7.093210350E-01 -3.049100062E+01  3.090419609E+01  4.750000000E+00  0.00000E+00  9.000E+00
      21     1     1     2   502   511 -3.385331796E+00 -6.805967917E+00  2.867352306E+02  2.868359708E+02  3.814697266E-06  0.00000E+00  9.000E+00
#rwgt            1           9   5.3852219132920244E-002           7     2625724           0
</event>
<event>
      6   9999  3.45752E-01  1.55403E+01 -1.00000E+00  1.69050E-01
      21    -1     0     0   501   502  0.000000000E+00  0.000000000E+00  8.426318434E+00  8.426318434E+00  0.000000000E+00  0.00000E+00  9.000E+00
      21    -1     0     0   512   503  0.000000000E+00  0.000000000E+00 -9.855116594E+02  9.855116594E+02  0.000000000E+00  0.00000E+00  9.000E+00
      25     1     1     2     0     0  1.506410750E+00  9.775368716E+00 -5.869945784E+02  6.002347860E+02  1.249853436E+02  0.00000E+00  9.000E+00
       5     1     1     2   501     0  9.253342993E-01  1.652288406E-01 -4.481220883E+00  6.597528684E+00  4.750000000E+00  0.00000E+00  9.000E+00
      -5     1     1     2     0   503  1.309688412E+01 -9.337277485E+00 -1.392238028E+02  1.402303209E+02  4.750000000E+00  0.00000E+00  9.000E+00
      21     1     1     2   512   502 -1.552862917E+01 -6.033200718E-01 -2.463857389E+02  2.468753423E+02  0.000000000E+00  0.00000E+00  9.000E+00
#rwgt            1           9   2.0622357806432796E-003           7     2628871           0
</event>
<event>
      6   9999  3.45752E-01  1.02012E+01 -1.00000E+00  1.86287E-01
      21    -1     0     0   501   502  0.000000000E+00  0.000000000E+00  2.332663246E+03  2.332663246E+03  0.000000000E+00  0.00000E+00  9.000E+00
      21    -1     0     0   502   511  0.000000000E+00  0.000000000E+00 -1.723493140E+01  1.723493140E+01  0.000000000E+00  0.00000E+00  9.000E+00
      25     1     1     2     0     0  8.589485096E+00 -2.983894490E+00  2.876745494E+02  3.137862926E+02  1.249900323E+02  0.00000E+00  9.000E+00
       5     1     1     2   501     0 -2.810460610E+00 -2.745067664E+00  1.997449662E+03  1.997459173E+03  4.750000000E+00  0.00000E+00  9.000E+00
      -5     1     1     2     0   503 -1.667310005E+00 -3.606932702E+00  2.733562004E+01  2.802835188E+01  4.750000000E+00  0.00000E+00  9.000E+00
      21     1     1     2   503   511 -4.111714480E+00  9.335894856E+00  2.968483326E+00  1.062435984E+01  4.500051996E-07  0.00000E+00  9.000E+00
#rwgt            1           9   1.4840617587985265E-003           7     2630258           0
</event>
<event>
      6   9999  3.45752E-01  1.39254E+01 -1.00000E+00  1.73218E-01
      21    -1     0     0   501   502  0.000000000E+00  0.000000000E+00  2.170410716E+01  2.170410716E+01  0.000000000E+00  0.00000E+00  9.000E+00
      21    -1     0     0   512   503  0.000000000E+00  0.000000000E+00 -1.244674880E+03  1.244674880E+03  0.000000000E+00  0.00000E+00  9.000E+00
      25     1     1     2     0     0 -3.045747511E+01  2.846911358E+01 -6.641997611E+02  6.771426343E+02  1.249907049E+02  0.00000E+00  9.000E+00
       5     1     1     2   501     0  4.797558313E+00 -2.353257135E+01  3.598483581E+00  2.474489976E+01  4.750000000E+00  0.00000E+00  9.000E+00
      -5     1     1     2     0   503  2.988117438E+01  8.333622812E+00 -2.750324555E+02  2.768171742E+02  4.750000000E+00  0.00000E+00  9.000E+00
      21     1     1     2   512   502 -4.221257581E+00 -1.327016505E+01 -2.873370401E+02  2.876742792E+02  5.394796609E-06  0.00000E+00  9.000E+00
#rwgt            1           9   1.2789970059919338E-002           7     2633311           0
</event>
<event>
      6   9999  3.45752E-01  3.06808E+01 -1.00000E+00  1.47210E-01
      21    -1     0     0   501   502  0.000000000E+00  0.000000000E+00  5.450452850E+01  5.450452850E+01  0.000000000E+00  0.00000E+00  9.000E+00
      21    -1     0     0   502   511  0.000000000E+00  0.000000000E+00 -1.424807633E+03  1.424807633E+03  0.000000000E+00  0.00000E+00  9.000E+00
      25     1     1     2     0     0  7.619151739E+01 -4.185268580E+01 -3.214972373E+02  3.557255710E+02  1.249936545E+02  0.00000E+00  9.000E+00
       5     1     1     2   501     0  1.061888870E+00 -8.863868191E+00  3.415221682E+01  3.561786323E+01  4.750000000E+00  0.00000E+00  9.000E+00
      -5     1     1     2     0   503 -5.034938072E+01  3.596926918E+01 -9.236902217E+02  9.257726700E+02  4.750000000E+00  0.00000E+00  9.000E+00
      21     1     1     2   503   511 -2.690402553E+01  1.474728480E+01 -1.592678620E+02  1.621960568E+02  1.907348633E-06  0.00000E+00  9.000E+00
#rwgt            1           9   1.8895986742292648E-003           7     2635777           0
</event>
<event>
      6   9999  3.45752E-01  3.53128E+00 -1.00000E+00  2.59613E-01
      21    -1     0     0   512   502  0.000000000E+00  0.000000000E+00  1.018160087E+01  1.018160087E+01  0.000000000E+00  0.00000E+00  9.000E+00
      21    -1     0     0   502   503  0.000000000E+00  0.000000000E+00 -7.334287367E+02  7.334287367E+02  0.000000000E+00  0.00000E+00  9.000E+00
      25     1     1     2     0     0  1.080472110E+01 -1.151125296E+01 -6.947192915E+02  7.060523289E+02  1.250029845E+02  0.00000E+00  9.000E+00
       5     1     1     2   501     0 -2.171370275E+00  4.634949466E+00 -4.803017395E+00  8.475203922E+00  4.750000000E+00  0.00000E+00  9.000E+00
      -5     1     1     2     0   503 -6.955800659E+00  3.768934232E+00 -2.382554613E+01  2.555009152E+01  4.750000000E+00  0.00000E+00  9.000E+00
      21     1     1     2   512   501 -1.677550170E+00  3.107369264E+00  1.007192602E-01  3.532713219E+00  8.342487990E-08  0.00000E+00  9.000E+00
#rwgt            1           9   3.9695010117226839E-003           7     2638342           0
</event>
<event>
      6   9999  3.45752E-01  2.19268E+01 -1.00000E+00  1.57220E-01
      21    -1     0     0   501   511  0.000000000E+00  0.000000000E+00  3.676288247E+01  3.676288247E+01  0.000000000E+00  0.00000E+00  9.000E+00
      21    -1     0     0   502   503  0.000000000E+00  0.000000000E+00 -9.796234477E+02  9.796234477E+02  0.000000000E+00  0.00000E+00  9.000E+00
      25     1     1     2     0     0  6.570459607E+01 -3.342126590E+00 -4.240517684E+02  4.469575439E+02  1.249915196E+02  0.00000E+00  9.000E+00
       5     1     1     2   501     0 -7.555167480E-01 -1.904967178E+00  9.411315825E+00  1.073941670E+01  4.750000000E+00  0.00000E+00  9.000E+00
      -5     1     1     2     0   503 -6.361240055E+01 -1.663890354E+01 -5.323166248E+02  5.363832045E+02  4.750000000E+00  0.00000E+00  9.000E+00
      21     1     1     2   502   511 -1.336678774E+00  2.188599731E+01  4.096512114E+00  2.230616506E+01  7.396741894E-07  0.00000E+00  9.000E+00
#rwgt            1           9   1.7104290628714583E-003           7     2643206           0
</event>
<event>
      6   9999  3.45752E-01  5.67922E+01 -1.00000E+00  1.31893E-01
      21    -1     0     0   512   502  0.000000000E+00  0.000000000E+00  3.040132394E+01  3.040132394E+01  0.000000000E+00  0.00000E+00  9.000E+00
      21    -1     0     0   502   503  0.000000000E+00  0.000000000E+00 -1.231780917E+03  1.231780917E+03  0.000000000E+00  0.00000E+00  9.000E+00
      25     1     1     2     0     0  2.047126689E+01 -1.100972803E+02 -8.938854008E+02  9.095042766E+02  1.250057419E+02  0.00000E+00  9.000E+00
       5     1     1     2   501     0 -5.428935457E+01  7.585689047E+01 -1.243564203E+02  1.555271154E+02  4.750000000E+00  0.00000E+00  9.000E+00
      -5     1     1     2     0   503 -2.662594255E+00 -9.285680640E+00 -6.712934118E+01  6.798694154E+01  4.750000000E+00  0.00000E+00  9.000E+00
      21     1     1     2   512   501  3.648068193E+01  4.352607044E+01 -1.160084309E+02  1.291639075E+02  1.348699152E-06  0.00000E+00  9.000E+00
#rwgt            1           9   3.2801306305572001E-002           7     2645014           0
</event>
<event>
      6   9999  3.45752E-01  6.92337E+00 -1.00000E+00  2.05750E-01
      21    -1     0     0   511   503  0.000000000E+00  0.000000000E+00  3.627102566E+01  3.627102566E+01  0.000000000E+00  0.00000E+00  9.000E+00
      21    -1     0     0   501   502  0.000000000E+00  0.000000000E+00 -8.039135191E+02  8.039135191E+02  0.000000000E+00  0.00000E+00  9.000E+00
      25     1     1     2     0     0 -1.700492359E+01  4.272906712E+00 -7.280404962E+02  7.388997928E+02  1.249900578E+02  0.00000E+00  9.000E+00
       5     1     1     2   501     0  1.066481540E+01 -7.936828616E-01 -4.690135845E+01  4.833909541E+01  4.750000000E+00  0.00000E+00  9.000E+00
      -5     1     1     2     0   503  3.083921087E+00  2.630632472E+00 -2.198468872E+01  2.285431764E+01  4.750000000E+00  0.00000E+00  9.000E+00
      21     1     1     2   511   502  3.256187099E+00 -6.109856323E+00  2.928404992E+01  3.009133893E+01  2.132480600E-06  0.00000E+00  9.000E+00
#rwgt            1           9   1.5292923865287125E-002           7     2645662           0
</event>
<event>
      6   9999  3.45752E-01  3.96053E+00 -1.00000E+00  2.48745E-01
      21    -1     0     0   501   502  0.000000000E+00  0.000000000E+00  1.330105048E+01  1.330105048E+01  0.000000000E+00  0.00000E+00  9.000E+00
      21    -1     0     0   512   503  0.000000000E+00  0.000000000E+00 -8.752977788E+02  8.752977788E+02  0.000000000E+00  0.00000E+00  9.000E+00
      25     1     1     2     0     0  2.261338259E+01  3.435357179E+01 -6.847576404E+02  6.972872226E+02  1.249996468E+02  0.00000E+00  9.000E+00
       5     1     1     2   501     0  1.255008533E+00 -1.380839901E+00  3.343250040E+00  6.100949605E+00  4.750000000E+00  0.00000E+00  9.000E+00
      -5     1     1     2     0   503 -2.083785405E+01 -3.042290641E+01 -1.641032840E+02  1.682623538E+02  4.750000000E+00  0.00000E+00  9.000E+00
      21     1     1     2   512   502 -3.030537079E+00 -2.549825479E+00 -1.647905396E+01  1.694830329E+01  3.371747881E-07  0.00000E+00  9.000E+00
#rwgt            1           9   4.3599589490813273E-004           7     2648244           0
</event>
<event>
      6   9999  3.45752E-01  1.01857E+01 -1.00000E+00  1.86356E-01
      21    -1     0     0   501   502  0.000000000E+00  0.000000000E+00  9.611620946E+02  9.611620946E+02  0.000000000E+00  0.00000E+00  9.000E+00
      21    -1     0     0   511   503  0.000000000E+00  0.000000000E+00 -2.840233451E+01  2.840233451E+01  0.000000000E+00  0.00000E+00  9.000E+00
      25     1     1     2     0     0 -4.005838846E+00  1.722929398E+01  1.840702074E+02  2.232028111E+02  1.249990333E+02  0.00000E+00  9.000E+00
       5     1     1     2   501     0 -1.135844242E+00 -1.967752915E+00  7.421935814E+02  7.422122587E+02  4.750000000E+00  0.00000E+00  9.000E+00
      -5     1     1     2     0   503  1.027631718E+01 -6.464672093E+00  2.971917261E+00  1.337121805E+01  4.750000000E+00  0.00000E+00  9.000E+00
      21     1     1     2   511   502 -5.134634087E+00 -8.796868970E+00  3.524053984E+00  1.077814118E+01  4.020553101E-07  0.00000E+00  9.000E+00
#rwgt            1           9   6.9292447692662919E-004           7     2653307           0
</event>
<event>
      6   9999  3.45752E-01  1.30305E+01 -1.00000E+00  1.75845E-01
      21    -1     0     0   501   502  0.000000000E+00  0.000000000E+00  1.218474243E+01  1.218474243E+01  0.000000000E+00  0.00000E+00  9.000E+00
       2    -1     0     0   502     0  0.000000000E+00  0.000000000E+00 -2.945577924E+03  2.945577924E+03  0.000000000E+00  0.00000E+00  9.000E+00
      25     1     1     2     0     0 -3.828749364E+00  8.820366865E+00 -1.256008472E+03  1.262244182E+03  1.249425345E+02  0.00000E+00  9.000E+00
       5     1     1     2   501     0 -1.432041223E-01 -1.551787634E-01  8.016227561E+00  9.320246358E+00  4.750000000E+00  0.00000E+00  9.000E+00
      -5     1     1     2     0   503 -7.114112731E+00 -1.817367944E+00 -5.092868010E+01  5.167403974E+01  4.750000000E+00  0.00000E+00  9.000E+00
       2     1     1     2   503     0  1.108606622E+01 -6.847820158E+00 -1.634472257E+03  1.634524198E+03  2.157918644E-05  0.00000E+00  9.000E+00
#rwgt            1           9   4.9680333665138909E-002           7     2656204           0
</event>
<event>
      6   9999  3.45752E-01  4.22545E+01 -1.00000E+00  1.38819E-01
      -3    -1     0     0     0   502  0.000000000E+00  0.000000000E+00  9.560884637E+01  9.560884637E+01  0.000000000E+00  0.00000E+00  9.000E+00
      21    -1     0     0   502   503  0.000000000E+00  0.000000000E+00 -1.050750418E+03  1.050750418E+03  0.000000000E+00  0.00000E+00  9.000E+00
      25     1     1     2     0     0 -7.026455035E+01  4.852942839E+01 -4.980972910E+02  5.205946102E+02  1.250024976E+02  0.00000E+00  9.000E+00
       5     1     1     2   501     0 -8.955268760E+00  1.477041260E+01  1.216896175E+01  2.165659385E+01  4.750000000E+00  0.00000E+00  9.000E+00
      -5     1     1     2     0   503  5.951428927E+01 -2.592156307E+01 -5.278416951E+02  5.318395393E+02  4.750000000E+00  0.00000E+00  9.000E+00
      -3     1     1     2     0   501  1.970552984E+01 -3.737827792E+01  5.862845304E+01  7.226852062E+01  2.697398305E-06  0.00000E+00  9.000E+00
#rwgt            1           9  0.55209649143766459                7     2658788           0
</event>
<event>
      6   9999  3.45752E-01  2.23389E+00 -1.00000E+00  3.15348E-01
      21    -1     0     0   501   502  0.000000000E+00  0.000000000E+00  1.725922157E+00  1.725922157E+00  0.000000000E+00  0.00000E+00  9.000E+00
      21    -1     0     0   502   511  0.000000000E+00  0.000000000E+00 -3.603224750E+03  3.603224750E+03  0.000000000E+00  0.00000E+00  9.000E+00
      25     1     1     2     0     0  2.718712994E+00  6.299429302E+00 -3.381294498E+03  3.383611213E+03  1.250011376E+02  0.00000E+00  9.000E+00
       5     1     1     2   501     0 -6.876629732E-01 -9.486034089E-02 -1.214593933E+01  1.306017691E+01  4.750000000E+00  0.00000E+00  9.000E+00
      -5     1     1     2     0   503 -3.410452600E+00 -4.447439936E+00 -1.555544949E+02  1.557278855E+02  4.750000000E+00  0.00000E+00  9.000E+00
      21     1     1     2   503   511  1.379402579E+00 -1.757129026E+00 -5.250389578E+01  5.255139700E+01  6.743495762E-07  0.00000E+00  9.000E+00
#rwgt            1           9   3.6297668582211046E-005           7     2659896           0
</event>
<event>
      6   9999  3.45752E-01  3.97121E+00 -1.00000E+00  2.48501E-01
      -2    -1     0     0     0   502  0.000000000E+00  0.000000000E+00  8.147419497E+01  8.147419497E+01  0.000000000E+00  0.00000E+00  9.000E+00
       2    -1     0     0   512     0  0.000000000E+00  0.000000000E+00 -1.564874416E+03  1.564874416E+03  0.000000000E+00  0.00000E+00  9.000E+00
      25     1     1     2     0     0  2.825516379E+02  1.001550620E+02 -5.323115757E+02  6.235759024E+02  1.249993114E+02  0.00000E+00  9.000E+00
       5     1     1     2   501     0  3.646466566E+01 -3.374877110E+01 -1.410704979E+02  1.496398986E+02  4.750000000E+00  0.00000E+00  9.000E+00
      -5     1     1     2     0   502 -3.150907084E+02 -6.580608611E+01 -8.014938972E+02  8.637289073E+02  4.750000000E+00  0.00000E+00  9.000E+00
      21     1     1     2   512   501 -3.925595149E+00 -6.002047852E-01 -8.524249979E+00  9.403902422E+00  0.000000000E+00  0.00000E+00  9.000E+00
#rwgt            1           3   7.5986207136110619E-005           7     2666185           0
</event>
<event>
      6   9999  3.45752E-01  9.76543E+00 -1.00000E+00  1.88286E-01
       1    -1     0     0   501     0  0.000000000E+00  0.000000000E+00  1.562712051E+02  1.562712051E+02  0.000000000E+00  0.00000E+00  9.000E+00
      21    -1     0     0   502   503  0.000000000E+00  0.000000000E+00 -8.985955701E+02  8.985955701E+02  0.000000000E+00  0.00000E+00  9.000E+00
      25     1     1     2     0     0 -3.010787188E+01  2.744864691E+01 -7.025848419E+02  7.147808262E+02  1.250050293E+02  0.00000E+00  9.000E+00
       5     1     1     2   501     0  1.138675012E+00  3.111268606E+00  6.379098144E+00  8.615797482E+00  4.750000000E+00  0.00000E+00  9.000E+00
      -5     1     1     2     0   503  2.235106676E+01 -2.337910476E+01 -1.872091618E+02  1.900420625E+02  4.750000000E+00  0.00000E+00  9.000E+00
       1     1     1     2   502     0  6.618130110E+00 -7.180810752E+00  1.410905406E+02  1.414280889E+02  1.907348633E-06  0.00000E+00  9.000E+00
#rwgt            1           9   9.0049152362456429E-004           7     2681233           0
</event>
<event>
      6   9999  3.45752E-01  2.71136E+01 -1.00000E+00  1.50737E-01
      21    -1     0     0   501   502  0.000000000E+00  0.000000000E+00  2.774095608E+03  2.774095608E+03  0.000000000E+00  0.00000E+00  9.000E+00
      21    -1     0     0   502   511  0.000000000E+00  0.000000000E+00 -1.060247938E+01  1.060247938E+01  0.000000000E+00  0.00000E+00  9.000E+00
      25     1     1     2     0     0  9.370048262E+01  2.531184564E+01  1.050609606E+03  1.062461980E+03  1.249977802E+02  0.00000E+00  9.000E+00
       5     1     1     2   501     0  3.711259601E+00  1.399330851E+00  1.120642291E+03  1.120659377E+03  4.750000000E+00  0.00000E+00  9.000E+00
      -5     1     1     2     0   503 -7.102905525E+01 -3.296432913E+01  4.429463552E+02  4.498397601E+02  4.750000000E+00  0.00000E+00  9.000E+00
      21     1     1     2   503   511 -2.638268697E+01  6.253152635E+00  1.492948765E+02  1.517369706E+02  0.000000000E+00  0.00000E+00  9.000E+00
#rwgt            1           9   7.4994983552023389E-005           7     2684025           0
</event>
<event>
      6   9999  3.45752E-01  1.97883E+01 -1.00000E+00  1.60564E-01
      21    -1     0     0   501   512  0.000000000E+00  0.000000000E+00  1.310958395E+01  1.310958395E+01  0.000000000E+00  0.00000E+00  9.000E+00
      21    -1     0     0   502   503  0.000000000E+00  0.000000000E+00 -2.331438526E+03  2.331438526E+03  0.000000000E+00  0.00000E+00  9.000E+00
      25     1     1     2     0     0 -5.515908454E+00 -9.712940297E+00 -2.202687344E+03  2.206259671E+03  1.250017446E+02  0.00000E+00  9.000E+00
       5     1     1     2   501     0 -5.928932077E+00  6.730911093E+00 -8.121690241E-01  1.018231399E+01  4.750000000E+00  0.00000E+00  9.000E+00
      -5     1     1     2     0   503  5.678283669E-02  1.916497612E+01 -1.033707890E+02  1.052396411E+02  4.750000000E+00  0.00000E+00  9.000E+00
      21     1     1     2   502   512  1.138805769E+01 -1.618294691E+01 -1.145863989E+01  2.286648327E+01  1.294944345E-06  0.00000E+00  9.000E+00
#rwgt            1           9   2.0540041451619071E-003           7     2685570           0
</event>
<event>
      6   9999  3.45752E-01  1.66486E+00 -1.00000E+00  3.67098E-01
      21    -1     0     0   501   511  0.000000000E+00  0.000000000E+00  1.652342950E+01  1.652342950E+01  0.000000000E+00  0.00000E+00  9.000E+00
      21    -1     0     0   502   503  0.000000000E+00  0.000000000E+00 -4.392893303E+03  4.392893303E+03  0.000000000E+00  0.00000E+00  9.000E+00
      25     1     1     2     0     0 -3.938196180E+00  7.049514537E-02 -3.983645727E+03  3.985608425E+03  1.250028997E+02  0.00000E+00  9.000E+00
       5     1     1     2   501     0  7.801884177E-01  1.425648095E-01 -1.747622127E+01  1.812759853E+01  4.750000000E+00  0.00000E+00  9.000E+00
      -5     1     1     2     0   503  1.612972830E+00  4.071259820E-01 -3.904025096E+02  3.904349491E+02  4.750000000E+00  0.00000E+00  9.000E+00
      21     1     1     2   502   511  1.545034933E+00 -6.201859369E-01  1.515458444E+01  1.524575984E+01  3.153981341E-06  0.00000E+00  9.000E+00
#rwgt            1           9   1.7273120928436585E-003           7     2687292           0
</event>
<event>
      6   9999  3.45752E-01  3.11652E+01 -1.00000E+00  1.46775E-01
      21    -1     0     0   501   512  0.000000000E+00  0.000000000E+00  3.406316969E+01  3.406316969E+01  0.000000000E+00  0.00000E+00  9.000E+00
      21    -1     0     0   502   503  0.000000000E+00  0.000000000E+00 -7.862037228E+02  7.862037228E+02  0.000000000E+00  0.00000E+00  9.000E+00
      25     1     1     2     0     0 -1.292886595E+01 -3.716402211E+01 -4.979318905E+02  5.148818537E+02  1.249753401E+02  0.00000E+00  9.000E+00
       5     1     1     2   501     0  9.432972061E-01 -2.897649298E+00 -1.191233363E+01  1.318151636E+01  4.750000000E+00  0.00000E+00  9.000E+00
      -5     1     1     2     0   503  5.737487442E+00  9.529206231E+00 -2.573214095E+02  2.576055023E+02  4.750000000E+00  0.00000E+00  9.000E+00
      21     1     1     2   502   512  6.248081299E+00  3.053246517E+01  1.502508050E+01  3.459802008E+01  5.591411304E-07  0.00000E+00  9.000E+00
#rwgt            1           9   3.1901882626443671E-005           7     2695658           0
</event>
<event>
      6   9999 -3.45752E-01  3.39433E+00 -1.00000E+00  2.63597E-01
      21    -1     0     0   501   502  0.000000000E+00  0.000000000E+00  9.020704896E+00  9.020704896E+00  0.000000000E+00  0.00000E+00  9.000E+00
      21    -1     0     0   511   503  0.000000000E+00  0.000000000E+00 -7.873866582E+02  7.873866582E+02  0.000000000E+00  0.00000E+00  9.000E+00
      25     1     1     2     0     0  8.573083053E+00 -1.507033577E+01 -4.903092222E+02  5.062873482E+02  1.249925308E+02  0.00000E+00  9.000E+00
       5     1     1     2   501     0 -4.538085058E-02 -1.694019537E-01 -7.243013745E+00  8.663400288E+00  4.750000000E+00  0.00000E+00  9.000E+00
      -5     1     1     2     0   503 -6.057030193E+00  1.291223560E+01 -2.511173686E+02  2.515669072E+02  4.750000000E+00  0.00000E+00  9.000E+00
      21     1     1     2   511   502 -2.470672010E+00  2.327502123E+00 -2.969634874E+01  2.988970751E+01  3.371747881E-07  0.00000E+00  9.000E+00
#rwgt            1           9  -2.5240807314029544E-004           7     2696540           0
</event>
<event>
      6   9999  3.45752E-01  1.15557E+01 -1.00000E+00  1.80813E-01
      21    -1     0     0   512   502  0.000000000E+00  0.000000000E+00  4.643082351E+02  4.643082351E+02  0.000000000E+00  0.00000E+00  9.000E+00
      21    -1     0     0   502   503  0.000000000E+00  0.000000000E+00 -5.629859857E+01  5.629859857E+01  0.000000000E+00  0.00000E+00  9.000E+00
      25     1     1     2     0     0  4.315322160E+00 -2.365012098E+01  7.791855790E+01  1.492407231E+02  1.249941660E+02  0.00000E+00  9.000E+00
       5     1     1     2   501     0  6.035551674E-01  1.331431442E+00  2.697549001E+02  2.698006776E+02  4.750000000E+00  0.00000E+00  9.000E+00
      -5     1     1     2     0   503 -1.419810825E+01  1.543178678E+01 -1.444115191E+01  2.590049594E+01  4.750000000E+00  0.00000E+00  9.000E+00
      21     1     1     2   512   501  9.279230924E+00  6.886902751E+00  7.477733039E+01  7.566493703E+01  9.536743164E-07  0.00000E+00  9.000E+00
#rwgt            1           9   8.7634367200793901E-004           7     2701687           0
</event>
<event>
      6   9999  3.45752E-01  3.40574E+01 -1.00000E+00  1.44361E-01
      -2    -1     0     0     0   502  0.000000000E+00  0.000000000E+00  1.242820861E+02  1.242820861E+02  0.000000000E+00  0.00000E+00  9.000E+00
      21    -1     0     0   502   503  0.000000000E+00  0.000000000E+00 -7.461694063E+02  7.461694063E+02  0.000000000E+00  0.00000E+00  9.000E+00
      25     1     1     2     0     0  1.402849075E+01  1.892368588E+01 -6.752604456E+02  6.871358611E+02  1.249964710E+02  0.00000E+00  9.000E+00
       5     1     1     2   501     0  2.362476614E-01  1.559286431E+00 -7.418083801E+00  8.948611871E+00  4.750000000E+00  0.00000E+00  9.000E+00
      -5     1     1     2     0   503 -8.746090708E+00  1.312437392E+01 -5.304597338E+01  5.554440642E+01  4.750000000E+00  0.00000E+00  9.000E+00
      -2     1     1     2     0   501 -5.518647700E+00 -3.360734624E+01  1.138371827E+02  1.188226130E+02  1.907348633E-06  0.00000E+00  9.000E+00
#rwgt            1           9   6.5160064983518944E-006           7     2705048           0
</event>
<event>
      6   9999  3.45752E-01  6.42540E+00 -1.00000E+00  2.09996E-01
      21    -1     0     0   501   502  0.000000000E+00  0.000000000E+00  1.344962263E+01  1.344962263E+01  0.000000000E+00  0.00000E+00  9.000E+00
      21    -1     0     0   511   503  0.000000000E+00  0.000000000E+00 -1.022744001E+03  1.022744001E+03  0.000000000E+00  0.00000E+00  9.000E+00
      25     1     1     2     0     0 -1.745276936E+00 -9.864808215E+00 -8.270992843E+02  8.365546499E+02  1.250203814E+02  0.00000E+00  9.000E+00
       5     1     1     2   501     0  1.841151832E+00  7.616698725E-01  7.722946728E+00  9.283123786E+00  4.750000000E+00  0.00000E+00  9.000E+00
      -5     1     1     2     0   503 -1.249670977E+00  2.782180140E+00 -5.600901718E+01  5.629275895E+01  4.750000000E+00  0.00000E+00  9.000E+00
      21     1     1     2   511   502  1.153796081E+00  6.320958203E+00 -1.339090233E+02  1.340630906E+02  1.907348633E-06  0.00000E+00  9.000E+00
#rwgt            1           9   3.0284722405160623E-004           7     2705987           0
</event>
<event>
      6   9999  3.45752E-01  2.82152E+01 -1.00000E+00  1.49582E-01
      21    -1     0     0   501   502  0.000000000E+00  0.000000000E+00  3.294241946E+01  3.294241946E+01  0.000000000E+00  0.00000E+00  9.000E+00
      21    -1     0     0   512   503  0.000000000E+00  0.000000000E+00 -3.714996101E+02  3.714996101E+02  0.000000000E+00  0.00000E+00  9.000E+00
      25     1     1     2     0     0  2.633610293E+00  2.621153514E+01 -2.165240430E+02  2.513973451E+02  1.249959337E+02  0.00000E+00  9.000E+00
       5     1     1     2   501     0  1.091374420E+00  2.538889358E+00  7.426375013E+00  9.238539015E+00  4.750000000E+00  0.00000E+00  9.000E+00
      -5     1     1     2     0   503  1.090350421E+01 -4.623557133E+00 -1.588041167E+00  1.285877364E+01  4.750000000E+00  0.00000E+00  9.000E+00
      21     1     1     2   512   502 -1.462848893E+01 -2.412686736E+01 -1.278714814E+02  1.309473718E+02  1.907348633E-06  0.00000E+00  9.000E+00
#rwgt            1           9   1.1251160653650575E-004           7     2709725           0
</event>
<event>
      6   9999  3.45752E-01  9.26958E+00 -1.00000E+00  1.90731E-01
      21    -1     0     0   511   502  0.000000000E+00  0.000000000E+00  5.810526326E+01  5.810526326E+01  0.000000000E+00  0.00000E+00  9.000E+00
      21    -1     0     0   502   503  0.000000000E+00  0.000000000E+00 -1.407981447E+03  1.407981447E+03  0.000000000E+00  0.00000E+00  9.000E+00
      25     1     1     2     0     0  2.520204713E+01  1.151051400E+01 -8.506788362E+02  8.602585718E+02  1.249907715E+02  0.00000E+00  9.000E+00
       5     1     1     2   501     0 -5.471941080E+00 -3.403276983E+00  5.174975800E+01  5.236529754E+01  4.750000000E+00  0.00000E+00  9.000E+00
      -5     1     1     2     0   503 -1.060016001E+01 -6.504369264E+00 -5.338382034E+02  5.340041761E+02  4.750000000E+00  0.00000E+00  9.000E+00
      21     1     1     2   511   501 -9.129946044E+00 -1.602867757E+00 -1.710890185E+01  1.945866445E+01  3.371747881E-07  0.00000E+00  9.000E+00
#rwgt            1           9   6.4847571855485200E-003           7     2710777           0
</event>
<event>
      6   9999 -3.45752E-01  7.46365E+01 -1.00000E+00  1.26093E-01
      21    -1     0     0   512   503  0.000000000E+00  0.000000000E+00  2.125184196E+01  2.125184196E+01  0.000000000E+00  0.00000E+00  9.000E+00
      21    -1     0     0   501   502  0.000000000E+00  0.000000000E+00 -1.180338754E+03  1.180338754E+03  0.000000000E+00  0.00000E+00  9.000E+00
      25     1     1     2     0     0  1.011998454E+02  1.442835706E+01 -4.881519660E+02  5.141667933E+02  1.250022525E+02  0.00000E+00  9.000E+00
       5     1     1     2   501     0  2.095078130E+00 -1.394664218E+01 -3.271413550E+02  3.274796586E+02  4.750000000E+00  0.00000E+00  9.000E+00
      -5     1     1     2     0   503 -2.945977218E+01 -1.138940119E+01 -1.072311589E+02  1.118869098E+02  4.750000000E+00  0.00000E+00  9.000E+00
      21     1     1     2   512   502 -7.383515139E+01  1.090768631E+01 -2.365624319E+02  2.480572341E+02  0.000000000E+00  0.00000E+00  9.000E+00
#rwgt            1           9  -1.1689410762854157E-002           7     2715151           0
</event>
<event>
      6   9999  3.45752E-01  1.33840E+01 -1.00000E+00  1.74776E-01
      21    -1     0     0   511   502  0.000000000E+00  0.000000000E+00  1.612931143E+01  1.612931143E+01  0.000000000E+00  0.00000E+00  9.000E+00
      21    -1     0     0   502   503  0.000000000E+00  0.000000000E+00 -9.464779089E+02  9.464779089E+02  0.000000000E+00  0.00000E+00  9.000E+00
      25     1     1     2     0     0  2.338986334E+00  1.019250685E+01 -8.619056026E+02  8.709893501E+02  1.250272860E+02  0.00000E+00  9.000E+00
       5     1     1     2   501     0 -4.009030747E+00  1.777644540E+00  9.399261980E+00  1.140793467E+01  4.750000000E+00  0.00000E+00  9.000E+00
      -5     1     1     2     0   503 -1.688471286E+00  9.856311699E-01 -3.350979954E+01  3.390120307E+01  4.750000000E+00  0.00000E+00  9.000E+00
      21     1     1     2   511   501  3.358515700E+00 -1.295578256E+01 -4.433245734E+01  4.630873248E+01  0.000000000E+00  0.00000E+00  9.000E+00
#rwgt            1           9   6.5040939272172863E-004           7     2715942           0
</event>
<event>
      6   9999  3.45752E-01  3.58602E+01 -1.00000E+00  1.42994E-01
      21    -1     0     0   501   512  0.000000000E+00  0.000000000E+00  6.360228982E+01  6.360228982E+01  0.000000000E+00  0.00000E+00  9.000E+00
      21    -1     0     0   502   503  0.000000000E+00  0.000000000E+00 -8.496463346E+02  8.496463346E+02  0.000000000E+00  0.00000E+00  9.000E+00
      25     1     1     2     0     0 -1.270255550E+00  3.601992895E+01 -5.595562196E+02  5.744683386E+02  1.249466300E+02  0.00000E+00  9.000E+00
       5     1     1     2   501     0  2.143309915E+01  2.393237239E+01 -7.435706360E+01  8.113982742E+01  4.750000000E+00  0.00000E+00  9.000E+00
      -5     1     1     2     0   503 -1.814348774E+01 -2.414897300E+01 -1.974759989E+02  1.998291562E+02  4.750000000E+00  0.00000E+00  9.000E+00
      21     1     1     2   502   512 -2.019355856E+00 -3.580332834E+01  4.534523726E+01  5.781130219E+01  1.168007728E-06  0.00000E+00  9.000E+00
#rwgt            1           9  0.70632148632158476                7     2718250           0
</event>
<event>
      6   9999  3.45752E-01  3.72175E+00 -1.00000E+00  2.54514E-01
      21    -1     0     0   501   502  0.000000000E+00  0.000000000E+00  3.397988062E+00  3.397988062E+00  0.000000000E+00  0.00000E+00  9.000E+00
      21    -1     0     0   511   503  0.000000000E+00  0.000000000E+00 -4.743382871E+03  4.743382871E+03  0.000000000E+00  0.00000E+00  9.000E+00
      25     1     1     2     0     0  1.188371925E+01 -1.234296935E+01 -1.815982738E+03  1.820360187E+03  1.249973357E+02  0.00000E+00  9.000E+00
       5     1     1     2   501     0 -1.137260425E+00 -2.049790609E+00 -4.931866876E+00  7.237459064E+00  4.750000000E+00  0.00000E+00  9.000E+00
      -5     1     1     2     0   503 -1.445473339E+01  1.470923755E+01 -2.684461853E+03  2.684545270E+03  4.750000000E+00  0.00000E+00  9.000E+00
      21     1     1     2   511   502  3.708274561E+00 -3.164775904E-01 -2.346084250E+02  2.346379435E+02  0.000000000E+00  0.00000E+00  9.000E+00
#rwgt            1           9   4.1858786621145304E-003           7     2719475           0
</event>
<event>
      6   9999 -3.45752E-01  2.30063E+01 -1.00000E+00  1.55703E-01
      21    -1     0     0   501   512  0.000000000E+00  0.000000000E+00  2.869813115E+01  2.869813115E+01  0.000000000E+00  0.00000E+00  9.000E+00
      21    -1     0     0   502   503  0.000000000E+00  0.000000000E+00 -7.481817116E+02  7.481817116E+02  0.000000000E+00  0.00000E+00  9.000E+00
      25     1     1     2     0     0 -1.881971161E+01  5.586685742E+00 -7.042515757E+02  7.155289836E+02  1.250042075E+02  0.00000E+00  9.000E+00
       5     1     1     2   501     0 -4.528291666E+00  2.794561187E-01 -9.589744104E-01  6.638196521E+00  4.750000000E+00  0.00000E+00  9.000E+00
      -5     1     1     2     0   503  1.855460531E+00  2.341281419E+00 -2.757328919E+01  2.813846316E+01  4.750000000E+00  0.00000E+00  9.000E+00
      21     1     1     2   502   512  2.149254275E+01 -8.207423279E+00  1.330025886E+01  2.657419945E+01  1.369610464E-06  0.00000E+00  9.000E+00
#rwgt            1           9  -3.4485466066095212E-002           7     2725016           0
</event>
<event>
      6   9999 -3.45752E-01  8.24535E+00 -1.00000E+00  1.96475E-01
      21    -1     0     0   501   502  0.000000000E+00  0.000000000E+00  1.412873921E+01  1.412873921E+01  0.000000000E+00  0.00000E+00  9.000E+00
      21    -1     0     0   502   511  0.000000000E+00  0.000000000E+00 -9.121895509E+02  9.121895509E+02  0.000000000E+00  0.00000E+00  9.000E+00
      25     1     1     2     0     0  1.106755435E+01 -1.761429034E+00 -8.337568491E+02  8.431492681E+02  1.249984462E+02  0.00000E+00  9.000E+00
       5     1     1     2   501     0 -1.525670285E+00 -4.043740802E+00  7.446369566E+00  9.833129166E+00  4.750000000E+00  0.00000E+00  9.000E+00
      -5     1     1     2     0   503 -4.928497108E+00 -1.028754375E+00 -3.283208580E+01  3.355378931E+01  4.750000000E+00  0.00000E+00  9.000E+00
      21     1     1     2   503   511 -4.613386953E+00  6.833924212E+00 -3.891824641E+01  3.978210355E+01  4.768371582E-07  0.00000E+00  9.000E+00
#rwgt            1           9  -8.3883886825092131E-005           7     2726264           0
</event>
<event>
      6   9999  3.45752E-01  2.20720E+01 -1.00000E+00  1.57010E-01
      21    -1     0     0   501   502  0.000000000E+00  0.000000000E+00  1.532066488E+02  1.532066488E+02  0.000000000E+00  0.00000E+00  9.000E+00
      21    -1     0     0   512   503  0.000000000E+00  0.000000000E+00 -7.755746417E+02  7.755746417E+02  0.000000000E+00  0.00000E+00  9.000E+00
      25     1     1     2     0     0  1.560993439E+02  9.063692651E+01 -2.320405704E+02  3.194519971E+02  1.249987780E+02  0.00000E+00  9.000E+00
       5     1     1     2   501     0 -1.958893410E+02  8.235593627E+01 -4.744151386E+01  2.177806095E+02  4.750000000E+00  0.00000E+00  9.000E+00
      -5     1     1     2     0   503  2.008988064E+01 -1.630389624E+02 -2.772061548E+02  3.222594007E+02  4.750000000E+00  0.00000E+00  9.000E+00
      21     1     1     2   512   502  1.970011645E+01 -9.953900385E+00 -6.567975381E+01  6.928928331E+01  1.348699152E-06  0.00000E+00  9.000E+00
#rwgt            1           9   5.4860981774793807                7     2729333           0
</event>
<event>
      6   9999  3.45752E-01  1.75241E+01 -1.00000E+00  1.64718E-01
      21    -1     0     0   501   511  0.000000000E+00  0.000000000E+00  4.854332074E+01  4.854332074E+01  0.000000000E+00  0.00000E+00  9.000E+00
      21    -1     0     0   502   503  0.000000000E+00  0.000000000E+00 -1.286948874E+03  1.286948874E+03  0.000000000E+00  0.00000E+00  9.000E+00
      25     1     1     2     0     0 -9.620378869E+00 -1.485913080E+01 -1.113317792E+03  1.120440608E+03  1.248891692E+02  0.00000E+00  9.000E+00
       5     1     1     2   501     0  2.377163973E+00  1.894912922E+00  3.731968644E+01  3.774338484E+01  4.750000000E+00  0.00000E+00  9.000E+00
      -5     1     1     2     0   503  3.603638557E-01 -3.151661669E+00 -1.594307709E+02  1.595330563E+02  4.750000000E+00  0.00000E+00  9.000E+00
      21     1     1     2   502   511  6.882851040E+00  1.611587954E+01 -2.976677284E+00  1.777514612E+01  5.040030040E-07  0.00000E+00  9.000E+00
#rwgt            1           9   5.0289060357837985E-004           7     2731926           0
</event>
<event>
      6   9999  3.45752E-01  1.58302E+01 -1.00000E+00  1.68368E-01
      21    -1     0     0   501   502  0.000000000E+00  0.000000000E+00  7.473023362E+00  7.473023362E+00  0.000000000E+00  0.00000E+00  9.000E+00
      21    -1     0     0   502   512  0.000000000E+00  0.000000000E+00 -1.129566328E+03  1.129566328E+03  0.000000000E+00  0.00000E+00  9.000E+00
      25     1     1     2     0     0  1.386402856E+01  8.985051069E+00 -5.959629137E+02  6.091560633E+02  1.250054898E+02  0.00000E+00  9.000E+00
       5     1     1     2   501     0  5.315386338E-01  5.750248512E-01 -1.025906214E+01  1.133243323E+01  4.750000000E+00  0.00000E+00  9.000E+00
      -5     1     1     2     0   503 -7.453122233E-01 -1.543420896E+00 -3.002419934E+01  3.044589766E+01  4.750000000E+00  0.00000E+00  9.000E+00
      21     1     1     2   503   512 -1.365025497E+01 -8.016655025E+00 -4.858471291E+02  4.861049569E+02  7.629394531E-06  0.00000E+00  9.000E+00
#rwgt            1           9   5.6118694550662859E-004           7     2735347           0
</event>
<event>
      6   9999  3.45752E-01  6.28244E+00 -1.00000E+00  2.11313E-01
      21    -1     0     0   511   502  0.000000000E+00  0.000000000E+00  6.965392274E+00  6.965392274E+00  0.000000000E+00  0.00000E+00  9.000E+00
      21    -1     0     0   502   503  0.000000000E+00  0.000000000E+00 -3.341071776E+03  3.341071776E+03  0.000000000E+00  0.00000E+00  9.000E+00
      25     1     1     2     0     0  2.099958826E+00  4.740171743E-01 -3.192491027E+03  3.194937959E+03  1.249998979E+02  0.00000E+00  9.000E+00
       5     1     1     2   501     0  2.140103489E+00  5.132120549E-01 -5.898317547E+00  7.886449103E+00  4.750000000E+00  0.00000E+00  9.000E+00
      -5     1     1     2     0   503  2.039529397E+00 -7.981335115E-01 -1.383153469E+02  1.384142131E+02  4.750000000E+00  0.00000E+00  9.000E+00
      21     1     1     2   511   501 -6.279591713E+00 -1.890957177E-01  2.598307737E+00  6.798546342E+00  1.292197906E-06  0.00000E+00  9.000E+00
#rwgt            1           9   4.3426375154839080E-003           7     2736567           0
</event>
<event>
      6   9999  3.45752E-01  1.48155E+01 -1.00000E+00  1.70839E-01
      21    -1     0     0   501   502  0.000000000E+00  0.000000000E+00  7.707157668E+01  7.707157668E+01  0.000000000E+00  0.00000E+00  9.000E+00
      21    -1     0     0   512   503  0.000000000E+00  0.000000000E+00 -9.874771244E+02  9.874771244E+02  0.000000000E+00  0.00000E+00  9.000E+00
      25     1     1     2     0     0 -5.149428761E+01  1.070855803E+02 -7.003440419E+02  7.212642368E+02  1.249853556E+02  0.00000E+00  9.000E+00
       5     1     1     2   501     0  1.604142357E+00  1.337491199E+00  2.594227738E+01  2.645612237E+01  4.750000000E+00  0.00000E+00  9.000E+00
      -5     1     1     2     0   503  6.280048149E+01 -1.156909423E+02 -6.812404098E+01  1.482961296E+02  4.750000000E+00  0.00000E+00  9.000E+00
      21     1     1     2   512   502 -1.291033623E+01  7.267870756E+00 -1.678797423E+02  1.685322123E+02  0.000000000E+00  0.00000E+00  9.000E+00
#rwgt            1           9   6.8006624446136314E-003           7     2739836           0
</event>
<event>
      6   9999  3.45752E-01  3.09879E+01 -1.00000E+00  1.46934E-01
      21    -1     0     0   501   511  0.000000000E+00  0.000000000E+00  2.834889517E+01  2.834889517E+01  0.000000000E+00  0.00000E+00  9.000E+00
      21    -1     0     0   502   503  0.000000000E+00  0.000000000E+00 -1.064650393E+03  1.064650393E+03  0.000000000E+00  0.00000E+00  9.000E+00
      25     1     1     2     0     0 -2.456947567E+01 -1.521041906E+01 -3.042320655E+02  3.301793766E+02  1.250050202E+02  0.00000E+00  9.000E+00
       5     1     1     2   501     0 -7.452191631E+00  7.990381705E-01  7.133265006E+00  1.138506002E+01  4.750000000E+00  0.00000E+00  9.000E+00
      -5     1     1     2     0   503  2.721304174E+00  4.324735011E+00 -7.059394827E+02  7.059739546E+02  4.750000000E+00  0.00000E+00  9.000E+00
      21     1     1     2   502   511  2.930036313E+01  1.008664588E+01 -3.326321465E+01  4.546089697E+01  4.768371582E-07  0.00000E+00  9.000E+00
#rwgt            1           9   6.5710812213690768E-004           7     2742915           0
</event>
<event>
      6   9999  3.45752E-01  4.50163E+00 -1.00000E+00  2.37688E-01
      21    -1     0     0   501   512  0.000000000E+00  0.000000000E+00  2.753318862E+02  2.753318862E+02  0.000000000E+00  0.00000E+00  9.000E+00
      21    -1     0     0   502   503  0.000000000E+00  0.000000000E+00 -8.760459651E+02  8.760459651E+02  0.000000000E+00  0.00000E+00  9.000E+00
      25     1     1     2     0     0  2.640998132E+01  2.028663645E+01 -6.599603612E+02  6.725191763E+02  1.250013176E+02  0.00000E+00  9.000E+00
       5     1     1     2   501     0 -1.406679734E+00  1.357987141E+00  5.366899148E+00  7.428928820E+00  4.750000000E+00  0.00000E+00  9.000E+00
      -5     1     1     2     0   503 -2.471100680E+01 -1.715249422E+01 -2.076451782E+02  2.098664443E+02  4.750000000E+00  0.00000E+00  9.000E+00
      21     1     1     2   502   512 -2.922947766E-01 -4.492129364E+00  2.615245613E+02  2.615633018E+02  0.000000000E+00  0.00000E+00  9.000E+00
#rwgt            1           9   2.3232578444960228E-004           7     2744443           0
</event>
<event>
      6   9999  3.45752E-01  4.45598E+00 -1.00000E+00  2.38530E-01
      21    -1     0     0   511   503  0.000000000E+00  0.000000000E+00  3.023403311E+03  3.023403311E+03  0.000000000E+00  0.00000E+00  9.000E+00
      21    -1     0     0   501   502  0.000000000E+00  0.000000000E+00 -4.323133573E+00  4.323133573E+00  0.000000000E+00  0.00000E+00  9.000E+00
      25     1     1     2     0     0  1.701678863E+01 -3.282079987E+01  2.537544004E+03  2.540889931E+03  1.250011719E+02  0.00000E+00  9.000E+00
       5     1     1     2   501     0  2.306804899E+00 -1.185432481E+01  2.032924751E+02  2.037062574E+02  4.750000000E+00  0.00000E+00  9.000E+00
      -5     1     1     2     0   503 -1.905595725E+01  4.022718511E+01  2.088498129E+02  2.135934521E+02  4.750000000E+00  0.00000E+00  9.000E+00
      21     1     1     2   511   502 -2.676362709E-01  4.447939576E+00  6.939388559E+01  6.953680430E+01  9.536743164E-07  0.00000E+00  9.000E+00
#rwgt            1           9   1097.7295322384466                7     2749313           0
</event>
<event>
      6   9999  3.45752E-01  4.09843E+00 -1.00000E+00  2.45685E-01
      21    -1     0     0   501   502  0.000000000E+00  0.000000000E+00  5.087437526E+01  5.087437526E+01  0.000000000E+00  0.00000E+00  9.000E+00
      21    -1     0     0   502   512  0.000000000E+00  0.000000000E+00 -1.271608876E+03  1.271608876E+03  0.000000000E+00  0.00000E+00  9.000E+00
      25     1     1     2     0     0 -2.690584722E+00  1.119914716E-02 -1.147667832E+03  1.154458043E+03  1.249987277E+02  0.00000E+00  9.000E+00
       5     1     1     2   501     0 -1.027148088E+00 -1.813832996E-01  4.708136349E+01  4.733186265E+01  4.750000000E+00  0.00000E+00  9.000E+00
      -5     1     1     2     0   503  9.482379210E-02 -1.745965880E+00 -1.002457989E+02  1.003735029E+02  4.750000000E+00  0.00000E+00  9.000E+00
      21     1     1     2   503   512  3.622909018E+00  1.916150033E+00 -1.990223329E+01  2.031984229E+01  2.384185791E-07  0.00000E+00  9.000E+00
#rwgt            1           9  0.14459377704459636                7     2753827           0
</event>
<event>
      6   9999  3.45752E-01  1.66523E+01 -1.00000E+00  1.66530E-01
      21    -1     0     0   501   502  0.000000000E+00  0.000000000E+00  5.815939390E+01  5.815939390E+01  0.000000000E+00  0.00000E+00  9.000E+00
      21    -1     0     0   502   511  0.000000000E+00  0.000000000E+00 -1.459090966E+03  1.459090966E+03  0.000000000E+00  0.00000E+00  9.000E+00
      25     1     1     2     0     0  1.444718433E+00 -1.702037435E+01 -1.334804174E+03  1.340753483E+03  1.250037560E+02  0.00000E+00  9.000E+00
       5     1     1     2   501     0 -3.576329430E-02  1.841689044E+00  5.393694114E+01  5.417701743E+01  4.750000000E+00  0.00000E+00  9.000E+00
      -5     1     1     2     0   503 -1.125859909E+00 -1.471208000E+00 -5.194704515E+01  5.219664753E+01  4.750000000E+00  0.00000E+00  9.000E+00
      21     1     1     2   503   511 -2.830952297E-01  1.664989331E+01 -6.811729331E+01  7.012321112E+01  0.000000000E+00  0.00000E+00  9.000E+00
#rwgt            1           9   8.7856156663035335E-005           7     2760754           0
</event>
<event>
      6   9999  3.45752E-01  5.86892E+00 -1.00000E+00  2.15403E-01
      21    -1     0     0   512   502  0.000000000E+00  0.000000000E+00  3.594792867E+02  3.594792867E+02  0.000000000E+00  0.00000E+00  9.000E+00
      21    -1     0     0   502   503  0.000000000E+00  0.000000000E+00 -1.160410017E+03  1.160410017E+03  0.000000000E+00  0.00000E+00  9.000E+00
      25     1     1     2     0     0  3.917634289E+01 -2.656556228E-01 -9.892437879E+02  9.978791674E+02  1.249988173E+02  0.00000E+00  9.000E+00
       5     1     1     2   501     0 -5.501192905E+00  5.256469982E+00  2.643602450E+01  2.791629437E+01  4.750000000E+00  0.00000E+00  9.000E+00
      -5     1     1     2     0   503 -3.461821030E+01  8.018364791E-01 -1.642431124E+02  1.679208918E+02  4.750000000E+00  0.00000E+00  9.000E+00
      21     1     1     2   512   501  9.430603112E-01 -5.792650838E+00  3.261201455E+02  3.261729502E+02  5.394796609E-06  0.00000E+00  9.000E+00
#rwgt            1           9   2.8944506996727713E-002           7     2763527           0
</event>
<event>
      6   9999  3.45752E-01  8.25249E+00 -1.00000E+00  1.96431E-01
      21    -1     0     0   501   502  0.000000000E+00  0.000000000E+00  3.877597278E+01  3.877597278E+01  0.000000000E+00  0.00000E+00  9.000E+00
       2    -1     0     0   502     0  0.000000000E+00  0.000000000E+00 -2.092809144E+03  2.092809144E+03  0.000000000E+00  0.00000E+00  9.000E+00
      25     1     1     2     0     0  3.513146205E+00 -5.189416089E+00 -2.608466383E+02  2.893189208E+02  1.250007878E+02  0.00000E+00  9.000E+00
       5     1     1     2   501     0 -3.346426596E+00 -5.603795721E-01  2.372351829E+01  2.443113620E+01  4.750000000E+00  0.00000E+00  9.000E+00
      -5     1     1     2     0   503 -2.039726365E+00 -2.287333972E+00 -1.718038312E+01  1.808647131E+01  4.750000000E+00  0.00000E+00  9.000E+00
       2     1     1     2   503     0  1.873006756E+00  8.037129633E+00 -1.799729668E+03  1.799748589E+03  3.051757812E-05  0.00000E+00  9.000E+00
#rwgt            1           9   1.0723584649680138E-003           7     2768789           0
</event>
<event>
      6   9999  3.45752E-01  9.75301E+00 -1.00000E+00  1.88345E-01
      21    -1     0     0   501   511  0.000000000E+00  0.000000000E+00  8.608438914E+01  8.608438914E+01  0.000000000E+00  0.00000E+00  9.000E+00
      21    -1     0     0   502   503  0.000000000E+00  0.000000000E+00 -1.098773455E+03  1.098773455E+03  0.000000000E+00  0.00000E+00  9.000E+00
      25     1     1     2     0     0  6.510387580E+01 -1.779487444E+00 -1.023773586E+03  1.033430849E+03  1.250011319E+02  0.00000E+00  9.000E+00
       5     1     1     2   501     0 -5.196086859E+01  1.488085546E+01 -1.283305728E+01  5.575501397E+01  4.750000000E+00  0.00000E+00  9.000E+00
      -5     1     1     2     0   503 -7.423758379E+00 -5.201281974E+00 -3.473648213E+01  3.621258363E+01  4.750000000E+00  0.00000E+00  9.000E+00
      21     1     1     2   502   511 -5.719248836E+00 -7.900086038E+00  5.865405993E+01  5.945939718E+01  1.784161275E-06  0.00000E+00  9.000E+00
#rwgt            1           9   1.1438600288778019E-002           7     2772726           0
</event>
<event>
      6   9999  3.45752E-01  4.04211E+01 -1.00000E+00  1.39923E-01
      21    -1     0     0   501   502  0.000000000E+00  0.000000000E+00  8.442603829E+01  8.442603829E+01  0.000000000E+00  0.00000E+00  9.000E+00
      21    -1     0     0   502   512  0.000000000E+00  0.000000000E+00 -1.800464204E+03  1.800464204E+03  0.000000000E+00  0.00000E+00  9.000E+00
      25     1     1     2     0     0 -8.391216726E+01  1.378263289E+02 -4.863319160E+02  5.274261791E+02  1.249891721E+02  0.00000E+00  9.000E+00
       5     1     1     2   501     0  1.232935935E+00  1.478269823E+00  5.821044163E+01  5.843563491E+01  4.750000000E+00  0.00000E+00  9.000E+00
      -5     1     1     2     0   503  8.244270774E+01 -9.888417328E+01 -9.466238610E+02  9.553502900E+02  4.750000000E+00  0.00000E+00  9.000E+00
      21     1     1     2   503   512  2.365235821E-01 -4.042042541E+01 -3.412928306E+02  3.436781386E+02  7.629394531E-06  0.00000E+00  9.000E+00
#rwgt            1           9   5.4212165333195235E-004           7     2776068           0
</event>
<event>
      6   9999  3.45752E-01  5.03191E+00 -1.00000E+00  2.25287E-01
      21    -1     0     0   502   511  0.000000000E+00  0.000000000E+00  3.255884476E+02  3.255884476E+02  0.000000000E+00  0.00000E+00  9.000E+00
      21    -1     0     0   501   502  0.000000000E+00  0.000000000E+00 -7.441820319E+02  7.441820319E+02  0.000000000E+00  0.00000E+00  9.000E+00
      25     1     1     2     0     0  6.093577763E-01  6.931582298E+00 -7.185889877E+02  7.294134051E+02  1.250014566E+02  0.00000E+00  9.000E+00
       5     1     1     2   501     0  1.057689808E-01  1.451474940E-01 -8.850509515E+00  1.004620692E+01  4.750000000E+00  0.00000E+00  9.000E+00
      -5     1     1     2     0   503  4.141323306E+00 -5.759529566E+00 -9.011634902E+00  1.241349279E+01  4.750000000E+00  0.00000E+00  9.000E+00
      21     1     1     2   503   511 -4.856450063E+00 -1.317200226E+00  3.178575478E+02  3.178973747E+02  3.814697266E-06  0.00000E+00  9.000E+00
#rwgt            1           9   7.2581465434038599E-004           7     2778361           0
</event>
<event>
      6   9999  3.45752E-01  1.57730E+01 -1.00000E+00  1.68502E-01
      21    -1     0     0   501   502  0.000000000E+00  0.000000000E+00  8.527114385E+02  8.527114385E+02  0.000000000E+00  0.00000E+00  9.000E+00
      21    -1     0     0   512   503  0.000000000E+00  0.000000000E+00 -1.036932814E+03  1.036932814E+03  0.000000000E+00  0.00000E+00  9.000E+00
      25     1     1     2     0     0 -1.322519878E+01  1.524974280E+01  2.398229060E+01  1.288717723E+02  1.250012916E+02  0.00000E+00  9.000E+00
       5     1     1     2   501     0  3.871535546E+00  7.321867894E-01  7.581274895E+02  7.581526084E+02  4.750000000E+00  0.00000E+00  9.000E+00
      -5     1     1     2     0   503  1.739375676E+01 -2.412000255E+00  1.350529389E+01  2.265647772E+01  4.750000000E+00  0.00000E+00  9.000E+00
      21     1     1     2   512   502 -8.040093528E+00 -1.356992933E+01 -9.798364490E+02  9.799633936E+02  1.078959322E-05  0.00000E+00  9.000E+00
#rwgt            1           9   3.2547371239052880E-002           7     2782016           0
</event>
<event>
      6   9999  3.45752E-01  5.32630E+01 -1.00000E+00  1.33335E-01
      21    -1     0     0   502   503  0.000000000E+00  0.000000000E+00  1.754712271E+01  1.754712271E+01  0.000000000E+00  0.00000E+00  9.000E+00
      21    -1     0     0   511   502  0.000000000E+00  0.000000000E+00 -1.134300400E+03  1.134300400E+03  0.000000000E+00  0.00000E+00  9.000E+00
      25     1     1     2     0     0 -1.010252429E+02 -2.856185124E+01 -5.573229057E+02  5.807370935E+02  1.249994860E+02  0.00000E+00  9.000E+00
       5     1     1     2   501     0  2.994430166E+01 -8.432176321E+00 -1.110062556E+02  1.153807353E+02  4.750000000E+00  0.00000E+00  9.000E+00
      -5     1     1     2     0   503  2.320600039E+01  1.365018320E+01 -1.809920613E+02  1.830451712E+02  4.750000000E+00  0.00000E+00  9.000E+00
      21     1     1     2   511   501  4.787494084E+01  2.334384436E+01 -2.674320543E+02  2.726845223E+02  0.000000000E+00  0.00000E+00  9.000E+00
#rwgt            1           9   4.2931905313253472E-004           7     2784697           0
</event>
<event>
      6   9999  3.45752E-01  2.44054E+01 -1.00000E+00  1.53880E-01
      21    -1     0     0   501   502  0.000000000E+00  0.000000000E+00  1.059127725E+02  1.059127725E+02  0.000000000E+00  0.00000E+00  9.000E+00
      21    -1     0     0   502   512  0.000000000E+00  0.000000000E+00 -2.053667556E+03  2.053667556E+03  0.000000000E+00  0.00000E+00  9.000E+00
      25     1     1     2     0     0 -1.310416683E+01  1.555881627E+01 -1.547428072E+03  1.552583946E+03  1.247777063E+02  0.00000E+00  9.000E+00
       5     1     1     2   501     0 -5.181545779E+00 -2.676946633E+00  9.877450964E+01  9.906049018E+01  4.750000000E+00  0.00000E+00  9.000E+00
      -5     1     1     2     0   503  2.595332912E+01 -3.605145375E+01 -1.199399619E+02  1.279899979E+02  4.750000000E+00  0.00000E+00  9.000E+00
      21     1     1     2   503   512 -7.667616504E+00  2.316958411E+01 -3.791612588E+02  3.799458937E+02  5.394796609E-06  0.00000E+00  9.000E+00
#rwgt            1           9   1.5962232006928333E-002           7     2785579           0
</event>
<event>
      6   9999  3.45752E-01  1.07739E+01 -1.00000E+00  1.83847E-01
       1    -1     0     0   501     0  0.000000000E+00  0.000000000E+00  7.022858694E+01  7.022858694E+01  0.000000000E+00  0.00000E+00  9.000E+00
      21    -1     0     0   502   503  0.000000000E+00  0.000000000E+00 -7.306724652E+02  7.306724652E+02  0.000000000E+00  0.00000E+00  9.000E+00
      25     1     1     2     0     0  1.618408038E+01  1.649509514E+01 -6.584329694E+02  6.705922844E+02  1.250040964E+02  0.00000E+00  9.000E+00
       5     1     1     2   501     0 -3.788716209E-02  7.732566693E-01 -6.627135821E+00  8.190286351E+00  4.750000000E+00  0.00000E+00  9.000E+00
      -5     1     1     2     0   503 -1.136450584E+01 -7.613712432E+00 -5.738722020E+01  5.918594557E+01  4.750000000E+00  0.00000E+00  9.000E+00
       1     1     1     2   502     0 -4.781687377E+00 -9.654639376E+00  6.200344718E+01  6.293253577E+01  1.784161275E-06  0.00000E+00  9.000E+00
#rwgt            1           9   4.1815414806658455E-004           7     2788678           0
</event>
<event>
      6   9999 -3.45752E-01  1.34379E+01 -1.00000E+00  1.74617E-01
      21    -1     0     0   501   502  0.000000000E+00  0.000000000E+00  2.217859138E+01  2.217859138E+01  0.000000000E+00  0.00000E+00  9.000E+00
       4    -1     0     0   502     0  0.000000000E+00  0.000000000E+00 -1.737104358E+03  1.737104358E+03  0.000000000E+00  0.00000E+00  9.000E+00
      25     1     1     2     0     0 -2.358753304E+00  3.933934970E+01 -7.347969820E+02  7.463945295E+02  1.250001631E+02  0.00000E+00  9.000E+00
       5     1     1     2   501     0  1.898551880E+00 -4.252251298E-03  1.458792880E+01  1.545880604E+01  4.750000000E+00  0.00000E+00  9.000E+00
      -5     1     1     2     0   503  1.324930644E+01 -3.520998171E+01 -2.765856640E+02  2.791728479E+02  4.750000000E+00  0.00000E+00  9.000E+00
       4     1     1     2   503     0 -1.278910502E+01 -4.125115743E+00 -7.181310494E+02  7.182567660E+02  0.000000000E+00  0.00000E+00  9.000E+00
#rwgt            1           9  -1.0485516733878465E-004           7     2790735           0
</event>
<event>
      6   9999  3.45752E-01  7.60891E+00 -1.00000E+00  2.00628E-01
      21    -1     0     0   501   502  0.000000000E+00  0.000000000E+00  1.575317963E+03  1.575317963E+03  0.000000000E+00  0.00000E+00  9.000E+00
      21    -1     0     0   511   503  0.000000000E+00  0.000000000E+00 -6.563151765E+01  6.563151765E+01  0.000000000E+00  0.00000E+00  9.000E+00
      25     1     1     2     0     0 -8.880555680E+01  1.086266542E+02  1.424495749E+03  1.436836526E+03  1.249995478E+02  0.00000E+00  9.000E+00
       5     1     1     2   501     0  2.903142069E-01  4.267736783E-03  3.512335671E+01  3.544428003E+01  4.750000000E+00  0.00000E+00  9.000E+00
      -5     1     1     2     0   503  9.101933617E+01 -1.014458693E+02  6.562955726E+01  1.513459125E+02  4.750000000E+00  0.00000E+00  9.000E+00
      21     1     1     2   511   502 -2.504093585E+00 -7.185052637E+00 -1.556221762E+01  1.732276200E+01  7.152557373E-07  0.00000E+00  9.000E+00
#rwgt            1           9   6.1248679493938090E-004           7     2793302           0
</event>
<event>
      6   9999  3.45752E-01  2.72685E+01 -1.00000E+00  1.50571E-01
      21    -1     0     0   501   502  0.000000000E+00  0.000000000E+00  1.536465831E+03  1.536465831E+03  0.000000000E+00  0.00000E+00  9.000E+00
      21    -1     0     0   502   512  0.000000000E+00  0.000000000E+00 -5.497404987E+01  5.497404987E+01  0.000000000E+00  0.00000E+00  9.000E+00
      25     1     1     2     0     0  2.124414635E+01  4.905540874E+01  7.666005783E+01  1.561091591E+02  1.250422257E+02  0.00000E+00  9.000E+00
       5     1     1     2   501     0 -2.692448110E-01 -2.449018128E+00  1.328329412E+03  1.328340190E+03  4.750000000E+00  0.00000E+00  9.000E+00
      -5     1     1     2     0   503  6.256669807E+00 -4.518793683E+01  3.669029434E+01  5.873530243E+01  4.750000000E+00  0.00000E+00  9.000E+00
      21     1     1     2   503   512 -2.723157135E+01 -1.418453782E+00  3.981201640E+01  4.825522914E+01  8.259061849E-07  0.00000E+00  9.000E+00
#rwgt            1           9   4.3316609998761120E-004           7     2798219           0
</event>
<event>
      6   9999  3.45752E-01  9.07658E+00 -1.00000E+00  1.91738E-01
      21    -1     0     0   501   502  0.000000000E+00  0.000000000E+00  4.791400655E+01  4.791400655E+01  0.000000000E+00  0.00000E+00  9.000E+00
      21    -1     0     0   502   511  0.000000000E+00  0.000000000E+00 -2.010437353E+02  2.010437353E+02  0.000000000E+00  0.00000E+00  9.000E+00
      25     1     1     2     0     0 -1.739981125E+00 -3.418893673E+00 -1.225260313E+02  1.750790482E+02  1.250013136E+02  0.00000E+00  9.000E+00
       5     1     1     2   501     0 -1.367395665E+00  1.446193258E+00  1.941598924E+01  2.008741855E+01  4.750000000E+00  0.00000E+00  9.000E+00
      -5     1     1     2     0   503 -5.833653597E+00  4.099457081E-01 -8.802192114E+00  1.158622699E+01  4.750000000E+00  0.00000E+00  9.000E+00
      21     1     1     2   503   511  8.941030387E+00  1.562754707E+00 -4.121749458E+01  4.220504811E+01  4.768371582E-07  0.00000E+00  9.000E+00
#rwgt            1           9   7.0482157016271838                7     2800883           0
</event>
<event>
      6   9999  3.45752E-01  2.61666E+01 -1.00000E+00  1.51784E-01
      21    -1     0     0   501   502  0.000000000E+00  0.000000000E+00  1.067966254E+03  1.067966254E+03  0.000000000E+00  0.00000E+00  9.000E+00
      21    -1     0     0   502   512  0.000000000E+00  0.000000000E+00 -1.742532045E+02  1.742532045E+02  0.000000000E+00  0.00000E+00  9.000E+00
      25     1     1     2     0     0  2.257142868E+02  2.156720445E+02  4.409032488E+02  5.545110948E+02  1.250020377E+02  0.00000E+00  9.000E+00
       5     1     1     2   501     0  6.949487461E+00 -1.315157038E+00  3.481015637E+02  3.482058100E+02  4.750000000E+00  0.00000E+00  9.000E+00
      -5     1     1     2     0   503 -2.190702797E+02 -1.919982779E+02  1.123385808E+02  3.122461295E+02  4.750000000E+00  0.00000E+00  9.000E+00
      21     1     1     2   503   512 -1.359349463E+01 -2.235860956E+01 -7.630343634E+00  2.725642423E+01  1.192092896E-07  0.00000E+00  9.000E+00
#rwgt            1           9   1.6371339595187651E-002           7     2803544           0
</event>
<event>
      6   9999  3.45752E-01  2.64709E+01 -1.00000E+00  1.51442E-01
      21    -1     0     0   501   502  0.000000000E+00  0.000000000E+00  8.031352249E+01  8.031352249E+01  0.000000000E+00  0.00000E+00  9.000E+00
       2    -1     0     0   502     0  0.000000000E+00  0.000000000E+00 -3.045157495E+03  3.045157495E+03  0.000000000E+00  0.00000E+00  9.000E+00
      25     1     1     2     0     0  1.617106663E+01  1.859862981E+00 -6.018335398E+02  6.148926612E+02  1.249976505E+02  0.00000E+00  9.000E+00
       5     1     1     2   501     0  6.017139797E+00  4.780784868E+00  7.282116065E+01  7.337946452E+01  4.750000000E+00  0.00000E+00  9.000E+00
      -5     1     1     2     0   503 -4.567333491E+01  5.572322024E+00 -9.441440032E+02  9.452764492E+02  4.750000000E+00  0.00000E+00  9.000E+00
       2     1     1     2   503     0  2.348512848E+01 -1.221296987E+01 -1.491687590E+03  1.491922442E+03  2.157918644E-05  0.00000E+00  9.000E+00
#rwgt            1           9   1.7396628936727401E-003           7     2805960           0
</event>
<event>
      6   9999  3.45752E-01  7.68148E+00 -1.00000E+00  2.00128E-01
      21    -1     0     0   501   502  0.000000000E+00  0.000000000E+00  4.989131092E+01  4.989131092E+01  0.000000000E+00  0.00000E+00  9.000E+00
      21    -1     0     0   502   511  0.000000000E+00  0.000000000E+00 -2.525625640E+02  2.525625640E+02  0.000000000E+00  0.00000E+00  9.000E+00
      25     1     1     2     0     0 -1.703587833E+01  1.793186714E+01 -2.153552409E+02  2.502238405E+02  1.249892699E+02  0.00000E+00  9.000E+00
       5     1     1     2   501     0 -6.170923504E-01 -1.144454709E+00  2.079568904E+01  2.137086246E+01  4.750000000E+00  0.00000E+00  9.000E+00
      -5     1     1     2     0   503  1.714116247E+01 -9.123000850E+00 -4.287424340E-01  1.999487222E+01  4.750000000E+00  0.00000E+00  9.000E+00
      21     1     1     2   503   511  5.118082124E-01 -7.664411577E+00 -7.682958795E+00  1.086429972E+01  0.000000000E+00  0.00000E+00  9.000E+00
#rwgt            1           9   1.1334323679730843E-002           7     2808743           0
</event>
<event>
      6   9999  3.45752E-01  1.10745E+01 -1.00000E+00  1.82643E-01
      21    -1     0     0   501   502  0.000000000E+00  0.000000000E+00  4.086396664E+01  4.086396664E+01  0.000000000E+00  0.00000E+00  9.000E+00
      21    -1     0     0   502   512  0.000000000E+00  0.000000000E+00 -2.591086636E+02  2.591086636E+02  0.000000000E+00  0.00000E+00  9.000E+00
      25     1     1     2     0     0  1.442816543E+01 -1.026516576E+01 -1.572064787E+02  2.016239528E+02  1.249991834E+02  0.00000E+00  9.000E+00
       5     1     1     2   501     0  1.968967918E+00  4.405502452E-01  1.405809552E+01  1.497542884E+01  4.750000000E+00  0.00000E+00  9.000E+00
      -5     1     1     2     0   503 -7.203666669E+00  3.650042715E+00 -2.178095955E+00  9.618847503E+00  4.750000000E+00  0.00000E+00  9.000E+00
      21     1     1     2   503   512 -9.193466680E+00  6.174572795E+00 -7.291821786E+01  7.375440105E+01  9.536743164E-07  0.00000E+00  9.000E+00
#rwgt            1           9   8.0176519091187026E-006           7     2812646           0
</event>
<event>
      6   9999  3.45752E-01  6.98708E+00 -1.00000E+00  2.05241E-01
      21    -1     0     0   501   502  0.000000000E+00  0.000000000E+00  1.390159702E+01  1.390159702E+01  0.000000000E+00  0.00000E+00  9.000E+00
      21    -1     0     0   502   511  0.000000000E+00  0.000000000E+00 -1.318066328E+03  1.318066328E+03  0.000000000E+00  0.00000E+00  9.000E+00
      25     1     1     2     0     0 -1.861389455E+01  1.704094490E+01 -6.847737188E+02  6.965464700E+02  1.250002721E+02  0.00000E+00  9.000E+00
       5     1     1     2   501     0 -1.097929591E+00 -3.926579717E+00  6.090720194E+00  8.734005390E+00  4.750000000E+00  0.00000E+00  9.000E+00
      -5     1     1     2     0   503  1.358444566E+01 -1.647211329E+01 -2.079359982E+02  2.090832598E+02  4.750000000E+00  0.00000E+00  9.000E+00
      21     1     1     2   503   511  6.127378485E+00  3.357748108E+00 -4.175457342E+02  4.176041898E+02  0.000000000E+00  0.00000E+00  9.000E+00
#rwgt            1           9   4.0703789139123135E-004           7     2815120           0
</event>
<event>
      6   9999  3.45752E-01  4.15931E+00 -1.00000E+00  2.44391E-01
      21    -1     0     0   501   512  0.000000000E+00  0.000000000E+00  2.723285560E+01  2.723285560E+01  0.000000000E+00  0.00000E+00  9.000E+00
      21    -1     0     0   502   503  0.000000000E+00  0.000000000E+00 -8.390556620E+02  8.390556620E+02  0.000000000E+00  0.00000E+00  9.000E+00
      25     1     1     2     0     0 -2.246823143E-01 -1.251292919E+00 -8.143146860E+02  8.238643002E+02  1.250694247E+02  0.00000E+00  9.000E+00
       5     1     1     2   501     0  9.267542264E-01  7.200288993E-01  4.890764300E+00  6.918048168E+00  4.750000000E+00  0.00000E+00  9.000E+00
      -5     1     1     2     0   503  5.868057930E-01 -3.423304575E+00 -1.822041921E+01  1.914705021E+01  4.750000000E+00  0.00000E+00  9.000E+00
      21     1     1     2   502   512 -1.288877705E+00  3.954568595E+00  1.582153459E+01  1.635911902E+01  9.684608465E-07  0.00000E+00  9.000E+00
#rwgt            1           9   4.3472369176318371E-004           7     2818721           0
</event>
<event>
      6   9999  3.45752E-01  3.30683E+01 -1.00000E+00  1.45153E-01
      21    -1     0     0   501   502  0.000000000E+00  0.000000000E+00  4.584186205E+01  4.584186205E+01  0.000000000E+00  0.00000E+00  9.000E+00
      21    -1     0     0   502   511  0.000000000E+00  0.000000000E+00 -1.329495596E+03  1.329495596E+03  0.000000000E+00  0.00000E+00  9.000E+00
      25     1     1     2     0     0  3.021393945E+01  1.352874116E+01 -9.035004319E+02  9.127069261E+02  1.249999736E+02  0.00000E+00  9.000E+00
       5     1     1     2   501     0  5.539754207E+00 -3.574367747E+00  3.797987630E+01  3.883939348E+01  4.750000000E+00  0.00000E+00  9.000E+00
      -5     1     1     2     0   503 -5.225490782E+00 -2.266431997E+01 -3.050456587E+02  3.059679617E+02  4.750000000E+00  0.00000E+00  9.000E+00
      21     1     1     2   503   511 -3.052820288E+01  1.270994656E+01 -1.130875194E+02  1.178231766E+02  0.000000000E+00  0.00000E+00  9.000E+00
#rwgt            1           9   1.0729882995952905E-002           7     2823666           0
</event>
<event>
      6   9999  3.45752E-01  7.42676E+00 -1.00000E+00  2.01917E-01
      21    -1     0     0   501   502  0.000000000E+00  0.000000000E+00  4.770932364E+00  4.770932364E+00  0.000000000E+00  0.00000E+00  9.000E+00
      21    -1     0     0   502   512  0.000000000E+00  0.000000000E+00 -3.267079287E+03  3.267079287E+03  0.000000000E+00  0.00000E+00  9.000E+00
      25     1     1     2     0     0 -1.587475998E+01  1.531467766E+01 -1.590019653E+03  1.595078122E+03  1.250006909E+02  0.00000E+00  9.000E+00
       5     1     1     2   501     0  1.028087703E+00 -8.363424470E-01 -8.274583211E-01  5.000362016E+00  4.750000000E+00  0.00000E+00  9.000E+00
      -5     1     1     2     0   503  1.397532673E+01 -7.102870335E+00 -1.548371357E+03  1.548458001E+03  4.750000000E+00  0.00000E+00  9.000E+00
      21     1     1     2   503   512  8.713455469E-01 -7.375464882E+00 -1.230898867E+02  1.233137337E+02  1.907348633E-06  0.00000E+00  9.000E+00
#rwgt            1           9   3.6589299132260100E-003           7     2825499           0
</event>
<event>
      6   9999  3.45752E-01  1.30369E+01 -1.00000E+00  1.75826E-01
      21    -1     0     0   511   502  0.000000000E+00  0.000000000E+00  5.983808842E+01  5.983808842E+01  0.000000000E+00  0.00000E+00  9.000E+00
      21    -1     0     0   502   503  0.000000000E+00  0.000000000E+00 -1.222988370E+03  1.222988370E+03  0.000000000E+00  0.00000E+00  9.000E+00
      25     1     1     2     0     0  4.996148913E+01 -9.141254602E+00 -8.631045340E+02  8.735866616E+02  1.249980230E+02  0.00000E+00  9.000E+00
       5     1     1     2   501     0  2.982898408E+00  1.333842737E+01  2.993737166E+01  3.325086540E+01  4.750000000E+00  0.00000E+00  9.000E+00
      -5     1     1     2     0   503 -4.328947282E+01  4.563160986E+00 -3.496567251E+02  3.523878386E+02  4.750000000E+00  0.00000E+00  9.000E+00
      21     1     1     2   511   501 -9.654914721E+00 -8.760333751E+00  1.967360574E+01  2.360109295E+01  1.039242493E-06  0.00000E+00  9.000E+00
#rwgt            1           9   2.3014332838531626E-004           7     2828664           0
</event>
<event>
      6   9999  3.45752E-01  3.27577E+01 -1.00000E+00  1.45409E-01
      21    -1     0     0   502   503  0.000000000E+00  0.000000000E+00  2.169285441E+02  2.169285441E+02  0.000000000E+00  0.00000E+00  9.000E+00
      21    -1     0     0   512   502  0.000000000E+00  0.000000000E+00 -2.926318760E+02  2.926318760E+02  0.000000000E+00  0.00000E+00  9.000E+00
      25     1     1     2     0     0  1.225891457E+02  1.679376525E+02  3.690056002E+01  2.453892769E+02  1.249923683E+02  0.00000E+00  9.000E+00
       5     1     1     2   501     0 -1.214419305E+02 -1.120728649E+02 -7.675416908E+01  1.822696752E+02  4.750000000E+00  0.00000E+00  9.000E+00
      -5     1     1     2     0   503  2.284236238E+01 -3.355854937E+01 -1.926302059E+01  4.518380481E+01  4.750000000E+00  0.00000E+00  9.000E+00
      21     1     1     2   512   501 -2.398957754E+01 -2.230623824E+01 -1.658670221E+01  3.671766313E+01  5.331201500E-07  0.00000E+00  9.000E+00
#rwgt            1           9   1.2727414450105425E-005           7     2831716           0
</event>
<event>
      6   9999  3.45752E-01  1.07168E+01 -1.00000E+00  1.84081E-01
      21    -1     0     0   511   503  0.000000000E+00  0.000000000E+00  2.628028050E+00  2.628028050E+00  0.000000000E+00  0.00000E+00  9.000E+00
      21    -1     0     0   501   502  0.000000000E+00  0.000000000E+00 -2.343352762E+03  2.343352762E+03  0.000000000E+00  0.00000E+00  9.000E+00
      25     1     1     2     0     0  8.446934954E+00 -3.160044252E+00 -1.900985290E+03  1.905112482E+03  1.250086336E+02  0.00000E+00  9.000E+00
       5     1     1     2   501     0  4.699777503E+00 -1.521735799E-02 -2.283013003E+02  2.283990683E+02  4.750000000E+00  0.00000E+00  9.000E+00
      -5     1     1     2     0   503 -2.783441767E+00  4.452746490E-01 -1.501236078E+02  1.502251840E+02  4.750000000E+00  0.00000E+00  9.000E+00
      21     1     1     2   511   502 -1.036327069E+01  2.729986961E+00 -6.131453564E+01  6.224405585E+01  1.348699152E-06  0.00000E+00  9.000E+00
#rwgt            1           9   37.425225165118981                7     2834357           0
</event>
<event>
      6   9999 -3.45752E-01  5.91035E+00 -1.00000E+00  2.14973E-01
      21    -1     0     0   501   502  0.000000000E+00  0.000000000E+00  4.526360350E+02  4.526360350E+02  0.000000000E+00  0.00000E+00  9.000E+00
      21    -1     0     0   502   512  0.000000000E+00  0.000000000E+00 -6.632632648E+01  6.632632648E+01  0.000000000E+00  0.00000E+00  9.000E+00
      25     1     1     2     0     0  2.063453883E+00  9.726032668E+00  1.700341231E+01  1.265391297E+02  1.249967270E+02  0.00000E+00  9.000E+00
       5     1     1     2   501     0  6.093147590E-01 -4.798197627E+00  3.685267372E+02  3.685890835E+02  4.750000000E+00  0.00000E+00  9.000E+00
      -5     1     1     2     0   503  1.434781223E+00 -6.780923311E-01  1.096699738E+01  1.205636503E+01  4.750000000E+00  0.00000E+00  9.000E+00
      21     1     1     2   503   512 -4.107549865E+00 -4.249742709E+00 -1.018743834E+01  1.177778328E+01  2.064765462E-07  0.00000E+00  9.000E+00
#rwgt            1           9  -2.5539173026334458E-004           7     2836124           0
</event>
<event>
      6   9999  3.45752E-01  7.52157E+00 -1.00000E+00  2.01240E-01
      21    -1     0     0   511   502  0.000000000E+00  0.000000000E+00  4.138892920E+01  4.138892920E+01  0.000000000E+00  0.00000E+00  9.000E+00
      21    -1     0     0   502   503  0.000000000E+00  0.000000000E+00 -7.478391634E+02  7.478391634E+02  0.000000000E+00  0.00000E+00  9.000E+00
      25     1     1     2     0     0 -5.116149812E+00 -8.047468732E+00 -7.109021304E+02  7.218710312E+02  1.250000393E+02  0.00000E+00  9.000E+00
       5     1     1     2   501     0  1.221878354E-01  5.642479179E-01  3.384606189E+01  3.418262294E+01  4.750000000E+00  0.00000E+00  9.000E+00
      -5     1     1     2     0   503  6.237045840E+00  6.508235784E-02 -1.579708063E+01  1.763562398E+01  4.750000000E+00  0.00000E+00  9.000E+00
      21     1     1     2   511   501 -1.243083863E+00  7.418138456E+00 -1.359708503E+01  1.553881453E+01  1.685873940E-07  0.00000E+00  9.000E+00
#rwgt            1           9   4.3282406598184298E-004           7     2840618           0
</event>
<event>
      6   9999  3.45752E-01  1.70346E+01 -1.00000E+00  1.65719E-01
      21    -1     0     0   501   502  0.000000000E+00  0.000000000E+00  3.329634994E+01  3.329634994E+01  0.000000000E+00  0.00000E+00  9.000E+00
      21    -1     0     0   502   512  0.000000000E+00  0.000000000E+00 -1.933939951E+02  1.933939951E+02  0.000000000E+00  0.00000E+00  9.000E+00
      25     1     1     2     0     0  1.779726992E+01 -2.513147334E-01 -1.170375557E+02  1.721625661E+02  1.250014149E+02  0.00000E+00  9.000E+00
       5     1     1     2   501     0  7.114454796E-01  4.617476649E-02 -2.274533640E-01  4.808588339E+00  4.750000000E+00  0.00000E+00  9.000E+00
      -5     1     1     2     0   503 -2.496454724E+00  6.017706116E+00 -1.636858436E+01  1.824659220E+01  4.750000000E+00  0.00000E+00  9.000E+00
      21     1     1     2   503   512 -1.601226068E+01 -5.812566149E+00 -2.646405182E+01  3.147259849E+01  4.768371582E-07  0.00000E+00  9.000E+00
#rwgt            1           9   2.7930157077986519E-004           7     2844482           0
</event>
<event>
      6   9999  3.45752E-01  1.35713E+01 -1.00000E+00  1.74227E-01
      21    -1     0     0   501   511  0.000000000E+00  0.000000000E+00  2.184973846E+01  2.184973846E+01  0.000000000E+00  0.00000E+00  9.000E+00
      21    -1     0     0   502   503  0.000000000E+00  0.000000000E+00 -1.023119803E+03  1.023119803E+03  0.000000000E+00  0.00000E+00  9.000E+00
      25     1     1     2     0     0 -8.389179164E+00  5.224668835E+01 -8.614996216E+02  8.721271150E+02  1.249960471E+02  0.00000E+00  9.000E+00
       5     1     1     2   501     0 -3.039836006E+00  7.996553189E-01  1.102647907E+01  1.241071281E+01  4.750000000E+00  0.00000E+00  9.000E+00
      -5     1     1     2     0   503  1.063252766E+01 -3.949843982E+01 -1.121479440E+02  1.194692481E+02  4.750000000E+00  0.00000E+00  9.000E+00
      21     1     1     2   502   511  7.964875134E-01 -1.354790385E+01 -3.864897823E+01  4.096246586E+01  4.768371582E-07  0.00000E+00  9.000E+00
#rwgt            1           9   1.3268487316908106E-004           7     2845821           0
</event>
<event>
      6   9999  3.45752E-01  2.15276E+02 -1.00000E+00  1.07799E-01
      21    -1     0     0   512   502  0.000000000E+00  0.000000000E+00  8.466062265E+01  8.466062265E+01  0.000000000E+00  0.00000E+00  9.000E+00
       2    -1     0     0   501     0  0.000000000E+00  0.000000000E+00 -3.015064701E+03  3.015064701E+03  0.000000000E+00  0.00000E+00  9.000E+00
      25     1     1     2     0     0  3.824636478E+02 -2.109544172E+01 -1.069496966E+03  1.142879332E+03  1.250037889E+02  0.00000E+00  9.000E+00
       5     1     1     2   501     0  6.694152173E+00 -4.070063635E+00  1.564333921E+00  9.294446294E+00  4.750000000E+00  0.00000E+00  9.000E+00
      -5     1     1     2     0   502 -2.186936494E+02 -1.063097808E+02 -3.913818782E+02  4.607939006E+02  4.750000000E+00  0.00000E+00  9.000E+00
       2     1     1     2   512     0 -1.704641506E+02  1.314752861E+02 -1.471089568E+03  1.486757645E+03  0.000000000E+00  0.00000E+00  9.000E+00
#rwgt            1           3   3.1771344960855912E-005           7     2849169           0
</event>
<event>
      6   9999  3.45752E-01  9.51977E+01 -1.00000E+00  1.21350E-01
      21    -1     0     0   502   503  0.000000000E+00  0.000000000E+00  1.578459912E+02  1.578459912E+02  0.000000000E+00  0.00000E+00  9.000E+00
      21    -1     0     0   511   502  0.000000000E+00  0.000000000E+00 -8.576283941E+02  8.576283941E+02  0.000000000E+00  0.00000E+00  9.000E+00
      25     1     1     2     0     0  3.137078443E+02 -5.782478562E+01 -3.483608585E+02  4.886081310E+02  1.250052020E+02  0.00000E+00  9.000E+00
       5     1     1     2   501     0 -1.103202129E+02  7.167714392E+01 -5.375834649E+01  1.421994538E+02  4.750000000E+00  0.00000E+00  9.000E+00
      -5     1     1     2     0   503 -1.229809016E+02 -6.481660819E+01 -1.226987412E+02  1.854805608E+02  4.750000000E+00  0.00000E+00  9.000E+00
      21     1     1     2   511   501 -8.040672975E+01  5.096424989E+01 -1.749644567E+02  1.991862397E+02  1.907348633E-06  0.00000E+00  9.000E+00
#rwgt            1           9   1.9425939151102162E-002           7     2849830           0
</event>
<event>
      6   9999  3.45752E-01  2.17098E+01 -1.00000E+00  1.57538E-01
      21    -1     0     0   501   502  0.000000000E+00  0.000000000E+00  2.897748588E+03  2.897748588E+03  0.000000000E+00  0.00000E+00  9.000E+00
      21    -1     0     0   512   503  0.000000000E+00  0.000000000E+00 -1.123148779E+01  1.123148779E+01  0.000000000E+00  0.00000E+00  9.000E+00
      25     1     1     2     0     0 -1.739688356E+01 -4.232484030E+00  1.103872148E+03  1.111072000E+03  1.250068209E+02  0.00000E+00  9.000E+00
       5     1     1     2   501     0 -2.386339175E+00  3.504622838E+00  1.505156608E+03  1.505170075E+03  4.750000000E+00  0.00000E+00  9.000E+00
      -5     1     1     2     0   503  2.889000030E+00  1.436246221E+01  2.689798221E+02  2.694203664E+02  4.750000000E+00  0.00000E+00  9.000E+00
      21     1     1     2   512   502  1.689422271E+01 -1.363460101E+01  8.508521672E+00  2.331763381E+01  2.665600750E-07  0.00000E+00  9.000E+00
#rwgt            1           9   1.1483642738557717E-004           7     2851383           0
</event>
<event>
      6   9999  3.45752E-01  1.04013E+01 -1.00000E+00  1.85412E-01
      21    -1     0     0   511   502  0.000000000E+00  0.000000000E+00  1.372688824E+01  1.372688824E+01  0.000000000E+00  0.00000E+00  9.000E+00
      21    -1     0     0   502   503  0.000000000E+00  0.000000000E+00 -6.508693042E+02  6.508693042E+02  0.000000000E+00  0.00000E+00  9.000E+00
      25     1     1     2     0     0 -8.839259743E+00  4.888154191E+00 -6.012103002E+02  6.141501537E+02  1.249982387E+02  0.00000E+00  9.000E+00
       5     1     1     2   501     0 -3.659805515E-01  1.189298898E-01 -1.739164915E+01  1.803274927E+01  4.750000000E+00  0.00000E+00  9.000E+00
      -5     1     1     2     0   503 -9.478258771E-01 -2.748283529E+00 -2.099939193E+01  2.172529396E+01  4.750000000E+00  0.00000E+00  9.000E+00
      21     1     1     2   511   501  1.015306617E+01 -2.258800552E+00  2.458925359E+00  1.068799544E+01  1.908279728E-07  0.00000E+00  9.000E+00
#rwgt            1           9   7.6287497222105445E-006           7     2853250           0
</event>
<event>
      6   9999  3.45752E-01  1.06465E+01 -1.00000E+00  1.84373E-01
      21    -1     0     0   501   502  0.000000000E+00  0.000000000E+00  3.113389836E+02  3.113389836E+02  0.000000000E+00  0.00000E+00  9.000E+00
      21    -1     0     0   502   512  0.000000000E+00  0.000000000E+00 -1.087011906E+02  1.087011906E+02  0.000000000E+00  0.00000E+00  9.000E+00
      25     1     1     2     0     0  3.556193473E+01  9.338762499E+01  9.221316079E+01  1.846982737E+02  1.249971422E+02  0.00000E+00  9.000E+00
       5     1     1     2   501     0 -3.031384509E+00  4.960396198E-02  1.332271129E+02  1.333462330E+02  4.750000000E+00  0.00000E+00  9.000E+00
      -5     1     1     2     0   503 -3.125903263E+01 -8.286693198E+01 -2.156105892E+01  9.127703599E+01  4.750000000E+00  0.00000E+00  9.000E+00
      21     1     1     2   503   512 -1.271517592E+00 -1.057029697E+01 -1.241421734E+00  1.071863158E+01  1.154238983E-07  0.00000E+00  9.000E+00
#rwgt            1           9  0.74969520675053347                7     2855181           0
</event>
<event>
      6   9999  3.45752E-01  5.45028E+01 -1.00000E+00  1.32814E-01
      21    -1     0     0   501   502  0.000000000E+00  0.000000000E+00  8.923297708E+01  8.923297708E+01  0.000000000E+00  0.00000E+00  9.000E+00
       1    -1     0     0   502     0  0.000000000E+00  0.000000000E+00 -2.446586874E+03  2.446586874E+03  0.000000000E+00  0.00000E+00  9.000E+00
      25     1     1     2     0     0 -3.061204797E+01 -5.808516987E+01 -7.780119067E+02  7.907204088E+02  1.250010140E+02  0.00000E+00  9.000E+00
       5     1     1     2   501     0 -7.132946947E+00  5.745463905E+00  7.814975049E+01  7.882788396E+01  4.750000000E+00  0.00000E+00  9.000E+00
      -5     1     1     2     0   503  2.249787371E+01  1.046664092E+02 -8.144378163E+02  8.214576865E+02  4.750000000E+00  0.00000E+00  9.000E+00
       1     1     1     2   503     0  1.524712121E+01 -5.232670328E+01 -8.430539241E+02  8.448138715E+02  0.000000000E+00  0.00000E+00  9.000E+00
#rwgt            1           9   2.1125461574283697E-004           7     2859443           0
</event>
<event>
      6   9999  3.45752E-01  3.97121E+00 -1.00000E+00  2.48501E-01
       1    -1     0     0   501     0  0.000000000E+00  0.000000000E+00  7.126792786E+01  7.126792786E+01  0.000000000E+00  0.00000E+00  9.000E+00
      21    -1     0     0   502   503  0.000000000E+00  0.000000000E+00 -1.909149963E+03  1.909149963E+03  0.000000000E+00  0.00000E+00  9.000E+00
      25     1     1     2     0     0  1.865208187E+01 -1.647873792E+01 -1.806638427E+03  1.811128541E+03  1.249989551E+02  0.00000E+00  9.000E+00
       5     1     1     2   501     0  1.567011052E+00  3.471110699E-01 -3.249757647E+00  5.974900375E+00  4.750000000E+00  0.00000E+00  9.000E+00
      -5     1     1     2     0   503 -1.804377699E+01  1.945404885E+01 -9.369397435E+01  9.749441642E+01  4.750000000E+00  0.00000E+00  9.000E+00
       1     1     1     2   502     0 -2.175315931E+00 -3.322422001E+00  6.570012359E+01  6.582003287E+01  9.536743164E-07  0.00000E+00  9.000E+00
#rwgt            1           9   2.1756624223627892E-004           7     2860967           0
</event>
<event>
      6   9999  3.45752E-01  3.82878E+00 -1.00000E+00  2.51849E-01
      21    -1     0     0   501   502  0.000000000E+00  0.000000000E+00  4.645451751E+02  4.645451751E+02  0.000000000E+00  0.00000E+00  9.000E+00
      21    -1     0     0   511   503  0.000000000E+00  0.000000000E+00 -2.668757401E+01  2.668757401E+01  0.000000000E+00  0.00000E+00  9.000E+00
      25     1     1     2     0     0 -6.967266887E-01  4.796181372E+00  1.400004063E+02  1.877456279E+02  1.249992730E+02  0.00000E+00  9.000E+00
       5     1     1     2   501     0 -2.923426790E+00 -8.897155685E-01  2.927727860E+02  2.928272609E+02  4.750000000E+00  0.00000E+00  9.000E+00
      -5     1     1     2     0   503  7.489511495E-01 -1.373531110E+00  4.610314706E+00  6.801839253E+00  4.750000000E+00  0.00000E+00  9.000E+00
      21     1     1     2   511   502  2.871202329E+00 -2.532934693E+00  4.740941059E-01  3.858021020E+00  1.153036024E-07  0.00000E+00  9.000E+00
#rwgt            1           9   6.9204448275621950E-004           7     2866096           0
</event>
<event>
      6   9999 -3.45752E-01  3.32703E+00 -1.00000E+00  2.65664E-01
      21    -1     0     0   502   512  0.000000000E+00  0.000000000E+00  6.381970312E+01  6.381970312E+01  0.000000000E+00  0.00000E+00  9.000E+00
      21    -1     0     0   501   502  0.000000000E+00  0.000000000E+00 -1.566412127E+02  1.566412127E+02  0.000000000E+00  0.00000E+00  9.000E+00
      25     1     1     2     0     0 -7.413695332E-01  1.833873139E+00 -5.956895673E+00  1.251549290E+02  1.249974357E+02  0.00000E+00  9.000E+00
       5     1     1     2   501     0 -1.513010427E+00 -1.372667584E+00 -8.206174623E+01  8.222448608E+01  4.750000000E+00  0.00000E+00  9.000E+00
      -5     1     1     2     0   503  2.248426855E+00 -3.788232813E+00 -6.643493189E+00  9.279258209E+00  4.750000000E+00  0.00000E+00  9.000E+00
      21     1     1     2   503   512  5.953105683E-03  3.327027257E+00  1.840625546E+00  3.802242523E+00  5.161913656E-08  0.00000E+00  9.000E+00
#rwgt            1           9  -3.6555903428115523E-004           7     2871567           0
</event>
<event>
      6   9999  3.45752E-01  5.86932E+00 -1.00000E+00  2.15399E-01
      21    -1     0     0   511   503  0.000000000E+00  0.000000000E+00  8.144501630E+02  8.144501630E+02  0.000000000E+00  0.00000E+00  9.000E+00
      21    -1     0     0   501   502  0.000000000E+00  0.000000000E+00 -2.491655267E+02  2.491655267E+02  0.000000000E+00  0.00000E+00  9.000E+00
      25     1     1     2     0     0  8.801716828E+00 -6.348807267E+00 -2.037678799E+02  2.392993274E+02  1.250001664E+02  0.00000E+00  9.000E+00
       5     1     1     2   501     0 -1.090266569E+00 -5.950468706E-01 -1.107460046E+01  1.211412553E+01  4.750000000E+00  0.00000E+00  9.000E+00
      -5     1     1     2     0   503 -3.786556640E+00  2.579892306E+00 -1.534730080E+01  1.670616645E+01  4.750000000E+00  0.00000E+00  9.000E+00
      21     1     1     2   511   502 -3.924893619E+00  4.363961832E+00  7.954744175E+02  7.954960703E+02  1.078959322E-05  0.00000E+00  9.000E+00
#rwgt            1           9   215.04551491906525                7     2877450           0
</event>
<event>
      6   9999  3.45752E-01  5.12599E+00 -1.00000E+00  2.24047E-01
      21    -1     0     0   501   502  0.000000000E+00  0.000000000E+00  2.959568411E+01  2.959568411E+01  0.000000000E+00  0.00000E+00  9.000E+00
      21    -1     0     0   512   503  0.000000000E+00  0.000000000E+00 -4.397955925E+02  4.397955925E+02  0.000000000E+00  0.00000E+00  9.000E+00
      25     1     1     2     0     0 -4.599001192E+00  7.000843587E+00 -3.815403740E+02  4.015822385E+02  1.250002988E+02  0.00000E+00  9.000E+00
       5     1     1     2   501     0  1.345232861E+00 -4.485119501E-01  1.826858611E+01  1.892919842E+01  4.750000000E+00  0.00000E+00  9.000E+00
      -5     1     1     2     0   503  2.430275890E-02 -2.571592368E+00 -8.233488777E+00  9.847157731E+00  4.750000000E+00  0.00000E+00  9.000E+00
      21     1     1     2   512   502  3.229465572E+00 -3.980739269E+00 -3.869463172E+01  3.903268191E+01  4.768371582E-07  0.00000E+00  9.000E+00
#rwgt            1           9   3.1517041163879253E-003           7     2880512           0
</event>
<event>
      6   9999  3.45752E-01  4.18561E+00 -1.00000E+00  2.43842E-01
      21    -1     0     0   511   502  0.000000000E+00  0.000000000E+00  1.967289765E+01  1.967289765E+01  0.000000000E+00  0.00000E+00  9.000E+00
      21    -1     0     0   502   503  0.000000000E+00  0.000000000E+00 -2.141248892E+03  2.141248892E+03  0.000000000E+00  0.00000E+00  9.000E+00
      25     1     1     2     0     0  7.407477466E+01 -4.044344850E+01 -1.164027359E+03  1.173757374E+03  1.249957350E+02  0.00000E+00  9.000E+00
       5     1     1     2   501     0  3.617928014E+00 -4.867848405E+00  9.557052542E+00  1.227538612E+01  4.750000000E+00  0.00000E+00  9.000E+00
      -5     1     1     2     0   503 -8.129272352E+01  4.317606835E+01 -9.662257917E+02  9.706119321E+02  4.750000000E+00  0.00000E+00  9.000E+00
      21     1     1     2   511   501  3.600020845E+00  2.135228560E+00 -8.798960612E-01  4.277098101E+00  1.988062868E-07  0.00000E+00  9.000E+00
#rwgt            1           9  0.32825546444646808                7     2884870           0
</event>
<event>
      6   9999 -3.45752E-01  1.04677E+01 -1.00000E+00  1.85126E-01
      21    -1     0     0   501   502  0.000000000E+00  0.000000000E+00  8.601853815E+00  8.601853815E+00  0.000000000E+00  0.00000E+00  9.000E+00
      21    -1     0     0   512   503  0.000000000E+00  0.000000000E+00 -1.198915827E+03  1.198915827E+03  0.000000000E+00  0.00000E+00  9.000E+00
      25     1     1     2     0     0  4.410795594E+00  6.355865814E-01 -5.278951998E+02  5.425121226E+02  1.250048082E+02  0.00000E+00  9.000E+00
       5     1     1     2   501     0 -2.761003682E-01 -5.605303050E-01 -5.112432710E+00  7.006418047E+00  4.750000000E+00  0.00000E+00  9.000E+00
      -5     1     1     2     0   503 -5.655386779E+00 -1.043175794E+01 -1.388273957E+02  1.394145375E+02  4.750000000E+00  0.00000E+00  9.000E+00
      21     1     1     2   512   502  1.520691553E+00  1.035670167E+01 -5.184789451E+02  5.185846028E+02  7.629394531E-06  0.00000E+00  9.000E+00
#rwgt            1           9  -1.2083468621809268E-005           7     2890764           0
</event>
<event>
      6   9999 -3.45752E-01  1.23465E+02 -1.00000E+00  1.16669E-01
      21    -1     0     0   511   502  0.000000000E+00  0.000000000E+00  2.344690474E+02  2.344690474E+02  0.000000000E+00  0.00000E+00  9.000E+00
      21    -1     0     0   502   503  0.000000000E+00  0.000000000E+00 -1.049647979E+03  1.049647979E+03  0.000000000E+00  0.00000E+00  9.000E+00
      25     1     1     2     0     0 -3.259269712E+02  2.150757970E+02 -5.240919901E+02  6.654199821E+02  1.250013982E+02  0.00000E+00  9.000E+00
       5     1     1     2   501     0  3.530588973E+02 -1.081769287E+02 -2.854283930E+02  4.667384309E+02  4.750000000E+00  0.00000E+00  9.000E+00
      -5     1     1     2     0   503 -1.726259014E+00  1.392359911E+01 -2.292339543E+01  2.729269390E+01  4.750000000E+00  0.00000E+00  9.000E+00
      21     1     1     2   511   501 -2.540566704E+01 -1.208224674E+02  1.726484694E+01  1.246659195E+02  1.831327855E-06  0.00000E+00  9.000E+00
#rwgt            1           9  -2.8503376127569910E-002           7     2892917           0
</event>
<event>
      6   9999  3.45752E-01  1.71398E+01 -1.00000E+00  1.65501E-01
      21    -1     0     0   501   502  0.000000000E+00  0.000000000E+00  1.117433972E+01  1.117433972E+01  0.000000000E+00  0.00000E+00  9.000E+00
      21    -1     0     0   502   512  0.000000000E+00  0.000000000E+00 -1.177055178E+03  1.177055178E+03  0.000000000E+00  0.00000E+00  9.000E+00
      25     1     1     2     0     0  1.241606445E+01  2.366943794E+00 -6.046307777E+02  6.175466575E+02  1.250029429E+02  0.00000E+00  9.000E+00
       5     1     1     2   501     0 -1.759797152E+00 -1.739426400E+00  1.548463051E+00  5.575188610E+00  4.750000000E+00  0.00000E+00  9.000E+00
      -5     1     1     2     0   503 -2.577481604E+01 -8.702303468E+00 -1.991687217E+02  2.010741491E+02  4.750000000E+00  0.00000E+00  9.000E+00
      21     1     1     2   503   512  1.511854874E+01  8.074786074E+00 -3.636298019E+02  3.640335225E+02  7.629394531E-06  0.00000E+00  9.000E+00
#rwgt            1           9   5.3063365572658594E-003           7     2894026           0
</event>
<event>
      6   9999  3.45752E-01  6.51626E+00 -1.00000E+00  2.09184E-01
      21    -1     0     0   501   511  0.000000000E+00  0.000000000E+00  2.504258791E+02  2.504258791E+02  0.000000000E+00  0.00000E+00  9.000E+00
      21    -1     0     0   502   503  0.000000000E+00  0.000000000E+00 -2.161770234E+02  2.161770234E+02  0.000000000E+00  0.00000E+00  9.000E+00
      25     1     1     2     0     0  4.959770853E+01 -1.039348658E+01 -1.541854251E+02  2.048568377E+02  1.250008856E+02  0.00000E+00  9.000E+00
       5     1     1     2   501     0  1.616582652E+00  2.275243542E+00  5.619775604E+01  5.646716175E+01  4.750000000E+00  0.00000E+00  9.000E+00
      -5     1     1     2     0   503 -4.481981463E+01  6.864334047E+00 -2.219764118E+01  5.070732333E+01  4.750000000E+00  0.00000E+00  9.000E+00
      21     1     1     2   502   511 -6.394476545E+00  1.253908994E+00  1.544341660E+02  1.545715797E+02  0.000000000E+00  0.00000E+00  9.000E+00
#rwgt            1           9   1.1091837573525126E-004           7     2895424           0
</event>
<event>
      6   9999  3.45752E-01  3.95364E+00 -1.00000E+00  2.48902E-01
      21    -1     0     0   501   512  0.000000000E+00  0.000000000E+00  1.811867702E+01  1.811867702E+01  0.000000000E+00  0.00000E+00  9.000E+00
      21    -1     0     0   502   503  0.000000000E+00  0.000000000E+00 -8.504712026E+02  8.504712026E+02  0.000000000E+00  0.00000E+00  9.000E+00
      25     1     1     2     0     0  3.667448256E+00  1.303771677E+01 -7.029704459E+02  7.141251955E+02  1.249956596E+02  0.00000E+00  9.000E+00
       5     1     1     2   501     0  2.570733897E+00 -1.534240189E+00  5.714875831E+00  8.011546136E+00  4.750000000E+00  0.00000E+00  9.000E+00
      -5     1     1     2     0   503 -3.480717175E+00 -8.670159953E+00 -1.398661299E+02  1.402582755E+02  4.750000000E+00  0.00000E+00  9.000E+00
      21     1     1     2   502   512 -2.757464979E+00 -2.833316632E+00  4.769174347E+00  6.194862403E+00  3.722308873E-07  0.00000E+00  9.000E+00
#rwgt            1           9   2.4510090548525714E-004           7     2899492           0
</event>
<event>
      6   9999  3.45752E-01  3.12675E+01 -1.00000E+00  1.46685E-01
      21    -1     0     0   501   502  0.000000000E+00  0.000000000E+00  5.642278495E+01  5.642278495E+01  0.000000000E+00  0.00000E+00  9.000E+00
      21    -1     0     0   511   503  0.000000000E+00  0.000000000E+00 -8.579144999E+02  8.579144999E+02  0.000000000E+00  0.00000E+00  9.000E+00
      25     1     1     2     0     0  4.531809731E+01 -3.022270904E+01 -4.371824195E+02  4.579526678E+02  1.250001437E+02  0.00000E+00  9.000E+00
       5     1     1     2   501     0  1.119726901E+01 -5.009684538E+00  4.227839798E+01  4.427754745E+01  4.750000000E+00  0.00000E+00  9.000E+00
      -5     1     1     2     0   503 -2.842930578E+01  2.149078517E+01 -2.180787832E+02  2.210226176E+02  4.750000000E+00  0.00000E+00  9.000E+00
      21     1     1     2   511   502 -2.808606054E+01  1.374160841E+01 -1.885089103E+02  1.910844521E+02  2.697398305E-06  0.00000E+00  9.000E+00
#rwgt            1           9   5.4696127580685381E-004           7     2904187           0
</event>
<event>
      6   9999 -3.45752E-01  1.81638E+01 -1.00000E+00  1.63470E-01
      21    -1     0     0   501   502  0.000000000E+00  0.000000000E+00  2.672246308E+01  2.672246308E+01  0.000000000E+00  0.00000E+00  9.000E+00
      21    -1     0     0   512   503  0.000000000E+00  0.000000000E+00 -5.534204847E+02  5.534204847E+02  0.000000000E+00  0.00000E+00  9.000E+00
      25     1     1     2     0     0  3.287577394E+01 -7.583976912E+00 -4.148442104E+02  4.345817480E+02  1.250089739E+02  0.00000E+00  9.000E+00
       5     1     1     2   501     0  1.086176281E-01  1.163388062E+00  7.756880655E+00  9.170439851E+00  4.750000000E+00  0.00000E+00  9.000E+00
      -5     1     1     2     0   503 -2.796491774E+01  2.387705591E+01 -3.921146519E+01  5.396528444E+01  4.750000000E+00  0.00000E+00  9.000E+00
      21     1     1     2   512   502 -5.019473828E+00 -1.745646706E+01 -8.039922665E+01  8.242547547E+01  9.536743164E-07  0.00000E+00  9.000E+00
#rwgt            1           9 -0.11301928155241947                7     2905898           0
</event>
<event>
      6   9999 -3.45752E-01  2.01344E+01 -1.00000E+00  1.59989E-01
      21    -1     0     0   502   511  0.000000000E+00  0.000000000E+00  1.597320621E+01  1.597320621E+01  0.000000000E+00  0.00000E+00  9.000E+00
      21    -1     0     0   501   502  0.000000000E+00  0.000000000E+00 -7.996570777E+02  7.996570777E+02  0.000000000E+00  0.00000E+00  9.000E+00
      25     1     1     2     0     0 -7.569865948E+00 -8.508778853E+00 -5.391615649E+02  5.535791909E+02  1.250001014E+02  0.00000E+00  9.000E+00
       5     1     1     2   501     0 -2.656242259E+00  6.731656709E+00 -2.205991260E+02  2.207689012E+02  4.750000000E+00  0.00000E+00  9.000E+00
      -5     1     1     2     0   503 -6.177025753E+00 -9.899004824E+00 -1.400519515E+01  1.883756712E+01  4.750000000E+00  0.00000E+00  9.000E+00
      21     1     1     2   503   511  1.640313396E+01  1.167612697E+01 -9.917985438E+00  2.244462474E+01  3.371747881E-07  0.00000E+00  9.000E+00
#rwgt            1           9  -8.9292429067722135E-004           7     2907719           0
</event>
<event>
      6   9999  3.45752E-01  5.32495E+00 -1.00000E+00  2.21543E-01
      21    -1     0     0   501   502  0.000000000E+00  0.000000000E+00  9.792669883E+00  9.792669883E+00  0.000000000E+00  0.00000E+00  9.000E+00
      21    -1     0     0   512   503  0.000000000E+00  0.000000000E+00 -2.822896337E+03  2.822896337E+03  0.000000000E+00  0.00000E+00  9.000E+00
      25     1     1     2     0     0  4.158600132E-01 -1.438188882E-01 -7.244226600E+02  7.351283288E+02  1.250011035E+02  0.00000E+00  9.000E+00
       5     1     1     2   501     0  2.824556746E+00  1.403035122E+00  2.423595509E+00  6.195396965E+00  4.750000000E+00  0.00000E+00  9.000E+00
      -5     1     1     2     0   503  1.724490364E+00  6.655572957E-01 -5.106820950E+01  5.132193834E+01  4.750000000E+00  0.00000E+00  9.000E+00
      21     1     1     2   512   502 -4.964907123E+00 -1.924773529E+00 -2.040036393E+03  2.040043343E+03  2.157918644E-05  0.00000E+00  9.000E+00
#rwgt            1           9   9.5100235787674603E-005           7     2908847           0
</event>
<event>
      6   9999  3.45752E-01  4.43362E+01 -1.00000E+00  1.37642E-01
      21    -1     0     0   502   511  0.000000000E+00  0.000000000E+00  1.113862830E+02  1.113862830E+02  0.000000000E+00  0.00000E+00  9.000E+00
      21    -1     0     0   501   502  0.000000000E+00  0.000000000E+00 -1.579243849E+03  1.579243849E+03  0.000000000E+00  0.00000E+00  9.000E+00
      25     1     1     2     0     0  7.100585241E+01 -1.300374660E+02 -1.102926195E+03  1.119830603E+03  1.249912549E+02  0.00000E+00  9.000E+00
       5     1     1     2   501     0 -1.123963906E+02  1.767914251E+02 -4.247431868E+02  4.736216780E+02  4.750000000E+00  0.00000E+00  9.000E+00
      -5     1     1     2     0   503  8.027218003E+00 -1.755485727E+01  4.699465507E+01  5.102616336E+01  4.750000000E+00  0.00000E+00  9.000E+00
      21     1     1     2   503   511  3.336332023E+01 -2.919910181E+01  1.281716072E+01  4.615168786E+01  1.338120956E-06  0.00000E+00  9.000E+00
#rwgt            1           9   4.4693051936132386E-004           7     2912693           0
</event>
<event>
      6   9999  3.45752E-01  3.34622E+00 -1.00000E+00  2.65067E-01
      21    -1     0     0   501   502  0.000000000E+00  0.000000000E+00  1.257972926E+03  1.257972926E+03  0.000000000E+00  0.00000E+00  9.000E+00
      21    -1     0     0   502   512  0.000000000E+00  0.000000000E+00 -4.917531726E+01  4.917531726E+01  0.000000000E+00  0.00000E+00  9.000E+00
      25     1     1     2     0     0 -3.083545285E-01  3.738090500E+00  3.879828702E+02  4.076982317E+02  1.251921411E+02  0.00000E+00  9.000E+00
       5     1     1     2   501     0  2.828215207E+00 -3.191974814E+00  8.251064525E+02  8.251311460E+02  4.750000000E+00  0.00000E+00  9.000E+00
      -5     1     1     2     0   503 -3.660536573E+00 -3.691913739E+00  3.458688671E+01  3.529652940E+01  4.750000000E+00  0.00000E+00  9.000E+00
      21     1     1     2   503   512  1.140675894E+00  3.145798052E+00 -3.887860033E+01  3.902233656E+01  2.477718555E-06  0.00000E+00  9.000E+00
#rwgt            1           9  0.24311316332294153                7     2914465           0
</event>
<event>
      6   9999  3.45752E-01  2.29316E+01 -1.00000E+00  1.55805E-01
      21    -1     0     0   501   511  0.000000000E+00  0.000000000E+00  5.514224524E+02  5.514224524E+02  0.000000000E+00  0.00000E+00  9.000E+00
      21    -1     0     0   502   503  0.000000000E+00  0.000000000E+00 -1.855965679E+01  1.855965679E+01  0.000000000E+00  0.00000E+00  9.000E+00
      25     1     1     2     0     0  2.192755227E+01 -2.977087202E+00  2.266727957E+02  2.597983579E+02  1.249997996E+02  0.00000E+00  9.000E+00
       5     1     1     2   501     0  8.396822405E-01 -5.817370262E-02  6.173208294E+00  7.834503883E+00  4.750000000E+00  0.00000E+00  9.000E+00
      -5     1     1     2     0   503  1.054495891E-01  1.392775491E+00  7.830414795E+00  9.264385519E+00  4.750000000E+00  0.00000E+00  9.000E+00
      21     1     1     2   502   511 -2.287268410E+01  1.642485413E+00  2.921863768E+02  2.930848618E+02  3.814697266E-06  0.00000E+00  9.000E+00
#rwgt            1           9   5.7647904889105636E-002           7     2920242           0
</event>
<event>
      6   9999 -3.45752E-01  1.28879E+01 -1.00000E+00  1.76289E-01
      21    -1     0     0   502   512  0.000000000E+00  0.000000000E+00  9.374080681E+00  9.374080681E+00  0.000000000E+00  0.00000E+00  9.000E+00
      21    -1     0     0   501   502  0.000000000E+00  0.000000000E+00 -7.217111052E+02  7.217111052E+02  0.000000000E+00  0.00000E+00  9.000E+00
      25     1     1     2     0     0 -1.029653679E+01 -4.351001193E+00 -5.765381696E+02  5.900390344E+02  1.249994051E+02  0.00000E+00  9.000E+00
       5     1     1     2   501     0 -1.663334318E+00 -9.486452015E-01 -9.480178445E+01  9.494002025E+01  4.750000000E+00  0.00000E+00  9.000E+00
      -5     1     1     2     0   503  3.576485304E-01 -3.116748898E-01 -2.553417769E+01  2.597656220E+01  4.750000000E+00  0.00000E+00  9.000E+00
      21     1     1     2   503   512  1.160222257E+01  5.611321284E+00 -1.546289280E+01  2.012956902E+01  4.460403188E-07  0.00000E+00  9.000E+00
#rwgt            1           9  -1.3926231480901474E-004           7     2921349           0
</event>
<event>
      6   9999  3.45752E-01  3.26855E+00 -1.00000E+00  2.67522E-01
      21    -1     0     0   501   502  0.000000000E+00  0.000000000E+00  8.975776026E+01  8.975776026E+01  0.000000000E+00  0.00000E+00  9.000E+00
       2    -1     0     0   502     0  0.000000000E+00  0.000000000E+00 -1.228505269E+03  1.228505269E+03  0.000000000E+00  0.00000E+00  9.000E+00
      25     1     1     2     0     0 -8.453504314E+00  4.831136601E+00 -3.077649674E+01  1.291006886E+02  1.249999738E+02  0.00000E+00  9.000E+00
       5     1     1     2   501     0 -4.792174094E-01 -1.839133683E+00  4.005530099E+01  4.038070950E+01  4.750000000E+00  0.00000E+00  9.000E+00
      -5     1     1     2     0   503  7.866286752E+00  9.768374817E-02 -5.589308681E+01  5.664351386E+01  4.750000000E+00  0.00000E+00  9.000E+00
       2     1     1     2   503     0  1.066434972E+00 -3.089686666E+00 -1.092133226E+03  1.092138117E+03  1.525878906E-05  0.00000E+00  9.000E+00
#rwgt            1           9   2.1166171463157927E-003           7     2923072           0
</event>
<event>
      6   9999  3.45752E-01  1.78906E+01 -1.00000E+00  1.63995E-01
      21    -1     0     0   501   502  0.000000000E+00  0.000000000E+00  1.106395797E+02  1.106395797E+02  0.000000000E+00  0.00000E+00  9.000E+00
      21    -1     0     0   511   503  0.000000000E+00  0.000000000E+00 -2.039917885E+03  2.039917885E+03  0.000000000E+00  0.00000E+00  9.000E+00
      25     1     1     2     0     0  5.931361322E+01 -1.454117953E+02 -1.807918111E+02  2.701358347E+02  1.249999813E+02  0.00000E+00  9.000E+00
       5     1     1     2   501     0  3.485117847E+00  7.251794640E+00  6.224722148E+01  6.294452839E+01  4.750000000E+00  0.00000E+00  9.000E+00
      -5     1     1     2     0   503 -6.576520404E+01  1.205170620E+02 -1.520839679E+03  1.527031537E+03  4.750000000E+00  0.00000E+00  9.000E+00
      21     1     1     2   511   502  2.966472973E+00  1.764293866E+01 -2.898940367E+02  2.904455641E+02  3.814697266E-06  0.00000E+00  9.000E+00
#rwgt            1           9   4.1559738087030846E-004           7     2929496           0
</event>
<event>
      6   9999 -3.45752E-01  1.63948E+01 -1.00000E+00  1.67092E-01
      21    -1     0     0   512   502  0.000000000E+00  0.000000000E+00  1.439389604E+02  1.439389604E+02  0.000000000E+00  0.00000E+00  9.000E+00
      21    -1     0     0   502   503  0.000000000E+00  0.000000000E+00 -2.216349203E+03  2.216349203E+03  0.000000000E+00  0.00000E+00  9.000E+00
      25     1     1     2     0     0  5.577919554E+00  2.074844787E-01 -2.025424366E+03  2.029285629E+03  1.250005805E+02  0.00000E+00  9.000E+00
       5     1     1     2   501     0 -6.975247866E-01  1.553904505E+01  9.248835056E+00  1.870967428E+01  4.750000000E+00  0.00000E+00  9.000E+00
      -5     1     1     2     0   503 -4.438635499E+00  6.423006690E-01 -1.836806224E+02  1.837967562E+02  4.750000000E+00  0.00000E+00  9.000E+00
      21     1     1     2   512   501 -4.417592691E-01 -1.638883019E+01  1.274459101E+02  1.284961047E+02  4.046097457E-06  0.00000E+00  9.000E+00
#rwgt            1           9  -2.2773485134700553E-004           7     2932813           0
</event>
<event>
      6   9999 -3.45752E-01  6.45002E+00 -1.00000E+00  2.09774E-01
      21    -1     0     0   501   502  0.000000000E+00  0.000000000E+00  1.389167166E+01  1.389167166E+01  0.000000000E+00  0.00000E+00  9.000E+00
       1    -1     0     0   502     0  0.000000000E+00  0.000000000E+00 -1.400087626E+03  1.400087626E+03  0.000000000E+00  0.00000E+00  9.000E+00
      25     1     1     2     0     0 -4.922153873E+01  3.052025258E+01 -4.423266711E+02  4.632766278E+02  1.249724137E+02  0.00000E+00  9.000E+00
       5     1     1     2   501     0 -8.927791479E-01 -4.557368340E-01 -1.578457980E+00  5.104780139E+00  4.750000000E+00  0.00000E+00  9.000E+00
      -5     1     1     2     0   503  4.388881860E+01 -2.837755019E+01 -4.198331892E+02  4.231004408E+02  4.750000000E+00  0.00000E+00  9.000E+00
       1     1     1     2   503     0  6.225499272E+00 -1.686965555E+00 -5.224576358E+02  5.224974487E+02  7.629394531E-06  0.00000E+00  9.000E+00
#rwgt            1           9  -1.3495350130865948E-003           7     2935574           0
</event>
<event>
      6   9999  3.45752E-01  1.37829E+01 -1.00000E+00  1.73619E-01
      21    -1     0     0   501   502  0.000000000E+00  0.000000000E+00  3.528571442E+01  3.528571442E+01  0.000000000E+00  0.00000E+00  9.000E+00
      21    -1     0     0   502   511  0.000000000E+00  0.000000000E+00 -1.442700167E+03  1.442700167E+03  0.000000000E+00  0.00000E+00  9.000E+00
      25     1     1     2     0     0 -1.914005507E+01  2.861370480E+01 -1.152346676E+03  1.159617465E+03  1.249988672E+02  0.00000E+00  9.000E+00
       5     1     1     2   501     0  1.522192425E+01 -1.961470687E+01  2.586162199E+01  3.616392810E+01  4.750000000E+00  0.00000E+00  9.000E+00
      -5     1     1     2     0   503 -3.494532302E+00  2.620810428E+00 -2.248136058E+01  2.338919572E+01  4.750000000E+00  0.00000E+00  9.000E+00
      21     1     1     2   503   511  7.412663121E+00 -1.161980836E+01 -2.584480383E+02  2.588152932E+02  0.000000000E+00  0.00000E+00  9.000E+00
#rwgt            1           9   2.0066227910668679E-004           7     2939332           0
</event>
<event>
      6   9999  3.45752E-01  1.14912E+01 -1.00000E+00  1.81051E-01
      21    -1     0     0   502   503  0.000000000E+00  0.000000000E+00  2.799086480E+01  2.799086480E+01  0.000000000E+00  0.00000E+00  9.000E+00
      21    -1     0     0   501   512  0.000000000E+00  0.000000000E+00 -1.284930034E+03  1.284930034E+03  0.000000000E+00  0.00000E+00  9.000E+00
      25     1     1     2     0     0  3.594346392E+01  8.061488519E+01 -2.204655743E+02  2.683660479E+02  1.249982957E+02  0.00000E+00  9.000E+00
       5     1     1     2   501     0 -3.843981804E+01 -7.542144875E+01 -8.342499320E+02  8.385472712E+02  4.750000000E+00  0.00000E+00  9.000E+00
      -5     1     1     2     0   503  5.084899841E+00  6.002451500E+00 -1.055543752E+01  1.399519173E+01  4.750000000E+00  0.00000E+00  9.000E+00
      21     1     1     2   502   512 -2.588545721E+00 -1.119588794E+01 -1.916682251E+02  1.920123876E+02  2.697398305E-06  0.00000E+00  9.000E+00
#rwgt            1           9   4.2055215912832394E-004           7     2942264           0
</event>
<event>
      6   9999  3.45752E-01  1.99043E+01 -1.00000E+00  1.60370E-01
      21    -1     0     0   501   502  0.000000000E+00  0.000000000E+00  8.287463600E+00  8.287463600E+00  0.000000000E+00  0.00000E+00  9.000E+00
      21    -1     0     0   502   511  0.000000000E+00  0.000000000E+00 -1.129487643E+03  1.129487643E+03  0.000000000E+00  0.00000E+00  9.000E+00
      25     1     1     2     0     0 -8.598790159E+00 -1.163292402E+01 -6.440961817E+02  6.562719684E+02  1.249949643E+02  0.00000E+00  9.000E+00
       5     1     1     2   501     0  2.450214227E-01 -2.256920845E+00 -2.145631826E+00  5.685064919E+00  4.750000000E+00  0.00000E+00  9.000E+00
      -5     1     1     2     0   503  3.022691037E+00 -5.287253295E+00 -8.433981906E+01  8.469273456E+01  4.750000000E+00  0.00000E+00  9.000E+00
      21     1     1     2   503   511  5.331077699E+00  1.917709816E+01 -3.906185466E+02  3.911253385E+02  0.000000000E+00  0.00000E+00  9.000E+00
#rwgt            1           9   3.0928361291115886E-005           7     2945294           0
</event>
<event>
      6   9999  3.45752E-01  2.13459E+01 -1.00000E+00  1.58081E-01
      21    -1     0     0   512   502  0.000000000E+00  0.000000000E+00  7.229724877E+01  7.229724877E+01  0.000000000E+00  0.00000E+00  9.000E+00
      21    -1     0     0   502   503  0.000000000E+00  0.000000000E+00 -1.502524274E+03  1.502524274E+03  0.000000000E+00  0.00000E+00  9.000E+00
      25     1     1     2     0     0 -1.074802161E+01  1.079715284E-02 -1.373731193E+03  1.379445512E+03  1.249680445E+02  0.00000E+00  9.000E+00
       5     1     1     2   501     0  2.536487785E+01  4.215748165E+00  6.307639516E+01  6.828135680E+01  4.750000000E+00  0.00000E+00  9.000E+00
      -5     1     1     2     0   503  6.410973808E+00 -5.556221677E-01 -9.139823477E+01  9.174752923E+01  4.750000000E+00  0.00000E+00  9.000E+00
      21     1     1     2   512   501 -2.102783005E+01 -3.670923150E+00 -2.817399292E+01  3.534712422E+01  4.768371582E-07  0.00000E+00  9.000E+00
#rwgt            1           9   6.1123066146924953E-004           7     2947232           0
</event>
<event>
      6   9999  3.45752E-01  1.03084E+02 -1.00000E+00  1.19877E-01
      21    -1     0     0   501   502  0.000000000E+00  0.000000000E+00  1.674229051E+03  1.674229051E+03  0.000000000E+00  0.00000E+00  9.000E+00
      21    -1     0     0   502   511  0.000000000E+00  0.000000000E+00 -1.211542058E+02  1.211542058E+02  0.000000000E+00  0.00000E+00  9.000E+00
      25     1     1     2     0     0  2.246229127E+02 -2.612286755E+02  1.202500531E+03  1.257110952E+03  1.249981719E+02  0.00000E+00  9.000E+00
       5     1     1     2   501     0  2.407000505E+00 -2.002508829E+00  1.061381909E+02  1.062905535E+02  4.750000000E+00  0.00000E+00  9.000E+00
      -5     1     1     2     0   503 -1.760108300E+02  1.736575461E+02  2.063508503E+02  3.220869316E+02  4.750000000E+00  0.00000E+00  9.000E+00
      21     1     1     2   503   511 -5.101908320E+01  8.957363820E+01  3.808527272E+01  1.098948202E+02  1.719260824E-06  0.00000E+00  9.000E+00
#rwgt            1           9   4.7176396662497417E-004           7     2949771           0
</event>
<event>
      6   9999  3.45752E-01  3.12089E+01 -1.00000E+00  1.46737E-01
      21    -1     0     0   501   502  0.000000000E+00  0.000000000E+00  1.799310794E+02  1.799310794E+02  0.000000000E+00  0.00000E+00  9.000E+00
      21    -1     0     0   512   503  0.000000000E+00  0.000000000E+00 -7.430715614E+02  7.430715614E+02  0.000000000E+00  0.00000E+00  9.000E+00
      25     1     1     2     0     0  2.920291011E+00 -2.754639817E+01 -6.991381286E+01  1.458822352E+02  1.250054125E+02  0.00000E+00  9.000E+00
       5     1     1     2   501     0  1.011821590E+01 -2.477370771E-01  7.609513008E+01  7.691209911E+01  4.750000000E+00  0.00000E+00  9.000E+00
      -5     1     1     2     0   503  1.817033733E+01  2.773315388E+01  6.074599458E+01  6.936805706E+01  4.750000000E+00  0.00000E+00  9.000E+00
      21     1     1     2   512   502 -3.120884424E+01  6.098136785E-02 -6.300677938E+02  6.308402495E+02  7.629394531E-06  0.00000E+00  9.000E+00
#rwgt            1           9   5.0023230483419551E-004           7     2951270           0
</event>
<event>
      6   9999  3.45752E-01  6.29073E+00 -1.00000E+00  2.11235E-01
      21    -1     0     0   501   502  0.000000000E+00  0.000000000E+00  1.601502025E+03  1.601502025E+03  0.000000000E+00  0.00000E+00  9.000E+00
      21    -1     0     0   502   511  0.000000000E+00  0.000000000E+00 -1.799489853E+02  1.799489853E+02  0.000000000E+00  0.00000E+00  9.000E+00
      25     1     1     2     0     0  2.227046533E+00 -6.904386782E+00  1.443283442E+03  1.448704171E+03  1.249962042E+02  0.00000E+00  9.000E+00
       5     1     1     2   501     0  7.356713924E-02 -1.988601768E-01  1.050607237E+02  1.051682610E+02  4.750000000E+00  0.00000E+00  9.000E+00
      -5     1     1     2     0   503  1.568270417E+00  2.142906029E+00  5.019076704E+01  5.048491968E+01  4.750000000E+00  0.00000E+00  9.000E+00
      21     1     1     2   503   511 -3.868884090E+00  4.960340930E+00 -1.769818933E+02  1.770936582E+02  5.046370146E-06  0.00000E+00  9.000E+00
#rwgt            1           9   6.8604932366669756E-003           7     2952530           0
</event>
<event>
      6   9999 -3.45752E-01  1.57476E+01 -1.00000E+00  1.68561E-01
      21    -1     0     0   512   502  0.000000000E+00  0.000000000E+00  3.370752546E+01  3.370752546E+01  0.000000000E+00  0.00000E+00  9.000E+00
      21    -1     0     0   502   503  0.000000000E+00  0.000000000E+00 -3.397737209E+02  3.397737209E+02  0.000000000E+00  0.00000E+00  9.000E+00
      25     1     1     2     0     0  2.682220700E+01 -1.361364003E+01 -2.619181119E+02  2.917712205E+02  1.249983432E+02  0.00000E+00  9.000E+00
       5     1     1     2   501     0 -1.387277150E+00 -1.638260118E+00  9.828145626E+00  1.112489913E+01  4.750000000E+00  0.00000E+00  9.000E+00
      -5     1     1     2     0   503 -2.588084625E+01 -4.894265093E-01 -4.584544201E+01  5.286231922E+01  4.750000000E+00  0.00000E+00  9.000E+00
      21     1     1     2   512   501  4.459164027E-01  1.574132666E+01 -8.130787210E+00  1.772280754E+01  4.298152060E-07  0.00000E+00  9.000E+00
#rwgt            1           9  -1.7210172264676707E-002           7     2955554           0
</event>
<event>
      6   9999  3.45752E-01  2.62314E+00 -1.00000E+00  2.93105E-01
      21    -1     0     0   501   511  0.000000000E+00  0.000000000E+00  1.260601243E+02  1.260601243E+02  0.000000000E+00  0.00000E+00  9.000E+00
      21    -1     0     0   502   503  0.000000000E+00  0.000000000E+00 -1.094359159E+03  1.094359159E+03  0.000000000E+00  0.00000E+00  9.000E+00
      25     1     1     2     0     0 -1.803554530E+00 -6.027217112E+00 -3.961359688E+02  4.154400873E+02  1.250087205E+02  0.00000E+00  9.000E+00
       5     1     1     2   501     0  4.624301478E+00  3.371893774E-01  1.515291995E+01  1.654301495E+01  4.750000000E+00  0.00000E+00  9.000E+00
      -5     1     1     2     0   503 -5.321494550E+00  4.898107536E+00 -6.878317603E+02  6.878861844E+02  4.750000000E+00  0.00000E+00  9.000E+00
      21     1     1     2   502   511  2.500747603E+00  7.919201984E-01  1.005157745E+02  1.005499966E+02  3.303624740E-06  0.00000E+00  9.000E+00
#rwgt            1           9  0.43531977851734399                7     2957713           0
</event>
<event>
      6   9999  3.45752E-01  1.15560E+01 -1.00000E+00  1.80812E-01
      21    -1     0     0   501   512  0.000000000E+00  0.000000000E+00  3.427877211E+01  3.427877211E+01  0.000000000E+00  0.00000E+00  9.000E+00
      21    -1     0     0   502   503  0.000000000E+00  0.000000000E+00 -9.018009117E+02  9.018009117E+02  0.000000000E+00  0.00000E+00  9.000E+00
      25     1     1     2     0     0  1.286824348E+01  6.474245683E+00 -8.704797753E+02  8.795242993E+02  1.249817843E+02  0.00000E+00  9.000E+00
       5     1     1     2   501     0 -5.342280522E-02 -1.403931204E+00  1.435047836E+01  1.518132425E+01  4.750000000E+00  0.00000E+00  9.000E+00
      -5     1     1     2     0   503 -2.238791471E+00 -4.131173611E-01 -2.382512390E+01  2.440044840E+01  4.750000000E+00  0.00000E+00  9.000E+00
      21     1     1     2   502   512 -1.057602921E+01 -4.657197118E+00  1.243228129E+01  1.697361178E+01  7.539457465E-07  0.00000E+00  9.000E+00
#rwgt            1           9   3.4013149053590955E-004           7     2966274           0
</event>
<event>
      6   9999  3.45752E-01  1.08280E+01 -1.00000E+00  1.83627E-01
      21    -1     0     0   501   502  0.000000000E+00  0.000000000E+00  2.796035658E+01  2.796035658E+01  0.000000000E+00  0.00000E+00  9.000E+00
       2    -1     0     0   502     0  0.000000000E+00  0.000000000E+00 -2.181670086E+03  2.181670086E+03  0.000000000E+00  0.00000E+00  9.000E+00
      25     1     1     2     0     0 -3.143210103E+01  3.003351451E+01 -1.671370036E+02  2.131892529E+02  1.249995625E+02  0.00000E+00  9.000E+00
       5     1     1     2   501     0 -1.064944643E+00 -2.174656210E-02  3.281359519E+00  5.870638832E+00  4.750000000E+00  0.00000E+00  9.000E+00
      -5     1     1     2     0   503  2.242264682E+01 -2.604293197E+01 -9.083513243E+02  9.090135864E+02  4.750000000E+00  0.00000E+00  9.000E+00
       2     1     1     2   503     0  1.007439885E+01 -3.968835981E+00 -1.081502761E+03  1.081556964E+03  1.525878906E-05  0.00000E+00  9.000E+00
#rwgt            1           9   3.8071543619578054E-003           7     2969040           0
</event>
<event>
      6   9999  3.45752E-01  1.76263E+01 -1.00000E+00  1.64515E-01
      21    -1     0     0   501   502  0.000000000E+00  0.000000000E+00  7.557985663E+00  7.557985663E+00  0.000000000E+00  0.00000E+00  9.000E+00
      21    -1     0     0   502   511  0.000000000E+00  0.000000000E+00 -2.035541673E+03  2.035541673E+03  0.000000000E+00  0.00000E+00  9.000E+00
      25     1     1     2     0     0  4.634945666E+01 -2.891278795E+00 -1.365884357E+03  1.372378122E+03  1.250000015E+02  0.00000E+00  9.000E+00
       5     1     1     2   501     0  2.090665095E+00 -8.104813194E-02  1.041043320E+00  5.293743527E+00  4.750000000E+00  0.00000E+00  9.000E+00
      -5     1     1     2     0   503 -3.501813430E+01 -8.452968735E+00 -5.057241182E+02  5.070277790E+02  4.750000000E+00  0.00000E+00  9.000E+00
      21     1     1     2   503   511 -1.342198745E+01  1.142529566E+01 -1.574162552E+02  1.584000143E+02  1.907348633E-06  0.00000E+00  9.000E+00
#rwgt            1           9   5.1948214656205246E-004           7     2971916           0
</event>
<event>
      6   9999  3.45752E-01  6.95429E+00 -1.00000E+00  2.05502E-01
      21    -1     0     0   501   512  0.000000000E+00  0.000000000E+00  2.017277661E+01  2.017277661E+01  0.000000000E+00  0.00000E+00  9.000E+00
      21    -1     0     0   502   503  0.000000000E+00  0.000000000E+00 -1.008691309E+03  1.008691309E+03  0.000000000E+00  0.00000E+00  9.000E+00
      25     1     1     2     0     0  1.722321465E+01 -1.777143157E+01 -8.038993550E+02  8.139348437E+02  1.249931759E+02  0.00000E+00  9.000E+00
       5     1     1     2   501     0 -3.312639353E+00  8.337250460E-01  1.272557891E+01  1.400612493E+01  4.750000000E+00  0.00000E+00  9.000E+00
      -5     1     1     2     0   503 -9.356826337E+00  2.219371140E+01 -1.860245702E+02  1.876374543E+02  4.750000000E+00  0.00000E+00  9.000E+00
      21     1     1     2   502   512 -4.553748956E+00 -5.256004868E+00 -1.132018565E+01  1.328566219E+01  2.384185791E-07  0.00000E+00  9.000E+00
#rwgt            1           9   4.2867277214222505E-005           7     2973572           0
</event>
<event>
      6   9999  3.45752E-01  1.28858E+01 -1.00000E+00  1.76295E-01
      21    -1     0     0   502   511  0.000000000E+00  0.000000000E+00  8.478252041E+01  8.478252041E+01  0.000000000E+00  0.00000E+00  9.000E+00
      21    -1     0     0   501   502  0.000000000E+00  0.000000000E+00 -1.156813599E+03  1.156813599E+03  0.000000000E+00  0.00000E+00  9.000E+00
      25     1     1     2     0     0  4.968824513E+01  1.325301452E+02 -4.180378201E+02  4.587093929E+02  1.250021080E+02  0.00000E+00  9.000E+00
       5     1     1     2   501     0  6.007333198E+00 -5.053570280E-01 -3.919581825E+02  3.920333185E+02  4.750000000E+00  0.00000E+00  9.000E+00
      -5     1     1     2     0   503 -4.734102992E+01 -1.418352843E+02 -3.083789433E+02  3.427514495E+02  4.750000000E+00  0.00000E+00  9.000E+00
      21     1     1     2   503   511 -8.354548409E+00  9.810496149E+00  4.634386767E+01  4.810195822E+01  2.132480600E-06  0.00000E+00  9.000E+00
#rwgt            1           9   27.023540444605104                7     2977503           0
</event>
<event>
      6   9999 -3.45752E-01  5.52631E+00 -1.00000E+00  2.19157E-01
      21    -1     0     0   502   512  0.000000000E+00  0.000000000E+00  1.858992616E+01  1.858992616E+01  0.000000000E+00  0.00000E+00  9.000E+00
      21    -1     0     0   501   502  0.000000000E+00  0.000000000E+00 -1.047263018E+03  1.047263018E+03  0.000000000E+00  0.00000E+00  9.000E+00
      25     1     1     2     0     0  2.248180771E+01  1.197647989E+01 -1.017715960E+03  1.025680029E+03  1.249995128E+02  0.00000E+00  9.000E+00
       5     1     1     2   501     0 -7.061286701E-01  1.965715643E-01  8.178630258E-01  4.875311068E+00  4.750000000E+00  0.00000E+00  9.000E+00
      -5     1     1     2     0   503 -1.679130135E+01 -9.786401466E+00  2.336045267E+00  2.014301522E+01  4.750000000E+00  0.00000E+00  9.000E+00
      21     1     1     2   503   512 -4.984377688E+00 -2.386649984E+00 -1.411103954E+01  1.515458861E+01  2.384185791E-07  0.00000E+00  9.000E+00
#rwgt            1           9  -8.7774290309651449E-004           7     2980867           0
</event>
<event>
      6   9999 -3.45752E-01  7.41275E+00 -1.00000E+00  2.02018E-01
       2    -1     0     0   501     0  0.000000000E+00  0.000000000E+00  4.590305821E+02  4.590305821E+02  0.000000000E+00  0.00000E+00  9.000E+00
      21    -1     0     0   502   503  0.000000000E+00  0.000000000E+00 -8.781932397E+02  8.781932397E+02  0.000000000E+00  0.00000E+00  9.000E+00
      25     1     1     2     0     0 -3.944609932E+00  4.923082905E-01 -8.317464478E+02  8.410966888E+02  1.250027363E+02  0.00000E+00  9.000E+00
       5     1     1     2   501     0 -4.009838340E+00 -6.333211625E-01  7.909318891E+00  1.007966887E+01  4.750000000E+00  0.00000E+00  9.000E+00
      -5     1     1     2     0   503  1.309776850E+00  3.426916397E+00 -4.043413058E+01  4.087714137E+01  4.750000000E+00  0.00000E+00  9.000E+00
       2     1     1     2   502     0  6.644671422E+00 -3.285903525E+00  4.451086019E+02  4.451703228E+02  9.344061824E-06  0.00000E+00  9.000E+00
#rwgt            1           9  -9.6516094601383732E-004           7     2985904           0
</event>
<event>
      6   9999  3.45752E-01  1.07965E+01 -1.00000E+00  1.83755E-01
      21    -1     0     0   501   502  0.000000000E+00  0.000000000E+00  6.172505125E+02  6.172505125E+02  0.000000000E+00  0.00000E+00  9.000E+00
      21    -1     0     0   502   511  0.000000000E+00  0.000000000E+00 -1.370021570E+02  1.370021570E+02  0.000000000E+00  0.00000E+00  9.000E+00
      25     1     1     2     0     0 -5.453882742E+01 -2.286141163E+01 -7.226788817E+01  1.560322851E+02  1.250051939E+02  0.00000E+00  9.000E+00
       5     1     1     2   501     0  1.143324176E+01 -1.315910054E+01  5.255236398E+02  5.258341368E+02  4.750000000E+00  0.00000E+00  9.000E+00
      -5     1     1     2     0   503  4.919105515E+01  2.710249320E+01  2.297776297E+01  6.086743904E+01  4.750000000E+00  0.00000E+00  9.000E+00
      21     1     1     2   503   511 -6.085469491E+00  8.918018974E+00  4.014840845E+00  1.151880846E+01  1.192092896E-07  0.00000E+00  9.000E+00
#rwgt            1           9   3.8809759797357285E-004           7     2989254           0
</event>
<event>
      6   9999  3.45752E-01  1.24857E+01 -1.00000E+00  1.77579E-01
      21    -1     0     0   502   503  0.000000000E+00  0.000000000E+00  1.530793224E+01  1.530793224E+01  0.000000000E+00  0.00000E+00  9.000E+00
      21    -1     0     0   512   502  0.000000000E+00  0.000000000E+00 -1.071231340E+03  1.071231340E+03  0.000000000E+00  0.00000E+00  9.000E+00
      25     1     1     2     0     0 -5.744124810E+01  3.350414816E+01 -4.911279084E+02  5.111299192E+02  1.250005878E+02  0.00000E+00  9.000E+00
       5     1     1     2   501     0 -1.119549391E+01 -1.452473935E+01 -8.747943882E+01  8.950710504E+01  4.750000000E+00  0.00000E+00  9.000E+00
      -5     1     1     2     0   503  7.288811232E+01 -7.239753867E+00 -3.303233481E+02  3.383802118E+02  4.750000000E+00  0.00000E+00  9.000E+00
      21     1     1     2   512   501 -4.251370306E+00 -1.173965494E+01 -1.469927121E+02  1.475220358E+02  3.303624740E-06  0.00000E+00  9.000E+00
#rwgt            1           9   9.1657346751329854E-004           7     2993345           0
</event>
<event>
      6   9999  3.45752E-01  1.18554E+01 -1.00000E+00  1.79730E-01
      21    -1     0     0   501   511  0.000000000E+00  0.000000000E+00  2.628411873E+01  2.628411873E+01  0.000000000E+00  0.00000E+00  9.000E+00
      21    -1     0     0   502   503  0.000000000E+00  0.000000000E+00 -1.078656922E+03  1.078656922E+03  0.000000000E+00  0.00000E+00  9.000E+00
      25     1     1     2     0     0  1.128430350E+01  1.544050187E+01 -7.849742229E+02  7.950946659E+02  1.250010104E+02  0.00000E+00  9.000E+00
       5     1     1     2   501     0  2.003867194E+00 -1.930616819E+00  1.838410095E+01  1.919063398E+01  4.750000000E+00  0.00000E+00  9.000E+00
      -5     1     1     2     0   503 -2.447358822E+01 -1.743888784E+01 -2.649085503E+02  2.666499088E+02  4.750000000E+00  0.00000E+00  9.000E+00
      21     1     1     2   502   511  1.118541753E+01  3.929002787E+00 -2.087413151E+01  2.400583251E+01  2.384185791E-07  0.00000E+00  9.000E+00
#rwgt            1           9   2.1471059938630018E-004           7     2996370           0
</event>
<event>
      6   9999 -3.45752E-01  6.66314E+00 -1.00000E+00  2.07907E-01
      21    -1     0     0   512   502  0.000000000E+00  0.000000000E+00  3.379998067E+01  3.379998067E+01  0.000000000E+00  0.00000E+00  9.000E+00
      21    -1     0     0   502   503  0.000000000E+00  0.000000000E+00 -1.131128208E+03  1.131128208E+03  0.000000000E+00  0.00000E+00  9.000E+00
      25     1     1     2     0     0 -4.141482173E+00  9.573395818E+01 -5.776909103E+02  5.987776662E+02  1.250030523E+02  0.00000E+00  9.000E+00
       5     1     1     2   501     0  1.666868258E+00  1.714297031E+00  1.437069482E+01  1.532307520E+01  4.750000000E+00  0.00000E+00  9.000E+00
      -5     1     1     2     0   503  7.393338892E+00 -1.019430911E+02 -5.344433696E+02  5.441501017E+02  4.750000000E+00  0.00000E+00  9.000E+00
      21     1     1     2   512   501 -4.918724977E+00  4.494835873E+00  4.353580015E-01  6.677345394E+00  2.851733447E-07  0.00000E+00  9.000E+00
#rwgt            1           9  -1.0664194463100690E-004           7     2999001           0
</event>
<event>
      6   9999  3.45752E-01  1.34348E+01 -1.00000E+00  1.74626E-01
      21    -1     0     0   511   502  0.000000000E+00  0.000000000E+00  6.748813556E+01  6.748813556E+01  0.000000000E+00  0.00000E+00  9.000E+00
      21    -1     0     0   502   503  0.000000000E+00  0.000000000E+00 -1.369725153E+03  1.369725153E+03  0.000000000E+00  0.00000E+00  9.000E+00
      25     1     1     2     0     0  2.180065832E+02  3.376987750E+01 -9.400569106E+02  9.736526003E+02  1.250004636E+02  0.00000E+00  9.000E+00
       5     1     1     2   501     0  4.680112573E+00 -6.974919322E-02  1.905890321E+01  2.019189466E+01  4.750000000E+00  0.00000E+00  9.000E+00
      -5     1     1     2     0   503 -2.095844741E+02 -3.667107754E+01 -3.555072592E+02  4.143409146E+02  4.750000000E+00  0.00000E+00  9.000E+00
      21     1     1     2   511   501 -1.310222172E+01  2.970949234E+00 -2.573175039E+01  2.902787852E+01  3.371747881E-07  0.00000E+00  9.000E+00
#rwgt            1           9   1.5868461792443745E-004           7     3003245           0
</event>
<event>
      6   9999  3.45752E-01  1.25978E+01 -1.00000E+00  1.77213E-01
      21    -1     0     0   512   502  0.000000000E+00  0.000000000E+00  2.224875893E+01  2.224875893E+01  0.000000000E+00  0.00000E+00  9.000E+00
      21    -1     0     0   502   503  0.000000000E+00  0.000000000E+00 -9.589242180E+02  9.589242180E+02  0.000000000E+00  0.00000E+00  9.000E+00
      25     1     1     2     0     0  5.958908221E+00 -6.199191456E+00 -8.348485131E+02  8.442021138E+02  1.250249194E+02  0.00000E+00  9.000E+00
       5     1     1     2   501     0 -4.007646377E+00 -1.869481357E+00  1.444812898E+01  1.583878534E+01  4.750000000E+00  0.00000E+00  9.000E+00
      -5     1     1     2     0   503 -4.970217388E+00 -4.162029828E+00 -1.010577040E+02  1.013767606E+02  4.750000000E+00  0.00000E+00  9.000E+00
      21     1     1     2   512   501  3.018955544E+00  1.223070264E+01 -1.521737090E+01  1.975531717E+01  4.460403188E-07  0.00000E+00  9.000E+00
#rwgt            1           9   1.2227058928467964E-003           7     3006559           0
</event>
<event>
      6   9999  3.45752E-01  7.94679E+00 -1.00000E+00  1.98359E-01
      21    -1     0     0   501   502  0.000000000E+00  0.000000000E+00  9.276651031E+00  9.276651031E+00  0.000000000E+00  0.00000E+00  9.000E+00
      21    -1     0     0   511   503  0.000000000E+00  0.000000000E+00 -1.126722647E+03  1.126722647E+03  0.000000000E+00  0.00000E+00  9.000E+00
      25     1     1     2     0     0  6.812179275E+00  5.736870474E+00 -9.434257474E+02  9.517119763E+02  1.249969100E+02  0.00000E+00  9.000E+00
       5     1     1     2   501     0  5.740395987E-01 -2.077729545E-01  1.576366739E+00  5.041837280E+00  4.750000000E+00  0.00000E+00  9.000E+00
      -5     1     1     2     0   503 -1.301566599E+01 -1.113808762E+01 -4.466240780E+01  4.807034146E+01  4.750000000E+00  0.00000E+00  9.000E+00
      21     1     1     2   511   502  5.629447117E+00  5.608990101E+00 -1.309342079E+02  1.311751434E+02  1.907348633E-06  0.00000E+00  9.000E+00
#rwgt            1           9   1.8052660450595354E-004           7     3008696           0
</event>
<event>
      6   9999  3.45752E-01  8.92321E+00 -1.00000E+00  1.92561E-01
      21    -1     0     0   512   502  0.000000000E+00  0.000000000E+00  3.249406118E+01  3.249406118E+01  0.000000000E+00  0.00000E+00  9.000E+00
      21    -1     0     0   502   503  0.000000000E+00  0.000000000E+00 -9.597924665E+02  9.597924665E+02  0.000000000E+00  0.00000E+00  9.000E+00
      25     1     1     2     0     0 -7.576864236E+00  2.117353812E+01 -7.612739282E+02  7.718056794E+02  1.250611267E+02  0.00000E+00  9.000E+00
       5     1     1     2   501     0 -8.802141969E+00  1.170150193E+00  1.540393197E+01  1.840354789E+01  4.750000000E+00  0.00000E+00  9.000E+00
      -5     1     1     2     0   503  7.679864202E+00 -2.035657523E+01 -1.890409182E+02  1.903481067E+02  4.750000000E+00  0.00000E+00  9.000E+00
      21     1     1     2   512   501  8.699142003E+00 -1.987113083E+00  7.612509108E+00  1.172919370E+01  4.768371582E-07  0.00000E+00  9.000E+00
#rwgt            1           9   5.0563519192023405E-002           7     3011838           0
</event>
<event>
      6   9999  3.45752E-01  5.62887E+01 -1.00000E+00  1.32091E-01
      21    -1     0     0   511   502  0.000000000E+00  0.000000000E+00  6.151963956E+01  6.151963956E+01  0.000000000E+00  0.00000E+00  9.000E+00
      21    -1     0     0   502   503  0.000000000E+00  0.000000000E+00 -1.447530087E+03  1.447530087E+03  0.000000000E+00  0.00000E+00  9.000E+00
      25     1     1     2     0     0 -1.288153141E+02  2.310295644E+01 -4.675759901E+02  5.013777370E+02  1.250007876E+02  0.00000E+00  9.000E+00
       5     1     1     2   501     0  1.242938095E+01 -1.003653669E+00  2.597409027E+01  2.920124478E+01  4.750000000E+00  0.00000E+00  9.000E+00
      -5     1     1     2     0   503  1.676408571E+02  1.167563506E+00 -8.651623790E+02  8.812680209E+02  4.750000000E+00  0.00000E+00  9.000E+00
      21     1     1     2   511   501 -5.125492390E+01 -2.326686627E+01 -7.924616882E+01  9.720272405E+01  1.651812370E-06  0.00000E+00  9.000E+00
#rwgt            1           9   5.6699727728705612E-005           7     3015246           0
</event>
<event>
      6   9999  3.45752E-01  1.36575E+01 -1.00000E+00  1.73978E-01
      21    -1     0     0   501   502  0.000000000E+00  0.000000000E+00  3.037978511E+03  3.037978511E+03  0.000000000E+00  0.00000E+00  9.000E+00
      -2    -1     0     0     0   503  0.000000000E+00  0.000000000E+00 -1.122906895E+03  1.122906895E+03  0.000000000E+00  0.00000E+00  9.000E+00
      25     1     1     2     0     0  1.421920130E+02  3.308981026E+01  1.069041338E+03  1.086181717E+03  1.250113455E+02  0.00000E+00  9.000E+00
       5     1     1     2   501     0 -7.674441223E+00 -3.311983234E+00  1.662541154E+03  1.662568951E+03  4.750000000E+00  0.00000E+00  9.000E+00
      -5     1     1     2     0   503 -1.436982342E+02 -1.966631353E+01  2.800891930E+02  3.154496235E+02  4.750000000E+00  0.00000E+00  9.000E+00
      -2     1     1     2     0   502  9.180662457E+00 -1.011151350E+01 -1.096600069E+03  1.096685114E+03  2.157918644E-05  0.00000E+00  9.000E+00
#rwgt            1           9   6.7782145307510493E-003           7     3016325           0
</event>
<event>
      6   9999  3.45752E-01  1.71887E+00 -1.00000E+00  3.60609E-01
      21    -1     0     0   501   502  0.000000000E+00  0.000000000E+00  8.754464342E+00  8.754464342E+00  0.000000000E+00  0.00000E+00  9.000E+00
       1    -1     0     0   502     0  0.000000000E+00  0.000000000E+00 -1.178143234E+03  1.178143234E+03  0.000000000E+00  0.00000E+00  9.000E+00
      25     1     1     2     0     0  1.038756369E+00 -1.275849756E+00 -5.017878724E+02  5.171256553E+02  1.250006706E+02  0.00000E+00  9.000E+00
       5     1     1     2   501     0  1.177339993E-01  2.935807838E-01 -6.274994177E+00  7.876427039E+00  4.750000000E+00  0.00000E+00  9.000E+00
      -5     1     1     2     0   503  4.843945697E-01  4.704115354E-01 -2.000007973E+01  2.056748925E+01  4.750000000E+00  0.00000E+00  9.000E+00
       1     1     1     2   503     0 -1.640884938E+00  5.118574373E-01 -6.413258237E+02  6.413281272E+02  7.629394531E-06  0.00000E+00  9.000E+00
#rwgt            1           9   2.2097754305110489E-003           7     3020302           0
</event>
<event>
      6   9999 -3.45752E-01  2.79465E+00 -1.00000E+00  2.85221E-01
      21    -1     0     0   511   502  0.000000000E+00  0.000000000E+00  4.207624450E+00  4.207624450E+00  0.000000000E+00  0.00000E+00  9.000E+00
      21    -1     0     0   502   503  0.000000000E+00  0.000000000E+00 -4.258592871E+03  4.258592871E+03  0.000000000E+00  0.00000E+00  9.000E+00
      25     1     1     2     0     0  2.050831802E+00  1.712046163E+01 -2.401907439E+03  2.405220017E+03  1.250066743E+02  0.00000E+00  9.000E+00
       5     1     1     2   501     0 -4.735428004E-01 -4.658152925E-01 -1.448602849E+01  1.525938230E+01  4.750000000E+00  0.00000E+00  9.000E+00
      -5     1     1     2     0   503  1.153038122E+00 -1.605851690E+01 -1.839199896E+03  1.839276495E+03  4.750000000E+00  0.00000E+00  9.000E+00
      21     1     1     2   511   501 -2.730327123E+00 -5.961294395E-01  1.208116052E+00  3.044601929E+00  8.746105785E-07  0.00000E+00  9.000E+00
#rwgt            1           9  -3.4373795685293538E-003           7     3028118           0
</event>
<event>
      6   9999  3.45752E-01  5.24847E+01 -1.00000E+00  1.33670E-01
      21    -1     0     0   501   502  0.000000000E+00  0.000000000E+00  3.212419297E+01  3.212419297E+01  0.000000000E+00  0.00000E+00  9.000E+00
      21    -1     0     0   512   503  0.000000000E+00  0.000000000E+00 -1.335345681E+03  1.335345681E+03  0.000000000E+00  0.00000E+00  9.000E+00
      25     1     1     2     0     0 -1.260644750E+02 -7.906499011E+00 -6.083027840E+02  6.337285208E+02  1.249991858E+02  0.00000E+00  9.000E+00
       5     1     1     2   501     0 -9.528690132E+00  5.372304201E+00  1.006955502E+01  1.560820382E+01  4.750000000E+00  0.00000E+00  9.000E+00
      -5     1     1     2     0   503  8.338586797E+01  7.923510937E+00 -4.596536052E+02  4.672472411E+02  4.750000000E+00  0.00000E+00  9.000E+00
      21     1     1     2   512   502  5.220729721E+01 -5.389316127E+00 -2.453346539E+02  2.508859084E+02  0.000000000E+00  0.00000E+00  9.000E+00
#rwgt            1           9   2.3779071015765225E-002           7     3034290           0
</event>
<event>
      6   9999  3.45752E-01  1.34377E+01 -1.00000E+00  1.74618E-01
      21    -1     0     0   511   502  0.000000000E+00  0.000000000E+00  9.940069764E+02  9.940069764E+02  0.000000000E+00  0.00000E+00  9.000E+00
      21    -1     0     0   502   503  0.000000000E+00  0.000000000E+00 -4.776921612E+01  4.776921612E+01  0.000000000E+00  0.00000E+00  9.000E+00
      25     1     1     2     0     0  9.655182571E+01  2.903060260E+01  1.233243738E+02  2.024830636E+02  1.250018358E+02  0.00000E+00  9.000E+00
       5     1     1     2   501     0  7.433769121E-01  3.743837675E+00  3.238415713E+02  3.238988959E+02  4.750000000E+00  0.00000E+00  9.000E+00
      -5     1     1     2     0   503 -1.089225300E+02 -2.603819998E+01  3.997784275E+02  4.151956876E+02  4.750000000E+00  0.00000E+00  9.000E+00
      21     1     1     2   511   501  1.162732734E+01 -6.736240289E+00  9.929338765E+01  1.001985454E+02  1.348699152E-06  0.00000E+00  9.000E+00
#rwgt            1           9   1.7476235416262319E-002           7     3035406           0
</event>
<event>
      6   9999  3.45752E-01  4.71587E+00 -1.00000E+00  2.33924E-01
      21    -1     0     0   512   502  0.000000000E+00  0.000000000E+00  2.000507319E+00  2.000507319E+00  0.000000000E+00  0.00000E+00  9.000E+00
      21    -1     0     0   502   503  0.000000000E+00  0.000000000E+00 -5.153002100E+03  5.153002100E+03  0.000000000E+00  0.00000E+00  9.000E+00
      25     1     1     2     0     0  3.933536809E+01 -2.584800809E+01 -3.595981067E+03  3.598460881E+03  1.250019691E+02  0.00000E+00  9.000E+00
       5     1     1     2   501     0  5.279779834E-01 -2.041375958E-01 -2.876117943E+01  2.915627506E+01  4.750000000E+00  0.00000E+00  9.000E+00
      -5     1     1     2     0   503 -3.592356843E+01  2.864398041E+01 -1.499668064E+03  1.500379233E+03  4.750000000E+00  0.00000E+00  9.000E+00
      21     1     1     2   512   501 -3.939777641E+00 -2.591834720E+00 -2.659128318E+01  2.700621774E+01  9.536743164E-07  0.00000E+00  9.000E+00
#rwgt            1           9   2.3987725841620114E-004           7     3038702           0
</event>
<event>
      6   9999  3.45752E-01  6.64712E+00 -1.00000E+00  2.08044E-01
      21    -1     0     0   501   511  0.000000000E+00  0.000000000E+00  4.402821296E+01  4.402821296E+01  0.000000000E+00  0.00000E+00  9.000E+00
      21    -1     0     0   502   503  0.000000000E+00  0.000000000E+00 -1.174131231E+03  1.174131231E+03  0.000000000E+00  0.00000E+00  9.000E+00
      25     1     1     2     0     0  3.753846980E+00  2.282686910E+01 -4.792588350E+02  4.958308031E+02  1.249959884E+02  0.00000E+00  9.000E+00
       5     1     1     2   501     0 -2.634441417E+00 -7.931820494E-01  2.879302703E+01  2.931160734E+01  4.750000000E+00  0.00000E+00  9.000E+00
      -5     1     1     2     0   503 -7.444514750E+00 -2.407749188E+01 -6.843743130E+02  6.848546629E+02  4.750000000E+00  0.00000E+00  9.000E+00
      21     1     1     2   502   511  6.325109186E+00  2.043804826E+00  4.737103146E+00  8.162370403E+00  2.064765462E-07  0.00000E+00  9.000E+00
#rwgt            1           9   7.2866208225788175E-004           7     3042730           0
</event>
<event>
      6   9999  3.45752E-01  1.46490E+01 -1.00000E+00  1.71267E-01
      21    -1     0     0   501   502  0.000000000E+00  0.000000000E+00  1.192021185E+02  1.192021185E+02  0.000000000E+00  0.00000E+00  9.000E+00
      21    -1     0     0   502   512  0.000000000E+00  0.000000000E+00 -3.132566862E+02  3.132566862E+02  0.000000000E+00  0.00000E+00  9.000E+00
      25     1     1     2     0     0 -4.589192626E+01 -5.053696982E+00 -1.428707078E+02  1.953663419E+02  1.249974386E+02  0.00000E+00  9.000E+00
       5     1     1     2   501     0  8.356444915E+00  3.423243054E+00  7.213981423E+01  7.285783460E+01  4.750000000E+00  0.00000E+00  9.000E+00
      -5     1     1     2     0   503  4.931782026E+01  1.033500333E+01 -1.208464493E+01  5.203518840E+01  4.750000000E+00  0.00000E+00  9.000E+00
      21     1     1     2   503   512 -1.178233892E+01 -8.704549401E+00 -1.112390292E+02  1.121994398E+02  1.907348633E-06  0.00000E+00  9.000E+00
#rwgt            1           9  0.84089057480200446                7     3047637           0
</event>
<event>
      6   9999  3.45752E-01  2.29547E+01 -1.00000E+00  1.55773E-01
      21    -1     0     0   501   502  0.000000000E+00  0.000000000E+00  5.014267751E+02  5.014267751E+02  0.000000000E+00  0.00000E+00  9.000E+00
      21    -1     0     0   511   503  0.000000000E+00  0.000000000E+00 -1.900632213E+02  1.900632213E+02  0.000000000E+00  0.00000E+00  9.000E+00
      25     1     1     2     0     0 -2.198805745E+02  2.845130098E+01  1.008350234E+02  2.737703683E+02  1.250022762E+02  0.00000E+00  9.000E+00
       5     1     1     2   501     0  4.318431635E+00 -3.789619772E+00  1.549872976E+02  1.551664750E+02  4.750000000E+00  0.00000E+00  9.000E+00
      -5     1     1     2     0   503  2.138568227E+02 -4.755293985E+01  7.586678988E+01  2.318929818E+02  4.750000000E+00  0.00000E+00  9.000E+00
      21     1     1     2   511   502  1.705320171E+00  2.289125864E+01 -2.032555698E+01  3.066017132E+01  4.768371582E-07  0.00000E+00  9.000E+00
#rwgt            1           9   3.8894765952656694E-002           7     3049900           0
</event>
<event>
      6   9999  3.45752E-01  8.56353E+00 -1.00000E+00  1.94578E-01
      21    -1     0     0   512   502  0.000000000E+00  0.000000000E+00  8.994900089E+01  8.994900089E+01  0.000000000E+00  0.00000E+00  9.000E+00
      21    -1     0     0   502   503  0.000000000E+00  0.000000000E+00 -4.888825992E+02  4.888825992E+02  0.000000000E+00  0.00000E+00  9.000E+00
      25     1     1     2     0     0 -3.945717221E+01  2.500430694E+01 -1.130985021E+02  1.749247538E+02  1.250012581E+02  0.00000E+00  9.000E+00
       5     1     1     2   501     0 -2.553435928E+00 -2.148292537E+00  2.350838850E+01  2.421450032E+01  4.750000000E+00  0.00000E+00  9.000E+00
      -5     1     1     2     0   503  3.574432565E+01 -1.701925193E+01 -3.428234917E+02  3.451344965E+02  4.750000000E+00  0.00000E+00  9.000E+00
      21     1     1     2   512   501  6.266282488E+00 -5.836762470E+00  3.348000695E+01  3.455784944E+01  1.066240300E-06  0.00000E+00  9.000E+00
#rwgt            1           9   4.2360099852257593E-004           7     3052503           0
</event>
<event>
      6   9999  3.45752E-01  7.92876E+00 -1.00000E+00  1.98476E-01
      21    -1     0     0   501   502  0.000000000E+00  0.000000000E+00  7.580444635E+02  7.580444635E+02  0.000000000E+00  0.00000E+00  9.000E+00
      21    -1     0     0   511   503  0.000000000E+00  0.000000000E+00 -3.602576652E+01  3.602576652E+01  0.000000000E+00  0.00000E+00  9.000E+00
      25     1     1     2     0     0  1.701926632E+01 -5.572309757E+00  5.531543370E+02  5.673839947E+02  1.249966833E+02  0.00000E+00  9.000E+00
       5     1     1     2   501     0  3.974542401E-01  1.028481996E+00  1.913100044E+02  1.913721402E+02  4.750000000E+00  0.00000E+00  9.000E+00
      -5     1     1     2     0   503 -1.592639749E+01 -3.243608939E+00 -2.144206321E+01  2.732207369E+01  4.750000000E+00  0.00000E+00  9.000E+00
      21     1     1     2   511   502 -1.490323076E+00  7.787436699E+00 -1.003581141E+00  7.992021542E+00  2.289159819E-07  0.00000E+00  9.000E+00
#rwgt            1           9   1.3747188150074701E-002           7     3056094           0
</event>
<event>
      6   9999 -3.45752E-01  2.15141E+01 -1.00000E+00  1.57828E-01
      21    -1     0     0   512   502  0.000000000E+00  0.000000000E+00  1.621704451E+02  1.621704451E+02  0.000000000E+00  0.00000E+00  9.000E+00
      21    -1     0     0   502   503  0.000000000E+00  0.000000000E+00 -1.587647756E+03  1.587647756E+03  0.000000000E+00  0.00000E+00  9.000E+00
      25     1     1     2     0     0  2.291875092E+02  1.750115066E+01 -1.188150834E+03  1.216618459E+03  1.249994613E+02  0.00000E+00  9.000E+00
       5     1     1     2   501     0 -2.629515852E+02 -1.501822120E+01 -1.735389747E+02  3.154479694E+02  4.750000000E+00  0.00000E+00  9.000E+00
      -5     1     1     2     0   503  1.399640653E+01 -1.097382459E+01 -1.386461411E+02  1.398629299E+02  4.750000000E+00  0.00000E+00  9.000E+00
      21     1     1     2   512   501  1.976766955E+01  8.490895130E+00  7.485863887E+01  7.788884306E+01  2.132480600E-06  0.00000E+00  9.000E+00
#rwgt            1           9  -7.3243058094390944E-003           7     3059739           0
</event>
<event>
      6   9999  3.45752E-01  1.87873E+01 -1.00000E+00  1.62312E-01
      21    -1     0     0   501   502  0.000000000E+00  0.000000000E+00  2.642338501E+01  2.642338501E+01  0.000000000E+00  0.00000E+00  9.000E+00
      21    -1     0     0   511   503  0.000000000E+00  0.000000000E+00 -1.179525816E+03  1.179525816E+03  0.000000000E+00  0.00000E+00  9.000E+00
      25     1     1     2     0     0  3.539568495E+01  8.816036417E+01 -7.780844560E+02  7.937661266E+02  1.249965549E+02  0.00000E+00  9.000E+00
       5     1     1     2   501     0 -1.914903841E+00  1.411324794E+00  1.197333850E+01  1.309893237E+01  4.750000000E+00  0.00000E+00  9.000E+00
      -5     1     1     2     0   503 -2.497517605E+01 -7.282002606E+01 -2.787372179E+02  2.892118855E+02  4.750000000E+00  0.00000E+00  9.000E+00
      21     1     1     2   511   502 -8.505605066E+00 -1.675166290E+01 -1.082540951E+02  1.098722560E+02  1.348699152E-06  0.00000E+00  9.000E+00
#rwgt            1           9   2.2724001406327986E-004           7     3062506           0
</event>
<event>
      6   9999  3.45752E-01  2.08957E+01 -1.00000E+00  1.58772E-01
      21    -1     0     0   501   502  0.000000000E+00  0.000000000E+00  1.116561571E+02  1.116561571E+02  0.000000000E+00  0.00000E+00  9.000E+00
      21    -1     0     0   502   512  0.000000000E+00  0.000000000E+00 -3.932517266E+02  3.932517266E+02  0.000000000E+00  0.00000E+00  9.000E+00
      25     1     1     2     0     0 -4.843103528E+01  3.016269960E+01 -9.133515761E+01  1.649921940E+02  1.249998378E+02  0.00000E+00  9.000E+00
       5     1     1     2   501     0  4.066756265E+00 -8.615863991E+00  6.644312397E+01  6.729058509E+01  4.750000000E+00  0.00000E+00  9.000E+00
      -5     1     1     2     0   503  6.326631560E+01 -3.045434598E+01 -2.094715307E+02  2.209773258E+02  4.750000000E+00  0.00000E+00  9.000E+00
      21     1     1     2   503   512 -1.890203659E+01  8.907510377E+00 -4.723200526E+01  5.164777874E+01  0.000000000E+00  0.00000E+00  9.000E+00
#rwgt            1           9   8.4115702200376289E-004           7     3064671           0
</event>
</LesHouchesEvents>
 #Random number generator exit values:            7       3066540             0
