<LesHouchesEvents version="3.0">
<!--
file generated with POWHEG-BOX-V2
Input file powheg.input contained:
numevts 1000    ! number of events to be generated

! Production parameters for ttH production
hmass 125.d0      ! mass of the HIggs boson [GeV]
hwidth 0.00498d0  ! width of the Higgs boson [GeV]

hdecaymode -1    ! -1 no decay
                ! 0 all decay channels open
                ! 1-6 d dbar, u ubar,..., t tbar
                ! 7-9 e+ e-, mu+ mu-, tau+ tau-
                ! 10  W+W-
                ! 11  ZZ
                ! 12  gamma gamma

#pythiatune 320	! PYTHIA tune


ih1   1           ! hadron 1 (1 for protons, -1 for antiprotons)
ih2   1           ! hadron 2 (1 for protons, -1 for antiprotons)
ebeam1 6500d0     ! energy of beam 1
ebeam2 6500d0     ! energy of beam 2

! To be set only if using 'native' pdfs
!ndns1 131         ! pdf set for hadron 1 (mlm numbering)
!ndns2 131         ! pdf set for hadron 2 (mlm numbering)
! To be set only if using LHA pdfs
! 10050 cteq6m
! 10042 cteq6l with LO alphas (corr. to vbfnlo LO set)
! 10041 cteq6l with NLO alphas
! 21000 MSTW2008 LO
! 21100 MSTW2008 NLO
! 23300 MSTW2008 NLO, NF=4
! 11082 CT10 Nf4

lhans1  23300      ! pdf set for hadron 1 (LHA numbering)
lhans2  23300      ! pdf set for hadron 2 (LHA numbering)

#bornktmin 1d0    ! Generation cut; minimum kt in underlying born
#bornsuppfact 1d0 ! (default 0d0) switch for Born suppression factor. If < 0 suppfact = 1
delta_mbbmin 0d0 ! generation cut on mbb (no gencut used, if set to 0)

use-old-grid    1 ! if 1 use old grid if file pwggrids.dat is present (<> 1 regenerate)
use-old-ubound  1 ! if 1 use norm of upper bounding function stored in pwgubound.dat, if present; <>

ncall1  500000  ! number of calls for initializing the integration grid
itmx1    2     ! number of iterations for initializing the integration grid
ncall2  50000  ! number of calls for computing the integral and finding upper bound
itmx2     1     ! number of iterations for computing the integral and finding upper bound
foldcsi   1    ! number of folds on csi integration
foldy     1    ! number of folds on  y  integration
foldphi   1    ! number of folds on phi integration
nubound 10000  ! number of bbarra calls to setup norm of upper bounding function
icsimax  1     ! <= 100, number of csi subdivision when computing the upper bounds
iymax    1     ! <= 100, number of y subdivision when computing the upper bounds
xupbound 2d0   ! increase upper bound for radiation generation

#runningscales 2	   ! default 0 (no running scales); 1,2: use running scales
renscfact 1d0   ! (default 1d0) ren scale factor: muren  = muref * renscfact
facscfact 1d0   ! (default 1d0) fac scale factor: mufact = muref * facscfact
testplots  1       ! (default 0, do not) do NLO and PWHG distributions

#bornonly   1      ! (default 0) if 1 do Born only
#fakevirt   1      ! (default 0) if 1 use Born for virtuals

iseed    2

manyseeds  1       ! Used to perform multiple runs with different random
                   ! seeds in the same directory.
                   ! If set to 1, the program asks for an integer j;
                   ! The file pwgseeds.dat at line j is read, and the
                   ! integer at line j is used to initialize the random
                   ! sequence for the generation of the event.
                   ! The event file is called pwgevents-'j'.lhe

#storeinfo_rwgt 1   ! store info for reweighting events
#compute_rwgt 1   ! store info for reweighting events
#xgriditeration 1   ! identifier for grid generation
#parallelstage  4   ! identifier for parallel running stages


toploop 1	! 1 include top loop effects; 0 disregard top loop effects
msbar  1	! 1 MSbar renormalization; 0 On-Shell renormalization
parallelstage 4
End of powheg.input content
PDF package: lha
 Random number generator initialized with:            9             0             0
-->
<init>
     2212     2212  6.50000E+03  6.50000E+03     -1     -1     -1     -1     -4      1
  3.37328E-01  1.60874E-01  1.00000E+00   9999
</init>
<event>
      6   9999  3.45752E-01  1.85279E+01 -1.00000E+00  1.62787E-01
      21    -1     0     0   511   502  0.000000000E+00  0.000000000E+00  2.077068601E+03  2.077068601E+03  0.000000000E+00  0.00000E+00  9.000E+00
      21    -1     0     0   502   503  0.000000000E+00  0.000000000E+00 -3.096345275E+01  3.096345275E+01  0.000000000E+00  0.00000E+00  9.000E+00
      25     1     1     2     0     0 -7.720588227E+01  5.515839790E+01  1.914240350E+02  2.475314244E+02  1.250017911E+02  0.00000E+00  9.000E+00
       5     1     1     2   501     0 -4.592890669E+00  6.940129845E+00  9.318017209E+02  9.318509911E+02  4.750000000E+00  0.00000E+00  9.000E+00
      -5     1     1     2     0   503  6.717197766E+01 -5.072577921E+01  7.897245079E+02  7.942118987E+02  4.750000000E+00  0.00000E+00  9.000E+00
      21     1     1     2   511   501  1.462679528E+01 -1.137274853E+01  1.331548847E+02  1.344377398E+02  1.907348633E-06  0.00000E+00  9.000E+00
#rwgt            1           9   2.7468225289656951E-004           9         381           0
</event>
<event>
      6   9999  3.45752E-01  2.42466E+01 -1.00000E+00  1.54079E-01
      21    -1     0     0   501   502  0.000000000E+00  0.000000000E+00  1.885978920E+01  1.885978920E+01  0.000000000E+00  0.00000E+00  9.000E+00
      21    -1     0     0   502   512  0.000000000E+00  0.000000000E+00 -1.478302509E+03  1.478302509E+03  0.000000000E+00  0.00000E+00  9.000E+00
      25     1     1     2     0     0 -3.212227051E+01 -3.774063391E+01 -2.571867808E+02  2.902217365E+02  1.250096812E+02  0.00000E+00  9.000E+00
       5     1     1     2   501     0  3.307389278E-01 -1.225298955E+00 -1.877767207E+00  5.263008213E+00  4.750000000E+00  0.00000E+00  9.000E+00
      -5     1     1     2     0   503  2.677930779E+01  1.524300284E+01 -5.990980111E+02  5.999087180E+02  4.750000000E+00  0.00000E+00  9.000E+00
      21     1     1     2   503   512  5.012223791E+00  2.372293002E+01 -6.012801611E+02  6.017688359E+02  1.078959322E-05  0.00000E+00  9.000E+00
#rwgt            1           9   8.1292487069664241E-004           9        2946           0
</event>
<event>
      6   9999  3.45752E-01  1.44031E+01 -1.00000E+00  1.71914E-01
      21    -1     0     0   501   502  0.000000000E+00  0.000000000E+00  2.683880539E+01  2.683880539E+01  0.000000000E+00  0.00000E+00  9.000E+00
      -3    -1     0     0     0   503  0.000000000E+00  0.000000000E+00 -1.994821103E+03  1.994821103E+03  0.000000000E+00  0.00000E+00  9.000E+00
      25     1     1     2     0     0  3.291513273E+01  1.335407988E+02 -1.400772425E+03  1.413048558E+03  1.250051505E+02  0.00000E+00  9.000E+00
       5     1     1     2   501     0 -2.040591835E+00  1.212721636E+00  3.556368583E+00  6.391006673E+00  4.750000000E+00  0.00000E+00  9.000E+00
      -5     1     1     2     0   503 -4.325223771E+01 -1.421183637E+02 -3.407627155E+02  3.717662923E+02  4.750000000E+00  0.00000E+00  9.000E+00
      -3     1     1     2     0   502  1.237769682E+01  7.364843202E+00 -2.300035258E+02  2.304540522E+02  5.394796609E-06  0.00000E+00  9.000E+00
#rwgt            1           9   5.0520029744963299E-004           9        4693           0
</event>
<event>
      6   9999 -3.45752E-01  2.15089E+01 -1.00000E+00  1.57836E-01
      21    -1     0     0   501   502  0.000000000E+00  0.000000000E+00  1.374470972E+01  1.374470972E+01  0.000000000E+00  0.00000E+00  9.000E+00
      21    -1     0     0   511   503  0.000000000E+00  0.000000000E+00 -1.422377759E+03  1.422377759E+03  0.000000000E+00  0.00000E+00  9.000E+00
      25     1     1     2     0     0  4.603806145E+00 -1.655673682E+01 -7.977355552E+02  8.076510107E+02  1.249912730E+02  0.00000E+00  9.000E+00
       5     1     1     2   501     0 -1.239683721E+00 -4.768084534E+00  7.071009272E+00  9.840382003E+00  4.750000000E+00  0.00000E+00  9.000E+00
      -5     1     1     2     0   503  3.025035373E+00  7.867730640E-01 -6.628558611E+01  6.652902582E+01  4.750000000E+00  0.00000E+00  9.000E+00
      21     1     1     2   511   502 -6.389157797E+00  2.053804829E+01 -5.516829176E+02  5.521020506E+02  1.078959322E-05  0.00000E+00  9.000E+00
#rwgt            1           9  -3.7735973007276669E-004           9        7403           0
</event>
<event>
      6   9999  3.45752E-01  2.69903E+00 -1.00000E+00  2.89498E-01
       2    -1     0     0   501     0  0.000000000E+00  0.000000000E+00  3.500322379E+02  3.500322379E+02  0.000000000E+00  0.00000E+00  9.000E+00
      21    -1     0     0   502   503  0.000000000E+00  0.000000000E+00 -5.373346362E+02  5.373346362E+02  0.000000000E+00  0.00000E+00  9.000E+00
      25     1     1     2     0     0  2.045692503E-01  4.264714938E-01 -5.085066803E+02  5.236127071E+02  1.248639237E+02  0.00000E+00  9.000E+00
       5     1     1     2   501     0  1.697413657E+00  3.544860162E+00  2.426742936E+01  2.503832811E+01  4.750000000E+00  0.00000E+00  9.000E+00
      -5     1     1     2     0   503 -2.144909793E+00 -1.283259348E+00 -2.053887280E+01  2.122864076E+01  4.750000000E+00  0.00000E+00  9.000E+00
       2     1     1     2   502     0  2.429268860E-01 -2.688072308E+00  3.174757254E+02  3.174871981E+02  3.814697266E-06  0.00000E+00  9.000E+00
#rwgt            1           9   7.3461330446901210                9        8968           0
</event>
<event>
      6   9999 -3.45752E-01  8.78142E+00 -1.00000E+00  1.93341E-01
      21    -1     0     0   502   503  0.000000000E+00  0.000000000E+00  8.819737119E+00  8.819737119E+00  0.000000000E+00  0.00000E+00  9.000E+00
      21    -1     0     0   501   511  0.000000000E+00  0.000000000E+00 -1.009083278E+03  1.009083278E+03  0.000000000E+00  0.00000E+00  9.000E+00
      25     1     1     2     0     0  2.252878344E+00 -1.845134656E+01 -5.304091683E+02  5.452563229E+02  1.250001767E+02  0.00000E+00  9.000E+00
       5     1     1     2   501     0  9.696003971E+00 -1.180423540E+00 -1.298538529E+02  1.303072964E+02  4.750000000E+00  0.00000E+00  9.000E+00
      -5     1     1     2     0   503 -3.227478418E+00  1.860688371E+01 -8.558459916E+01  8.777197076E+01  4.750000000E+00  0.00000E+00  9.000E+00
      21     1     1     2   502   511 -8.721403897E+00  1.024886387E+00 -2.544159202E+02  2.545674247E+02  5.394796609E-06  0.00000E+00  9.000E+00
#rwgt            1           9  -5.2029535770424221E-005           9       16390           0
</event>
<event>
      6   9999  3.45752E-01  2.97000E+01 -1.00000E+00  1.48121E-01
      21    -1     0     0   501   512  0.000000000E+00  0.000000000E+00  1.213846606E+02  1.213846606E+02  0.000000000E+00  0.00000E+00  9.000E+00
      21    -1     0     0   502   503  0.000000000E+00  0.000000000E+00 -1.638183819E+03  1.638183819E+03  0.000000000E+00  0.00000E+00  9.000E+00
      25     1     1     2     0     0  3.626225711E+01  1.946564570E+01 -8.330371254E+02  8.433682340E+02  1.250010531E+02  0.00000E+00  9.000E+00
       5     1     1     2   501     0 -3.765812303E+00 -1.901461700E+01  9.527178977E+01  9.733968065E+01  4.750000000E+00  0.00000E+00  9.000E+00
      -5     1     1     2     0   503 -6.567319785E+00 -1.493458003E+01 -7.877302537E+02  7.879135019E+02  4.750000000E+00  0.00000E+00  9.000E+00
      21     1     1     2   502   512 -2.592912502E+01  1.448355132E+01  8.696431068E+00  3.094706281E+01  7.725644944E-07  0.00000E+00  9.000E+00
#rwgt            1           9  0.19424959999035213                9       19057           0
</event>
<event>
      6   9999  3.45752E-01  3.93656E+00 -1.00000E+00  2.49296E-01
      21    -1     0     0   501   511  0.000000000E+00  0.000000000E+00  5.194693240E+01  5.194693240E+01  0.000000000E+00  0.00000E+00  9.000E+00
      21    -1     0     0   502   503  0.000000000E+00  0.000000000E+00 -9.184330155E+02  9.184330155E+02  0.000000000E+00  0.00000E+00  9.000E+00
      25     1     1     2     0     0  1.376631348E+01  1.751115992E+01 -7.641166793E+02  7.745942703E+02  1.250033270E+02  0.00000E+00  9.000E+00
       5     1     1     2   501     0  4.005166283E+00 -9.912189878E-01  1.106725234E+01  1.273068915E+01  4.750000000E+00  0.00000E+00  9.000E+00
      -5     1     1     2     0   503 -1.787500291E+01 -1.258474019E+01 -1.472871489E+02  1.489763678E+02  4.750000000E+00  0.00000E+00  9.000E+00
      21     1     1     2   502   511  1.035231440E-01 -3.935200741E+00  3.385049286E+01  3.407862070E+01  1.581489940E-06  0.00000E+00  9.000E+00
#rwgt            1           9   1.2368606958326982                9       21400           0
</event>
<event>
      6   9999  3.45752E-01  7.17998E+00 -1.00000E+00  2.03743E-01
      21    -1     0     0   501   502  0.000000000E+00  0.000000000E+00  9.642701848E+00  9.642701848E+00  0.000000000E+00  0.00000E+00  9.000E+00
      21    -1     0     0   512   503  0.000000000E+00  0.000000000E+00 -9.024372242E+02  9.024372242E+02  0.000000000E+00  0.00000E+00  9.000E+00
      25     1     1     2     0     0  2.808842995E+00  1.138417921E+01 -5.967473587E+02  6.098113449E+02  1.249999084E+02  0.00000E+00  9.000E+00
       5     1     1     2   501     0 -1.658239281E+01 -6.350457042E+00 -2.753640286E+01  3.310770361E+01  4.750000000E+00  0.00000E+00  9.000E+00
      -5     1     1     2     0   503  1.014412750E+01  1.161387785E+00 -1.415424947E+02  1.419897618E+02  4.750000000E+00  0.00000E+00  9.000E+00
      21     1     1     2   512   502  3.629422321E+00 -6.195109953E+00 -1.269682660E+02  1.271711157E+02  1.348699152E-06  0.00000E+00  9.000E+00
#rwgt            1           9   1.0972468173809213E-003           9       27423           0
</event>
<event>
      6   9999  3.45752E-01  5.65565E+00 -1.00000E+00  2.17697E-01
       2    -1     0     0   501     0  0.000000000E+00  0.000000000E+00  5.163348580E+01  5.163348580E+01  0.000000000E+00  0.00000E+00  9.000E+00
      21    -1     0     0   502   503  0.000000000E+00  0.000000000E+00 -1.010575282E+03  1.010575282E+03  0.000000000E+00  0.00000E+00  9.000E+00
      25     1     1     2     0     0  1.543804116E+01  9.720330206E+00 -6.553911744E+02  6.674613432E+02  1.250369355E+02  0.00000E+00  9.000E+00
       5     1     1     2   501     0 -2.977215104E+00  4.728931089E+00  9.082513871E+00  1.167395208E+01  4.750000000E+00  0.00000E+00  9.000E+00
      -5     1     1     2     0   503 -1.252365365E+01 -8.793961696E+00 -3.474404248E+02  3.478096994E+02  4.750000000E+00  0.00000E+00  9.000E+00
       2     1     1     2   502     0  6.282759373E-02 -5.655299599E+00  3.480728886E+01  3.526377346E+01  2.286830675E-06  0.00000E+00  9.000E+00
#rwgt            1           9   1.8499080548311450E-003           9       30605           0
</event>
<event>
      6   9999  3.45752E-01  1.96575E+01 -1.00000E+00  1.60785E-01
      21    -1     0     0   501   502  0.000000000E+00  0.000000000E+00  2.780373709E+01  2.780373709E+01  0.000000000E+00  0.00000E+00  9.000E+00
      21    -1     0     0   511   503  0.000000000E+00  0.000000000E+00 -1.332973849E+03  1.332973849E+03  0.000000000E+00  0.00000E+00  9.000E+00
      25     1     1     2     0     0 -4.330269622E+01 -5.725536789E+01 -5.081030659E+02  5.281545840E+02  1.250009535E+02  0.00000E+00  9.000E+00
       5     1     1     2   501     0  7.353531596E+01  7.412921518E+01 -1.491569633E+02  1.821344159E+02  4.750000000E+00  0.00000E+00  9.000E+00
      -5     1     1     2     0   503 -3.704345627E+01  1.566074989E+00 -3.696936061E+02  3.715785181E+02  4.750000000E+00  0.00000E+00  9.000E+00
      21     1     1     2   511   502  6.810836522E+00 -1.843992229E+01 -2.782164768E+02  2.789100683E+02  3.814697266E-06  0.00000E+00  9.000E+00
#rwgt            1           9   2.9982691145155358                9       34792           0
</event>
<event>
      6   9999  3.45752E-01  8.14875E+00 -1.00000E+00  1.97073E-01
      21    -1     0     0   501   502  0.000000000E+00  0.000000000E+00  1.464626140E+01  1.464626140E+01  0.000000000E+00  0.00000E+00  9.000E+00
      21    -1     0     0   512   503  0.000000000E+00  0.000000000E+00 -9.278641572E+02  9.278641572E+02  0.000000000E+00  0.00000E+00  9.000E+00
      25     1     1     2     0     0  1.973951239E+01 -4.600783634E+01 -5.685850384E+02  5.843109660E+02  1.249959592E+02  0.00000E+00  9.000E+00
       5     1     1     2   501     0  2.044064857E+00  1.957694548E+00  2.757365180E+00  6.178699848E+00  4.750000000E+00  0.00000E+00  9.000E+00
      -5     1     1     2     0   503 -1.385439849E+01  4.592905127E+01 -3.121537942E+02  3.158543585E+02  4.750000000E+00  0.00000E+00  9.000E+00
      21     1     1     2   512   502 -7.929178764E+00 -1.878909477E+00 -3.523642844E+01  3.616639415E+01  8.259061849E-07  0.00000E+00  9.000E+00
#rwgt            1           9   3.1187417193237417E-004           9       37174           0
</event>
<event>
      6   9999  3.45752E-01  2.20344E+01 -1.00000E+00  1.57064E-01
      21    -1     0     0   501   502  0.000000000E+00  0.000000000E+00  6.962668323E+01  6.962668323E+01  0.000000000E+00  0.00000E+00  9.000E+00
      21    -1     0     0   511   503  0.000000000E+00  0.000000000E+00 -1.844030686E+03  1.844030686E+03  0.000000000E+00  0.00000E+00  9.000E+00
      25     1     1     2     0     0 -3.659241727E+01 -2.283804988E+00 -1.115828334E+03  1.123408355E+03  1.250169559E+02  0.00000E+00  9.000E+00
       5     1     1     2   501     0 -4.228179976E+00  1.768755045E+01  6.378948525E+01  6.650103665E+01  4.750000000E+00  0.00000E+00  9.000E+00
      -5     1     1     2     0   503  1.921941959E+01 -1.105583010E+01 -3.593963502E+02  3.601109780E+02  4.750000000E+00  0.00000E+00  9.000E+00
      21     1     1     2   511   502  2.160117765E+01 -4.347915367E+00 -3.629688040E+02  3.636370002E+02  5.394796609E-06  0.00000E+00  9.000E+00
#rwgt            1           9   1.0246799052309296E-004           9       40198           0
</event>
<event>
      6   9999  3.45752E-01  9.04979E+00 -1.00000E+00  1.91880E-01
      21    -1     0     0   501   512  0.000000000E+00  0.000000000E+00  6.348371586E+01  6.348371586E+01  0.000000000E+00  0.00000E+00  9.000E+00
      21    -1     0     0   502   503  0.000000000E+00  0.000000000E+00 -7.255223414E+02  7.255223414E+02  0.000000000E+00  0.00000E+00  9.000E+00
      25     1     1     2     0     0  6.528176565E+00 -4.295782112E+00 -5.227178713E+02  5.375129508E+02  1.250005142E+02  0.00000E+00  9.000E+00
       5     1     1     2   501     0  1.688599046E+00 -1.592948634E-01 -5.802329536E-01  5.076998313E+00  4.750000000E+00  0.00000E+00  9.000E+00
      -5     1     1     2     0   503  3.276396594E-01  1.473191494E+00 -1.921654728E+02  1.922300941E+02  4.750000000E+00  0.00000E+00  9.000E+00
      21     1     1     2   502   512 -8.544415270E+00  2.981885481E+00  5.342495148E+01  5.418601400E+01  2.132480600E-06  0.00000E+00  9.000E+00
#rwgt            1           9   1.0793604011498615E-005           9       42908           0
</event>
<event>
      6   9999  3.45752E-01  7.39639E+00 -1.00000E+00  2.02136E-01
      21    -1     0     0   501   511  0.000000000E+00  0.000000000E+00  2.169542222E+01  2.169542222E+01  0.000000000E+00  0.00000E+00  9.000E+00
      21    -1     0     0   502   503  0.000000000E+00  0.000000000E+00 -9.315967983E+02  9.315967983E+02  0.000000000E+00  0.00000E+00  9.000E+00
      25     1     1     2     0     0 -4.846137672E+00 -3.653407264E+01 -3.682046425E+02  3.905866986E+02  1.250003476E+02  0.00000E+00  9.000E+00
       5     1     1     2   501     0 -2.264267574E+00  1.296247945E+00  3.249673991E+00  6.319022664E+00  4.750000000E+00  0.00000E+00  9.000E+00
      -5     1     1     2     0   503  9.830820608E-01  3.938058620E+01 -5.472137510E+02  5.486503885E+02  4.750000000E+00  0.00000E+00  9.000E+00
      21     1     1     2   502   511  6.127323185E+00 -4.142761504E+00  2.267343436E+00  7.736110686E+00  4.380028980E-07  0.00000E+00  9.000E+00
#rwgt            1           9   1.2806899978086749E-003           9       45591           0
</event>
<event>
      6   9999  3.45752E-01  9.87858E+00 -1.00000E+00  1.87754E-01
      21    -1     0     0   501   502  0.000000000E+00  0.000000000E+00  9.892891119E+00  9.892891119E+00  0.000000000E+00  0.00000E+00  9.000E+00
      21    -1     0     0   512   503  0.000000000E+00  0.000000000E+00 -1.012581366E+03  1.012581366E+03  0.000000000E+00  0.00000E+00  9.000E+00
      25     1     1     2     0     0 -3.376321804E+00  2.136437728E+01 -6.090781165E+02  6.221483233E+02  1.249981920E+02  0.00000E+00  9.000E+00
       5     1     1     2   501     0 -1.078493309E-01  1.854269078E-01  4.510875431E-01  4.776190384E+00  4.750000000E+00  0.00000E+00  9.000E+00
      -5     1     1     2     0   503 -5.528000511E+00 -1.750417731E+01 -1.378476393E+02  1.391455683E+02  4.750000000E+00  0.00000E+00  9.000E+00
      21     1     1     2   512   502  9.012171645E+00 -4.045626885E+00 -2.562138069E+02  2.564041755E+02  5.394796609E-06  0.00000E+00  9.000E+00
#rwgt            1           9   4.4664664701215022E-003           9       48871           0
</event>
<event>
      6   9999  3.45752E-01  7.58037E+00 -1.00000E+00  2.00827E-01
      21    -1     0     0   501   511  0.000000000E+00  0.000000000E+00  8.999947204E+01  8.999947204E+01  0.000000000E+00  0.00000E+00  9.000E+00
      21    -1     0     0   502   503  0.000000000E+00  0.000000000E+00 -1.837261895E+02  1.837261895E+02  0.000000000E+00  0.00000E+00  9.000E+00
      25     1     1     2     0     0 -4.156025104E+01 -2.200996830E+01 -9.239434356E+01  1.623986135E+02  1.249996070E+02  0.00000E+00  9.000E+00
       5     1     1     2   501     0  1.554249147E+00  2.610297582E-01  4.295616775E+01  4.324671866E+01  4.750000000E+00  0.00000E+00  9.000E+00
      -5     1     1     2     0   503  3.390453121E+01  2.624716781E+01 -4.188570695E+01  6.012824629E+01  4.750000000E+00  0.00000E+00  9.000E+00
      21     1     1     2   502   511  6.101470680E+00 -4.498229269E+00 -2.402834653E+00  7.952083085E+00  8.940696716E-08  0.00000E+00  9.000E+00
#rwgt            1           9  0.19968002954043576                9       51179           0
</event>
<event>
      6   9999  3.45752E-01  3.76050E+00 -1.00000E+00  2.53534E-01
      21    -1     0     0   512   502  0.000000000E+00  0.000000000E+00  1.799310030E+01  1.799310030E+01  0.000000000E+00  0.00000E+00  9.000E+00
      21    -1     0     0   502   503  0.000000000E+00  0.000000000E+00 -9.069697714E+02  9.069697714E+02  0.000000000E+00  0.00000E+00  9.000E+00
      25     1     1     2     0     0 -3.458213858E+01 -2.769350412E+01 -3.660415258E+02  3.892598404E+02  1.247957143E+02  0.00000E+00  9.000E+00
       5     1     1     2   501     0 -4.467955997E-01 -1.889345079E-02  3.325835346E+00  5.815811553E+00  4.750000000E+00  0.00000E+00  9.000E+00
      -5     1     1     2     0   503  3.878646402E+01  2.786192510E+01 -5.220106274E+02  5.242121081E+02  4.750000000E+00  0.00000E+00  9.000E+00
      21     1     1     2   512   501 -3.757529842E+00 -1.495275285E-01 -4.250353313E+00  5.675111654E+00  1.788139343E-07  0.00000E+00  9.000E+00
#rwgt            1           9   1.9105884966015476E-002           9       54691           0
</event>
<event>
      6   9999  3.45752E-01  6.85571E+00 -1.00000E+00  2.06298E-01
      -1    -1     0     0     0   502  0.000000000E+00  0.000000000E+00  1.889990692E+02  1.889990692E+02  0.000000000E+00  0.00000E+00  9.000E+00
      21    -1     0     0   502   503  0.000000000E+00  0.000000000E+00 -8.095508604E+02  8.095508604E+02  0.000000000E+00  0.00000E+00  9.000E+00
      25     1     1     2     0     0  8.025827060E+00  6.529094366E+00 -7.535993778E+02  7.639672514E+02  1.250075842E+02  0.00000E+00  9.000E+00
       5     1     1     2   501     0  2.344138102E+00  2.872148148E+00  3.588641709E+00  7.013206666E+00  4.750000000E+00  0.00000E+00  9.000E+00
      -5     1     1     2     0   503 -3.987697943E+00 -6.897751264E+00 -4.855018679E+01  4.942837085E+01  4.750000000E+00  0.00000E+00  9.000E+00
      -1     1     1     2     0   501 -6.382267219E+00 -2.503491250E+00  1.780091316E+02  1.781411007E+02  3.814697266E-06  0.00000E+00  9.000E+00
#rwgt            1           9   3.7023606595030503E-003           9       59940           0
</event>
<event>
      6   9999  3.45752E-01  2.96253E+01 -1.00000E+00  1.48192E-01
      21    -1     0     0   511   502  0.000000000E+00  0.000000000E+00  2.751648387E+02  2.751648387E+02  0.000000000E+00  0.00000E+00  9.000E+00
      21    -1     0     0   502   503  0.000000000E+00  0.000000000E+00 -1.301790016E+03  1.301790016E+03  0.000000000E+00  0.00000E+00  9.000E+00
      25     1     1     2     0     0 -1.047323070E+02 -1.194610453E+02 -3.579656025E+02  4.111054872E+02  1.250142054E+02  0.00000E+00  9.000E+00
       5     1     1     2   501     0  4.167655420E+01  5.610228020E+00 -1.041484543E+01  4.358258062E+01  4.750000000E+00  0.00000E+00  9.000E+00
      -5     1     1     2     0   503  6.845058787E+01  8.472085223E+01 -8.859549185E+02  8.926375445E+02  4.750000000E+00  0.00000E+00  9.000E+00
      21     1     1     2   511   501 -5.394835087E+00  2.912996502E+01  2.277101887E+02  2.296292428E+02  0.000000000E+00  0.00000E+00  9.000E+00
#rwgt            1           9   6.6566240508766042E-002           9       63583           0
</event>
<event>
      6   9999  3.45752E-01  5.16009E+00 -1.00000E+00  2.23607E-01
      21    -1     0     0   501   512  0.000000000E+00  0.000000000E+00  2.828236148E+01  2.828236148E+01  0.000000000E+00  0.00000E+00  9.000E+00
      21    -1     0     0   502   503  0.000000000E+00  0.000000000E+00 -9.065872601E+02  9.065872601E+02  0.000000000E+00  0.00000E+00  9.000E+00
      25     1     1     2     0     0  1.546516148E+01 -2.016431280E+01 -5.870358508E+02  6.007353620E+02  1.250044568E+02  0.00000E+00  9.000E+00
       5     1     1     2   501     0  2.901386154E+00 -1.002453476E+00  1.131122504E+01  1.264631434E+01  4.750000000E+00  0.00000E+00  9.000E+00
      -5     1     1     2     0   503 -2.259470367E+01  1.820886253E+01 -3.105797273E+02  3.119686087E+02  4.750000000E+00  0.00000E+00  9.000E+00
      21     1     1     2   502   512  4.228156029E+00  2.957903745E+00  7.999454443E+00  9.519336603E+00  7.202056631E-07  0.00000E+00  9.000E+00
#rwgt            1           9   1.0235648246342479E-003           9       65492           0
</event>
<event>
      6   9999  3.45752E-01  5.96769E+00 -1.00000E+00  2.14385E-01
      21    -1     0     0   501   511  0.000000000E+00  0.000000000E+00  4.377569320E+01  4.377569320E+01  0.000000000E+00  0.00000E+00  9.000E+00
      21    -1     0     0   502   503  0.000000000E+00  0.000000000E+00 -1.805849710E+03  1.805849710E+03  0.000000000E+00  0.00000E+00  9.000E+00
      25     1     1     2     0     0  2.040024265E+01 -4.629646913E+00 -1.737638716E+03  1.742254599E+03  1.250007023E+02  0.00000E+00  9.000E+00
       5     1     1     2   501     0 -2.479845749E+00  2.204913870E+00  8.128576310E+00  9.982361090E+00  4.750000000E+00  0.00000E+00  9.000E+00
      -5     1     1     2     0   503 -1.430097961E+01 -2.320063451E+00 -6.379531681E+01  6.559196338E+01  4.750000000E+00  0.00000E+00  9.000E+00
      21     1     1     2   502   511 -3.619417287E+00  4.744796494E+00  3.123144007E+01  3.179647974E+01  1.305872339E-06  0.00000E+00  9.000E+00
#rwgt            1           9   4.1449968129683360E-004           9       70504           0
</event>
<event>
      6   9999  3.45752E-01  2.78434E+00 -1.00000E+00  2.85669E-01
      21    -1     0     0   501   502  0.000000000E+00  0.000000000E+00  7.088264149E+00  7.088264149E+00  0.000000000E+00  0.00000E+00  9.000E+00
      21    -1     0     0   512   503  0.000000000E+00  0.000000000E+00 -7.094075780E+02  7.094075780E+02  0.000000000E+00  0.00000E+00  9.000E+00
      25     1     1     2     0     0 -2.056709925E+00 -3.727099078E-01 -6.499394291E+02  6.618567284E+02  1.250147928E+02  0.00000E+00  9.000E+00
       5     1     1     2   501     0 -1.659708325E-01 -3.748653574E-01 -6.219660190E+00  7.836755913E+00  4.750000000E+00  0.00000E+00  9.000E+00
      -5     1     1     2     0   503 -5.564650529E-01  9.175131282E-01 -3.232414492E+01  3.268890222E+01  4.750000000E+00  0.00000E+00  9.000E+00
      21     1     1     2   512   502  2.779145811E+00 -1.699378631E-01 -1.383607963E+01  1.411345563E+01  0.000000000E+00  0.00000E+00  9.000E+00
#rwgt            1           9   1.7773159535457969E-004           9       74892           0
</event>
<event>
      6   9999  3.45752E-01  1.06714E+01 -1.00000E+00  1.84269E-01
      21    -1     0     0   501   511  0.000000000E+00  0.000000000E+00  4.853665446E+01  4.853665446E+01  0.000000000E+00  0.00000E+00  9.000E+00
      21    -1     0     0   502   503  0.000000000E+00  0.000000000E+00 -3.844102932E+03  3.844102932E+03  0.000000000E+00  0.00000E+00  9.000E+00
      25     1     1     2     0     0 -3.707595018E+00 -1.497985713E+01 -1.044604971E+03  1.052171474E+03  1.250084864E+02  0.00000E+00  9.000E+00
       5     1     1     2   501     0  7.971625895E-01 -1.380143947E+00 -5.534945908E+00  7.465814873E+00  4.750000000E+00  0.00000E+00  9.000E+00
      -5     1     1     2     0   503  2.549885616E+00  5.694670438E+00 -2.788558560E+03  2.788569586E+03  4.750000000E+00  0.00000E+00  9.000E+00
      21     1     1     2   502   511  3.605468121E-01  1.066533064E+01  4.313219943E+01  4.443271205E+01  5.046370146E-06  0.00000E+00  9.000E+00
#rwgt            1           9   8.0312420003943912E-004           9       80131           0
</event>
<event>
      6   9999 -3.45752E-01  9.82681E+00 -1.00000E+00  1.87996E-01
      21    -1     0     0   512   502  0.000000000E+00  0.000000000E+00  1.451406597E+03  1.451406597E+03  0.000000000E+00  0.00000E+00  9.000E+00
      21    -1     0     0   502   503  0.000000000E+00  0.000000000E+00 -2.738412339E+02  2.738412339E+02  0.000000000E+00  0.00000E+00  9.000E+00
      25     1     1     2     0     0  3.469188960E+00  5.429048274E+01 -1.756772952E+02  2.223691992E+02  1.250042275E+02  0.00000E+00  9.000E+00
       5     1     1     2   501     0  8.980771640E-01  1.585133800E+00  5.980923888E+00  7.851951497E+00  4.750000000E+00  0.00000E+00  9.000E+00
      -5     1     1     2     0   503 -1.751522909E+00 -4.640333173E+01 -6.649083575E+01  8.123995794E+01  4.750000000E+00  0.00000E+00  9.000E+00
      21     1     1     2   512   501 -2.615743215E+00 -9.472284809E+00  1.413752570E+03  1.413786722E+03  0.000000000E+00  0.00000E+00  9.000E+00
#rwgt            1           9 -0.16230854597355701                9       82782           0
</event>
<event>
      6   9999  3.45752E-01  6.58308E+01 -1.00000E+00  1.28692E-01
      21    -1     0     0   501   511  0.000000000E+00  0.000000000E+00  9.785580631E+01  9.785580631E+01  0.000000000E+00  0.00000E+00  9.000E+00
      21    -1     0     0   502   503  0.000000000E+00  0.000000000E+00 -1.060398186E+03  1.060398186E+03  0.000000000E+00  0.00000E+00  9.000E+00
      25     1     1     2     0     0  3.448262927E+01  5.791373678E+01 -6.101613383E+02  6.264699934E+02  1.249989652E+02  0.00000E+00  9.000E+00
       5     1     1     2   501     0 -3.539143756E+01 -2.563645182E+01 -4.773257784E+01  6.489023811E+01  4.750000000E+00  0.00000E+00  9.000E+00
      -5     1     1     2     0   503  1.093667423E+01 -9.733983260E+01 -3.647809477E+02  3.777331812E+02  4.750000000E+00  0.00000E+00  9.000E+00
      21     1     1     2   502   511 -1.002786595E+01  6.506254764E+01  6.013248449E+01  8.916057925E+01  1.507891493E-06  0.00000E+00  9.000E+00
#rwgt            1           9   5.6354260824283261E-004           9       85774           0
</event>
<event>
      6   9999  3.45752E-01  2.23929E+01 -1.00000E+00  1.56552E-01
      21    -1     0     0   512   502  0.000000000E+00  0.000000000E+00  6.146661308E+01  6.146661308E+01  0.000000000E+00  0.00000E+00  9.000E+00
      21    -1     0     0   502   503  0.000000000E+00  0.000000000E+00 -1.496343495E+03  1.496343495E+03  0.000000000E+00  0.00000E+00  9.000E+00
      25     1     1     2     0     0  4.035372495E+01  7.086568790E+01 -7.193528982E+02  7.346730797E+02  1.250022925E+02  0.00000E+00  9.000E+00
       5     1     1     2   501     0 -1.660890006E+01  3.246749712E+00  2.465656658E+01  3.028045113E+01  4.750000000E+00  0.00000E+00  9.000E+00
      -5     1     1     2     0   503 -4.608167676E+01 -7.252926428E+01 -7.588423211E+02  7.637069110E+02  4.750000000E+00  0.00000E+00  9.000E+00
      21     1     1     2   512   501  2.233685187E+01 -1.583173330E+00  1.866177039E+01  2.914966661E+01  8.259061849E-07  0.00000E+00  9.000E+00
#rwgt            1           9   8.7006585295780748E-006           9       86335           0
</event>
<event>
      6   9999  3.45752E-01  8.72181E+00 -1.00000E+00  1.93675E-01
      21    -1     0     0   511   502  0.000000000E+00  0.000000000E+00  2.287899932E+02  2.287899932E+02  0.000000000E+00  0.00000E+00  9.000E+00
      21    -1     0     0   502   503  0.000000000E+00  0.000000000E+00 -2.673824444E+01  2.673824444E+01  0.000000000E+00  0.00000E+00  9.000E+00
      25     1     1     2     0     0  7.350002259E+00  5.720163442E+00  1.500115989E+02  1.954858462E+02  1.249979738E+02  0.00000E+00  9.000E+00
       5     1     1     2   501     0 -3.680829024E-01  2.256178396E-01  1.106915556E+01  1.205301180E+01  4.750000000E+00  0.00000E+00  9.000E+00
      -5     1     1     2     0   503 -1.520050061E+01 -3.026043966E+00  2.509298670E+01  2.987361114E+01  4.750000000E+00  0.00000E+00  9.000E+00
      21     1     1     2   511   501  8.218581254E+00 -2.919737315E+00  1.587800757E+01  1.811576849E+01  1.685873940E-07  0.00000E+00  9.000E+00
#rwgt            1           9   2.7811198616360689E-005           9       88844           0
</event>
<event>
      6   9999  3.45752E-01  4.76511E+00 -1.00000E+00  2.33100E-01
      21    -1     0     0   501   512  0.000000000E+00  0.000000000E+00  2.475128297E+03  2.475128297E+03  0.000000000E+00  0.00000E+00  9.000E+00
      21    -1     0     0   502   503  0.000000000E+00  0.000000000E+00 -6.844455977E+01  6.844455977E+01  0.000000000E+00  0.00000E+00  9.000E+00
      25     1     1     2     0     0 -1.193250917E+01 -2.587916065E+01  1.623084578E+00  1.282180308E+02  1.250004532E+02  0.00000E+00  9.000E+00
       5     1     1     2   501     0  1.605058146E+01  8.961971726E+00  2.303791761E+03  2.303870000E+03  4.750000000E+00  0.00000E+00  9.000E+00
      -5     1     1     2     0   503 -5.966510083E+00  1.252519774E+01  5.599799614E+00  1.569713594E+01  4.750000000E+00  0.00000E+00  9.000E+00
      21     1     1     2   502   512  1.848437793E+00  4.391991189E+00  9.566909291E+01  9.578769048E+01  1.907348633E-06  0.00000E+00  9.000E+00
#rwgt            1           9   1.0876280755931216E-004           9       91081           0
</event>
<event>
      6   9999  3.45752E-01  2.71239E+01 -1.00000E+00  1.50726E-01
      21    -1     0     0   501   502  0.000000000E+00  0.000000000E+00  1.188770425E+01  1.188770425E+01  0.000000000E+00  0.00000E+00  9.000E+00
      21    -1     0     0   502   511  0.000000000E+00  0.000000000E+00 -2.047790573E+03  2.047790573E+03  0.000000000E+00  0.00000E+00  9.000E+00
      25     1     1     2     0     0  3.491443785E+00  1.980436169E+01 -4.971569668E+02  5.130238013E+02  1.249958723E+02  0.00000E+00  9.000E+00
       5     1     1     2   501     0 -2.073127039E+01  7.105802980E+00 -3.217023521E+01  3.921434102E+01  4.750000000E+00  0.00000E+00  9.000E+00
      -5     1     1     2     0   503 -7.505824636E+00 -1.580343202E+01 -2.923428457E+02  2.929044005E+02  4.750000000E+00  0.00000E+00  9.000E+00
      21     1     1     2   503   511  2.474565124E+01 -1.110673265E+01 -1.214232821E+03  1.214535734E+03  1.525878906E-05  0.00000E+00  9.000E+00
#rwgt            1           9  0.71259453424474950                9       98552           0
</event>
<event>
      6   9999  3.45752E-01  3.06118E+00 -1.00000E+00  2.74638E-01
      21    -1     0     0   501   502  0.000000000E+00  0.000000000E+00  1.327266701E+01  1.327266701E+01  0.000000000E+00  0.00000E+00  9.000E+00
      21    -1     0     0   502   512  0.000000000E+00  0.000000000E+00 -9.497370690E+02  9.497370690E+02  0.000000000E+00  0.00000E+00  9.000E+00
      25     1     1     2     0     0  4.275342437E+00  8.208644496E-01 -8.814777256E+02  8.903070037E+02  1.249985109E+02  0.00000E+00  9.000E+00
       5     1     1     2   501     0 -1.726427265E+00 -1.223973956E+00  7.778247920E+00  9.356404440E+00  4.750000000E+00  0.00000E+00  9.000E+00
      -5     1     1     2     0   503 -1.362060271E+00 -2.418628776E+00 -4.024666346E+01  4.062094771E+01  4.750000000E+00  0.00000E+00  9.000E+00
      21     1     1     2   503   512 -1.186854902E+00  2.821738282E+00 -2.251826093E+01  2.272538023E+01  3.371747881E-07  0.00000E+00  9.000E+00
#rwgt            1           9   2.0977170063010550E-003           9       99663           0
</event>
<event>
      6   9999  3.45752E-01  1.38038E+02 -1.00000E+00  1.14772E-01
      21    -1     0     0   502   511  0.000000000E+00  0.000000000E+00  3.199087329E+02  3.199087329E+02  0.000000000E+00  0.00000E+00  9.000E+00
      21    -1     0     0   501   502  0.000000000E+00  0.000000000E+00 -1.237872748E+03  1.237872748E+03  0.000000000E+00  0.00000E+00  9.000E+00
      25     1     1     2     0     0  6.596992236E+01  5.612595779E+01 -6.315612257E+02  6.496114238E+02  1.249930648E+02  0.00000E+00  9.000E+00
       5     1     1     2   501     0 -3.964882571E+01 -1.318737300E+01 -4.610180704E+02  4.629321332E+02  4.750000000E+00  0.00000E+00  9.000E+00
      -5     1     1     2     0   503 -5.347471355E+01  9.240255349E+01 -9.458363039E+01  1.427109054E+02  4.750000000E+00  0.00000E+00  9.000E+00
      21     1     1     2   503   511  2.715361690E+01 -1.353411383E+02  2.691989118E+02  3.025270182E+02  8.529922400E-06  0.00000E+00  9.000E+00
#rwgt            1           9  0.17708795523143764                9      105831           0
</event>
<event>
      6   9999  3.45752E-01  5.70249E+00 -1.00000E+00  2.17181E-01
      21    -1     0     0   502   503  0.000000000E+00  0.000000000E+00  6.735021321E+00  6.735021321E+00  0.000000000E+00  0.00000E+00  9.000E+00
      21    -1     0     0   512   502  0.000000000E+00  0.000000000E+00 -8.551495471E+02  8.551495471E+02  0.000000000E+00  0.00000E+00  9.000E+00
      25     1     1     2     0     0 -5.664127196E+00  9.514646563E+00 -6.313233405E+02  6.436745687E+02  1.250007170E+02  0.00000E+00  9.000E+00
       5     1     1     2   501     0  1.061346416E-01 -3.064757325E+00 -3.631945378E+01  3.675689357E+01  4.750000000E+00  0.00000E+00  9.000E+00
      -5     1     1     2     0   503  5.879673363E+00 -7.564813672E-01 -5.166195074E+01  5.221745376E+01  4.750000000E+00  0.00000E+00  9.000E+00
      21     1     1     2   512   501 -3.216808087E-01 -5.693407870E+00 -1.291097808E+02  1.292356525E+02  1.907348633E-06  0.00000E+00  9.000E+00
#rwgt            1           9   2.8499715907413382E-002           9      106683           0
</event>
<event>
      6   9999  3.45752E-01  4.99641E+00 -1.00000E+00  2.29417E-01
      21    -1     0     0   501   502  0.000000000E+00  0.000000000E+00  8.677953714E+00  8.677953714E+00  0.000000000E+00  0.00000E+00  9.000E+00
      21    -1     0     0   511   503  0.000000000E+00  0.000000000E+00 -7.449782611E+02  7.449782611E+02  0.000000000E+00  0.00000E+00  9.000E+00
      25     1     1     2     0     0  1.113601775E-01 -1.333918049E-02 -6.926285001E+02  7.038186818E+02  1.250059402E+02  0.00000E+00  9.000E+00
       5     1     1     2   501     0 -2.412985518E+00  1.411162708E+00 -1.406481880E+00  5.688107820E+00  4.750000000E+00  0.00000E+00  9.000E+00
      -5     1     1     2     0   503 -2.684949692E+00 -1.084495007E+00 -9.529063638E+00  1.103406716E+01  4.750000000E+00  0.00000E+00  9.000E+00
      21     1     1     2   511   502  4.986575033E+00 -3.133285201E-01 -3.273626171E+01  3.311535801E+01  8.259061849E-07  0.00000E+00  9.000E+00
#rwgt            1           9   6.9299910396184633E-002           9      110120           0
</event>
<event>
      6   9999  3.45752E-01  5.95134E+00 -1.00000E+00  2.14552E-01
      21    -1     0     0   501   502  0.000000000E+00  0.000000000E+00  4.068860050E+01  4.068860050E+01  0.000000000E+00  0.00000E+00  9.000E+00
      21    -1     0     0   502   512  0.000000000E+00  0.000000000E+00 -1.531106500E+03  1.531106500E+03  0.000000000E+00  0.00000E+00  9.000E+00
      25     1     1     2     0     0  6.989738571E+01 -3.098423114E+01 -3.304716588E+02  3.614983583E+02  1.249955144E+02  0.00000E+00  9.000E+00
       5     1     1     2   501     0  8.693963643E-01  4.533763702E+00  2.292846892E+01  2.386604388E+01  4.750000000E+00  0.00000E+00  9.000E+00
      -5     1     1     2     0   503 -7.158002515E+01  2.055495331E+01 -7.913446471E+02  7.948554077E+02  4.750000000E+00  0.00000E+00  9.000E+00
      21     1     1     2   503   512  8.132430707E-01  5.895514126E+00 -3.915300623E+02  3.915752905E+02  5.394796609E-06  0.00000E+00  9.000E+00
#rwgt            1           9   2.8765429504744307E-003           9      114295           0
</event>
<event>
      6   9999  3.45752E-01  2.19117E+01 -1.00000E+00  1.57242E-01
      21    -1     0     0   501   502  0.000000000E+00  0.000000000E+00  8.671788334E+01  8.671788334E+01  0.000000000E+00  0.00000E+00  9.000E+00
       2    -1     0     0   502     0  0.000000000E+00  0.000000000E+00 -1.607289193E+03  1.607289193E+03  0.000000000E+00  0.00000E+00  9.000E+00
      25     1     1     2     0     0  2.632664569E+01 -1.097056056E+01 -4.254488777E+02  4.443471797E+02  1.249968922E+02  0.00000E+00  9.000E+00
       5     1     1     2   501     0 -8.704973977E-01 -9.323211783E-01  7.461959715E+01  7.478150685E+01  4.750000000E+00  0.00000E+00  9.000E+00
      -5     1     1     2     0   503 -2.726691542E+01  3.373962683E+01 -1.922475224E+02  1.971383258E+02  4.750000000E+00  0.00000E+00  9.000E+00
       2     1     1     2   503     0  1.810767121E+00 -2.183674509E+01 -9.774945063E+02  9.777400637E+02  1.078959322E-05  0.00000E+00  9.000E+00
#rwgt            1           9  0.60283226687299918                9      119712           0
</event>
<event>
      6   9999 -3.45752E-01  8.44118E+00 -1.00000E+00  1.95295E-01
      -1    -1     0     0     0   502  0.000000000E+00  0.000000000E+00  1.398896269E+02  1.398896269E+02  0.000000000E+00  0.00000E+00  9.000E+00
      21    -1     0     0   502   503  0.000000000E+00  0.000000000E+00 -1.013841189E+03  1.013841189E+03  0.000000000E+00  0.00000E+00  9.000E+00
      25     1     1     2     0     0  4.741376586E+00 -4.793283946E+01 -3.560392197E+02  3.804060403E+02  1.249991670E+02  0.00000E+00  9.000E+00
       5     1     1     2   501     0 -1.331225250E+00  3.019332968E+00  1.305687834E+01  1.428051485E+01  4.750000000E+00  0.00000E+00  9.000E+00
      -5     1     1     2     0   503  4.863329115E+00  4.658772565E+01 -6.439899889E+02  6.457087086E+02  4.750000000E+00  0.00000E+00  9.000E+00
      -1     1     1     2     0   501 -8.273480450E+00 -1.674219163E+00  1.130207678E+02  1.133355525E+02  1.348699152E-06  0.00000E+00  9.000E+00
#rwgt            1           9  -2.1507423850760654E-002           9      121840           0
</event>
<event>
      6   9999  3.45752E-01  5.86558E+00 -1.00000E+00  2.15438E-01
      21    -1     0     0   501   511  0.000000000E+00  0.000000000E+00  1.367935722E+01  1.367935722E+01  0.000000000E+00  0.00000E+00  9.000E+00
      21    -1     0     0   502   503  0.000000000E+00  0.000000000E+00 -8.302049791E+02  8.302049791E+02  0.000000000E+00  0.00000E+00  9.000E+00
      25     1     1     2     0     0 -8.166420217E+00  1.303440221E+01 -7.587769419E+02  7.691589908E+02  1.250060781E+02  0.00000E+00  9.000E+00
       5     1     1     2   501     0  3.164912936E+00  5.678138634E-01  3.066755879E+00  6.504350705E+00  4.750000000E+00  0.00000E+00  9.000E+00
      -5     1     1     2     0   503  1.046261275E+01 -1.574263130E+01 -5.891518379E+01  6.205528251E+01  4.750000000E+00  0.00000E+00  9.000E+00
      21     1     1     2   502   511 -5.461105466E+00  2.140415223E+00 -1.900252098E+00  6.165712308E+00  2.484520078E-07  0.00000E+00  9.000E+00
#rwgt            1           9   1.0976791296901142E-003           9      125488           0
</event>
<event>
      6   9999  3.45752E-01  4.61782E+00 -1.00000E+00  2.35609E-01
      21    -1     0     0   512   502  0.000000000E+00  0.000000000E+00  6.288089198E+01  6.288089198E+01  0.000000000E+00  0.00000E+00  9.000E+00
      21    -1     0     0   502   503  0.000000000E+00  0.000000000E+00 -1.040903188E+02  1.040903188E+02  0.000000000E+00  0.00000E+00  9.000E+00
      25     1     1     2     0     0  7.078160147E+00  2.995647057E+00 -4.600333114E+01  1.334176747E+02  1.249995808E+02  0.00000E+00  9.000E+00
       5     1     1     2   501     0 -1.347988653E+00  3.852981299E-01  4.327157493E+00  6.576649605E+00  4.750000000E+00  0.00000E+00  9.000E+00
      -5     1     1     2     0   503 -3.854448486E+00 -7.600649888E+00 -1.094736719E+01  1.466403765E+01  4.750000000E+00  0.00000E+00  9.000E+00
      21     1     1     2   512   501 -1.875723007E+00  4.219704701E+00  1.141411405E+01  1.231284874E+01  0.000000000E+00  0.00000E+00  9.000E+00
#rwgt            1           9  0.87842091388492705                9      128975           0
</event>
<event>
      6   9999 -3.45752E-01  1.80768E+01 -1.00000E+00  1.63636E-01
      21    -1     0     0   501   502  0.000000000E+00  0.000000000E+00  2.069080513E+01  2.069080513E+01  0.000000000E+00  0.00000E+00  9.000E+00
      21    -1     0     0   502   511  0.000000000E+00  0.000000000E+00 -1.547867078E+03  1.547867078E+03  0.000000000E+00  0.00000E+00  9.000E+00
      25     1     1     2     0     0 -1.232423748E+00  1.416414255E+01 -3.993137850E+02  4.186629646E+02  1.250001490E+02  0.00000E+00  9.000E+00
       5     1     1     2   501     0 -5.849260804E+00 -2.441907429E+00  9.053823321E+00  1.202958771E+01  4.750000000E+00  0.00000E+00  9.000E+00
      -5     1     1     2     0   503 -2.323551177E+00 -2.715964284E+01 -5.866229340E+02  5.872751265E+02  4.750000000E+00  0.00000E+00  9.000E+00
      21     1     1     2   503   511  9.405235729E+00  1.543740772E+01 -5.502933774E+02  5.505902045E+02  7.629394531E-06  0.00000E+00  9.000E+00
#rwgt            1           9  -1.6902042846088787E-004           9      133320           0
</event>
<event>
      6   9999  3.45752E-01  1.67479E+01 -1.00000E+00  1.66325E-01
      21    -1     0     0   501   512  0.000000000E+00  0.000000000E+00  9.420961402E+00  9.420961402E+00  0.000000000E+00  0.00000E+00  9.000E+00
      21    -1     0     0   502   503  0.000000000E+00  0.000000000E+00 -7.543736066E+02  7.543736066E+02  0.000000000E+00  0.00000E+00  9.000E+00
      25     1     1     2     0     0 -2.090688798E+01  1.183085859E+01 -6.641633651E+02  6.762502945E+02  1.249976721E+02  0.00000E+00  9.000E+00
       5     1     1     2   501     0 -7.423394674E-01  7.543577672E-01 -6.713198266E+00  8.291541141E+00  4.750000000E+00  0.00000E+00  9.000E+00
      -5     1     1     2     0   503  8.920341788E+00 -1.700908039E+00 -3.987846937E+01  4.117426873E+01  4.750000000E+00  0.00000E+00  9.000E+00
      21     1     1     2   502   512  1.272888566E+01 -1.088430832E+01 -3.419761245E+01  3.807846366E+01  0.000000000E+00  0.00000E+00  9.000E+00
#rwgt            1           9   4.1920798431982142E-005           9      135273           0
</event>
<event>
      6   9999 -3.45752E-01  7.38444E+00 -1.00000E+00  2.02223E-01
      21    -1     0     0   501   511  0.000000000E+00  0.000000000E+00  9.333673484E+00  9.333673484E+00  0.000000000E+00  0.00000E+00  9.000E+00
      21    -1     0     0   502   503  0.000000000E+00  0.000000000E+00 -7.933589292E+02  7.933589292E+02  0.000000000E+00  0.00000E+00  9.000E+00
      25     1     1     2     0     0  2.308755550E+01 -6.993445601E+00 -5.595432118E+02  5.738427517E+02  1.249998174E+02  0.00000E+00  9.000E+00
       5     1     1     2   501     0  2.848718550E-01 -6.884270804E-01 -5.123976606E+00  7.026572428E+00  4.750000000E+00  0.00000E+00  9.000E+00
      -5     1     1     2     0   503 -2.409354627E+01  3.327245017E-01 -1.885395666E+02  1.901324285E+02  4.750000000E+00  0.00000E+00  9.000E+00
      21     1     1     2   502   511  7.211189232E-01  7.349148180E+00 -3.081850068E+01  3.169085003E+01  4.768371582E-07  0.00000E+00  9.000E+00
#rwgt            1           9  -1.4058845491851603E-004           9      136589           0
</event>
<event>
      6   9999  3.45752E-01  1.58051E+01 -1.00000E+00  1.68427E-01
      21    -1     0     0   512   503  0.000000000E+00  0.000000000E+00  1.305119950E+01  1.305119950E+01  0.000000000E+00  0.00000E+00  9.000E+00
      21    -1     0     0   501   502  0.000000000E+00  0.000000000E+00 -8.979548141E+02  8.979548141E+02  0.000000000E+00  0.00000E+00  9.000E+00
      25     1     1     2     0     0  7.723930660E+00 -1.855717320E+01 -8.270121572E+02  8.366557669E+02  1.250589316E+02  0.00000E+00  9.000E+00
       5     1     1     2   501     0  1.329203824E+00 -5.460660706E-01  1.218271722E+00  5.109956648E+00  4.750000000E+00  0.00000E+00  9.000E+00
      -5     1     1     2     0   503  2.754613192E-02  6.167153115E+00  2.740352890E-01  7.789231777E+00  4.750000000E+00  0.00000E+00  9.000E+00
      21     1     1     2   512   502 -9.080680616E+00  1.293608616E+01 -5.938376442E+01  6.145105827E+01  9.536743164E-07  0.00000E+00  9.000E+00
#rwgt            1           9   7.5665155839663712E-005           9      139167           0
</event>
<event>
      6   9999  3.45752E-01  7.08744E+00 -1.00000E+00  2.04454E-01
      21    -1     0     0   501   511  0.000000000E+00  0.000000000E+00  5.237905705E+02  5.237905705E+02  0.000000000E+00  0.00000E+00  9.000E+00
      21    -1     0     0   502   503  0.000000000E+00  0.000000000E+00 -1.310869447E+03  1.310869447E+03  0.000000000E+00  0.00000E+00  9.000E+00
      25     1     1     2     0     0  1.165331451E+01  7.330601046E-01 -9.755241226E+02  9.835767994E+02  1.250586640E+02  0.00000E+00  9.000E+00
       5     1     1     2   501     0 -8.547159681E+00  5.713434972E+00  4.297814715E+01  4.444525745E+01  4.750000000E+00  0.00000E+00  9.000E+00
      -5     1     1     2     0   503 -9.793207088E+00 -4.098076958E+00 -3.304567471E+02  3.306613454E+02  4.750000000E+00  0.00000E+00  9.000E+00
      21     1     1     2   502   511  6.687052264E+00 -2.348418119E+00  4.759238457E+02  4.759766156E+02  0.000000000E+00  0.00000E+00  9.000E+00
#rwgt            1           9   1.5303859157700978E-003           9      140919           0
</event>
<event>
      6   9999  3.45752E-01  3.65402E+01 -1.00000E+00  1.42503E-01
      21    -1     0     0   502   503  0.000000000E+00  0.000000000E+00  1.094910654E+01  1.094910654E+01  0.000000000E+00  0.00000E+00  9.000E+00
      21    -1     0     0   501   512  0.000000000E+00  0.000000000E+00 -1.487694037E+03  1.487694037E+03  0.000000000E+00  0.00000E+00  9.000E+00
      25     1     1     2     0     0  1.376571361E+01  2.341317223E+01 -4.744186244E+02  4.913613043E+02  1.250009150E+02  0.00000E+00  9.000E+00
       5     1     1     2   501     0  7.675188796E+00 -2.588456204E+01 -1.813196505E+02  1.833801985E+02  4.750000000E+00  0.00000E+00  9.000E+00
      -5     1     1     2     0   503  5.401967522E+00 -2.232067492E+01 -1.429240329E+02  1.448352010E+02  4.750000000E+00  0.00000E+00  9.000E+00
      21     1     1     2   502   512 -2.684286992E+01  2.479206473E+01 -6.780826225E+02  6.790664393E+02  0.000000000E+00  0.00000E+00  9.000E+00
#rwgt            1           9  0.20703781787191605                9      145823           0
</event>
<event>
      6   9999  3.45752E-01  3.36765E+00 -1.00000E+00  2.64407E-01
      21    -1     0     0   501   511  0.000000000E+00  0.000000000E+00  3.268528267E+01  3.268528267E+01  0.000000000E+00  0.00000E+00  9.000E+00
      21    -1     0     0   502   503  0.000000000E+00  0.000000000E+00 -1.084493920E+03  1.084493920E+03  0.000000000E+00  0.00000E+00  9.000E+00
      25     1     1     2     0     0 -1.556880642E+01 -8.932895573E+00 -2.533416250E+02  2.830679824E+02  1.249932773E+02  0.00000E+00  9.000E+00
       5     1     1     2   501     0  1.949153435E+00 -3.981846614E+00  1.438122676E+01  1.578088985E+01  4.750000000E+00  0.00000E+00  9.000E+00
      -5     1     1     2     0   503  1.035568839E+01  1.208553099E+01 -8.144372717E+02  8.146066120E+02  4.750000000E+00  0.00000E+00  9.000E+00
      21     1     1     2   502   511  3.263964598E+00  8.292111963E-01  1.589032376E+00  3.723718571E+00  1.429269172E-07  0.00000E+00  9.000E+00
#rwgt            1           9   3.4764383546275232E-003           9      146472           0
</event>
<event>
      6   9999  3.45752E-01  1.45570E+01 -1.00000E+00  1.71508E-01
      21    -1     0     0   501   502  0.000000000E+00  0.000000000E+00  9.974269535E+00  9.974269535E+00  0.000000000E+00  0.00000E+00  9.000E+00
      21    -1     0     0   502   512  0.000000000E+00  0.000000000E+00 -1.448019818E+03  1.448019818E+03  0.000000000E+00  0.00000E+00  9.000E+00
      25     1     1     2     0     0 -1.687008439E+01  1.069202135E+01 -6.522651095E+02  6.644350509E+02  1.250009790E+02  0.00000E+00  9.000E+00
       5     1     1     2   501     0 -4.886825936E-01  1.303640942E+00  1.564560323E+00  5.191207893E+00  4.750000000E+00  0.00000E+00  9.000E+00
      -5     1     1     2     0   503  1.278691376E+01  1.824759757E+00 -1.088310756E+02  1.096977686E+02  4.750000000E+00  0.00000E+00  9.000E+00
      21     1     1     2   503   512  4.571853226E+00 -1.382042205E+01 -6.785139236E+02  6.786700601E+02  7.629394531E-06  0.00000E+00  9.000E+00
#rwgt            1           9   3.5824400472678227E-005           9      153398           0
</event>
<event>
      6   9999  3.45752E-01  3.40511E+01 -1.00000E+00  1.44366E-01
      21    -1     0     0   511   502  0.000000000E+00  0.000000000E+00  5.195137410E+01  5.195137410E+01  0.000000000E+00  0.00000E+00  9.000E+00
      21    -1     0     0   502   503  0.000000000E+00  0.000000000E+00 -8.352473574E+02  8.352473574E+02  0.000000000E+00  0.00000E+00  9.000E+00
      25     1     1     2     0     0 -4.363754506E+00  1.826096325E+01 -7.496033532E+02  7.601852188E+02  1.249954980E+02  0.00000E+00  9.000E+00
       5     1     1     2   501     0 -1.161193397E+01 -8.413513678E+00 -1.045237219E+01  1.836950754E+01  4.750000000E+00  0.00000E+00  9.000E+00
      -5     1     1     2     0   503 -8.019141692E+00 -3.400786116E+01 -5.284053231E+01  6.352578696E+01  4.750000000E+00  0.00000E+00  9.000E+00
      21     1     1     2   511   501  2.399483017E+01  2.416041159E+01  2.960027448E+01  4.511821819E+01  5.840038640E-07  0.00000E+00  9.000E+00
#rwgt            1           9   2.7052282330297483E-003           9      155295           0
</event>
<event>
      6   9999  3.45752E-01  1.12661E+01 -1.00000E+00  1.81900E-01
      21    -1     0     0   512   502  0.000000000E+00  0.000000000E+00  2.082954607E+01  2.082954607E+01  0.000000000E+00  0.00000E+00  9.000E+00
      21    -1     0     0   502   503  0.000000000E+00  0.000000000E+00 -2.128848159E+03  2.128848159E+03  0.000000000E+00  0.00000E+00  9.000E+00
      25     1     1     2     0     0  5.791976425E+01 -4.922961642E+01 -1.324365203E+03  1.332421205E+03  1.249992885E+02  0.00000E+00  9.000E+00
       5     1     1     2   501     0 -3.179695631E+01  8.169333636E+01 -4.173488265E+02  4.264826528E+02  4.750000000E+00  0.00000E+00  9.000E+00
      -5     1     1     2     0   503 -2.218287733E+01 -2.190905688E+01 -3.751356957E+02  3.764590808E+02  4.750000000E+00  0.00000E+00  9.000E+00
      21     1     1     2   512   501 -3.939930603E+00 -1.055466306E+01  8.831112991E+00  1.431476588E+01  1.710975181E-06  0.00000E+00  9.000E+00
#rwgt            1           9   2.8412962614176421E-002           9      156387           0
</event>
<event>
      6   9999  3.45752E-01  1.03349E+01 -1.00000E+00  1.85699E-01
      21    -1     0     0   501   502  0.000000000E+00  0.000000000E+00  5.769590445E+01  5.769590445E+01  0.000000000E+00  0.00000E+00  9.000E+00
      21    -1     0     0   502   511  0.000000000E+00  0.000000000E+00 -4.731945235E+02  4.731945235E+02  0.000000000E+00  0.00000E+00  9.000E+00
      25     1     1     2     0     0 -7.410752163E+01 -3.927201823E+01 -2.872265052E+02  3.242797552E+02  1.249963126E+02  0.00000E+00  9.000E+00
       5     1     1     2   501     0  7.424603882E-01 -4.415441984E+00  2.778879488E+01  2.854517465E+01  4.750000000E+00  0.00000E+00  9.000E+00
      -5     1     1     2     0   503  6.485244504E+01  3.782696105E+01 -1.331637575E+02  1.529440009E+02  4.750000000E+00  0.00000E+00  9.000E+00
      21     1     1     2   503   511  8.512616208E+00  5.860499165E+00 -2.289715128E+01  2.512149721E+01  4.768371582E-07  0.00000E+00  9.000E+00
#rwgt            1           9   1.7694587658157484E-004           9      159108           0
</event>
<event>
      6   9999  3.45752E-01  3.14589E+01 -1.00000E+00  1.46516E-01
      21    -1     0     0   512   502  0.000000000E+00  0.000000000E+00  1.232889963E+02  1.232889963E+02  0.000000000E+00  0.00000E+00  9.000E+00
      21    -1     0     0   502   503  0.000000000E+00  0.000000000E+00 -2.020195833E+02  2.020195833E+02  0.000000000E+00  0.00000E+00  9.000E+00
      25     1     1     2     0     0 -2.872826362E+01 -4.897569861E+01  1.173466641E+00  1.372966668E+02  1.250002620E+02  0.00000E+00  9.000E+00
       5     1     1     2   501     0 -3.826710900E+00 -4.049095237E+00  2.430646213E+01  2.538514309E+01  4.750000000E+00  0.00000E+00  9.000E+00
      -5     1     1     2     0   503  6.690085593E+00  3.511761907E+01 -1.214935605E+02  1.267329956E+02  4.750000000E+00  0.00000E+00  9.000E+00
      21     1     1     2   512   501  2.586488892E+01  1.790717477E+01  1.728304479E+01  3.589377418E+01  4.129530925E-07  0.00000E+00  9.000E+00
#rwgt            1           9   2.6284856644615542                9      162355           0
</event>
<event>
      6   9999  3.45752E-01  9.96574E+00 -1.00000E+00  1.87351E-01
      21    -1     0     0   511   502  0.000000000E+00  0.000000000E+00  1.672425342E+02  1.672425342E+02  0.000000000E+00  0.00000E+00  9.000E+00
      21    -1     0     0   502   503  0.000000000E+00  0.000000000E+00 -2.076646761E+02  2.076646761E+02  0.000000000E+00  0.00000E+00  9.000E+00
      25     1     1     2     0     0 -1.761593756E+01 -7.125755897E+00 -1.612489696E+02  2.049088799E+02  1.250012849E+02  0.00000E+00  9.000E+00
       5     1     1     2   501     0 -1.065578056E+00 -7.145907255E-01  6.265414828E+01  6.284704363E+01  4.750000000E+00  0.00000E+00  9.000E+00
      -5     1     1     2     0   503  2.566586768E+01  7.315605153E-01 -1.710576632E+01  3.121604854E+01  4.750000000E+00  0.00000E+00  9.000E+00
      21     1     1     2   511   501 -6.984352061E+00  7.108786107E+00  7.527844568E+01  7.593523818E+01  9.536743164E-07  0.00000E+00  9.000E+00
#rwgt            1           9   3.5326325809371002                9      163662           0
</event>
<event>
      6   9999  3.45752E-01  3.77756E+00 -1.00000E+00  2.53108E-01
      21    -1     0     0   501   502  0.000000000E+00  0.000000000E+00  7.101849482E+01  7.101849482E+01  0.000000000E+00  0.00000E+00  9.000E+00
       1    -1     0     0   502     0  0.000000000E+00  0.000000000E+00 -1.853252580E+02  1.853252580E+02  0.000000000E+00  0.00000E+00  9.000E+00
      25     1     1     2     0     0  5.253672019E+00 -2.563137631E+00 -1.198060456E+02  1.732444214E+02  1.250038809E+02  0.00000E+00  9.000E+00
       5     1     1     2   501     0 -8.907675184E-01  2.271042560E+00  4.240311427E+01  4.273801237E+01  4.750000000E+00  0.00000E+00  9.000E+00
      -5     1     1     2     0   503 -6.401470918E-01 -3.490416321E-01 -1.921384173E+00  5.175503405E+00  4.750000000E+00  0.00000E+00  9.000E+00
       1     1     1     2   503     0 -3.722757409E+00  6.411367028E-01 -3.498244760E+01  3.518581560E+01  4.768371582E-07  0.00000E+00  9.000E+00
#rwgt            1           9   2.0342077191250448E-004           9      166953           0
</event>
<event>
      6   9999  3.45752E-01  1.62435E+01 -1.00000E+00  1.67427E-01
       2    -1     0     0   501     0  0.000000000E+00  0.000000000E+00  1.882224030E+03  1.882224030E+03  0.000000000E+00  0.00000E+00  9.000E+00
      21    -1     0     0   502   503  0.000000000E+00  0.000000000E+00 -1.245843718E+02  1.245843718E+02  0.000000000E+00  0.00000E+00  9.000E+00
      25     1     1     2     0     0  3.673288879E+01 -6.421888884E+01  4.505560867E+01  1.520824979E+02  1.250028299E+02  0.00000E+00  9.000E+00
       5     1     1     2   501     0  4.987981150E+00  8.840053945E+00  9.847315995E+02  9.847953656E+02  4.750000000E+00  0.00000E+00  9.000E+00
      -5     1     1     2     0   503 -5.387188278E+01  4.459896921E+01 -5.364143850E+01  8.826785503E+01  4.750000000E+00  0.00000E+00  9.000E+00
       2     1     1     2   502     0  1.215101284E+01  1.077986569E+01  7.814938881E+02  7.816626829E+02  1.525878906E-05  0.00000E+00  9.000E+00
#rwgt            1           9   1.5437688995907249E-003           9      172263           0
</event>
<event>
      6   9999  3.45752E-01  2.20112E+00 -1.00000E+00  3.17576E-01
      21    -1     0     0   501   502  0.000000000E+00  0.000000000E+00  1.215226762E+03  1.215226762E+03  0.000000000E+00  0.00000E+00  9.000E+00
      21    -1     0     0   511   503  0.000000000E+00  0.000000000E+00 -7.722788266E+01  7.722788266E+01  0.000000000E+00  0.00000E+00  9.000E+00
      25     1     1     2     0     0 -4.673715963E+00  1.145258023E+00  7.007865300E+02  7.118639055E+02  1.250012163E+02  0.00000E+00  9.000E+00
       5     1     1     2   501     0  2.637187575E-01 -7.328524571E-01  4.459835055E+02  4.460094800E+02  4.750000000E+00  0.00000E+00  9.000E+00
      -5     1     1     2     0   503  2.768022108E+00  1.053491598E+00  6.276355976E+01  6.301268702E+01  4.750000000E+00  0.00000E+00  9.000E+00
      21     1     1     2   511   502  1.641975097E+00 -1.465897164E+00 -7.153471590E+01  7.156857212E+01  4.264961200E-06  0.00000E+00  9.000E+00
#rwgt            1           9   5.4329702667152728E-004           9      175418           0
</event>
<event>
      6   9999 -3.45752E-01  6.77870E+00 -1.00000E+00  2.06933E-01
      21    -1     0     0   501   512  0.000000000E+00  0.000000000E+00  1.752325425E+01  1.752325425E+01  0.000000000E+00  0.00000E+00  9.000E+00
      21    -1     0     0   502   503  0.000000000E+00  0.000000000E+00 -8.058289204E+02  8.058289204E+02  0.000000000E+00  0.00000E+00  9.000E+00
      25     1     1     2     0     0  1.400297766E+01 -1.491911930E+00 -7.593697168E+02  7.697180859E+02  1.250010228E+02  0.00000E+00  9.000E+00
       5     1     1     2   501     0 -2.417374652E+00 -1.647041375E+00  2.406429862E+00  6.075347741E+00  4.750000000E+00  0.00000E+00  9.000E+00
      -5     1     1     2     0   503 -1.275244697E+01 -3.538560275E+00 -3.645205677E+01  3.906995336E+01  4.750000000E+00  0.00000E+00  9.000E+00
      21     1     1     2   502   512  1.166843968E+00  6.677513580E+00  5.109677550E+00  8.488787730E+00  4.693274423E-07  0.00000E+00  9.000E+00
#rwgt            1           9  -1.7579407964546676E-003           9      182246           0
</event>
<event>
      6   9999  3.45752E-01  1.15128E+01 -1.00000E+00  1.80971E-01
      21    -1     0     0   501   502  0.000000000E+00  0.000000000E+00  1.840588350E+01  1.840588350E+01  0.000000000E+00  0.00000E+00  9.000E+00
      21    -1     0     0   502   511  0.000000000E+00  0.000000000E+00 -1.167833139E+03  1.167833139E+03  0.000000000E+00  0.00000E+00  9.000E+00
      25     1     1     2     0     0 -6.866643075E-01  6.736986287E+00 -7.034358249E+02  7.144887974E+02  1.250056930E+02  0.00000E+00  9.000E+00
       5     1     1     2   501     0  1.628085165E+00 -2.696474365E-01  1.216933002E+01  1.316732563E+01  4.750000000E+00  0.00000E+00  9.000E+00
      -5     1     1     2     0   503 -2.004764283E+00  4.996260992E+00 -2.508413973E+02  2.509441189E+02  4.750000000E+00  0.00000E+00  9.000E+00
      21     1     1     2   503   511  1.063343426E+00 -1.146359984E+01 -2.073193635E+02  2.076387808E+02  3.814697266E-06  0.00000E+00  9.000E+00
#rwgt            1           9   7.9821517338184785E-004           9      185319           0
</event>
<event>
      6   9999 -3.45752E-01  7.51563E+00 -1.00000E+00  2.01282E-01
      21    -1     0     0   512   502  0.000000000E+00  0.000000000E+00  3.871789075E+02  3.871789075E+02  0.000000000E+00  0.00000E+00  9.000E+00
      21    -1     0     0   502   503  0.000000000E+00  0.000000000E+00 -2.448833722E+02  2.448833722E+02  0.000000000E+00  0.00000E+00  9.000E+00
      25     1     1     2     0     0 -4.793817094E+01 -4.229135048E+01 -2.044557868E+02  2.480261891E+02  1.250127800E+02  0.00000E+00  9.000E+00
       5     1     1     2   501     0 -1.680100844E+00 -1.594050585E+00  1.347690878E+02  1.348726558E+02  4.750000000E+00  0.00000E+00  9.000E+00
      -5     1     1     2     0   503  4.848872275E+01  3.645514193E+01  3.149052941E+01  6.851532346E+01  4.750000000E+00  0.00000E+00  9.000E+00
      21     1     1     2   512   501  1.129549041E+00  7.430259144E+00  1.804917049E+02  1.806481114E+02  3.814697266E-06  0.00000E+00  9.000E+00
#rwgt            1           9  -2.0977667543002558E-002           9      188617           0
</event>
<event>
      6   9999  3.45752E-01  5.68284E+01 -1.00000E+00  1.31879E-01
      21    -1     0     0   501   502  0.000000000E+00  0.000000000E+00  5.033192192E+02  5.033192192E+02  0.000000000E+00  0.00000E+00  9.000E+00
      21    -1     0     0   511   503  0.000000000E+00  0.000000000E+00 -3.084824623E+03  3.084824623E+03  0.000000000E+00  0.00000E+00  9.000E+00
      25     1     1     2     0     0  3.910394874E+02  6.962614548E+02 -2.342675898E+02  8.415448930E+02  1.249984363E+02  0.00000E+00  9.000E+00
       5     1     1     2   501     0  1.409967249E+00  7.939623760E+00  1.159704433E+02  1.163474618E+02  4.750000000E+00  0.00000E+00  9.000E+00
      -5     1     1     2     0   503 -3.907270947E+02 -7.610033841E+02 -2.383430181E+03  2.532302471E+03  4.750000000E+00  0.00000E+00  9.000E+00
      21     1     1     2   511   502 -1.722359957E+00  5.680230546E+01 -7.977807628E+01  9.794901676E+01  0.000000000E+00  0.00000E+00  9.000E+00
#rwgt            1           9   2.5738502344177343E-003           9      193445           0
</event>
<event>
      6   9999  3.45752E-01  2.40097E+01 -1.00000E+00  1.54380E-01
      21    -1     0     0   501   512  0.000000000E+00  0.000000000E+00  4.529196684E+01  4.529196684E+01  0.000000000E+00  0.00000E+00  9.000E+00
      21    -1     0     0   502   503  0.000000000E+00  0.000000000E+00 -8.150494951E+02  8.150494951E+02  0.000000000E+00  0.00000E+00  9.000E+00
      25     1     1     2     0     0 -3.487288726E+01  2.002915336E+01 -6.964009147E+02  7.086724953E+02  1.250007452E+02  0.00000E+00  9.000E+00
       5     1     1     2   501     0  7.825641185E-02 -3.617369353E+00 -1.612715919E+01  1.719707093E+01  4.750000000E+00  0.00000E+00  9.000E+00
      -5     1     1     2     0   503  1.805035231E+01 -3.361914991E+01 -8.765234876E+01  9.571603420E+01  4.750000000E+00  0.00000E+00  9.000E+00
      21     1     1     2   502   512  1.674427854E+01  1.720736590E+01  3.042289437E+01  3.875586158E+01  9.536743164E-07  0.00000E+00  9.000E+00
#rwgt            1           9   7.4369960907479484E-004           9      196009           0
</event>
<event>
      6   9999  3.45752E-01  1.00496E+01 -1.00000E+00  1.86968E-01
      21    -1     0     0   501   511  0.000000000E+00  0.000000000E+00  3.820392259E+01  3.820392259E+01  0.000000000E+00  0.00000E+00  9.000E+00
      21    -1     0     0   502   503  0.000000000E+00  0.000000000E+00 -9.138923283E+02  9.138923283E+02  0.000000000E+00  0.00000E+00  9.000E+00
      25     1     1     2     0     0 -2.116103852E+01 -1.072734128E+01 -7.440109728E+02  7.548113917E+02  1.250001763E+02  0.00000E+00  9.000E+00
       5     1     1     2   501     0  2.870720496E+00  1.704230638E+00  1.301576877E+01  1.425195337E+01  4.750000000E+00  0.00000E+00  9.000E+00
      -5     1     1     2     0   503  2.339955025E+01  3.692370422E-01 -1.616054075E+02  1.633601712E+02  4.750000000E+00  0.00000E+00  9.000E+00
      21     1     1     2   502   511 -5.109232223E+00  8.653873603E+00  1.691220581E+01  1.967273463E+01  8.259061849E-07  0.00000E+00  9.000E+00
#rwgt            1           9   4.8096772223593957E-004           9      197161           0
</event>
<event>
      6   9999  3.45752E-01  6.41955E+00 -1.00000E+00  2.10049E-01
      21    -1     0     0   501   502  0.000000000E+00  0.000000000E+00  1.589779872E+02  1.589779872E+02  0.000000000E+00  0.00000E+00  9.000E+00
      21    -1     0     0   502   512  0.000000000E+00  0.000000000E+00 -2.562028134E+02  2.562028134E+02  0.000000000E+00  0.00000E+00  9.000E+00
      25     1     1     2     0     0 -7.255354326E+01 -5.647436167E+01  8.938674228E+01  1.790770290E+02  1.250008898E+02  0.00000E+00  9.000E+00
       5     1     1     2   501     0 -7.282660167E-01 -4.584938056E-02  1.166707769E+01  1.261806940E+01  4.750000000E+00  0.00000E+00  9.000E+00
      -5     1     1     2     0   503  7.217159821E+01  6.284303075E+01 -1.771295031E+02  2.013837368E+02  4.750000000E+00  0.00000E+00  9.000E+00
      21     1     1     2   503   512  1.110211070E+00 -6.322819695E+00 -2.114914312E+01  2.210196535E+01  2.384185791E-07  0.00000E+00  9.000E+00
#rwgt            1           9   9.6685739639146465E-002           9      199783           0
</event>
<event>
      6   9999  3.45752E-01  1.59850E+01 -1.00000E+00  1.68012E-01
      21    -1     0     0   501   502  0.000000000E+00  0.000000000E+00  7.926526623E+00  7.926526623E+00  0.000000000E+00  0.00000E+00  9.000E+00
      21    -1     0     0   502   511  0.000000000E+00  0.000000000E+00 -8.521235274E+02  8.521235274E+02  0.000000000E+00  0.00000E+00  9.000E+00
      25     1     1     2     0     0 -7.505392469E+00  2.092069236E+01 -6.439008409E+02  6.563017266E+02  1.250186271E+02  0.00000E+00  9.000E+00
       5     1     1     2   501     0 -2.027064539E+00 -6.266876371E+00 -1.585976892E+01  1.781789831E+01  4.750000000E+00  0.00000E+00  9.000E+00
      -5     1     1     2     0   503  1.274694912E+00 -9.669275942E-01 -1.674961748E+01  1.748347740E+01  4.750000000E+00  0.00000E+00  9.000E+00
      21     1     1     2   503   511  8.257762096E+00 -1.368688839E+01 -1.676867734E+02  1.684469516E+02  1.907348633E-06  0.00000E+00  9.000E+00
#rwgt            1           9   2.1275759124454036E-003           9      204232           0
</event>
<event>
      6   9999  3.45752E-01  3.92813E+01 -1.00000E+00  1.40644E-01
      21    -1     0     0   501   502  0.000000000E+00  0.000000000E+00  2.310313474E+02  2.310313474E+02  0.000000000E+00  0.00000E+00  9.000E+00
      21    -1     0     0   502   512  0.000000000E+00  0.000000000E+00 -1.996142122E+03  1.996142122E+03  0.000000000E+00  0.00000E+00  9.000E+00
      25     1     1     2     0     0  5.410139354E+01 -1.349544377E+02 -1.323202749E+02  2.329677849E+02  1.250026903E+02  0.00000E+00  9.000E+00
       5     1     1     2   501     0  8.153016915E+00 -6.210501404E+00  1.682068679E+02  1.685857495E+02  4.750000000E+00  0.00000E+00  9.000E+00
      -5     1     1     2     0   503 -6.630935084E+01  1.020934779E+02 -2.957530215E+02  3.198631277E+02  4.750000000E+00  0.00000E+00  9.000E+00
      21     1     1     2   503   512  4.054940381E+00  3.907146126E+01 -1.505244346E+03  1.505756807E+03  2.157918644E-05  0.00000E+00  9.000E+00
#rwgt            1           9   3.4828400005705779E-004           9      205862           0
</event>
<event>
      6   9999  3.45752E-01  1.30922E+01 -1.00000E+00  1.75656E-01
      21    -1     0     0   511   502  0.000000000E+00  0.000000000E+00  1.824845012E+01  1.824845012E+01  0.000000000E+00  0.00000E+00  9.000E+00
      21    -1     0     0   502   503  0.000000000E+00  0.000000000E+00 -9.691978523E+02  9.691978523E+02  0.000000000E+00  0.00000E+00  9.000E+00
      25     1     1     2     0     0 -7.929392840E+00  9.058479932E+00 -3.276220903E+02  3.508659643E+02  1.250030382E+02  0.00000E+00  9.000E+00
       5     1     1     2   501     0 -2.397000147E+00  6.514519490E-01  4.023762501E+00  6.702474469E+00  4.750000000E+00  0.00000E+00  9.000E+00
      -5     1     1     2     0   503  1.852681378E+00  2.701280624E-01 -5.943889591E+02  5.944108870E+02  4.750000000E+00  0.00000E+00  9.000E+00
      21     1     1     2   511   501  8.473711608E+00 -9.980059943E+00 -3.296211520E+01  3.546697652E+01  8.259061849E-07  0.00000E+00  9.000E+00
#rwgt            1           9   1.3747542843839050E-003           9      208129           0
</event>
<event>
      6   9999  3.45752E-01  1.03701E+01 -1.00000E+00  1.85546E-01
      -2    -1     0     0     0   502  0.000000000E+00  0.000000000E+00  3.191146003E+01  3.191146003E+01  0.000000000E+00  0.00000E+00  9.000E+00
      21    -1     0     0   502   503  0.000000000E+00  0.000000000E+00 -6.479038416E+02  6.479038416E+02  0.000000000E+00  0.00000E+00  9.000E+00
      25     1     1     2     0     0  3.402676054E+00  3.716109197E+00 -5.551207285E+02  5.690418474E+02  1.249968530E+02  0.00000E+00  9.000E+00
       5     1     1     2   501     0  3.979688298E-01 -4.054008680E-02 -1.262742604E+01  1.349720012E+01  4.750000000E+00  0.00000E+00  9.000E+00
      -5     1     1     2     0   503  6.522360082E+00 -4.662704020E+00 -7.134688136E+01  7.195291495E+01  4.750000000E+00  0.00000E+00  9.000E+00
      -2     1     1     2     0   501 -1.032300497E+01  9.871349094E-01  2.310265433E+01  2.532333912E+01  0.000000000E+00  0.00000E+00  9.000E+00
#rwgt            1           9   1.7993608975253023E-004           9      211328           0
</event>
<event>
      6   9999  3.45752E-01  6.15827E+00 -1.00000E+00  2.12495E-01
      21    -1     0     0   501   502  0.000000000E+00  0.000000000E+00  1.272896572E+01  1.272896572E+01  0.000000000E+00  0.00000E+00  9.000E+00
      21    -1     0     0   511   503  0.000000000E+00  0.000000000E+00 -1.761103871E+03  1.761103871E+03  0.000000000E+00  0.00000E+00  9.000E+00
      25     1     1     2     0     0 -6.026173984E+00 -3.666641124E+00 -7.568107806E+02  7.670940151E+02  1.249836442E+02  0.00000E+00  9.000E+00
       5     1     1     2   501     0 -7.202413439E-02 -1.301611724E+00  6.591216822E+00  8.228366773E+00  4.750000000E+00  0.00000E+00  9.000E+00
      -5     1     1     2     0   503  8.053302601E-01  1.820265290E+00 -3.938134630E+01  3.971668237E+01  4.750000000E+00  0.00000E+00  9.000E+00
      21     1     1     2   511   502  5.292867859E+00  3.147987558E+00 -9.587739948E+02  9.587937721E+02  0.000000000E+00  0.00000E+00  9.000E+00
#rwgt            1           9   1.8053138484515596E-004           9      213264           0
</event>
<event>
      6   9999  3.45752E-01  5.19687E+00 -1.00000E+00  2.23137E-01
       1    -1     0     0   501     0  0.000000000E+00  0.000000000E+00  3.079589479E+02  3.079589479E+02  0.000000000E+00  0.00000E+00  9.000E+00
      21    -1     0     0   502   503  0.000000000E+00  0.000000000E+00 -1.063985106E+03  1.063985106E+03  0.000000000E+00  0.00000E+00  9.000E+00
      25     1     1     2     0     0 -6.861010740E+01  2.625017203E+01 -5.600186919E+02  5.784829381E+02  1.250006244E+02  0.00000E+00  9.000E+00
       5     1     1     2   501     0 -4.710811615E+00  4.273677665E-01  9.490125799E+00  1.161892323E+01  4.750000000E+00  0.00000E+00  9.000E+00
      -5     1     1     2     0   503  6.928378620E+01 -2.340506905E+01 -4.909263748E+02  4.963661031E+02  4.750000000E+00  0.00000E+00  9.000E+00
       1     1     1     2   502     0  4.037132808E+00 -3.272470741E+00  2.854287829E+02  2.854760894E+02  3.814697266E-06  0.00000E+00  9.000E+00
#rwgt            1           9   5.8948169607948618E-003           9      216999           0
</event>
<event>
      6   9999  3.45752E-01  4.78184E+00 -1.00000E+00  2.32824E-01
      21    -1     0     0   501   511  0.000000000E+00  0.000000000E+00  1.717247228E+02  1.717247228E+02  0.000000000E+00  0.00000E+00  9.000E+00
      21    -1     0     0   502   503  0.000000000E+00  0.000000000E+00 -4.089741377E+02  4.089741377E+02  0.000000000E+00  0.00000E+00  9.000E+00
      25     1     1     2     0     0 -8.880277081E-01  2.134914008E+00 -3.510034503E+02  3.726077979E+02  1.250112094E+02  0.00000E+00  9.000E+00
       5     1     1     2   501     0  5.126006131E+00  3.594636266E+00  3.814803157E+01  3.894909706E+01  4.750000000E+00  0.00000E+00  9.000E+00
      -5     1     1     2     0   503  3.872699797E-01 -4.515838750E+00 -4.649052756E+01  4.695183096E+01  4.750000000E+00  0.00000E+00  9.000E+00
      21     1     1     2   502   511 -4.625248403E+00 -1.213711524E+00  1.220965314E+02  1.221901346E+02  1.907348633E-06  0.00000E+00  9.000E+00
#rwgt            1           9   4.7713897183449865E-002           9      222066           0
</event>
<event>
      6   9999  3.45752E-01  2.00972E+00 -1.00000E+00  3.32074E-01
      21    -1     0     0   512   502  0.000000000E+00  0.000000000E+00  1.018443452E+03  1.018443452E+03  0.000000000E+00  0.00000E+00  9.000E+00
      21    -1     0     0   502   503  0.000000000E+00  0.000000000E+00 -3.429630987E+01  3.429630987E+01  0.000000000E+00  0.00000E+00  9.000E+00
      25     1     1     2     0     0  5.307662843E+01 -1.197980464E+01  5.189052401E+02  5.365140681E+02  1.249962115E+02  0.00000E+00  9.000E+00
       5     1     1     2   501     0  3.110673534E+00  2.353066386E+00  4.025092417E+02  4.025561642E+02  4.750000000E+00  0.00000E+00  9.000E+00
      -5     1     1     2     0   503 -5.757299208E+01  1.108236071E+01  8.538959497E+00  5.943857724E+01  4.750000000E+00  0.00000E+00  9.000E+00
      21     1     1     2   512   501  1.385690112E+00 -1.455622454E+00  5.419370047E+01  5.423095190E+01  6.743495762E-07  0.00000E+00  9.000E+00
#rwgt            1           9   4.8355584676184025                9      226741           0
</event>
<event>
      6   9999  3.45752E-01  9.32487E+00 -1.00000E+00  1.90449E-01
      21    -1     0     0   501   502  0.000000000E+00  0.000000000E+00  1.638609349E+01  1.638609349E+01  0.000000000E+00  0.00000E+00  9.000E+00
      21    -1     0     0   502   511  0.000000000E+00  0.000000000E+00 -2.078123053E+03  2.078123053E+03  0.000000000E+00  0.00000E+00  9.000E+00
      25     1     1     2     0     0  9.612971292E+00  1.674656844E+00 -3.891193245E+02  4.088214580E+02  1.250036887E+02  0.00000E+00  9.000E+00
       5     1     1     2   501     0  4.276572990E-01 -5.658891804E-01  4.950045122E+00  6.896997030E+00  4.750000000E+00  0.00000E+00  9.000E+00
      -5     1     1     2     0   503 -8.579655022E-01  5.135518075E-01 -9.244171179E+00  1.044112260E+01  4.750000000E+00  0.00000E+00  9.000E+00
      21     1     1     2   503   511 -9.182663089E+00 -1.622319471E+00 -1.668323509E+03  1.668349569E+03  0.000000000E+00  0.00000E+00  9.000E+00
#rwgt            1           9   2.1061468456573702E-002           9      237013           0
</event>
<event>
      6   9999  3.45752E-01  6.73717E+00 -1.00000E+00  2.07280E-01
      21    -1     0     0   512   502  0.000000000E+00  0.000000000E+00  3.354090662E+02  3.354090662E+02  0.000000000E+00  0.00000E+00  9.000E+00
      21    -1     0     0   502   503  0.000000000E+00  0.000000000E+00 -8.448033289E+02  8.448033289E+02  0.000000000E+00  0.00000E+00  9.000E+00
      25     1     1     2     0     0 -5.300114724E+00  1.131518211E+00 -8.163877435E+02  8.259198099E+02  1.250008525E+02  0.00000E+00  9.000E+00
       5     1     1     2   501     0  1.905647517E+00  1.942040073E+00  6.158537983E+00  8.239727070E+00  4.750000000E+00  0.00000E+00  9.000E+00
      -5     1     1     2     0   503  7.278332868E-01  3.113409026E+00 -2.221074276E+01  2.293692767E+01  4.750000000E+00  0.00000E+00  9.000E+00
      21     1     1     2   512   501  2.666633921E+00 -6.186967310E+00  3.230456856E+02  3.231159304E+02  9.344061824E-06  0.00000E+00  9.000E+00
#rwgt            1           9   5.2370696191940490E-005           9      240006           0
</event>
<event>
      6   9999  3.45752E-01  1.03107E+01 -1.00000E+00  1.85805E-01
      21    -1     0     0   501   502  0.000000000E+00  0.000000000E+00  1.508386291E+02  1.508386291E+02  0.000000000E+00  0.00000E+00  9.000E+00
       2    -1     0     0   502     0  0.000000000E+00  0.000000000E+00 -8.422663057E+02  8.422663057E+02  0.000000000E+00  0.00000E+00  9.000E+00
      25     1     1     2     0     0 -8.591400645E+01  6.975399305E+01 -1.074383978E+02  1.985291817E+02  1.249959623E+02  0.00000E+00  9.000E+00
       5     1     1     2   501     0 -9.404456565E-01 -1.335026518E+00  8.625911739E+01  8.640523461E+01  4.750000000E+00  0.00000E+00  9.000E+00
      -5     1     1     2     0   503  8.984641753E+01 -5.855188659E+01 -1.334194320E+02  1.712425458E+02  4.750000000E+00  0.00000E+00  9.000E+00
       2     1     1     2   503     0 -2.991965422E+00 -9.867079935E+00 -5.368289643E+02  5.369279728E+02  0.000000000E+00  0.00000E+00  9.000E+00
#rwgt            1           9  0.12638132410426717                9      243415           0
</event>
<event>
      6   9999  3.45752E-01  4.65129E+00 -1.00000E+00  2.35027E-01
      21    -1     0     0   501   502  0.000000000E+00  0.000000000E+00  2.974863195E+02  2.974863195E+02  0.000000000E+00  0.00000E+00  9.000E+00
      21    -1     0     0   502   511  0.000000000E+00  0.000000000E+00 -1.953264794E+02  1.953264794E+02  0.000000000E+00  0.00000E+00  9.000E+00
      25     1     1     2     0     0 -3.895227521E+00 -8.008288067E+00 -2.289934664E+01  1.273914582E+02  1.249995923E+02  0.00000E+00  9.000E+00
       5     1     1     2   501     0 -2.541310525E+00  3.784118687E+00  2.432750302E+02  2.433640907E+02  4.750000000E+00  0.00000E+00  9.000E+00
      -5     1     1     2     0   503  2.160244909E+00  2.394472062E+00 -2.523459271E+00  6.271403449E+00  4.750000000E+00  0.00000E+00  9.000E+00
      21     1     1     2   503   511  4.276293136E+00  1.829697318E+00 -1.156923842E+02  1.157858465E+02  1.348699152E-06  0.00000E+00  9.000E+00
#rwgt            1           9   14.316300965692143                9      246789           0
</event>
<event>
      6   9999  3.45752E-01  1.26540E+01 -1.00000E+00  1.77031E-01
      21    -1     0     0   512   502  0.000000000E+00  0.000000000E+00  4.861360345E+01  4.861360345E+01  0.000000000E+00  0.00000E+00  9.000E+00
      21    -1     0     0   502   503  0.000000000E+00  0.000000000E+00 -8.316417448E+02  8.316417448E+02  0.000000000E+00  0.00000E+00  9.000E+00
      25     1     1     2     0     0  1.376730239E+01 -2.122392018E+01 -4.383053758E+02  4.564825292E+02  1.249988145E+02  0.00000E+00  9.000E+00
       5     1     1     2   501     0  8.972220676E+00  3.411893904E+01 -1.937476015E+02  1.969906047E+02  4.750000000E+00  0.00000E+00  9.000E+00
      -5     1     1     2     0   503 -1.452114180E+01 -2.251702492E+01 -1.868086472E+02  1.887800655E+02  4.750000000E+00  0.00000E+00  9.000E+00
      21     1     1     2   512   501 -8.218381269E+00  9.622006059E+00  3.583348321E+01  3.800214876E+01  4.768371582E-07  0.00000E+00  9.000E+00
#rwgt            1           9   2.9131381318559486E-002           9      252213           0
</event>
<event>
      6   9999  3.45752E-01  1.30326E+01 -1.00000E+00  1.75839E-01
      21    -1     0     0   511   502  0.000000000E+00  0.000000000E+00  1.270306005E+02  1.270306005E+02  0.000000000E+00  0.00000E+00  9.000E+00
      21    -1     0     0   502   503  0.000000000E+00  0.000000000E+00 -1.924875748E+03  1.924875748E+03  0.000000000E+00  0.00000E+00  9.000E+00
      25     1     1     2     0     0 -1.179703928E+00 -9.159883291E+00 -1.757644737E+03  1.762107870E+03  1.249953282E+02  0.00000E+00  9.000E+00
       5     1     1     2   501     0  1.174280172E+01  2.961589808E+00  2.048954724E+01  2.427032040E+01  4.750000000E+00  0.00000E+00  9.000E+00
      -5     1     1     2     0   503 -1.435904480E+00 -3.104595031E+00 -1.626416018E+02  1.627469001E+02  4.750000000E+00  0.00000E+00  9.000E+00
      21     1     1     2   511   501 -9.127193307E+00  9.302888514E+00  1.019516434E+02  1.027812579E+02  5.223489356E-06  0.00000E+00  9.000E+00
#rwgt            1           9   1.1986440601022434E-002           9      254284           0
</event>
<event>
      6   9999  3.45752E-01  1.18471E+01 -1.00000E+00  1.79759E-01
      21    -1     0     0   501   502  0.000000000E+00  0.000000000E+00  6.927816025E+01  6.927816025E+01  0.000000000E+00  0.00000E+00  9.000E+00
      21    -1     0     0   512   503  0.000000000E+00  0.000000000E+00 -3.753686205E+02  3.753686205E+02  0.000000000E+00  0.00000E+00  9.000E+00
      25     1     1     2     0     0  5.219583569E+00 -1.330178247E+01 -3.252608242E+02  3.487456487E+02  1.249989690E+02  0.00000E+00  9.000E+00
       5     1     1     2   501     0 -1.014302890E+00  2.016533458E+00  5.532507375E+01  5.557446808E+01  4.750000000E+00  0.00000E+00  9.000E+00
      -5     1     1     2     0   503  2.199406197E+00  1.318642737E+00 -6.874749991E+00  8.740760477E+00  4.750000000E+00  0.00000E+00  9.000E+00
      21     1     1     2   512   502 -6.404686876E+00  9.966606274E+00 -2.927995982E+01  3.158590353E+01  4.768371582E-07  0.00000E+00  9.000E+00
#rwgt            1           9   1.1776294516098981E-002           9      256944           0
</event>
<event>
      6   9999  3.45752E-01  8.28101E+00 -1.00000E+00  1.96257E-01
      21    -1     0     0   511   502  0.000000000E+00  0.000000000E+00  7.508795053E+00  7.508795053E+00  0.000000000E+00  0.00000E+00  9.000E+00
      21    -1     0     0   502   503  0.000000000E+00  0.000000000E+00 -7.419167796E+02  7.419167796E+02  0.000000000E+00  0.00000E+00  9.000E+00
      25     1     1     2     0     0 -7.680505518E+00  2.768961640E+00 -6.541149781E+02  6.660020141E+02  1.250024837E+02  0.00000E+00  9.000E+00
       5     1     1     2   501     0 -6.964431277E-01  2.931849443E-01 -5.047981122E+00  6.972489071E+00  4.750000000E+00  0.00000E+00  9.000E+00
      -5     1     1     2     0   503  5.121111216E-01 -4.699429375E-01 -3.765043790E+01  3.795525100E+01  4.750000000E+00  0.00000E+00  9.000E+00
      21     1     1     2   511   501  7.864837524E+00 -2.592203647E+00 -3.759458746E+01  3.849582049E+01  4.768371582E-07  0.00000E+00  9.000E+00
#rwgt            1           9   2.6082400646165185E-004           9      259665           0
</event>
<event>
      6   9999  3.45752E-01  6.81199E+01 -1.00000E+00  1.27974E-01
      21    -1     0     0   502   512  0.000000000E+00  0.000000000E+00  3.740166976E+01  3.740166976E+01  0.000000000E+00  0.00000E+00  9.000E+00
      21    -1     0     0   501   502  0.000000000E+00  0.000000000E+00 -1.117304171E+03  1.117304171E+03  0.000000000E+00  0.00000E+00  9.000E+00
      25     1     1     2     0     0  6.951169378E+01  1.935356053E+01 -7.469910414E+02  7.608066880E+02  1.249990589E+02  0.00000E+00  9.000E+00
       5     1     1     2   501     0  3.743120704E+01  2.504735435E+01 -1.385515488E+02  1.457654259E+02  4.750000000E+00  0.00000E+00  9.000E+00
      -5     1     1     2     0   503 -4.375829527E+01 -6.985715265E+01 -1.324834768E+02  1.561065159E+02  4.750000000E+00  0.00000E+00  9.000E+00
      21     1     1     2   503   512 -6.318460555E+01  2.545623777E+01 -6.187643398E+01  9.202721066E+01  1.507891493E-06  0.00000E+00  9.000E+00
#rwgt            1           9   1.8847932316369883E-002           9      261903           0
</event>
<event>
      6   9999  3.45752E-01  4.22773E+00 -1.00000E+00  2.42976E-01
      21    -1     0     0   511   502  0.000000000E+00  0.000000000E+00  3.554989795E+01  3.554989795E+01  0.000000000E+00  0.00000E+00  9.000E+00
      21    -1     0     0   502   503  0.000000000E+00  0.000000000E+00 -1.198022683E+03  1.198022683E+03  0.000000000E+00  0.00000E+00  9.000E+00
      25     1     1     2     0     0 -7.199918636E+01  1.197216618E+02 -4.973177325E+02  5.314768088E+02  1.250020486E+02  0.00000E+00  9.000E+00
       5     1     1     2   501     0 -6.797766350E-01 -2.680074166E-01  1.047877623E+01  1.152827721E+01  4.750000000E+00  0.00000E+00  9.000E+00
      -5     1     1     2     0   503  6.845146006E+01 -1.194102874E+02 -6.652504719E+02  6.793564396E+02  4.750000000E+00  0.00000E+00  9.000E+00
      21     1     1     2   511   501  4.227502925E+00 -4.336698491E-02 -1.038335733E+01  1.121105575E+01  1.192092896E-07  0.00000E+00  9.000E+00
#rwgt            1           9   6.6815463300913557E-004           9      262683           0
</event>
<event>
      6   9999  3.45752E-01  4.88306E+00 -1.00000E+00  2.31185E-01
      21    -1     0     0   502   503  0.000000000E+00  0.000000000E+00  7.495702379E+00  7.495702379E+00  0.000000000E+00  0.00000E+00  9.000E+00
      21    -1     0     0   512   502  0.000000000E+00  0.000000000E+00 -1.009293804E+03  1.009293804E+03  0.000000000E+00  0.00000E+00  9.000E+00
      25     1     1     2     0     0 -1.008079404E+01  9.232394377E+00 -8.802423953E+02  8.891785033E+02  1.249995070E+02  0.00000E+00  9.000E+00
       5     1     1     2   501     0  3.988258605E-01 -4.344344473E-02 -2.181233533E+00  5.242254203E+00  4.750000000E+00  0.00000E+00  9.000E+00
      -5     1     1     2     0   503  1.126732818E+01 -4.570416097E+00 -2.832347571E+01  3.118690693E+01  4.750000000E+00  0.00000E+00  9.000E+00
      21     1     1     2   512   501 -1.585359995E+00 -4.618534835E+00 -9.105099707E+01  9.118184193E+01  1.348699152E-06  0.00000E+00  9.000E+00
#rwgt            1           9   2.1305003824380588E-004           9      269701           0
</event>
<event>
      6   9999  3.45752E-01  1.29602E+01 -1.00000E+00  1.76063E-01
       2    -1     0     0   501     0  0.000000000E+00  0.000000000E+00  9.807730284E+01  9.807730284E+01  0.000000000E+00  0.00000E+00  9.000E+00
      21    -1     0     0   502   503  0.000000000E+00  0.000000000E+00 -9.065108433E+02  9.065108433E+02  0.000000000E+00  0.00000E+00  9.000E+00
      25     1     1     2     0     0  2.747333101E+01 -2.076278485E+01 -7.609732132E+02  7.719394289E+02  1.249974943E+02  0.00000E+00  9.000E+00
       5     1     1     2   501     0 -4.489675971E+01  1.229991291E+01 -8.230470346E+01  9.467646804E+01  4.750000000E+00  0.00000E+00  9.000E+00
      -5     1     1     2     0   503  1.686264922E+01  2.141091899E+01 -4.730838646E+01  5.480348821E+01  4.750000000E+00  0.00000E+00  9.000E+00
       2     1     1     2   502     0  5.607794762E-01 -1.294804705E+01  8.215276263E+01  8.316876099E+01  2.336015456E-06  0.00000E+00  9.000E+00
#rwgt            1           9   2.5976861366590796E-002           9      273831           0
</event>
<event>
      6   9999  3.45752E-01  1.12301E+01 -1.00000E+00  1.82038E-01
      21    -1     0     0   501   511  0.000000000E+00  0.000000000E+00  9.340929818E+00  9.340929818E+00  0.000000000E+00  0.00000E+00  9.000E+00
      21    -1     0     0   502   503  0.000000000E+00  0.000000000E+00 -8.057611426E+02  8.057611426E+02  0.000000000E+00  0.00000E+00  9.000E+00
      25     1     1     2     0     0  6.337921044E+00 -4.609399301E+00 -7.536917697E+02  7.640287002E+02  1.250086207E+02  0.00000E+00  9.000E+00
       5     1     1     2   501     0  5.651400123E-01 -1.240262547E+00 -2.837215819E+00  5.698239028E+00  4.750000000E+00  0.00000E+00  9.000E+00
      -5     1     1     2     0   503 -1.080422884E+00 -3.753045877E+00 -3.057649956E+00  6.867633524E+00  4.750000000E+00  0.00000E+00  9.000E+00
      21     1     1     2   502   511 -5.822638172E+00  9.602707724E+00 -3.683357734E+01  3.850749966E+01  0.000000000E+00  0.00000E+00  9.000E+00
#rwgt            1           9   1.6730255219708402E-004           9      276205           0
</event>
<event>
      6   9999  3.45752E-01  2.20702E+01 -1.00000E+00  1.57013E-01
      21    -1     0     0   512   502  0.000000000E+00  0.000000000E+00  1.548279179E+01  1.548279179E+01  0.000000000E+00  0.00000E+00  9.000E+00
      21    -1     0     0   502   503  0.000000000E+00  0.000000000E+00 -7.881285465E+02  7.881285465E+02  0.000000000E+00  0.00000E+00  9.000E+00
      25     1     1     2     0     0  4.614236127E+00 -4.598948790E+01 -6.247791745E+02  6.388350010E+02  1.249992700E+02  0.00000E+00  9.000E+00
       5     1     1     2   501     0  1.324278767E+00  1.786377365E+01 -5.665650703E+01  5.961032135E+01  4.750000000E+00  0.00000E+00  9.000E+00
      -5     1     1     2     0   503  7.766553335E+00  1.082647932E+01 -7.836197796E+01  7.962847541E+01  4.750000000E+00  0.00000E+00  9.000E+00
      21     1     1     2   512   501 -1.370506823E+01  1.729923493E+01 -1.284809527E+01  2.553754053E+01  2.384185791E-07  0.00000E+00  9.000E+00
#rwgt            1           9   1.5265452263568590E-004           9      278874           0
</event>
<event>
      6   9999  3.45752E-01  5.21662E+00 -1.00000E+00  2.22887E-01
      21    -1     0     0   501   511  0.000000000E+00  0.000000000E+00  1.158403262E+01  1.158403262E+01  0.000000000E+00  0.00000E+00  9.000E+00
      21    -1     0     0   502   503  0.000000000E+00  0.000000000E+00 -9.339856872E+02  9.339856872E+02  0.000000000E+00  0.00000E+00  9.000E+00
      25     1     1     2     0     0  1.020216391E+01  7.035296261E+00 -8.858078647E+02  8.946707050E+02  1.250060708E+02  0.00000E+00  9.000E+00
       5     1     1     2   501     0  9.378725786E-01 -1.256319707E+00  2.054853448E+00  5.407667415E+00  4.750000000E+00  0.00000E+00  9.000E+00
      -5     1     1     2     0   503 -1.526625668E+01 -8.970759603E+00 -3.334344897E+01  3.805103428E+01  4.750000000E+00  0.00000E+00  9.000E+00
      21     1     1     2   502   511  4.126220190E+00  3.191783049E+00 -5.305194410E+00  7.440313153E+00  1.685873940E-07  0.00000E+00  9.000E+00
#rwgt            1           9   1.9076726520572318E-005           9      280006           0
</event>
<event>
      6   9999  3.45752E-01  1.66838E+01 -1.00000E+00  1.66462E-01
      21    -1     0     0   501   502  0.000000000E+00  0.000000000E+00  1.019720385E+01  1.019720385E+01  0.000000000E+00  0.00000E+00  9.000E+00
      21    -1     0     0   512   503  0.000000000E+00  0.000000000E+00 -1.280558652E+03  1.280558652E+03  0.000000000E+00  0.00000E+00  9.000E+00
      25     1     1     2     0     0  1.733604767E+01 -1.954942984E+01 -7.213876994E+02  7.326014577E+02  1.249878563E+02  0.00000E+00  9.000E+00
       5     1     1     2   501     0  3.825212202E+00  2.419449252E+01 -3.925986886E+01  4.651779788E+01  4.750000000E+00  0.00000E+00  9.000E+00
      -5     1     1     2     0   503 -4.479982169E+00 -4.935307277E+00 -1.961897544E+01  2.125780317E+01  4.750000000E+00  0.00000E+00  9.000E+00
      21     1     1     2   512   502 -1.668127770E+01  2.902445960E-01 -4.900949042E+02  4.903787969E+02  5.394796609E-06  0.00000E+00  9.000E+00
#rwgt            1           9  0.40038327587361500                9      284190           0
</event>
<event>
      6   9999  3.45752E-01  3.71317E+01 -1.00000E+00  1.42086E-01
      21    -1     0     0   502   503  0.000000000E+00  0.000000000E+00  9.220933435E+01  9.220933435E+01  0.000000000E+00  0.00000E+00  9.000E+00
       1    -1     0     0   501     0  0.000000000E+00  0.000000000E+00 -1.558286692E+03  1.558286692E+03  0.000000000E+00  0.00000E+00  9.000E+00
      25     1     1     2     0     0 -1.015302349E+02 -7.008382034E-01 -1.863231330E+01  1.621106917E+02  1.249953339E+02  0.00000E+00  9.000E+00
       5     1     1     2   501     0 -2.364497009E+01  1.338011632E+01 -1.404464881E+02  1.431289301E+02  4.750000000E+00  0.00000E+00  9.000E+00
      -5     1     1     2     0   503  1.010188667E+02  1.552066754E+01 -1.200819391E+02  1.577591112E+02  4.750000000E+00  0.00000E+00  9.000E+00
       1     1     1     2   502     0  2.415633830E+01 -2.819994566E+01 -1.186916617E+03  1.187497293E+03  1.525878906E-05  0.00000E+00  9.000E+00
#rwgt            1           9   244.82094148260234                9      285549           0
</event>
<event>
      6   9999  3.45752E-01  5.20634E+01 -1.00000E+00  1.33855E-01
      21    -1     0     0   502   511  0.000000000E+00  0.000000000E+00  1.547332385E+02  1.547332385E+02  0.000000000E+00  0.00000E+00  9.000E+00
      21    -1     0     0   501   502  0.000000000E+00  0.000000000E+00 -1.155332734E+03  1.155332734E+03  0.000000000E+00  0.00000E+00  9.000E+00
      25     1     1     2     0     0 -4.918775354E+01 -5.842124629E+01 -1.133611002E+02  1.852251819E+02  1.250006075E+02  0.00000E+00  9.000E+00
       5     1     1     2   501     0 -3.364143324E+00  3.422634110E+00 -2.839989701E+02  2.840792309E+02  4.750000000E+00  0.00000E+00  9.000E+00
      -5     1     1     2     0   503  9.039297057E+01  1.924039525E+01 -7.131576784E+02  7.191366482E+02  4.750000000E+00  0.00000E+00  9.000E+00
      21     1     1     2   503   511 -3.784107371E+01  3.575821693E+01  1.099182527E+02  1.216249120E+02  1.907348633E-06  0.00000E+00  9.000E+00
#rwgt            1           9   2.9181333390457140E-004           9      287160           0
</event>
<event>
      6   9999 -3.45752E-01  8.79361E+00 -1.00000E+00  1.93273E-01
      21    -1     0     0   501   502  0.000000000E+00  0.000000000E+00  1.452112023E+02  1.452112023E+02  0.000000000E+00  0.00000E+00  9.000E+00
      21    -1     0     0   512   503  0.000000000E+00  0.000000000E+00 -1.240907725E+03  1.240907725E+03  0.000000000E+00  0.00000E+00  9.000E+00
      25     1     1     2     0     0  4.362095778E+01  2.772972479E+02 -5.987681779E+02  6.730117238E+02  1.249995914E+02  0.00000E+00  9.000E+00
       5     1     1     2   501     0 -9.409905337E+00  1.229330619E+00  7.496151939E+01  7.570897874E+01  4.750000000E+00  0.00000E+00  9.000E+00
      -5     1     1     2     0   503 -3.451141339E+01 -2.697380969E+02 -5.447933616E+02  6.089105418E+02  4.750000000E+00  0.00000E+00  9.000E+00
      21     1     1     2   512   502  3.003609491E-01 -8.788481630E+00 -2.709650228E+01  2.848768264E+01  4.768371582E-07  0.00000E+00  9.000E+00
#rwgt            1           9  -4.4420590180597292E-004           9      288732           0
</event>
<event>
      6   9999  3.45752E-01  4.94185E+00 -1.00000E+00  2.30259E-01
      21    -1     0     0   501   511  0.000000000E+00  0.000000000E+00  3.203033878E+02  3.203033878E+02  0.000000000E+00  0.00000E+00  9.000E+00
      21    -1     0     0   502   503  0.000000000E+00  0.000000000E+00 -1.216993993E+03  1.216993993E+03  0.000000000E+00  0.00000E+00  9.000E+00
      25     1     1     2     0     0 -4.625170477E+01 -2.686455106E+01 -5.630180241E+02  5.792013584E+02  1.249959753E+02  0.00000E+00  9.000E+00
       5     1     1     2   501     0 -1.854517499E-01  7.281064672E+00  2.828948517E+01  2.959570520E+01  4.750000000E+00  0.00000E+00  9.000E+00
      -5     1     1     2     0   503  5.042683870E+01  1.666727099E+01 -6.441078864E+02  6.463112221E+02  4.750000000E+00  0.00000E+00  9.000E+00
      21     1     1     2   502   511 -3.989682177E+00  2.916215395E+00  2.821458199E+02  2.821890954E+02  1.009274029E-05  0.00000E+00  9.000E+00
#rwgt            1           9   3.9922365674373430E-004           9      294439           0
</event>
<event>
      6   9999  3.45752E-01  4.62297E+01 -1.00000E+00  1.36635E-01
      21    -1     0     0   501   502  0.000000000E+00  0.000000000E+00  2.320259818E+01  2.320259818E+01  0.000000000E+00  0.00000E+00  9.000E+00
      21    -1     0     0   512   503  0.000000000E+00  0.000000000E+00 -1.524474340E+03  1.524474340E+03  0.000000000E+00  0.00000E+00  9.000E+00
      25     1     1     2     0     0 -4.197859486E+01  5.763115661E+01 -3.175724254E+02  3.486560664E+02  1.250010186E+02  0.00000E+00  9.000E+00
       5     1     1     2   501     0 -5.397709430E+00 -5.241014194E-01  3.426480075E+00  7.982055819E+00  4.750000000E+00  0.00000E+00  9.000E+00
      -5     1     1     2     0   503  2.628066682E+00 -4.549744390E+01 -7.692890641E+02  7.706524190E+02  4.750000000E+00  0.00000E+00  9.000E+00
      21     1     1     2   512   502  4.474823761E+01 -1.160961128E+01 -4.178367321E+02  4.203863967E+02  5.394796609E-06  0.00000E+00  9.000E+00
#rwgt            1           9   9.9130576178809181E-005           9      300261           0
</event>
<event>
      6   9999 -3.45752E-01  1.59372E+01 -1.00000E+00  1.68122E-01
      21    -1     0     0   501   502  0.000000000E+00  0.000000000E+00  1.460087569E+03  1.460087569E+03  0.000000000E+00  0.00000E+00  9.000E+00
      21    -1     0     0   502   511  0.000000000E+00  0.000000000E+00 -1.549001143E+02  1.549001143E+02  0.000000000E+00  0.00000E+00  9.000E+00
      25     1     1     2     0     0  1.000087867E+02 -9.601524872E+00  3.264338648E+02  3.636997918E+02  1.249980951E+02  0.00000E+00  9.000E+00
       5     1     1     2   501     0  4.582958129E+00  3.670042862E+00  1.088974996E+03  1.089001183E+03  4.750000000E+00  0.00000E+00  9.000E+00
      -5     1     1     2     0   503 -9.252630247E+01  1.634392012E+01 -6.502759421E+01  1.143651646E+02  4.750000000E+00  0.00000E+00  9.000E+00
      21     1     1     2   503   511 -1.206544235E+01 -1.041243810E+01 -4.519381157E+01  4.792154391E+01  1.907348633E-06  0.00000E+00  9.000E+00
#rwgt            1           9  -10.835011818997264                9      301176           0
</event>
<event>
      6   9999  3.45752E-01  3.46986E+01 -1.00000E+00  1.43863E-01
      21    -1     0     0   501   502  0.000000000E+00  0.000000000E+00  2.382790153E+01  2.382790153E+01  0.000000000E+00  0.00000E+00  9.000E+00
      21    -1     0     0   512   503  0.000000000E+00  0.000000000E+00 -2.239283372E+03  2.239283372E+03  0.000000000E+00  0.00000E+00  9.000E+00
      25     1     1     2     0     0  7.964698643E+01  6.836709842E+01 -7.796578140E+02  7.965609273E+02  1.250012058E+02  0.00000E+00  9.000E+00
       5     1     1     2   501     0  4.095877871E+00 -7.183753607E+00  9.848248853E+00  1.370886709E+01  4.750000000E+00  0.00000E+00  9.000E+00
      -5     1     1     2     0   503 -5.287130251E+01 -7.702448618E+01 -6.793350795E+02  6.857454767E+02  4.750000000E+00  0.00000E+00  9.000E+00
      21     1     1     2   512   502 -3.087156179E+01  1.584114137E+01 -7.663108258E+02  7.670960024E+02  1.078959322E-05  0.00000E+00  9.000E+00
#rwgt            1           9   2.4345405480573350E-003           9      304828           0
</event>
<event>
      6   9999  3.45752E-01  1.17137E+01 -1.00000E+00  1.80237E-01
       2    -1     0     0   501     0  0.000000000E+00  0.000000000E+00  4.705427414E+02  4.705427414E+02  0.000000000E+00  0.00000E+00  9.000E+00
      21    -1     0     0   502   503  0.000000000E+00  0.000000000E+00 -5.027626227E+01  5.027626227E+01  0.000000000E+00  0.00000E+00  9.000E+00
      25     1     1     2     0     0 -1.276027778E+01  6.497777704E+00  3.510830010E+01  1.306262308E+02  1.250022945E+02  0.00000E+00  9.000E+00
       5     1     1     2   501     0  2.557609574E+00  2.366115098E+00  5.962492497E+01  5.991522382E+01  4.750000000E+00  0.00000E+00  9.000E+00
      -5     1     1     2     0   503  1.815915215E+01 -2.670568912E-01  3.684228321E+01  4.134903213E+01  4.750000000E+00  0.00000E+00  9.000E+00
       2     1     1     2   502     0 -7.956483948E+00 -8.596835911E+00  2.886909709E+02  2.889285169E+02  7.629394531E-06  0.00000E+00  9.000E+00
#rwgt            1           9   1.9029845011625651E-004           9      306231           0
</event>
<event>
      6   9999  3.45752E-01  3.88150E+00 -1.00000E+00  2.50585E-01
      21    -1     0     0   501   502  0.000000000E+00  0.000000000E+00  1.749513926E+01  1.749513926E+01  0.000000000E+00  0.00000E+00  9.000E+00
      21    -1     0     0   502   511  0.000000000E+00  0.000000000E+00 -9.548735140E+02  9.548735140E+02  0.000000000E+00  0.00000E+00  9.000E+00
      25     1     1     2     0     0  3.730242500E+00 -1.327564770E+01 -6.588049336E+02  6.707004023E+02  1.249997268E+02  0.00000E+00  9.000E+00
       5     1     1     2   501     0  2.847640087E+00 -1.473864712E+00  1.014954654E+01  1.165577652E+01  4.750000000E+00  0.00000E+00  9.000E+00
      -5     1     1     2     0   503 -7.614939086E+00  1.848990324E+01 -2.745303946E+02  2.752986812E+02  4.750000000E+00  0.00000E+00  9.000E+00
      21     1     1     2   503   511  1.037056499E+00 -3.740390824E+00 -1.419259319E+01  1.471379323E+01  1.685873940E-07  0.00000E+00  9.000E+00
#rwgt            1           9   4.6418311940318391E-003           9      308412           0
</event>
<event>
      6   9999  3.45752E-01  4.61880E+00 -1.00000E+00  2.35592E-01
      21    -1     0     0   501   502  0.000000000E+00  0.000000000E+00  3.035387098E+01  3.035387098E+01  0.000000000E+00  0.00000E+00  9.000E+00
      21    -1     0     0   512   503  0.000000000E+00  0.000000000E+00 -1.250203844E+03  1.250203844E+03  0.000000000E+00  0.00000E+00  9.000E+00
      25     1     1     2     0     0  1.989638930E+01 -6.806727275E+00 -1.097545170E+03  1.104840922E+03  1.250034660E+02  0.00000E+00  9.000E+00
       5     1     1     2   501     0 -1.711650079E+00  5.403814721E-01  2.492402860E+01  2.543602681E+01  4.750000000E+00  0.00000E+00  9.000E+00
      -5     1     1     2     0   503 -1.422928344E+01  3.881468833E+00 -3.917343812E+01  4.212670248E+01  4.750000000E+00  0.00000E+00  9.000E+00
      21     1     1     2   512   502 -3.955455771E+00  2.384876970E+00 -1.080553939E+02  1.081540634E+02  1.348699152E-06  0.00000E+00  9.000E+00
#rwgt            1           9   1.0910770738354601E-003           9      313757           0
</event>
<event>
      6   9999  3.45752E-01  3.71988E+00 -1.00000E+00  2.54562E-01
      21    -1     0     0   511   502  0.000000000E+00  0.000000000E+00  1.850718544E+01  1.850718544E+01  0.000000000E+00  0.00000E+00  9.000E+00
      21    -1     0     0   502   503  0.000000000E+00  0.000000000E+00 -9.051796086E+02  9.051796086E+02  0.000000000E+00  0.00000E+00  9.000E+00
      25     1     1     2     0     0 -6.599005741E+00 -4.141917825E+00 -5.861539394E+02  5.993848058E+02  1.250000096E+02  0.00000E+00  9.000E+00
       5     1     1     2   501     0  2.701580385E+00 -3.708737832E+00  9.372330811E+00  1.146544189E+01  4.750000000E+00  0.00000E+00  9.000E+00
      -5     1     1     2     0   503  3.608608261E+00  4.142006075E+00 -3.089021770E+02  3.089875332E+02  4.750000000E+00  0.00000E+00  9.000E+00
      21     1     1     2   511   501  2.888170945E-01  3.708649582E+00 -9.886375326E-01  3.849013018E+00  1.649256320E-07  0.00000E+00  9.000E+00
#rwgt            1           9   6.3793417540934281E-004           9      319808           0
</event>
<event>
      6   9999  3.45752E-01  1.18725E+01 -1.00000E+00  1.79669E-01
      21    -1     0     0   501   502  0.000000000E+00  0.000000000E+00  2.687531738E+01  2.687531738E+01  0.000000000E+00  0.00000E+00  9.000E+00
      21    -1     0     0   502   512  0.000000000E+00  0.000000000E+00 -2.408040974E+03  2.408040974E+03  0.000000000E+00  0.00000E+00  9.000E+00
      25     1     1     2     0     0  5.036125838E+01  3.433915822E+01 -4.440323210E+02  4.653004040E+02  1.249973190E+02  0.00000E+00  9.000E+00
       5     1     1     2   501     0  6.506729656E+00  1.832061524E+00  1.377112635E+01  1.605927773E+01  4.750000000E+00  0.00000E+00  9.000E+00
      -5     1     1     2     0   503 -5.085391070E+01 -2.593468836E+01 -6.300112542E+02  6.326100468E+02  4.750000000E+00  0.00000E+00  9.000E+00
      21     1     1     2   503   512 -6.014077337E+00 -1.023653139E+01 -1.320893208E+03  1.320946563E+03  2.157918644E-05  0.00000E+00  9.000E+00
#rwgt            1           9   2.5904957102937874E-005           9      326055           0
</event>
<event>
      6   9999  3.45752E-01  2.31148E+01 -1.00000E+00  1.55556E-01
      21    -1     0     0   511   502  0.000000000E+00  0.000000000E+00  3.518404938E+01  3.518404938E+01  0.000000000E+00  0.00000E+00  9.000E+00
      21    -1     0     0   502   503  0.000000000E+00  0.000000000E+00 -3.956460973E+03  3.956460973E+03  0.000000000E+00  0.00000E+00  9.000E+00
      25     1     1     2     0     0 -1.470213057E+02 -5.149984127E+01 -2.249139209E+03  2.257990753E+03  1.250102425E+02  0.00000E+00  9.000E+00
       5     1     1     2   501     0  1.196166076E+00  8.210974682E+00  9.799258218E+00  1.369083197E+01  4.750000000E+00  0.00000E+00  9.000E+00
      -5     1     1     2     0   503  1.294183292E+02  5.957115168E+01 -1.689606683E+03  1.695609369E+03  4.750000000E+00  0.00000E+00  9.000E+00
      21     1     1     2   511   501  1.640681045E+01 -1.628228508E+01  7.669709681E+00  2.435406913E+01  1.356578669E-06  0.00000E+00  9.000E+00
#rwgt            1           9  0.13171015591995613                9      329227           0
</event>
<event>
      6   9999  3.45752E-01  3.80868E+01 -1.00000E+00  1.41432E-01
      21    -1     0     0   512   502  0.000000000E+00  0.000000000E+00  3.786417536E+01  3.786417536E+01  0.000000000E+00  0.00000E+00  9.000E+00
      21    -1     0     0   502   503  0.000000000E+00  0.000000000E+00 -1.096291312E+03  1.096291312E+03  0.000000000E+00  0.00000E+00  9.000E+00
      25     1     1     2     0     0  5.443942278E+01 -2.490156437E+01 -4.831353454E+02  5.026197654E+02  1.249925113E+02  0.00000E+00  9.000E+00
       5     1     1     2   501     0 -2.625328149E+00 -4.906704772E+00  1.275835752E+01  1.470735483E+01  4.750000000E+00  0.00000E+00  9.000E+00
      -5     1     1     2     0   503 -5.956016981E+01 -7.482469984E+00 -5.725509035E+02  5.757086944E+02  4.750000000E+00  0.00000E+00  9.000E+00
      21     1     1     2   512   501  7.746075181E+00  3.729073913E+01 -1.549924558E+01  4.111967314E+01  6.951036328E-07  0.00000E+00  9.000E+00
#rwgt            1           9   1.4924485487588621E-004           9      331369           0
</event>
<event>
      6   9999  3.45752E-01  1.82575E+00 -1.00000E+00  3.48995E-01
      21    -1     0     0   511   502  0.000000000E+00  0.000000000E+00  3.087432963E+02  3.087432963E+02  0.000000000E+00  0.00000E+00  9.000E+00
      21    -1     0     0   502   503  0.000000000E+00  0.000000000E+00 -7.460582625E+02  7.460582625E+02  0.000000000E+00  0.00000E+00  9.000E+00
      25     1     1     2     0     0  2.592265528E+00  3.866237798E-02 -7.045763057E+02  7.155823384E+02  1.249943640E+02  0.00000E+00  9.000E+00
       5     1     1     2   501     0 -5.861811715E-01  1.004222472E+00  4.019281488E-01  4.906742033E+00  4.750000000E+00  0.00000E+00  9.000E+00
      -5     1     1     2     0   503 -2.192013947E+00  7.733724568E-01 -3.351644595E+01  3.393107247E+01  4.750000000E+00  0.00000E+00  9.000E+00
      21     1     1     2   511   501  1.859295900E-01 -1.816257307E+00  3.003758574E+02  3.003814060E+02  3.814697266E-06  0.00000E+00  9.000E+00
#rwgt            1           9   3.7809404261338319E-004           9      332617           0
</event>
<event>
      6   9999  3.45752E-01  1.59179E+01 -1.00000E+00  1.68166E-01
      21    -1     0     0   512   502  0.000000000E+00  0.000000000E+00  2.208793899E+01  2.208793899E+01  0.000000000E+00  0.00000E+00  9.000E+00
      21    -1     0     0   502   503  0.000000000E+00  0.000000000E+00 -9.672736722E+02  9.672736722E+02  0.000000000E+00  0.00000E+00  9.000E+00
      25     1     1     2     0     0 -1.158459863E+01 -7.534974714E+00 -9.060453738E+02  9.147383563E+02  1.250482397E+02  0.00000E+00  9.000E+00
       5     1     1     2   501     0 -5.670467056E-02  2.127680267E+00  1.066730262E+01  1.186946014E+01  4.750000000E+00  0.00000E+00  9.000E+00
      -5     1     1     2     0   503  2.803784636E+00  1.864658972E+01 -3.880162921E+01  4.340144520E+01  4.750000000E+00  0.00000E+00  9.000E+00
      21     1     1     2   512   501  8.837518663E+00 -1.323929527E+01 -1.100603276E+01  1.935234953E+01  3.371747881E-07  0.00000E+00  9.000E+00
#rwgt            1           9   4.8009491858236114E-005           9      340726           0
</event>
<event>
      6   9999  3.45752E-01  1.26984E+01 -1.00000E+00  1.76889E-01
      21    -1     0     0   501   502  0.000000000E+00  0.000000000E+00  1.600362440E+01  1.600362440E+01  0.000000000E+00  0.00000E+00  9.000E+00
      21    -1     0     0   511   503  0.000000000E+00  0.000000000E+00 -1.083900536E+03  1.083900536E+03  0.000000000E+00  0.00000E+00  9.000E+00
      25     1     1     2     0     0  5.244290971E+01 -2.374434828E+01 -5.637404401E+02  5.803143491E+02  1.250895964E+02  0.00000E+00  9.000E+00
       5     1     1     2   501     0  4.263482879E+00  3.078333966E-01  3.935531788E+00  7.504862298E+00  4.750000000E+00  0.00000E+00  9.000E+00
      -5     1     1     2     0   503 -4.448716237E+01  1.998115361E+01 -3.398149885E+02  3.433294963E+02  4.750000000E+00  0.00000E+00  9.000E+00
      21     1     1     2   511   502 -1.221923022E+01  3.455361279E+00 -1.682770152E+02  1.687554531E+02  1.907348633E-06  0.00000E+00  9.000E+00
#rwgt            1           9   6.0355894464579750E-005           9      343070           0
</event>
<event>
      6   9999  3.45752E-01  3.02759E+01 -1.00000E+00  1.47581E-01
      21    -1     0     0   501   502  0.000000000E+00  0.000000000E+00  1.593370733E+01  1.593370733E+01  0.000000000E+00  0.00000E+00  9.000E+00
      21    -1     0     0   512   503  0.000000000E+00  0.000000000E+00 -1.097098499E+03  1.097098499E+03  0.000000000E+00  0.00000E+00  9.000E+00
      25     1     1     2     0     0 -7.716999853E+01 -3.015562377E+01 -6.688607050E+02  6.854707184E+02  1.250235690E+02  0.00000E+00  9.000E+00
       5     1     1     2   501     0 -2.639132313E+00  7.748298045E-01  4.515466137E-01  5.507429068E+00  4.750000000E+00  0.00000E+00  9.000E+00
      -5     1     1     2     0   503  4.967612875E+01  2.644289801E+01 -2.316325975E+02  2.384180517E+02  4.750000000E+00  0.00000E+00  9.000E+00
      21     1     1     2   512   502  3.013300209E+01  2.937895954E+00 -1.811230353E+02  1.836360068E+02  2.697398305E-06  0.00000E+00  9.000E+00
#rwgt            1           9   3.1566163337203900E-003           9      345356           0
</event>
<event>
      6   9999  3.45752E-01  1.00865E+01 -1.00000E+00  1.86801E-01
      21    -1     0     0   501   502  0.000000000E+00  0.000000000E+00  2.746628949E+01  2.746628949E+01  0.000000000E+00  0.00000E+00  9.000E+00
      21    -1     0     0   502   511  0.000000000E+00  0.000000000E+00 -1.259488321E+03  1.259488321E+03  0.000000000E+00  0.00000E+00  9.000E+00
      25     1     1     2     0     0 -1.135719384E+01 -2.797486247E+01 -3.991173516E+02  4.193273737E+02  1.250168277E+02  0.00000E+00  9.000E+00
       5     1     1     2   501     0  2.379239328E+00 -2.940682014E-01  1.649872296E+01  1.733544390E+01  4.750000000E+00  0.00000E+00  9.000E+00
      -5     1     1     2     0   503 -1.096085661E+00  2.776788334E+01 -6.843668523E+02  6.849473029E+02  4.750000000E+00  0.00000E+00  9.000E+00
      21     1     1     2   503   511  1.007404018E+01  5.010473256E-01 -1.650365511E+02  1.653444905E+02  1.907348633E-06  0.00000E+00  9.000E+00
#rwgt            1           9   3.2489549786376101E-006           9      346771           0
</event>
<event>
      6   9999  3.45752E-01  1.38563E+01 -1.00000E+00  1.73411E-01
      21    -1     0     0   502   503  0.000000000E+00  0.000000000E+00  1.220674321E+01  1.220674321E+01  0.000000000E+00  0.00000E+00  9.000E+00
      21    -1     0     0   512   502  0.000000000E+00  0.000000000E+00 -8.289896513E+02  8.289896513E+02  0.000000000E+00  0.00000E+00  9.000E+00
      25     1     1     2     0     0 -1.994299722E+01 -4.429262896E+00 -6.282096950E+02  6.408508441E+02  1.250001677E+02  0.00000E+00  9.000E+00
       5     1     1     2   501     0  6.625264996E-01  1.505421272E+00  4.531925145E-01  5.047090055E+00  4.750000000E+00  0.00000E+00  9.000E+00
      -5     1     1     2     0   503  3.162483213E+01  9.217879122E+00 -1.053350527E+02  1.104678013E+02  4.750000000E+00  0.00000E+00  9.000E+00
      21     1     1     2   512   501 -1.234436141E+01 -6.294037498E+00 -8.369135293E+01  8.483065909E+01  9.536743164E-07  0.00000E+00  9.000E+00
#rwgt            1           9   1.3859888678889785E-004           9      349979           0
</event>
<event>
      6   9999 -3.45752E-01  1.25632E+01 -1.00000E+00  1.77326E-01
      21    -1     0     0   502   503  0.000000000E+00  0.000000000E+00  7.022070024E+00  7.022070024E+00  0.000000000E+00  0.00000E+00  9.000E+00
       2    -1     0     0   501     0  0.000000000E+00  0.000000000E+00 -2.181670531E+03  2.181670531E+03  0.000000000E+00  0.00000E+00  9.000E+00
      25     1     1     2     0     0 -1.323723510E+01 -6.752895870E+00 -6.705299429E+02  6.822451424E+02  1.250088161E+02  0.00000E+00  9.000E+00
       5     1     1     2   501     0  4.297518518E+00 -2.125164758E+00 -2.529751713E+01  2.618228149E+01  4.750000000E+00  0.00000E+00  9.000E+00
      -5     1     1     2     0   503  2.696208692E+00 -2.023901707E+00 -1.150574198E+01  1.289613578E+01  4.750000000E+00  0.00000E+00  9.000E+00
       2     1     1     2   502     0  6.243507887E+00  1.090196234E+01 -1.467315259E+03  1.467369041E+03  0.000000000E+00  0.00000E+00  9.000E+00
#rwgt            1           9  -2.4455763155448141E-004           9      351780           0
</event>
<event>
      6   9999  3.45752E-01  1.58996E+01 -1.00000E+00  1.68208E-01
      21    -1     0     0   501   502  0.000000000E+00  0.000000000E+00  7.668596058E+00  7.668596058E+00  0.000000000E+00  0.00000E+00  9.000E+00
      21    -1     0     0   511   503  0.000000000E+00  0.000000000E+00 -1.543103841E+03  1.543103841E+03  0.000000000E+00  0.00000E+00  9.000E+00
      25     1     1     2     0     0  1.719154742E+01  2.667500275E+01 -1.058007491E+03  1.065838845E+03  1.250019423E+02  0.00000E+00  9.000E+00
       5     1     1     2   501     0 -9.500520854E+00 -3.713079307E+01 -1.067218462E+02  1.134948045E+02  4.750000000E+00  0.00000E+00  9.000E+00
      -5     1     1     2     0   503  4.241126027E+00 -5.228888741E-02 -6.264097441E+01  6.296383136E+01  4.750000000E+00  0.00000E+00  9.000E+00
      21     1     1     2   511   502 -1.193215259E+01  1.050807921E+01 -3.080649330E+02  3.084749567E+02  5.394796609E-06  0.00000E+00  9.000E+00
#rwgt            1           9   1.2556716570890379E-002           9      353457           0
</event>
<event>
      6   9999  3.45752E-01  9.25489E+00 -1.00000E+00  1.90807E-01
      21    -1     0     0   501   512  0.000000000E+00  0.000000000E+00  2.965609738E+01  2.965609738E+01  0.000000000E+00  0.00000E+00  9.000E+00
      21    -1     0     0   502   503  0.000000000E+00  0.000000000E+00 -1.997826737E+02  1.997826737E+02  0.000000000E+00  0.00000E+00  9.000E+00
      25     1     1     2     0     0 -2.630832534E+00  8.440893233E+00 -1.650016665E+02  2.071961152E+02  1.250060409E+02  0.00000E+00  9.000E+00
       5     1     1     2   501     0  2.991276103E-01  6.894433833E-01  1.918600710E+00  5.177676910E+00  4.750000000E+00  0.00000E+00  9.000E+00
      -5     1     1     2     0   503 -3.280198942E-01 -2.658617732E-01 -6.128067582E+00  7.764920594E+00  4.750000000E+00  0.00000E+00  9.000E+00
      21     1     1     2   502   512  2.659724818E+00 -8.864474843E+00 -9.154430008E-01  9.300058400E+00  5.771194914E-08  0.00000E+00  9.000E+00
#rwgt            1           9   4.2380877092084062E-003           9      355625           0
</event>
<event>
      6   9999  3.45752E-01  7.92471E+00 -1.00000E+00  1.98503E-01
      21    -1     0     0   501   511  0.000000000E+00  0.000000000E+00  5.433793795E+01  5.433793795E+01  0.000000000E+00  0.00000E+00  9.000E+00
      21    -1     0     0   502   503  0.000000000E+00  0.000000000E+00 -1.371734913E+03  1.371734913E+03  0.000000000E+00  0.00000E+00  9.000E+00
      25     1     1     2     0     0  1.297581541E+02 -2.210662966E+01 -6.488282397E+02  6.737437402E+02  1.250066448E+02  0.00000E+00  9.000E+00
       5     1     1     2   501     0 -1.341020734E+00 -5.688116620E+00  3.348753006E+01  3.432390096E+01  4.750000000E+00  0.00000E+00  9.000E+00
      -5     1     1     2     0   503 -1.358168705E+02  2.495838244E+01 -6.891108944E+02  7.028268139E+02  4.750000000E+00  0.00000E+00  9.000E+00
      21     1     1     2   502   511  7.399737162E+00  2.836363836E+00 -1.294537145E+01  1.517839622E+01  2.384185791E-07  0.00000E+00  9.000E+00
#rwgt            1           9   7.8505326270409664E-003           9      357691           0
</event>
<event>
      6   9999  3.45752E-01  1.04413E+01 -1.00000E+00  1.85239E-01
      21    -1     0     0   501   502  0.000000000E+00  0.000000000E+00  4.133816822E+01  4.133816822E+01  0.000000000E+00  0.00000E+00  9.000E+00
      21    -1     0     0   502   512  0.000000000E+00  0.000000000E+00 -1.429832355E+03  1.429832355E+03  0.000000000E+00  0.00000E+00  9.000E+00
      25     1     1     2     0     0  1.281088316E+02  2.378351809E+01 -4.663390859E+02  5.000739759E+02  1.249972394E+02  0.00000E+00  9.000E+00
       5     1     1     2   501     0 -2.993756393E+00  3.536263070E+00  1.921189655E+01  2.032553081E+01  4.750000000E+00  0.00000E+00  9.000E+00
      -5     1     1     2     0   503 -1.180846443E+02 -1.960003343E+01 -7.885272741E+02  7.975750554E+02  4.750000000E+00  0.00000E+00  9.000E+00
      21     1     1     2   503   512 -7.030430934E+00 -7.719747722E+00 -1.528397236E+02  1.531959613E+02  0.000000000E+00  0.00000E+00  9.000E+00
#rwgt            1           9   1.0949582674869346E-002           9      362692           0
</event>
<event>
      6   9999  3.45752E-01  3.92535E+01 -1.00000E+00  1.40662E-01
      21    -1     0     0   502   511  0.000000000E+00  0.000000000E+00  3.363665230E+01  3.363665230E+01  0.000000000E+00  0.00000E+00  9.000E+00
      21    -1     0     0   501   502  0.000000000E+00  0.000000000E+00 -7.959828155E+02  7.959828155E+02  0.000000000E+00  0.00000E+00  9.000E+00
      25     1     1     2     0     0 -1.099177787E+01 -8.986401789E+00 -6.893878724E+02  7.007729370E+02  1.250019840E+02  0.00000E+00  9.000E+00
       5     1     1     2   501     0 -1.078522606E+01  3.911160376E+00 -4.428529718E+01  4.599313343E+01  4.750000000E+00  0.00000E+00  9.000E+00
      -5     1     1     2     0   503 -1.703743434E+01  1.093006953E+01 -3.726275238E+01  4.267101831E+01  4.750000000E+00  0.00000E+00  9.000E+00
      21     1     1     2   503   511  3.881443827E+01 -5.854828118E+00  8.589758775E+00  4.018237906E+01  1.512596314E-06  0.00000E+00  9.000E+00
#rwgt            1           9   6.1597661243785259E-005           9      366581           0
</event>
<event>
      6   9999  3.45752E-01  2.32567E+01 -1.00000E+00  1.55365E-01
      21    -1     0     0   512   503  0.000000000E+00  0.000000000E+00  1.186613250E+02  1.186613250E+02  0.000000000E+00  0.00000E+00  9.000E+00
      21    -1     0     0   501   502  0.000000000E+00  0.000000000E+00 -7.616576146E+02  7.616576146E+02  0.000000000E+00  0.00000E+00  9.000E+00
      25     1     1     2     0     0 -2.515385371E+01  8.892585325E+00 -4.790836885E+02  4.958400094E+02  1.249973595E+02  0.00000E+00  9.000E+00
       5     1     1     2   501     0  8.115559188E+00  5.013767466E+00 -2.500930372E+02  2.503199751E+02  4.750000000E+00  0.00000E+00  9.000E+00
      -5     1     1     2     0   503 -9.344997891E-01  8.534201057E-01 -2.249349810E+01  2.302436910E+01  4.750000000E+00  0.00000E+00  9.000E+00
      21     1     1     2   512   502  1.797279431E+01 -1.475977290E+01  1.086739342E+02  1.111345860E+02  3.568322551E-06  0.00000E+00  9.000E+00
#rwgt            1           9   4.5618449165435996E-004           9      367371           0
</event>
<event>
      6   9999  3.45752E-01  3.98160E+00 -1.00000E+00  2.48265E-01
      21    -1     0     0   501   502  0.000000000E+00  0.000000000E+00  7.502781736E+00  7.502781736E+00  0.000000000E+00  0.00000E+00  9.000E+00
      21    -1     0     0   502   511  0.000000000E+00  0.000000000E+00 -8.984028498E+02  8.984028498E+02  0.000000000E+00  0.00000E+00  9.000E+00
      25     1     1     2     0     0  1.745531710E+00  7.616923613E+00 -6.089529202E+02  6.216993131E+02  1.250012503E+02  0.00000E+00  9.000E+00
       5     1     1     2   501     0 -1.804365382E-01 -3.749076743E-02 -4.606406814E+00  6.619323730E+00  4.750000000E+00  0.00000E+00  9.000E+00
      -5     1     1     2     0   503 -1.795563953E+00 -3.604511025E+00 -9.557890710E+01  9.578155632E+01  4.750000000E+00  0.00000E+00  9.000E+00
      21     1     1     2   503   511  2.304687819E-01 -3.974921821E+00 -1.817618340E+02  1.818054384E+02  2.697398305E-06  0.00000E+00  9.000E+00
#rwgt            1           9   5.6432368331863644E-005           9      368463           0
</event>
<event>
      6   9999  3.45752E-01  1.69145E+01 -1.00000E+00  1.65971E-01
      21    -1     0     0   501   512  0.000000000E+00  0.000000000E+00  2.204887888E+01  2.204887888E+01  0.000000000E+00  0.00000E+00  9.000E+00
      21    -1     0     0   502   503  0.000000000E+00  0.000000000E+00 -3.147611924E+03  3.147611924E+03  0.000000000E+00  0.00000E+00  9.000E+00
      25     1     1     2     0     0 -6.139569647E+00 -2.009307135E+02 -1.523227034E+03  1.541511297E+03  1.250025362E+02  0.00000E+00  9.000E+00
       5     1     1     2   501     0  1.261053493E+00 -2.712991970E+00  4.984360635E+00  7.507125434E+00  4.750000000E+00  0.00000E+00  9.000E+00
      -5     1     1     2     0   503 -3.563980253E+00  1.889868012E+02 -1.518416727E+03  1.530143991E+03  4.750000000E+00  0.00000E+00  9.000E+00
      21     1     1     2   502   512  8.442496407E+00  1.465690425E+01 -8.890364419E+01  9.049838970E+01  0.000000000E+00  0.00000E+00  9.000E+00
#rwgt            1           9  0.14183406481189015                9      373278           0
</event>
<event>
      6   9999  3.45752E-01  1.15638E+01 -1.00000E+00  1.80783E-01
      21    -1     0     0   501   502  0.000000000E+00  0.000000000E+00  1.408421958E+01  1.408421958E+01  0.000000000E+00  0.00000E+00  9.000E+00
      21    -1     0     0   502   511  0.000000000E+00  0.000000000E+00 -9.449227964E+02  9.449227964E+02  0.000000000E+00  0.00000E+00  9.000E+00
      25     1     1     2     0     0 -2.125269663E+00 -1.149385820E+01 -5.940998347E+02  6.072195632E+02  1.249974348E+02  0.00000E+00  9.000E+00
       5     1     1     2   501     0 -1.115709931E+00  1.448006918E-01  6.203038153E+00  7.893412330E+00  4.750000000E+00  0.00000E+00  9.000E+00
      -5     1     1     2     0   503 -1.576114204E+00  8.363030402E-01 -2.694728652E+02  2.695206321E+02  4.750000000E+00  0.00000E+00  9.000E+00
      21     1     1     2   503   511  4.817093798E+00  1.051275447E+01 -7.346891504E+01  7.437340840E+01  9.536743164E-07  0.00000E+00  9.000E+00
#rwgt            1           9   1.9512709944573803E-003           9      376293           0
</event>
<event>
      6   9999  3.45752E-01  7.41127E+00 -1.00000E+00  2.02029E-01
       2    -1     0     0   501     0  0.000000000E+00  0.000000000E+00  1.278706394E+03  1.278706394E+03  0.000000000E+00  0.00000E+00  9.000E+00
      21    -1     0     0   502   503  0.000000000E+00  0.000000000E+00 -9.061978018E+02  9.061978018E+02  0.000000000E+00  0.00000E+00  9.000E+00
      25     1     1     2     0     0  1.306105331E+01  1.628393271E+00 -7.411312527E+02  7.517138481E+02  1.249997316E+02  0.00000E+00  9.000E+00
       5     1     1     2   501     0  9.585922803E-01  3.967836053E+00  7.681434526E+00  9.911082609E+00  4.750000000E+00  0.00000E+00  9.000E+00
      -5     1     1     2     0   503 -8.361588921E+00 -8.094370326E-01 -1.585028073E+02  1.587963280E+02  4.750000000E+00  0.00000E+00  9.000E+00
       2     1     1     2   502     0 -5.658056666E+00 -4.786792291E+00  1.264461217E+03  1.264482937E+03  1.525878906E-05  0.00000E+00  9.000E+00
#rwgt            1           9   1.7441112770572793E-003           9      379569           0
</event>
<event>
      6   9999  3.45752E-01  1.77015E+01 -1.00000E+00  1.64366E-01
       1    -1     0     0   501     0  0.000000000E+00  0.000000000E+00  1.599231648E+03  1.599231648E+03  0.000000000E+00  0.00000E+00  9.000E+00
      21    -1     0     0   502   503  0.000000000E+00  0.000000000E+00 -1.098361921E+02  1.098361921E+02  0.000000000E+00  0.00000E+00  9.000E+00
      25     1     1     2     0     0  1.591164557E+01 -1.638806498E+01 -4.416694394E+01  1.345213315E+02  1.249940821E+02  0.00000E+00  9.000E+00
       5     1     1     2   501     0  1.043366974E+00 -3.114564595E-01  3.959638901E+00  6.279081143E+00  4.750000000E+00  0.00000E+00  9.000E+00
      -5     1     1     2     0   503 -2.442963159E+00  6.563352359E+00 -1.835328342E+01  2.021017505E+01  4.750000000E+00  0.00000E+00  9.000E+00
       1     1     1     2   502     0 -1.451204939E+01  1.013616908E+01  1.547956044E+03  1.548057253E+03  3.051757812E-05  0.00000E+00  9.000E+00
#rwgt            1           9   2.1599800489703863E-002           9      383776           0
</event>
<event>
      6   9999  3.45752E-01  4.21798E+00 -1.00000E+00  2.43175E-01
      21    -1     0     0   501   502  0.000000000E+00  0.000000000E+00  2.820553556E+03  2.820553556E+03  0.000000000E+00  0.00000E+00  9.000E+00
      21    -1     0     0   502   511  0.000000000E+00  0.000000000E+00 -4.647005435E+01  4.647005435E+01  0.000000000E+00  0.00000E+00  9.000E+00
      25     1     1     2     0     0  4.787127994E+00  1.355842509E+01  7.999455856E+01  1.490993474E+02  1.249989540E+02  0.00000E+00  9.000E+00
       5     1     1     2   501     0 -1.331549290E+01 -1.320866746E+01  2.703259507E+03  2.703328743E+03  4.750000000E+00  0.00000E+00  9.000E+00
      -5     1     1     2     0   503  4.311035387E+00 -4.237165174E-01 -7.910631622E+00  1.019338778E+01  4.750000000E+00  0.00000E+00  9.000E+00
      21     1     1     2   503   511  4.217329520E+00  7.395889059E-02 -1.259931833E+00  4.402132031E+00  1.884864366E-07  0.00000E+00  9.000E+00
#rwgt            1           9   2.8087328238040390E-004           9      385076           0
</event>
<event>
      6   9999  3.45752E-01  2.57014E+01 -1.00000E+00  1.52318E-01
      -2    -1     0     0     0   512  0.000000000E+00  0.000000000E+00  6.248584395E+01  6.248584395E+01  0.000000000E+00  0.00000E+00  9.000E+00
       2    -1     0     0   501     0  0.000000000E+00  0.000000000E+00 -1.424154769E+03  1.424154769E+03  0.000000000E+00  0.00000E+00  9.000E+00
      25     1     1     2     0     0 -2.525325501E+01  5.685834685E+01 -9.356856632E+01  1.680785805E+02  1.249989365E+02  0.00000E+00  9.000E+00
       5     1     1     2   501     0  5.835032423E+01 -1.827504423E+02 -9.664287608E+02  9.852967049E+02  4.750000000E+00  0.00000E+00  9.000E+00
      -5     1     1     2     0   502 -1.332827758E+01  1.094677898E+02 -2.745155974E+02  2.958753381E+02  4.750000000E+00  0.00000E+00  9.000E+00
      21     1     1     2   502   512 -1.976879164E+01  1.642430560E+01 -2.715600013E+01  3.738998904E+01  3.371747881E-07  0.00000E+00  9.000E+00
#rwgt            1           3   4.0522119863691219E-004           9      393347           0
</event>
<event>
      6   9999  3.45752E-01  2.06430E+01 -1.00000E+00  1.59168E-01
      21    -1     0     0   501   502  0.000000000E+00  0.000000000E+00  7.543545626E+02  7.543545626E+02  0.000000000E+00  0.00000E+00  9.000E+00
      21    -1     0     0   502   511  0.000000000E+00  0.000000000E+00 -7.947328210E+01  7.947328210E+01  0.000000000E+00  0.00000E+00  9.000E+00
      25     1     1     2     0     0  1.411049353E+02  1.721201295E+01  5.487470006E+02  5.804803317E+02  1.250091541E+02  0.00000E+00  9.000E+00
       5     1     1     2   501     0  1.039354500E+00  3.864362997E-01  1.034340587E+02  1.035490057E+02  4.750000000E+00  0.00000E+00  9.000E+00
      -5     1     1     2     0   503 -1.227022602E+02 -2.453682948E+01  1.013294687E+01  1.256309666E+02  4.750000000E+00  0.00000E+00  9.000E+00
      21     1     1     2   503   511 -1.944202967E+01  6.938380226E+00  1.256727423E+01  2.416754061E+01  6.307962682E-07  0.00000E+00  9.000E+00
#rwgt            1           9   2.1489522514552422E-002           9      397821           0
</event>
<event>
      6   9999 -3.45752E-01  6.23283E+00 -1.00000E+00  2.11780E-01
      21    -1     0     0   501   502  0.000000000E+00  0.000000000E+00  1.541932718E+01  1.541932718E+01  0.000000000E+00  0.00000E+00  9.000E+00
      21    -1     0     0   512   503  0.000000000E+00  0.000000000E+00 -9.332275635E+02  9.332275635E+02  0.000000000E+00  0.00000E+00  9.000E+00
      25     1     1     2     0     0  8.403746796E+00 -2.806834076E+01 -4.003961797E+02  4.204765319E+02  1.249998336E+02  0.00000E+00  9.000E+00
       5     1     1     2   501     0  5.056481988E-01 -2.362497104E-01  3.120994015E+00  5.710919162E+00  4.750000000E+00  0.00000E+00  9.000E+00
      -5     1     1     2     0   503 -8.550118727E+00  3.452705787E+01 -4.890803994E+02  4.903951690E+02  4.750000000E+00  0.00000E+00  9.000E+00
      21     1     1     2   512   502 -3.592762676E-01 -6.222467403E+00 -3.145265124E+01  3.206427062E+01  5.840038640E-07  0.00000E+00  9.000E+00
#rwgt            1           9  -6.9875615756863070E-004           9      400614           0
</event>
<event>
      6   9999  3.45752E-01  4.85336E+01 -1.00000E+00  1.35483E-01
      21    -1     0     0   502   503  0.000000000E+00  0.000000000E+00  4.330624218E+02  4.330624218E+02  0.000000000E+00  0.00000E+00  9.000E+00
      21    -1     0     0   511   502  0.000000000E+00  0.000000000E+00 -3.995453872E+01  3.995453872E+01  0.000000000E+00  0.00000E+00  9.000E+00
      25     1     1     2     0     0  5.292385140E+01  1.125554002E+01  3.360336960E+02  3.625905134E+02  1.250024573E+02  0.00000E+00  9.000E+00
       5     1     1     2   501     0 -9.049995567E+00  1.807104367E+01  2.164773304E+01  2.999419752E+01  4.750000000E+00  0.00000E+00  9.000E+00
      -5     1     1     2     0   503  9.979250059E-01 -1.083242966E+01  2.917547637E+01  3.149775084E+01  4.750000000E+00  0.00000E+00  9.000E+00
      21     1     1     2   511   501 -4.487178084E+01 -1.849415403E+01  6.250977701E+00  4.893449879E+01  6.637292341E-07  0.00000E+00  9.000E+00
#rwgt            1           9  0.44693468033551842                9      404294           0
</event>
<event>
      6   9999  3.45752E-01  3.28775E+01 -1.00000E+00  1.45310E-01
      21    -1     0     0   501   502  0.000000000E+00  0.000000000E+00  1.750016945E+02  1.750016945E+02  0.000000000E+00  0.00000E+00  9.000E+00
       1    -1     0     0   502     0  0.000000000E+00  0.000000000E+00 -1.231161227E+03  1.231161227E+03  0.000000000E+00  0.00000E+00  9.000E+00
      25     1     1     2     0     0 -3.389956965E+01  1.931923279E+01 -5.485197387E+02  5.639342878E+02  1.250022544E+02  0.00000E+00  9.000E+00
       5     1     1     2   501     0  2.005206780E+01  2.333204968E+01  1.612339328E+02  1.642114903E+02  4.750000000E+00  0.00000E+00  9.000E+00
      -5     1     1     2     0   503  4.247846976E+01 -2.648966242E+01 -1.520675051E+02  1.601661987E+02  4.750000000E+00  0.00000E+00  9.000E+00
       1     1     1     2   503     0 -2.863096790E+01 -1.616162005E+01 -5.168062219E+02  5.178509450E+02  1.078959322E-05  0.00000E+00  9.000E+00
#rwgt            1           9  0.14915057504820811                9      404942           0
</event>
<event>
      6   9999  3.45752E-01  1.87167E+01 -1.00000E+00  1.62440E-01
      21    -1     0     0   501   502  0.000000000E+00  0.000000000E+00  1.146888104E+01  1.146888104E+01  0.000000000E+00  0.00000E+00  9.000E+00
       2    -1     0     0   502     0  0.000000000E+00  0.000000000E+00 -1.197840666E+03  1.197840666E+03  0.000000000E+00  0.00000E+00  9.000E+00
      25     1     1     2     0     0 -8.013343321E+00 -3.287256344E+01 -7.248153657E+02  7.362927648E+02  1.249996083E+02  0.00000E+00  9.000E+00
       5     1     1     2   501     0 -2.305594005E+00  3.758853025E-01 -1.387064572E+00  5.472065570E+00  4.750000000E+00  0.00000E+00  9.000E+00
      -5     1     1     2     0   503 -8.384888616E+00  3.319138368E+01 -8.296357604E+01  8.987486722E+01  4.750000000E+00  0.00000E+00  9.000E+00
       2     1     1     2   503     0  1.870382594E+01 -6.947055407E-01 -3.772057792E+02  3.776698499E+02  5.394796609E-06  0.00000E+00  9.000E+00
#rwgt            1           9   8.7844201996258310E-005           9      407198           0
</event>
<event>
      6   9999 -3.45752E-01  6.37759E+00 -1.00000E+00  2.10431E-01
      21    -1     0     0   511   502  0.000000000E+00  0.000000000E+00  1.071674002E+01  1.071674002E+01  0.000000000E+00  0.00000E+00  9.000E+00
      21    -1     0     0   502   503  0.000000000E+00  0.000000000E+00 -7.299219347E+02  7.299219347E+02  0.000000000E+00  0.00000E+00  9.000E+00
      25     1     1     2     0     0 -1.349221481E+00 -2.102744841E+00 -6.326002369E+02  6.448376619E+02  1.250052342E+02  0.00000E+00  9.000E+00
       5     1     1     2   501     0 -1.569145993E-01 -1.100823455E+00 -2.398529265E+00  5.436163823E+00  4.750000000E+00  0.00000E+00  9.000E+00
      -5     1     1     2     0   503 -1.104624180E+00 -2.615164153E+00 -8.379122497E+01  8.397375281E+01  4.750000000E+00  0.00000E+00  9.000E+00
      21     1     1     2   511   501  2.610760260E+00  5.818732449E+00 -4.152035640E-01  6.391096185E+00  3.122584461E-07  0.00000E+00  9.000E+00
#rwgt            1           9  -1.2329601434559804E-002           9      409017           0
</event>
<event>
      6   9999  3.45752E-01  5.47511E+00 -1.00000E+00  2.19750E-01
      21    -1     0     0   501   502  0.000000000E+00  0.000000000E+00  1.224847464E+01  1.224847464E+01  0.000000000E+00  0.00000E+00  9.000E+00
      21    -1     0     0   502   512  0.000000000E+00  0.000000000E+00 -9.146723466E+02  9.146723466E+02  0.000000000E+00  0.00000E+00  9.000E+00
      25     1     1     2     0     0  1.271341850E+01  1.432095857E+01 -7.243429517E+02  7.352988772E+02  1.250000255E+02  0.00000E+00  9.000E+00
       5     1     1     2   501     0 -1.818067085E+00  2.390777433E+00  4.878575421E+00  7.442055012E+00  4.750000000E+00  0.00000E+00  9.000E+00
      -5     1     1     2     0   503 -8.645388296E+00 -1.172029908E+01 -1.180303395E+02  1.190202995E+02  4.750000000E+00  0.00000E+00  9.000E+00
      21     1     1     2   503   512 -2.249963115E+00 -4.991436926E+00 -6.492915620E+01  6.515958948E+01  9.536743164E-07  0.00000E+00  9.000E+00
#rwgt            1           9   8.2239437066090076E-005           9      412130           0
</event>
<event>
      6   9999  3.45752E-01  4.53567E+00 -1.00000E+00  2.37069E-01
      21    -1     0     0   511   502  0.000000000E+00  0.000000000E+00  1.514106522E+01  1.514106522E+01  0.000000000E+00  0.00000E+00  9.000E+00
      21    -1     0     0   502   503  0.000000000E+00  0.000000000E+00 -8.521481383E+02  8.521481383E+02  0.000000000E+00  0.00000E+00  9.000E+00
      25     1     1     2     0     0 -1.921142869E+01 -1.107616693E+01 -6.568093281E+02  6.689666545E+02  1.250045237E+02  0.00000E+00  9.000E+00
       5     1     1     2   501     0 -1.185353244E-01 -1.483937217E+00  5.016608053E+00  7.067176002E+00  4.750000000E+00  0.00000E+00  9.000E+00
      -5     1     1     2     0   503  1.480065559E+01  1.280033103E+01 -1.856131493E+02  1.867022002E+02  4.750000000E+00  0.00000E+00  9.000E+00
      21     1     1     2   511   501  4.529308422E+00 -2.402268749E-01  3.987962509E-01  4.553172760E+00  1.753658398E-07  0.00000E+00  9.000E+00
#rwgt            1           9   8.4905868406970446E-003           9      416411           0
</event>
<event>
      6   9999  3.45752E-01  2.43990E+01 -1.00000E+00  1.53888E-01
      21    -1     0     0   501   502  0.000000000E+00  0.000000000E+00  3.168629689E+01  3.168629689E+01  0.000000000E+00  0.00000E+00  9.000E+00
      21    -1     0     0   502   512  0.000000000E+00  0.000000000E+00 -1.875448997E+03  1.875448997E+03  0.000000000E+00  0.00000E+00  9.000E+00
      25     1     1     2     0     0 -8.758856847E+01 -8.454381976E+01 -1.322890087E+03  1.334346639E+03  1.249934234E+02  0.00000E+00  9.000E+00
       5     1     1     2   501     0  2.957478008E+00 -4.359958270E+00  1.726723954E+01  1.866751118E+01  4.750000000E+00  0.00000E+00  9.000E+00
      -5     1     1     2     0   503  7.237600306E+01  6.780577911E+01 -3.316239805E+02  3.461689420E+02  4.750000000E+00  0.00000E+00  9.000E+00
      21     1     1     2   503   512  1.225508740E+01  2.109799893E+01 -2.065158719E+02  2.079522014E+02  2.697398305E-06  0.00000E+00  9.000E+00
#rwgt            1           9   2.5089454351409999E-003           9      420926           0
</event>
<event>
      6   9999  3.45752E-01  2.84955E+01 -1.00000E+00  1.49298E-01
      21    -1     0     0   502   511  0.000000000E+00  0.000000000E+00  4.847383737E+02  4.847383737E+02  0.000000000E+00  0.00000E+00  9.000E+00
      21    -1     0     0   501   502  0.000000000E+00  0.000000000E+00 -9.010623666E+01  9.010623666E+01  0.000000000E+00  0.00000E+00  9.000E+00
      25     1     1     2     0     0 -1.176017409E+01  2.674729279E+01 -1.508155225E+01  1.292616781E+02  1.250096350E+02  0.00000E+00  9.000E+00
       5     1     1     2   501     0 -1.112253099E+00  1.380353728E-01 -6.909347345E+00  8.459180897E+00  4.750000000E+00  0.00000E+00  9.000E+00
      -5     1     1     2     0   503 -9.387321467E+00 -9.094987510E+00 -4.819941434E+00  1.471852362E+01  4.750000000E+00  0.00000E+00  9.000E+00
      21     1     1     2   503   511  2.225974866E+01 -1.779034065E+01  4.214429780E+02  4.224052277E+02  0.000000000E+00  0.00000E+00  9.000E+00
#rwgt            1           9   38.322810075324135                9      422847           0
</event>
<event>
      6   9999 -3.45752E-01  4.06582E+00 -1.00000E+00  2.46392E-01
      21    -1     0     0   501   502  0.000000000E+00  0.000000000E+00  2.052575482E+02  2.052575482E+02  0.000000000E+00  0.00000E+00  9.000E+00
      21    -1     0     0   512   503  0.000000000E+00  0.000000000E+00 -5.376940130E+01  5.376940130E+01  0.000000000E+00  0.00000E+00  9.000E+00
      25     1     1     2     0     0 -1.273717086E+01 -1.668201812E+00  7.691905655E+01  1.473333878E+02  1.250022699E+02  0.00000E+00  9.000E+00
       5     1     1     2   501     0 -2.674610540E-01  9.508352401E-02  8.940281132E+01  8.952935691E+01  4.750000000E+00  0.00000E+00  9.000E+00
      -5     1     1     2     0   503  1.017753265E+01  4.495170261E+00 -9.113263265E+00  1.514604879E+01  4.750000000E+00  0.00000E+00  9.000E+00
      21     1     1     2   512   502  2.827099263E+00 -2.922051974E+00 -5.720457683E+00  7.018156032E+00  1.192092896E-07  0.00000E+00  9.000E+00
#rwgt            1           9  -139.66056539979829                9      423663           0
</event>
<event>
      6   9999  3.45752E-01  3.03275E+01 -1.00000E+00  1.47534E-01
      21    -1     0     0   511   502  0.000000000E+00  0.000000000E+00  5.212632347E+02  5.212632347E+02  0.000000000E+00  0.00000E+00  9.000E+00
      21    -1     0     0   502   503  0.000000000E+00  0.000000000E+00 -2.375202542E+01  2.375202542E+01  0.000000000E+00  0.00000E+00  9.000E+00
      25     1     1     2     0     0  1.182324011E+01 -1.461316287E+01  1.858119821E+02  2.247299129E+02  1.249964299E+02  0.00000E+00  9.000E+00
       5     1     1     2   501     0  5.415666320E+00  1.532162052E-01  6.408247051E+01  6.448626555E+01  4.750000000E+00  0.00000E+00  9.000E+00
      -5     1     1     2     0   503  1.266554848E+01  1.950779037E+01  4.454904451E+01  5.047920236E+01  4.750000000E+00  0.00000E+00  9.000E+00
      21     1     1     2   511   501 -2.990445491E+01 -5.047843706E+00  2.030677121E+02  2.053198794E+02  0.000000000E+00  0.00000E+00  9.000E+00
#rwgt            1           9   1.1843070086086874E-002           9      428377           0
</event>
<event>
      6   9999  3.45752E-01  2.22746E+01 -1.00000E+00  1.56720E-01
      21    -1     0     0   501   502  0.000000000E+00  0.000000000E+00  5.461177339E+01  5.461177339E+01  0.000000000E+00  0.00000E+00  9.000E+00
       2    -1     0     0   502     0  0.000000000E+00  0.000000000E+00 -1.868220333E+03  1.868220333E+03  0.000000000E+00  0.00000E+00  9.000E+00
      25     1     1     2     0     0 -4.983856197E+00  2.595710677E+01 -1.535603438E+02  1.997626067E+02  1.250028385E+02  0.00000E+00  9.000E+00
       5     1     1     2   501     0  1.258635270E+00  3.634813388E+00  2.802322503E+01  2.868204443E+01  4.750000000E+00  0.00000E+00  9.000E+00
      -5     1     1     2     0   503  1.229059304E+01 -9.029966639E+00 -1.760217669E+01  2.376968866E+01  4.750000000E+00  0.00000E+00  9.000E+00
       2     1     1     2   503     0 -8.565372114E+00 -2.056195352E+01 -1.670469264E+03  1.670617767E+03  0.000000000E+00  0.00000E+00  9.000E+00
#rwgt            1           9  0.69745808238286033                9      429518           0
</event>
<event>
      6   9999 -3.45752E-01  2.91157E+00 -1.00000E+00  2.80355E-01
      21    -1     0     0   501   502  0.000000000E+00  0.000000000E+00  3.364909314E+01  3.364909314E+01  0.000000000E+00  0.00000E+00  9.000E+00
       1    -1     0     0   502     0  0.000000000E+00  0.000000000E+00 -1.542784891E+03  1.542784891E+03  0.000000000E+00  0.00000E+00  9.000E+00
      25     1     1     2     0     0 -5.349048609E+00  5.448186635E+01 -5.495427648E+02  5.662370994E+02  1.250212636E+02  0.00000E+00  9.000E+00
       5     1     1     2   501     0 -2.310030370E+00 -1.623785707E+00  2.359959806E+01  2.423791347E+01  4.750000000E+00  0.00000E+00  9.000E+00
      -5     1     1     2     0   503  1.056735490E+01 -5.271967327E+01 -5.270117536E+02  5.297688022E+02  4.750000000E+00  0.00000E+00  9.000E+00
       1     1     1     2   503     0 -2.908275918E+00 -1.384073784E-01 -4.561808779E+02  4.561901693E+02  5.394796609E-06  0.00000E+00  9.000E+00
#rwgt            1           9 -0.61121289982421534                9      430995           0
</event>
<event>
      6   9999  3.45752E-01  2.14305E+01 -1.00000E+00  1.57954E-01
      21    -1     0     0   501   502  0.000000000E+00  0.000000000E+00  1.800325232E+03  1.800325232E+03  0.000000000E+00  0.00000E+00  9.000E+00
      21    -1     0     0   511   503  0.000000000E+00  0.000000000E+00 -1.146368247E+01  1.146368247E+01  0.000000000E+00  0.00000E+00  9.000E+00
      25     1     1     2     0     0  2.013482580E+01  6.205829209E+00  7.715067146E+02  7.818475215E+02  1.249760479E+02  0.00000E+00  9.000E+00
       5     1     1     2   501     0  2.749749029E+00 -7.121386528E-01  9.728019155E+02  9.728176589E+02  4.750000000E+00  0.00000E+00  9.000E+00
      -5     1     1     2     0   503 -2.081771820E+00 -1.064242296E+01  2.678804059E+01  2.928748127E+01  4.750000000E+00  0.00000E+00  9.000E+00
      21     1     1     2   511   502 -2.080280301E+01  5.148732404E+00  1.776487913E+01  2.783625314E+01  1.192092896E-06  0.00000E+00  9.000E+00
#rwgt            1           9   2.1774590121889352E-004           9      438387           0
</event>
<event>
      6   9999  3.45752E-01  5.75547E+00 -1.00000E+00  2.16606E-01
      21    -1     0     0   512   502  0.000000000E+00  0.000000000E+00  1.581098783E+02  1.581098783E+02  0.000000000E+00  0.00000E+00  9.000E+00
      21    -1     0     0   502   503  0.000000000E+00  0.000000000E+00 -9.124366193E+02  9.124366193E+02  0.000000000E+00  0.00000E+00  9.000E+00
      25     1     1     2     0     0 -5.617739661E+00  3.574557461E+00 -8.868548980E+02  8.956462934E+02  1.250053450E+02  0.00000E+00  9.000E+00
       5     1     1     2   501     0  1.589953044E+00 -4.043261309E+00  1.038152955E+01  1.221534152E+01  4.750000000E+00  0.00000E+00  9.000E+00
      -5     1     1     2     0   503 -7.062379456E-01 -2.804585797E+00 -1.982825707E+01  2.059336670E+01  4.750000000E+00  0.00000E+00  9.000E+00
      21     1     1     2   512   501  4.734024563E+00  3.273289645E+00  1.419748845E+02  1.420914960E+02  2.697398305E-06  0.00000E+00  9.000E+00
#rwgt            1           9   1.0482083769226195E-004           9      439776           0
</event>
<event>
      6   9999  3.45752E-01  3.26889E+00 -1.00000E+00  2.67512E-01
       2    -1     0     0   501     0  0.000000000E+00  0.000000000E+00  1.428445078E+02  1.428445078E+02  0.000000000E+00  0.00000E+00  9.000E+00
      21    -1     0     0   502   503  0.000000000E+00  0.000000000E+00 -1.605884853E+03  1.605884853E+03  0.000000000E+00  0.00000E+00  9.000E+00
      25     1     1     2     0     0  3.145505954E+00  1.163682257E+01 -1.449176214E+03  1.454607280E+03  1.250013204E+02  0.00000E+00  9.000E+00
       5     1     1     2   501     0 -9.989260987E-02 -1.768462677E-01 -1.657982236E+01  1.724802199E+01  4.750000000E+00  0.00000E+00  9.000E+00
      -5     1     1     2     0   503 -4.343673053E+00 -8.459862213E+00 -1.368539333E+02  1.372661587E+02  4.750000000E+00  0.00000E+00  9.000E+00
       2     1     1     2   502     0  1.298059708E+00 -3.000114085E+00  1.395696245E+02  1.396079000E+02  6.325959759E-06  0.00000E+00  9.000E+00
#rwgt            1           9   3.1068684010615322E-004           9      444225           0
</event>
<event>
      6   9999  3.45752E-01  6.48830E+00 -1.00000E+00  2.09432E-01
      21    -1     0     0   501   511  0.000000000E+00  0.000000000E+00  1.928624078E+01  1.928624078E+01  0.000000000E+00  0.00000E+00  9.000E+00
      21    -1     0     0   502   503  0.000000000E+00  0.000000000E+00 -8.910302761E+02  8.910302761E+02  0.000000000E+00  0.00000E+00  9.000E+00
      25     1     1     2     0     0 -4.810756838E+01  2.926557421E+01 -5.566717315E+02  5.733044283E+02  1.249949555E+02  0.00000E+00  9.000E+00
       5     1     1     2   501     0 -6.794569361E-01 -1.548949861E+00  7.313413963E+00  8.883098063E+00  4.750000000E+00  0.00000E+00  9.000E+00
      -5     1     1     2     0   503  4.630736009E+01 -2.172085148E+01 -3.091481218E+02  3.133868068E+02  4.750000000E+00  0.00000E+00  9.000E+00
      21     1     1     2   502   511  2.479665223E+00 -5.995772865E+00 -1.323759602E+01  1.474218370E+01  2.384185791E-07  0.00000E+00  9.000E+00
#rwgt            1           9   6.7357280001204122E-003           9      448897           0
</event>
<event>
      6   9999  3.45752E-01  4.72310E+00 -1.00000E+00  2.33802E-01
      21    -1     0     0   502   503  0.000000000E+00  0.000000000E+00  2.864727054E+02  2.864727054E+02  0.000000000E+00  0.00000E+00  9.000E+00
      21    -1     0     0   512   502  0.000000000E+00  0.000000000E+00 -2.503499996E+02  2.503499996E+02  0.000000000E+00  0.00000E+00  9.000E+00
      25     1     1     2     0     0  1.017147891E+02 -4.466037355E+01  1.569982683E+02  2.297963501E+02  1.257674799E+02  0.00000E+00  9.000E+00
       5     1     1     2   501     0 -5.865372007E+01  6.455914081E+01  3.437929535E+01  9.387566239E+01  4.750000000E+00  0.00000E+00  9.000E+00
      -5     1     1     2     0   503 -3.881344820E+01 -1.783348582E+01  1.294473141E+01  4.488480309E+01  4.750000000E+00  0.00000E+00  9.000E+00
      21     1     1     2   512   501 -4.247620861E+00 -2.065281438E+00 -1.681995893E+02  1.682658893E+02  2.697398305E-06  0.00000E+00  9.000E+00
#rwgt            1           9  0.12407525126718152                9      452729           0
</event>
<event>
      6   9999  3.45752E-01  3.17100E+01 -1.00000E+00  1.46297E-01
      21    -1     0     0   501   502  0.000000000E+00  0.000000000E+00  8.382006922E+01  8.382006922E+01  0.000000000E+00  0.00000E+00  9.000E+00
      21    -1     0     0   511   503  0.000000000E+00  0.000000000E+00 -1.627199884E+03  1.627199884E+03  0.000000000E+00  0.00000E+00  9.000E+00
      25     1     1     2     0     0  2.636260775E+02  4.564328566E+01 -7.456183139E+02  8.019685369E+02  1.249993837E+02  0.00000E+00  9.000E+00
       5     1     1     2   501     0  1.800149120E+00 -4.523990995E+00  3.413969126E+01  3.481074620E+01  4.750000000E+00  0.00000E+00  9.000E+00
      -5     1     1     2     0   503 -2.341762639E+02 -3.573766147E+01 -7.248185545E+02  7.625616057E+02  4.750000000E+00  0.00000E+00  9.000E+00
      21     1     1     2   511   502 -3.124996273E+01 -5.381633188E+00 -1.070826373E+02  1.116790641E+02  1.348699152E-06  0.00000E+00  9.000E+00
#rwgt            1           9   2.9184800444781775E-004           9      458454           0
</event>
<event>
      6   9999 -3.45752E-01  1.00830E+01 -1.00000E+00  1.86817E-01
      21    -1     0     0   501   512  0.000000000E+00  0.000000000E+00  1.457597723E+01  1.457597723E+01  0.000000000E+00  0.00000E+00  9.000E+00
      21    -1     0     0   502   503  0.000000000E+00  0.000000000E+00 -2.110444164E+03  2.110444164E+03  0.000000000E+00  0.00000E+00  9.000E+00
      25     1     1     2     0     0  1.599051173E+01  2.742815314E+01 -1.943373776E+03  1.947649233E+03  1.250116053E+02  0.00000E+00  9.000E+00
       5     1     1     2   501     0  4.313600168E-01 -4.110731862E-01  8.808710330E+00  1.002551397E+01  4.750000000E+00  0.00000E+00  9.000E+00
      -5     1     1     2     0   503 -6.398076033E+00 -2.810772768E+01 -1.468172501E+02  1.496958488E+02  4.750000000E+00  0.00000E+00  9.000E+00
      21     1     1     2   502   512 -1.002379572E+01  1.090647726E+00 -1.448587062E+01  1.764954505E+01  5.331201500E-07  0.00000E+00  9.000E+00
#rwgt            1           9  -2.1714807805799890E-003           9      460780           0
</event>
<event>
      6   9999 -3.45752E-01  5.40734E+00 -1.00000E+00  2.20549E-01
      21    -1     0     0   501   511  0.000000000E+00  0.000000000E+00  5.552298901E+01  5.552298901E+01  0.000000000E+00  0.00000E+00  9.000E+00
      21    -1     0     0   502   503  0.000000000E+00  0.000000000E+00 -8.117385288E+02  8.117385288E+02  0.000000000E+00  0.00000E+00  9.000E+00
      25     1     1     2     0     0  3.191901029E+00  1.584963051E+00 -7.643792587E+02  7.745419547E+02  1.250075525E+02  0.00000E+00  9.000E+00
       5     1     1     2   501     0  3.213743349E-01  3.446544363E+00  3.100354144E+00  6.645046676E+00  4.750000000E+00  0.00000E+00  9.000E+00
      -5     1     1     2     0   503 -1.055239780E+00 -2.151449655E-01 -4.019764636E+01  4.049164223E+01  4.750000000E+00  0.00000E+00  9.000E+00
      21     1     1     2   502   511 -2.458035583E+00 -4.816362448E+00  4.526101114E+01  4.558287415E+01  1.784161275E-06  0.00000E+00  9.000E+00
#rwgt            1           9  -6.5068449672391147E-004           9      464614           0
</event>
<event>
      6   9999  3.45752E-01  1.09767E+01 -1.00000E+00  1.83029E-01
      21    -1     0     0   501   502  0.000000000E+00  0.000000000E+00  1.005130406E+01  1.005130406E+01  0.000000000E+00  0.00000E+00  9.000E+00
      -1    -1     0     0     0   503  0.000000000E+00  0.000000000E+00 -1.023450439E+03  1.023450439E+03  0.000000000E+00  0.00000E+00  9.000E+00
      25     1     1     2     0     0  1.378162665E+01 -7.197145553E+00 -6.983439863E+02  7.096138492E+02  1.250030389E+02  0.00000E+00  9.000E+00
       5     1     1     2   501     0  1.306011146E+00  3.427615333E-01  2.601321600E+00  5.581444674E+00  4.750000000E+00  0.00000E+00  9.000E+00
      -5     1     1     2     0   503 -7.007472340E+00 -5.752674031E-01 -9.450016204E+01  9.488033899E+01  4.750000000E+00  0.00000E+00  9.000E+00
      -1     1     1     2     0   502 -8.080165452E+00  7.429651422E+00 -2.231563082E+02  2.234261101E+02  2.697398305E-06  0.00000E+00  9.000E+00
#rwgt            1           9   3.5628678402601342E-004           9      468622           0
</event>
<event>
      6   9999  3.45752E-01  8.06368E+00 -1.00000E+00  1.97608E-01
       1    -1     0     0   501     0  0.000000000E+00  0.000000000E+00  1.743285539E+02  1.743285539E+02  0.000000000E+00  0.00000E+00  9.000E+00
      21    -1     0     0   502   503  0.000000000E+00  0.000000000E+00 -7.730302686E+02  7.730302686E+02  0.000000000E+00  0.00000E+00  9.000E+00
      25     1     1     2     0     0 -4.436923497E+00  1.127605648E+01 -6.863986622E+02  6.977930980E+02  1.250009937E+02  0.00000E+00  9.000E+00
       5     1     1     2   501     0 -2.472984987E-01  2.961360550E-01 -1.404881038E+01  1.483510789E+01  4.750000000E+00  0.00000E+00  9.000E+00
      -5     1     1     2     0   503  2.501629428E+00 -3.809510953E+00 -6.623255029E+01  6.655887425E+01  4.750000000E+00  0.00000E+00  9.000E+00
       1     1     1     2   502     0  2.182592568E+00 -7.762681582E+00  1.679783081E+02  1.681717424E+02  0.000000000E+00  0.00000E+00  9.000E+00
#rwgt            1           9   8.2649734658956080E-004           9      470661           0
</event>
<event>
      6   9999  3.45752E-01  3.35106E+00 -1.00000E+00  2.64917E-01
      21    -1     0     0   501   511  0.000000000E+00  0.000000000E+00  2.219701509E+01  2.219701509E+01  0.000000000E+00  0.00000E+00  9.000E+00
      21    -1     0     0   502   503  0.000000000E+00  0.000000000E+00 -3.243642472E+03  3.243642472E+03  0.000000000E+00  0.00000E+00  9.000E+00
      25     1     1     2     0     0  1.370538078E+00 -1.026094199E+01 -2.836574561E+03  2.839346056E+03  1.249944764E+02  0.00000E+00  9.000E+00
       5     1     1     2   501     0 -1.209479834E+00  9.987648264E+00  1.471539322E+01  1.844779816E+01  4.750000000E+00  0.00000E+00  9.000E+00
      -5     1     1     2     0   503  3.665659558E-01 -3.035965997E+00 -4.031293117E+02  4.031688926E+02  4.750000000E+00  0.00000E+00  9.000E+00
      21     1     1     2   502   511 -5.276241998E-01  3.309259720E+00  3.543022723E+00  4.876740428E+00  6.005001569E-07  0.00000E+00  9.000E+00
#rwgt            1           9  0.12827641455311417                9      473130           0
</event>
<event>
      6   9999  3.45752E-01  6.87288E+00 -1.00000E+00  2.06158E-01
      21    -1     0     0   501   502  0.000000000E+00  0.000000000E+00  8.947827350E+00  8.947827350E+00  0.000000000E+00  0.00000E+00  9.000E+00
      21    -1     0     0   502   512  0.000000000E+00  0.000000000E+00 -8.132927913E+02  8.132927913E+02  0.000000000E+00  0.00000E+00  9.000E+00
      25     1     1     2     0     0  2.625787582E+00 -6.673428663E+00 -6.588458552E+02  6.706373240E+02  1.250005202E+02  0.00000E+00  9.000E+00
       5     1     1     2   501     0 -4.705582820E-01 -1.189137912E+00  5.795975797E-01  4.953171451E+00  4.750000000E+00  0.00000E+00  9.000E+00
      -5     1     1     2     0   503  1.640258462E+00  2.132758073E+00 -8.739246492E+01  8.756280335E+01  4.750000000E+00  0.00000E+00  9.000E+00
      21     1     1     2   503   512 -3.795487761E+00  5.729808502E+00 -5.868624139E+01  5.908731980E+01  0.000000000E+00  0.00000E+00  9.000E+00
#rwgt            1           9  0.66255375107984693                9      482109           0
</event>
<event>
      6   9999  3.45752E-01  6.59406E+00 -1.00000E+00  2.08502E-01
      21    -1     0     0   501   502  0.000000000E+00  0.000000000E+00  7.966157615E+00  7.966157615E+00  0.000000000E+00  0.00000E+00  9.000E+00
      21    -1     0     0   502   511  0.000000000E+00  0.000000000E+00 -8.625129303E+02  8.625129303E+02  0.000000000E+00  0.00000E+00  9.000E+00
      25     1     1     2     0     0  1.206757386E+01  5.231445070E-01 -6.036109489E+02  6.165358383E+02  1.249974490E+02  0.00000E+00  9.000E+00
       5     1     1     2   501     0  4.701276555E-01 -1.055932984E-01 -3.804957896E+00  6.105110527E+00  4.750000000E+00  0.00000E+00  9.000E+00
      -5     1     1     2     0   503 -8.405284118E+00 -5.556100791E+00 -1.136758519E+02  1.142203172E+02  4.750000000E+00  0.00000E+00  9.000E+00
      21     1     1     2   503   511 -4.132417400E+00  5.138549583E+00 -1.334550140E+02  1.336178219E+02  2.697398305E-06  0.00000E+00  9.000E+00
#rwgt            1           9   2.9178963739512570E-004           9      485050           0
</event>
<event>
      6   9999  3.45752E-01  1.75583E+01 -1.00000E+00  1.64650E-01
      21    -1     0     0   501   502  0.000000000E+00  0.000000000E+00  1.421185614E+01  1.421185614E+01  0.000000000E+00  0.00000E+00  9.000E+00
      21    -1     0     0   512   503  0.000000000E+00  0.000000000E+00 -2.199543366E+03  2.199543366E+03  0.000000000E+00  0.00000E+00  9.000E+00
      25     1     1     2     0     0  8.496060679E+00 -2.106061372E+01 -6.950690024E+02  7.065842194E+02  1.249984339E+02  0.00000E+00  9.000E+00
       5     1     1     2   501     0  4.638006655E+00  9.804338513E-01  6.752156111E+00  9.519793507E+00  4.750000000E+00  0.00000E+00  9.000E+00
      -5     1     1     2     0   503  2.495261815E+00  1.207901401E+01 -1.675164305E+02  1.680370373E+02  4.750000000E+00  0.00000E+00  9.000E+00
      21     1     1     2   512   502 -1.562932915E+01  8.001165859E+00 -1.329498233E+03  1.329614172E+03  1.525878906E-05  0.00000E+00  9.000E+00
#rwgt            1           9   1.4713617834321522E-002           9      487933           0
</event>
<event>
      6   9999  3.45752E-01  9.17198E+00 -1.00000E+00  1.91236E-01
      21    -1     0     0   501   502  0.000000000E+00  0.000000000E+00  1.224802850E+01  1.224802850E+01  0.000000000E+00  0.00000E+00  9.000E+00
      21    -1     0     0   511   503  0.000000000E+00  0.000000000E+00 -1.151041571E+03  1.151041571E+03  0.000000000E+00  0.00000E+00  9.000E+00
      25     1     1     2     0     0 -3.748702574E+00 -9.792407421E+00 -9.556441052E+02  9.638415071E+02  1.249994035E+02  0.00000E+00  9.000E+00
       5     1     1     2   501     0  1.199260602E+00  3.741388485E-01  7.127175956E+00  8.656635777E+00  4.750000000E+00  0.00000E+00  9.000E+00
      -5     1     1     2     0   503  7.042672854E-01  4.338044794E-01 -6.166077575E+01  6.184899308E+01  4.750000000E+00  0.00000E+00  9.000E+00
      21     1     1     2   511   502  1.845174687E+00  8.984464093E+00 -1.286158377E+02  1.289424638E+02  0.000000000E+00  0.00000E+00  9.000E+00
#rwgt            1           9   2.0139494724542126E-003           9      489970           0
</event>
<event>
      6   9999  3.45752E-01  8.71943E+00 -1.00000E+00  1.93688E-01
      21    -1     0     0   501   502  0.000000000E+00  0.000000000E+00  1.926177958E+01  1.926177958E+01  0.000000000E+00  0.00000E+00  9.000E+00
      21    -1     0     0   512   503  0.000000000E+00  0.000000000E+00 -1.302491734E+03  1.302491734E+03  0.000000000E+00  0.00000E+00  9.000E+00
      25     1     1     2     0     0 -2.821946089E+00  1.616903211E-01 -9.482122306E+02  9.564145402E+02  1.249573883E+02  0.00000E+00  9.000E+00
       5     1     1     2   501     0  7.883592608E+00  3.989233166E+00  1.325407575E+01  1.662221518E+01  4.750000000E+00  0.00000E+00  9.000E+00
      -5     1     1     2     0   503  1.869587587E+00  1.139292837E+00 -4.249467401E+01  4.281533796E+01  4.750000000E+00  0.00000E+00  9.000E+00
      21     1     1     2   512   502 -6.931234105E+00 -5.290216325E+00 -3.057771252E+02  3.059014199E+02  5.394796609E-06  0.00000E+00  9.000E+00
#rwgt            1           9   4.9844292173053010E-005           9      492478           0
</event>
<event>
      6   9999  3.45752E-01  2.64148E+01 -1.00000E+00  1.51505E-01
      21    -1     0     0   501   511  0.000000000E+00  0.000000000E+00  3.653965273E+02  3.653965273E+02  0.000000000E+00  0.00000E+00  9.000E+00
      21    -1     0     0   502   503  0.000000000E+00  0.000000000E+00 -8.816586732E+02  8.816586732E+02  0.000000000E+00  0.00000E+00  9.000E+00
      25     1     1     2     0     0 -4.672858342E+01 -1.893015477E+01 -2.668229959E+02  2.989326062E+02  1.249971225E+02  0.00000E+00  9.000E+00
       5     1     1     2   501     0 -1.375199812E+01  7.019492567E+00  3.402526496E+01  3.766526097E+01  4.750000000E+00  0.00000E+00  9.000E+00
      -5     1     1     2     0   503  3.424103149E+01  1.494844188E+01 -5.958088054E+02  5.969979893E+02  4.750000000E+00  0.00000E+00  9.000E+00
      21     1     1     2   502   511  2.623955004E+01 -3.037779676E+00  3.123443904E+02  3.134593440E+02  7.629394531E-06  0.00000E+00  9.000E+00
#rwgt            1           9   1.3305281642103095E-002           9      495526           0
</event>
<event>
      6   9999  3.45752E-01  1.46718E+01 -1.00000E+00  1.71208E-01
      21    -1     0     0   512   502  0.000000000E+00  0.000000000E+00  7.083893111E+01  7.083893111E+01  0.000000000E+00  0.00000E+00  9.000E+00
      21    -1     0     0   502   503  0.000000000E+00  0.000000000E+00 -9.314874572E+02  9.314874572E+02  0.000000000E+00  0.00000E+00  9.000E+00
      25     1     1     2     0     0 -1.464377273E+01  2.627884104E+01 -7.090797485E+02  7.206415854E+02  1.250007491E+02  0.00000E+00  9.000E+00
       5     1     1     2   501     0  4.174275764E+00  6.572517743E+00  8.213946787E+00  1.227411868E+01  4.750000000E+00  0.00000E+00  9.000E+00
      -5     1     1     2     0   503  1.327179367E+01 -1.844967592E+01 -2.129725392E+02  2.142344417E+02  4.750000000E+00  0.00000E+00  9.000E+00
      21     1     1     2   512   501 -2.802296706E+00 -1.440168286E+01  5.318981485E+01  5.517624253E+01  0.000000000E+00  0.00000E+00  9.000E+00
#rwgt            1           9   1.9164690644822493E-004           9      497313           0
</event>
<event>
      6   9999  3.45752E-01  5.33585E+00 -1.00000E+00  2.21410E-01
      21    -1     0     0   501   511  0.000000000E+00  0.000000000E+00  6.585977959E+01  6.585977959E+01  0.000000000E+00  0.00000E+00  9.000E+00
      21    -1     0     0   502   503  0.000000000E+00  0.000000000E+00 -2.851803636E+02  2.851803636E+02  0.000000000E+00  0.00000E+00  9.000E+00
      25     1     1     2     0     0  1.741683545E+01 -2.699312040E+00 -7.373540733E+01  1.461925267E+02  1.249988485E+02  0.00000E+00  9.000E+00
       5     1     1     2   501     0 -1.739021207E+00  2.724012092E+00  2.772652322E+01  2.831549093E+01  4.750000000E+00  0.00000E+00  9.000E+00
      -5     1     1     2     0   503 -1.263287647E+01  4.357037125E+00 -1.692065268E+02  1.697998368E+02  4.750000000E+00  0.00000E+00  9.000E+00
      21     1     1     2   502   511 -3.044937771E+00 -4.381737176E+00 -4.105173065E+00  6.732288808E+00  1.576990671E-07  0.00000E+00  9.000E+00
#rwgt            1           9   7.2617860382441828                9      499605           0
</event>
<event>
      6   9999  3.45752E-01  8.47232E+00 -1.00000E+00  1.95111E-01
      21    -1     0     0   501   512  0.000000000E+00  0.000000000E+00  1.441855045E+01  1.441855045E+01  0.000000000E+00  0.00000E+00  9.000E+00
      21    -1     0     0   502   503  0.000000000E+00  0.000000000E+00 -7.647068000E+02  7.647068000E+02  0.000000000E+00  0.00000E+00  9.000E+00
      25     1     1     2     0     0 -1.076947557E+01  1.633301542E+00 -6.828420162E+02  6.942738107E+02  1.249970230E+02  0.00000E+00  9.000E+00
       5     1     1     2   501     0  1.341763890E+00  1.512453193E+00  3.174186946E+00  6.060182156E+00  4.750000000E+00  0.00000E+00  9.000E+00
      -5     1     1     2     0   503  6.497898844E+00  4.803860411E+00 -6.963371960E+01  7.026177602E+01  4.750000000E+00  0.00000E+00  9.000E+00
      21     1     1     2   502   512  2.929812831E+00 -7.949615146E+00 -9.867006481E-01  8.529581605E+00  3.028273796E-07  0.00000E+00  9.000E+00
#rwgt            1           9   1.8972271880372350E-002           9      504167           0
</event>
<event>
      6   9999  3.45752E-01  5.24179E+00 -1.00000E+00  2.22571E-01
      21    -1     0     0   511   503  0.000000000E+00  0.000000000E+00  1.122462024E+02  1.122462024E+02  0.000000000E+00  0.00000E+00  9.000E+00
      21    -1     0     0   501   502  0.000000000E+00  0.000000000E+00 -7.906422765E+02  7.906422765E+02  0.000000000E+00  0.00000E+00  9.000E+00
      25     1     1     2     0     0  8.051405637E+00 -8.750680614E+00 -4.077193798E+02  4.266174950E+02  1.250039794E+02  0.00000E+00  9.000E+00
       5     1     1     2   501     0  1.895905689E+00  2.982245513E+00 -3.350744522E+02  3.351267511E+02  4.750000000E+00  0.00000E+00  9.000E+00
      -5     1     1     2     0   503 -8.726808437E+00  6.707203303E-01 -3.765875528E+01  3.895319500E+01  4.750000000E+00  0.00000E+00  9.000E+00
      21     1     1     2   511   502 -1.220502889E+00  5.097714771E+00  1.020565132E+02  1.021910378E+02  2.336015456E-06  0.00000E+00  9.000E+00
#rwgt            1           9   4.0876236177399690E-004           9      507258           0
</event>
<event>
      6   9999 -3.45752E-01  1.21220E+01 -1.00000E+00  1.78800E-01
      21    -1     0     0   501   502  0.000000000E+00  0.000000000E+00  1.127959232E+02  1.127959232E+02  0.000000000E+00  0.00000E+00  9.000E+00
      21    -1     0     0   502   512  0.000000000E+00  0.000000000E+00 -9.285835759E+02  9.285835759E+02  0.000000000E+00  0.00000E+00  9.000E+00
      25     1     1     2     0     0 -5.848637808E+01 -9.054920459E+01 -1.073353873E+02  1.968891714E+02  1.249985823E+02  0.00000E+00  9.000E+00
       5     1     1     2   501     0 -7.354857773E+00  9.243657840E+00  6.234248828E+01  6.362929740E+01  4.750000000E+00  0.00000E+00  9.000E+00
      -5     1     1     2     0   503  6.330869127E+01  9.316005464E+01 -6.852262108E+02  6.944381244E+02  4.750000000E+00  0.00000E+00  9.000E+00
      21     1     1     2   503   512  2.532544580E+00 -1.185450789E+01 -8.556854282E+01  8.642290587E+01  0.000000000E+00  0.00000E+00  9.000E+00
#rwgt            1           9  -1.3740233525774121E-002           9      511068           0
</event>
<event>
      6   9999  3.45752E-01  6.97293E+00 -1.00000E+00  2.05353E-01
      21    -1     0     0   511   503  0.000000000E+00  0.000000000E+00  3.027519946E+01  3.027519946E+01  0.000000000E+00  0.00000E+00  9.000E+00
      21    -1     0     0   501   502  0.000000000E+00  0.000000000E+00 -3.409404987E+02  3.409404987E+02  0.000000000E+00  0.00000E+00  9.000E+00
      25     1     1     2     0     0  3.349892143E+00 -3.125105609E+00 -2.941015752E+02  3.195958537E+02  1.249991404E+02  0.00000E+00  9.000E+00
       5     1     1     2   501     0 -6.505555020E-01 -2.893999222E+00 -1.905848885E+01  1.986421282E+01  4.750000000E+00  0.00000E+00  9.000E+00
      -5     1     1     2     0   503  1.213249334E-01 -3.578563454E-01 -1.349502816E+01  1.431157105E+01  4.750000000E+00  0.00000E+00  9.000E+00
      21     1     1     2   511   502 -2.820661575E+00  6.376961176E+00  1.598979304E+01  1.744406051E+01  1.685873940E-07  0.00000E+00  9.000E+00
#rwgt            1           9   91.656581833559386                9      515283           0
</event>
<event>
      6   9999  3.45752E-01  1.49452E+01 -1.00000E+00  1.70509E-01
      21    -1     0     0   512   502  0.000000000E+00  0.000000000E+00  1.987628328E+01  1.987628328E+01  0.000000000E+00  0.00000E+00  9.000E+00
      21    -1     0     0   502   503  0.000000000E+00  0.000000000E+00 -8.797103605E+02  8.797103605E+02  0.000000000E+00  0.00000E+00  9.000E+00
      25     1     1     2     0     0 -1.350638837E+01  4.490793769E+00 -8.096016747E+02  8.193188114E+02  1.250034131E+02  0.00000E+00  9.000E+00
       5     1     1     2   501     0 -2.702240554E+00 -9.377402570E-03  7.720315418E+00  9.458750557E+00  4.750000000E+00  0.00000E+00  9.000E+00
      -5     1     1     2     0   503  1.314585822E+00 -3.246091153E+00 -5.531986265E+01  5.563375727E+01  4.750000000E+00  0.00000E+00  9.000E+00
      21     1     1     2   512   501  1.489404310E+01 -1.235325214E+00 -2.632855279E+00  1.517532455E+01  1.954268969E-07  0.00000E+00  9.000E+00
#rwgt            1           9   1.8999263363936899E-003           9      518030           0
</event>
<event>
      6   9999  3.45752E-01  4.51499E+01 -1.00000E+00  1.37202E-01
      21    -1     0     0   502   503  0.000000000E+00  0.000000000E+00  3.920742676E+01  3.920742676E+01  0.000000000E+00  0.00000E+00  9.000E+00
      21    -1     0     0   501   511  0.000000000E+00  0.000000000E+00 -3.287566026E+03  3.287566026E+03  0.000000000E+00  0.00000E+00  9.000E+00
      25     1     1     2     0     0 -1.909964962E+02 -8.920809274E+01 -5.070366180E+02  5.631597112E+02  1.249999321E+02  0.00000E+00  9.000E+00
       5     1     1     2   501     0  2.323166271E+02  1.011269155E+02 -1.662397223E+03  1.681601843E+03  4.750000000E+00  0.00000E+00  9.000E+00
      -5     1     1     2     0   503  1.031186331E+00 -2.756732558E+01 -2.025835458E+02  2.045083772E+02  4.750000000E+00  0.00000E+00  9.000E+00
      21     1     1     2   502   511 -4.235131729E+01  1.564850283E+01 -8.763412121E+02  8.775035212E+02  1.078959322E-05  0.00000E+00  9.000E+00
#rwgt            1           9   2.8428451428415681E-003           9      519857           0
</event>
<event>
      6   9999  3.45752E-01  8.06589E+00 -1.00000E+00  1.97594E-01
      21    -1     0     0   502   512  0.000000000E+00  0.000000000E+00  1.186115994E+01  1.186115994E+01  0.000000000E+00  0.00000E+00  9.000E+00
      21    -1     0     0   501   502  0.000000000E+00  0.000000000E+00 -1.016051852E+03  1.016051852E+03  0.000000000E+00  0.00000E+00  9.000E+00
      25     1     1     2     0     0 -4.819622065E+01 -2.781304367E+01 -5.872115691E+02  6.029429874E+02  1.250055122E+02  0.00000E+00  9.000E+00
       5     1     1     2   501     0  7.309646934E-01 -3.409300407E+00 -1.669405598E+02  1.670445170E+02  4.750000000E+00  0.00000E+00  9.000E+00
      -5     1     1     2     0   503  3.944364253E+01  3.206635763E+01 -2.381356214E+02  2.435470980E+02  4.750000000E+00  0.00000E+00  9.000E+00
      21     1     1     2   503   512  8.021613422E+00 -8.440135482E-01 -1.190294150E+01  1.437840941E+01  4.460403188E-07  0.00000E+00  9.000E+00
#rwgt            1           9   2.3858911686262387E-002           9      521136           0
</event>
<event>
      6   9999  3.45752E-01  6.27675E+00 -1.00000E+00  2.11366E-01
      21    -1     0     0   501   502  0.000000000E+00  0.000000000E+00  6.859454198E+02  6.859454198E+02  0.000000000E+00  0.00000E+00  9.000E+00
      21    -1     0     0   511   503  0.000000000E+00  0.000000000E+00 -5.846830504E+02  5.846830504E+02  0.000000000E+00  0.00000E+00  9.000E+00
      25     1     1     2     0     0  5.950238356E+00 -7.069373996E+00  7.597282122E+01  1.465682449E+02  1.249999979E+02  0.00000E+00  9.000E+00
       5     1     1     2   501     0 -9.099951017E-01  6.713311315E+00  5.452060940E+02  5.452688732E+02  4.750000000E+00  0.00000E+00  9.000E+00
      -5     1     1     2     0   503 -8.166858173E+00  5.798660174E+00  2.837519395E+01  3.046368599E+01  4.750000000E+00  0.00000E+00  9.000E+00
      21     1     1     2   511   502  3.126614918E+00 -5.442597493E+00 -5.482917398E+02  5.483276662E+02  1.078959322E-05  0.00000E+00  9.000E+00
#rwgt            1           9   1.4691420862310952E-002           9      524420           0
</event>
<event>
      6   9999  3.45752E-01  1.91729E+01 -1.00000E+00  1.61623E-01
      21    -1     0     0   512   502  0.000000000E+00  0.000000000E+00  6.824604890E+02  6.824604890E+02  0.000000000E+00  0.00000E+00  9.000E+00
      21    -1     0     0   502   503  0.000000000E+00  0.000000000E+00 -2.844041319E+01  2.844041319E+01  0.000000000E+00  0.00000E+00  9.000E+00
      25     1     1     2     0     0  7.524865196E+00  1.529291736E+01  1.297511942E+02  1.809665931E+02  1.249921539E+02  0.00000E+00  9.000E+00
       5     1     1     2   501     0 -4.108745572E-01  3.309237271E+00  4.413297896E+02  4.413679480E+02  4.750000000E+00  0.00000E+00  9.000E+00
      -5     1     1     2     0   503  1.653347883E+00 -1.551240098E+00  2.414498957E+00  5.790700327E+00  4.750000000E+00  0.00000E+00  9.000E+00
      21     1     1     2   512   501 -8.767338522E+00 -1.705091453E+01  8.052459312E+01  8.277566072E+01  1.651812370E-06  0.00000E+00  9.000E+00
#rwgt            1           9   3.6515964988714639E-005           9      528581           0
</event>
<event>
      6   9999 -3.45752E-01  2.43224E+01 -1.00000E+00  1.53984E-01
      21    -1     0     0   511   503  0.000000000E+00  0.000000000E+00  1.105010869E+01  1.105010869E+01  0.000000000E+00  0.00000E+00  9.000E+00
      21    -1     0     0   501   502  0.000000000E+00  0.000000000E+00 -8.744300642E+02  8.744300642E+02  0.000000000E+00  0.00000E+00  9.000E+00
      25     1     1     2     0     0 -6.488365023E+00 -3.418213470E+01 -6.314672220E+02  6.446599537E+02  1.250003450E+02  0.00000E+00  9.000E+00
       5     1     1     2   501     0  4.193185058E+00 -3.970192794E+00 -1.044483444E+02  1.047156358E+02  4.750000000E+00  0.00000E+00  9.000E+00
      -5     1     1     2     0   503 -9.462528149E+00  1.686060743E+01 -3.283558736E+01  3.839997160E+01  4.750000000E+00  0.00000E+00  9.000E+00
      21     1     1     2   511   502  1.175770811E+01  2.129172006E+01 -9.462880176E+01  9.770461179E+01  0.000000000E+00  0.00000E+00  9.000E+00
#rwgt            1           9  -4.9112615575895788E-002           9      530309           0
</event>
<event>
      6   9999  3.45752E-01  1.00391E+02 -1.00000E+00  1.20363E-01
      21    -1     0     0   512   502  0.000000000E+00  0.000000000E+00  1.410677136E+01  1.410677136E+01  0.000000000E+00  0.00000E+00  9.000E+00
       2    -1     0     0   501     0  0.000000000E+00  0.000000000E+00 -3.031440131E+03  3.031440131E+03  0.000000000E+00  0.00000E+00  9.000E+00
      25     1     1     2     0     0  9.999507314E+00 -1.568553590E+02 -1.608438556E+03  1.620926698E+03  1.250007102E+02  0.00000E+00  9.000E+00
       5     1     1     2   501     0  1.486327003E+01 -1.579506589E+00 -2.896159859E+01  3.293551776E+01  4.750000000E+00  0.00000E+00  9.000E+00
      -5     1     1     2     0   502 -4.055593130E+01  5.927780159E+01 -7.898004823E+02  7.930737706E+02  4.750000000E+00  0.00000E+00  9.000E+00
       2     1     1     2   512     0  1.569315395E+01  9.915706403E+01 -5.901327224E+02  5.986109157E+02  0.000000000E+00  0.00000E+00  9.000E+00
#rwgt            1           3   8.1284991189855836E-005           9      531355           0
</event>
<event>
      6   9999 -3.45752E-01  8.02475E+00 -1.00000E+00  1.97857E-01
      21    -1     0     0   511   503  0.000000000E+00  0.000000000E+00  1.257213163E+01  1.257213163E+01  0.000000000E+00  0.00000E+00  9.000E+00
      21    -1     0     0   501   502  0.000000000E+00  0.000000000E+00 -8.228627847E+02  8.228627847E+02  0.000000000E+00  0.00000E+00  9.000E+00
      25     1     1     2     0     0 -5.194473820E+01  1.137127430E+00 -5.575327202E+02  5.737311074E+02  1.250004024E+02  0.00000E+00  9.000E+00
       5     1     1     2   501     0  4.379541701E+01 -1.017001249E+01 -2.018221348E+02  2.068240902E+02  4.750000000E+00  0.00000E+00  9.000E+00
      -5     1     1     2     0   503  7.323991715E+00  1.050685316E+00 -4.182305775E+01  4.273728412E+01  4.750000000E+00  0.00000E+00  9.000E+00
      21     1     1     2   511   502  8.253294773E-01  7.982199741E+00 -9.112740311E+00  1.214243458E+01  2.920019320E-07  0.00000E+00  9.000E+00
#rwgt            1           9  -6.0458181294500643E-004           9      532065           0
</event>
<event>
      6   9999 -3.45752E-01  9.76189E+00 -1.00000E+00  1.88303E-01
      21    -1     0     0   501   502  0.000000000E+00  0.000000000E+00  2.417073384E+02  2.417073384E+02  0.000000000E+00  0.00000E+00  9.000E+00
      21    -1     0     0   502   512  0.000000000E+00  0.000000000E+00 -2.410202379E+02  2.410202379E+02  0.000000000E+00  0.00000E+00  9.000E+00
      25     1     1     2     0     0 -2.107163713E+01  8.422644577E+00 -2.026225685E+02  2.391563253E+02  1.249995514E+02  0.00000E+00  9.000E+00
       5     1     1     2   501     0 -5.562095617E+00  1.425534798E+00  1.654688981E+02  1.656366137E+02  4.750000000E+00  0.00000E+00  9.000E+00
      -5     1     1     2     0   503  2.938907902E+01 -1.921314406E+01  5.066030122E+01  6.182144846E+01  4.750000000E+00  0.00000E+00  9.000E+00
      21     1     1     2   503   512 -2.755346274E+00  9.364964690E+00 -1.281953030E+01  1.611318882E+01  3.371747881E-07  0.00000E+00  9.000E+00
#rwgt            1           9 -0.94577366479086189                9      534762           0
</event>
<event>
      6   9999  3.45752E-01  5.34435E+00 -1.00000E+00  2.21306E-01
      21    -1     0     0   501   502  0.000000000E+00  0.000000000E+00  6.471589727E+00  6.471589727E+00  0.000000000E+00  0.00000E+00  9.000E+00
      21    -1     0     0   511   503  0.000000000E+00  0.000000000E+00 -2.146308935E+03  2.146308935E+03  0.000000000E+00  0.00000E+00  9.000E+00
      25     1     1     2     0     0 -9.304202200E-01  8.991469095E-01 -1.807437446E+03  1.811755722E+03  1.250080120E+02  0.00000E+00  9.000E+00
       5     1     1     2   501     0  3.703786747E+00 -3.312088414E+00  1.272025572E+00  6.990601904E+00  4.750000000E+00  0.00000E+00  9.000E+00
      -5     1     1     2     0   503  2.334745612E+00  8.415528254E-01 -4.577268699E+01  4.608536234E+01  4.750000000E+00  0.00000E+00  9.000E+00
      21     1     1     2   511   502 -5.108112139E+00  1.571388679E+00 -2.878992380E+02  2.879488381E+02  0.000000000E+00  0.00000E+00  9.000E+00
#rwgt            1           9   7.1012071886406751E-004           9      538585           0
</event>
<event>
      6   9999 -3.45752E-01  1.84517E+01 -1.00000E+00  1.62928E-01
      21    -1     0     0   502   503  0.000000000E+00  0.000000000E+00  1.913309286E+01  1.913309286E+01  0.000000000E+00  0.00000E+00  9.000E+00
      21    -1     0     0   512   502  0.000000000E+00  0.000000000E+00 -1.026712050E+03  1.026712050E+03  0.000000000E+00  0.00000E+00  9.000E+00
      25     1     1     2     0     0  3.928051894E+00  2.171161833E+01 -2.131286243E+02  2.480634808E+02  1.249994242E+02  0.00000E+00  9.000E+00
       5     1     1     2   501     0  1.093038762E+01 -2.581419487E+01 -5.719281573E+02  5.726344608E+02  4.750000000E+00  0.00000E+00  9.000E+00
      -5     1     1     2     0   503 -5.789599088E-01 -7.583324880E+00 -1.515706179E+02  1.518356241E+02  4.750000000E+00  0.00000E+00  9.000E+00
      21     1     1     2   512   501 -1.427947961E+01  1.168590142E+01 -7.095155804E+01  7.331157765E+01  0.000000000E+00  0.00000E+00  9.000E+00
#rwgt            1           9  -6.2278654288529106E-002           9      542572           0
</event>
<event>
      6   9999  3.45752E-01  4.32328E+00 -1.00000E+00  2.41065E-01
      21    -1     0     0   501   511  0.000000000E+00  0.000000000E+00  2.302239367E+01  2.302239367E+01  0.000000000E+00  0.00000E+00  9.000E+00
      21    -1     0     0   502   503  0.000000000E+00  0.000000000E+00 -9.358379681E+02  9.358379681E+02  0.000000000E+00  0.00000E+00  9.000E+00
      25     1     1     2     0     0 -6.494648195E+00  1.877081815E+01 -3.803791619E+02  4.008834887E+02  1.249989626E+02  0.00000E+00  9.000E+00
       5     1     1     2   501     0 -1.086813508E+00  2.179934930E+00  5.407943444E+00  7.598791496E+00  4.750000000E+00  0.00000E+00  9.000E+00
      -5     1     1     2     0   503  3.565806225E+00 -2.255239085E+01 -5.430843334E+02  5.435848425E+02  4.750000000E+00  0.00000E+00  9.000E+00
      21     1     1     2   502   511  4.015655478E+00  1.601637771E+00  5.239977465E+00  6.793239014E+00  3.097148194E-07  0.00000E+00  9.000E+00
#rwgt            1           9   6.9594061209311288E-004           9      545468           0
</event>
<event>
      6   9999  3.45752E-01  5.15607E+01 -1.00000E+00  1.34077E-01
      21    -1     0     0   502   512  0.000000000E+00  0.000000000E+00  2.409383648E+01  2.409383648E+01  0.000000000E+00  0.00000E+00  9.000E+00
      21    -1     0     0   501   502  0.000000000E+00  0.000000000E+00 -1.292150780E+03  1.292150780E+03  0.000000000E+00  0.00000E+00  9.000E+00
      25     1     1     2     0     0 -7.354401373E+01  4.877226816E+01 -5.172703449E+02  5.394272499E+02  1.250027683E+02  0.00000E+00  9.000E+00
       5     1     1     2   501     0 -5.494370487E+01 -2.898171268E+01 -3.414166966E+02  3.470542804E+02  4.750000000E+00  0.00000E+00  9.000E+00
      -5     1     1     2     0   503  7.694661007E+01 -1.836842976E+01 -2.494915428E+02  2.617761877E+02  4.750000000E+00  0.00000E+00  9.000E+00
      21     1     1     2   503   512  5.154110853E+01 -1.422125721E+00 -1.598783594E+02  1.679868986E+02  3.303624740E-06  0.00000E+00  9.000E+00
#rwgt            1           9   7.6531567904291026E-002           9      550293           0
</event>
<event>
      6   9999 -3.45752E-01  1.64021E+01 -1.00000E+00  1.67075E-01
      21    -1     0     0   511   503  0.000000000E+00  0.000000000E+00  2.651305005E+01  2.651305005E+01  0.000000000E+00  0.00000E+00  9.000E+00
      21    -1     0     0   501   502  0.000000000E+00  0.000000000E+00 -1.054962335E+03  1.054962335E+03  0.000000000E+00  0.00000E+00  9.000E+00
      25     1     1     2     0     0 -3.344170985E+01 -2.787913587E+00 -1.022195047E+03  1.030356019E+03  1.249987599E+02  0.00000E+00  9.000E+00
       5     1     1     2   501     0 -7.522075585E-01  2.675862639E-01 -4.154743276E-02  4.816808571E+00  4.750000000E+00  0.00000E+00  9.000E+00
      -5     1     1     2     0   503  2.005992151E+01 -5.801842379E+00  9.645874598E+00  2.348759721E+01  4.750000000E+00  0.00000E+00  9.000E+00
      21     1     1     2   511   502  1.413399590E+01  8.322169701E+00 -1.585856463E+01  2.281496046E+01  3.371747881E-07  0.00000E+00  9.000E+00
#rwgt            1           9  -3.3544614815241968E-004           9      551321           0
</event>
<event>
      6   9999 -3.45752E-01  5.19216E+00 -1.00000E+00  2.23197E-01
      21    -1     0     0   501   502  0.000000000E+00  0.000000000E+00  1.712256739E+01  1.712256739E+01  0.000000000E+00  0.00000E+00  9.000E+00
      21    -1     0     0   502   512  0.000000000E+00  0.000000000E+00 -1.123047336E+03  1.123047336E+03  0.000000000E+00  0.00000E+00  9.000E+00
      25     1     1     2     0     0 -2.770750414E+00 -5.668136365E+00 -5.819838050E+02  5.952901601E+02  1.250016821E+02  0.00000E+00  9.000E+00
       5     1     1     2   501     0  1.449173420E+00  3.056630977E+00  9.573839876E+00  1.120999583E+01  4.750000000E+00  0.00000E+00  9.000E+00
      -5     1     1     2     0   503  5.838420798E+00  5.092028239E-02 -2.760356157E+02  2.761382143E+02  4.750000000E+00  0.00000E+00  9.000E+00
      21     1     1     2   503   512 -4.516843804E+00  2.560585106E+00 -2.574791879E+02  2.575315333E+02  0.000000000E+00  0.00000E+00  9.000E+00
#rwgt            1           9  -3.7339767925431127E-003           9      553997           0
</event>
<event>
      6   9999  3.45752E-01  8.72669E+00 -1.00000E+00  1.93647E-01
      21    -1     0     0   501   502  0.000000000E+00  0.000000000E+00  7.092818361E+01  7.092818361E+01  0.000000000E+00  0.00000E+00  9.000E+00
      21    -1     0     0   502   511  0.000000000E+00  0.000000000E+00 -1.835287216E+02  1.835287216E+02  0.000000000E+00  0.00000E+00  9.000E+00
      25     1     1     2     0     0  1.992838437E+00 -8.719382637E+00 -4.035055437E+01  1.316638619E+02  1.250088247E+02  0.00000E+00  9.000E+00
       5     1     1     2   501     0 -3.901342356E-01 -2.313748240E-01  2.247398516E+01  2.297494827E+01  4.750000000E+00  0.00000E+00  9.000E+00
      -5     1     1     2     0   503 -7.318406141E-01  2.676302610E-01 -1.225799795E-01  4.815053737E+00  4.750000000E+00  0.00000E+00  9.000E+00
      21     1     1     2   503   511 -8.708635872E-01  8.683127200E+00 -9.460138884E+01  9.500304139E+01  0.000000000E+00  0.00000E+00  9.000E+00
#rwgt            1           9   1.3760359223348461E-002           9      559001           0
</event>
<event>
      6   9999  3.45752E-01  2.51278E+00 -1.00000E+00  2.98724E-01
      21    -1     0     0   512   503  0.000000000E+00  0.000000000E+00  1.430934234E+01  1.430934234E+01  0.000000000E+00  0.00000E+00  9.000E+00
      21    -1     0     0   501   502  0.000000000E+00  0.000000000E+00 -3.744760847E+03  3.744760847E+03  0.000000000E+00  0.00000E+00  9.000E+00
      25     1     1     2     0     0 -3.520196373E+00  1.949517668E+01 -2.621320761E+03  2.624374145E+03  1.249986764E+02  0.00000E+00  9.000E+00
       5     1     1     2   501     0  1.614372739E+00 -1.935240475E+01 -9.942150132E+02  9.944159978E+02  4.750000000E+00  0.00000E+00  9.000E+00
      -5     1     1     2     0   503  2.854091147E+00  2.184216372E+00 -1.274031517E+02  1.275423153E+02  4.750000000E+00  0.00000E+00  9.000E+00
      21     1     1     2   512   502 -9.482675130E-01 -2.326988296E+00  1.248742146E+01  1.273773059E+01  1.936921693E-06  0.00000E+00  9.000E+00
#rwgt            1           9   1.1067814359426646E-003           9      561760           0
</event>
<event>
      6   9999  3.45752E-01  7.74881E+01 -1.00000E+00  1.25338E-01
      21    -1     0     0   511   502  0.000000000E+00  0.000000000E+00  9.905547852E+00  9.905547852E+00  0.000000000E+00  0.00000E+00  9.000E+00
       1    -1     0     0   501     0  0.000000000E+00  0.000000000E+00 -1.616321874E+03  1.616321874E+03  0.000000000E+00  0.00000E+00  9.000E+00
      25     1     1     2     0     0  6.875129668E+01 -8.901183833E+00 -8.699955907E+02  8.816595592E+02  1.250011142E+02  0.00000E+00  9.000E+00
       5     1     1     2   501     0  3.346004720E+00 -1.907822719E+00 -1.527377168E+01  1.645254195E+01  4.750000000E+00  0.00000E+00  9.000E+00
      -5     1     1     2     0   502 -1.987007390E+00 -2.219018918E+01 -1.851841041E+02  1.865799229E+02  4.750000000E+00  0.00000E+00  9.000E+00
       1     1     1     2   511     0 -7.011029401E+01  3.299919573E+01 -5.359628598E+02  5.415353981E+02  7.629394531E-06  0.00000E+00  9.000E+00
#rwgt            1           1   1.5415681977065458E-005           9      567523           0
</event>
<event>
      6   9999  3.45752E-01  3.62835E+01 -1.00000E+00  1.42687E-01
      21    -1     0     0   512   502  0.000000000E+00  0.000000000E+00  9.498171551E+01  9.498171551E+01  0.000000000E+00  0.00000E+00  9.000E+00
      21    -1     0     0   502   503  0.000000000E+00  0.000000000E+00 -1.575115541E+03  1.575115541E+03  0.000000000E+00  0.00000E+00  9.000E+00
      25     1     1     2     0     0 -3.395381219E+01 -8.595185603E+01 -4.436450007E+02  4.700919910E+02  1.250000419E+02  0.00000E+00  9.000E+00
       5     1     1     2   501     0  5.809100325E-01  3.401889626E+00  6.327876178E+01  6.355056650E+01  4.750000000E+00  0.00000E+00  9.000E+00
      -5     1     1     2     0   503  5.421915262E+01  1.122471957E+02 -1.092313164E+03  1.099413371E+03  4.750000000E+00  0.00000E+00  9.000E+00
      21     1     1     2   512   501 -2.084625046E+01 -2.969722930E+01 -7.454422902E+00  3.704132837E+01  3.371747881E-07  0.00000E+00  9.000E+00
#rwgt            1           9   5.2679665578341743E-004           9      567954           0
</event>
<event>
      6   9999  3.45752E-01  3.66153E+01 -1.00000E+00  1.42450E-01
      21    -1     0     0   501   502  0.000000000E+00  0.000000000E+00  1.208726917E+01  1.208726917E+01  0.000000000E+00  0.00000E+00  9.000E+00
      21    -1     0     0   502   511  0.000000000E+00  0.000000000E+00 -1.636392687E+03  1.636392687E+03  0.000000000E+00  0.00000E+00  9.000E+00
      25     1     1     2     0     0  3.596785651E+01 -1.251208401E+01 -5.510471008E+02  5.663281327E+02  1.249976306E+02  0.00000E+00  9.000E+00
       5     1     1     2   501     0  6.177717381E+00  3.700463263E-02  1.329355868E-01  7.793954917E+00  4.750000000E+00  0.00000E+00  9.000E+00
      -5     1     1     2     0   503 -6.771225020E+00  3.023146359E+00 -2.437222319E+02  2.438812779E+02  4.750000000E+00  0.00000E+00  9.000E+00
      21     1     1     2   503   511 -3.537434887E+01  9.451933019E+00 -8.296690211E+02  8.304765910E+02  1.078959322E-05  0.00000E+00  9.000E+00
#rwgt            1           9   9.6945253593333351E-004           9      570044           0
</event>
<event>
      6   9999  3.45752E-01  6.24580E+01 -1.00000E+00  1.29813E-01
      21    -1     0     0   501   512  0.000000000E+00  0.000000000E+00  3.943855608E+01  3.943855608E+01  0.000000000E+00  0.00000E+00  9.000E+00
      21    -1     0     0   502   503  0.000000000E+00  0.000000000E+00 -8.796579112E+02  8.796579112E+02  0.000000000E+00  0.00000E+00  9.000E+00
      25     1     1     2     0     0  7.879909828E+01  3.160574236E+00 -5.434750135E+02  5.632144341E+02  1.250044850E+02  0.00000E+00  9.000E+00
       5     1     1     2   501     0  2.560033716E+00  3.697799935E+00 -1.354782197E+01  1.504438357E+01  4.750000000E+00  0.00000E+00  9.000E+00
      -5     1     1     2     0   503 -1.923246846E+01 -1.328361454E+01 -2.770534287E+02  2.780782392E+02  4.750000000E+00  0.00000E+00  9.000E+00
      21     1     1     2   502   512 -6.212666353E+01  6.425240365E+00 -6.143090928E+00  6.275941046E+01  5.778884718E-07  0.00000E+00  9.000E+00
#rwgt            1           9   2.1660567319377525E-004           9      570986           0
</event>
<event>
      6   9999  3.45752E-01  2.01045E+01 -1.00000E+00  1.60038E-01
      21    -1     0     0   501   502  0.000000000E+00  0.000000000E+00  9.240733671E+00  9.240733671E+00  0.000000000E+00  0.00000E+00  9.000E+00
      21    -1     0     0   511   503  0.000000000E+00  0.000000000E+00 -8.127689125E+02  8.127689125E+02  0.000000000E+00  0.00000E+00  9.000E+00
      25     1     1     2     0     0 -1.090964147E+01 -1.861544148E+00 -6.420505219E+02  6.541989531E+02  1.249996481E+02  0.00000E+00  9.000E+00
       5     1     1     2   501     0 -2.526729535E+00 -7.789612457E-01 -2.147494241E+00  5.845115421E+00  4.750000000E+00  0.00000E+00  9.000E+00
      -5     1     1     2     0   503 -4.791554716E+00 -5.840901911E+00 -4.393148336E+01  4.482870578E+01  4.750000000E+00  0.00000E+00  9.000E+00
      21     1     1     2   511   502  1.822792572E+01  8.481407304E+00 -1.153986793E+02  1.171368718E+02  1.907348633E-06  0.00000E+00  9.000E+00
#rwgt            1           9   1.4060572935690853E-004           9      571700           0
</event>
<event>
      6   9999  3.45752E-01  7.41571E+00 -1.00000E+00  2.01997E-01
      21    -1     0     0   501   512  0.000000000E+00  0.000000000E+00  2.327702460E+01  2.327702460E+01  0.000000000E+00  0.00000E+00  9.000E+00
      21    -1     0     0   502   503  0.000000000E+00  0.000000000E+00 -1.139697198E+03  1.139697198E+03  0.000000000E+00  0.00000E+00  9.000E+00
      25     1     1     2     0     0  8.980493550E+00  1.263947200E+01 -5.097095344E+02  5.250428607E+02  1.250031622E+02  0.00000E+00  9.000E+00
       5     1     1     2   501     0 -8.664793816E-01  1.683872954E+00 -5.635636451E-01  5.144542606E+00  4.750000000E+00  0.00000E+00  9.000E+00
      -5     1     1     2     0   503 -7.690429067E+00 -6.919747408E+00 -6.183783311E+02  6.184831028E+02  4.750000000E+00  0.00000E+00  9.000E+00
      21     1     1     2   502   512 -4.235851014E-01 -7.403597543E+00  1.223125589E+01  1.430371635E+01  9.386548846E-07  0.00000E+00  9.000E+00
#rwgt            1           9   3.0698527144127893E-002           9      572806           0
</event>
<event>
      6   9999 -3.45752E-01  6.50126E+00 -1.00000E+00  2.09316E-01
      21    -1     0     0   511   502  0.000000000E+00  0.000000000E+00  1.342755229E+01  1.342755229E+01  0.000000000E+00  0.00000E+00  9.000E+00
      21    -1     0     0   502   503  0.000000000E+00  0.000000000E+00 -8.435786711E+02  8.435786711E+02  0.000000000E+00  0.00000E+00  9.000E+00
      25     1     1     2     0     0  1.962765519E+01  1.322913654E+01 -7.819533805E+02  7.922348447E+02  1.249988199E+02  0.00000E+00  9.000E+00
       5     1     1     2   501     0  8.917812710E-02 -1.634029642E+00  1.431972125E+00  5.224083630E+00  4.750000000E+00  0.00000E+00  9.000E+00
      -5     1     1     2     0   503 -1.802070064E+01 -1.787121017E+01 -4.364575524E+01  5.071134247E+01  4.750000000E+00  0.00000E+00  9.000E+00
      21     1     1     2   511   501 -1.696132675E+00  6.276103273E+00 -5.983955139E+00  8.835952549E+00  2.064765462E-07  0.00000E+00  9.000E+00
#rwgt            1           9  -8.5608071942354957E-005           9      576607           0
</event>
<event>
      6   9999  3.45752E-01  1.02266E+01 -1.00000E+00  1.86174E-01
      21    -1     0     0   501   502  0.000000000E+00  0.000000000E+00  2.127050951E+01  2.127050951E+01  0.000000000E+00  0.00000E+00  9.000E+00
      21    -1     0     0   512   503  0.000000000E+00  0.000000000E+00 -2.197060818E+03  2.197060818E+03  0.000000000E+00  0.00000E+00  9.000E+00
      25     1     1     2     0     0 -7.053690592E+00 -1.828288168E+01 -7.678718960E+02  7.782312099E+02  1.250301929E+02  0.00000E+00  9.000E+00
       5     1     1     2   501     0  3.568450961E+00  4.301642266E+00  1.443938029E+01  1.619556025E+01  4.750000000E+00  0.00000E+00  9.000E+00
      -5     1     1     2     0   503  7.724425832E-01  2.384149962E+01 -1.958987469E+02  1.974028757E+02  4.750000000E+00  0.00000E+00  9.000E+00
      21     1     1     2   512   502  2.712797048E+00 -9.860260210E+00 -1.226459046E+03  1.226501682E+03  1.525878906E-05  0.00000E+00  9.000E+00
#rwgt            1           9   4.7938169117354531E-006           9      580447           0
</event>
<event>
      6   9999  3.45752E-01  4.49073E+00 -1.00000E+00  2.37887E-01
      21    -1     0     0   501   502  0.000000000E+00  0.000000000E+00  7.967897984E+00  7.967897984E+00  0.000000000E+00  0.00000E+00  9.000E+00
      21    -1     0     0   511   503  0.000000000E+00  0.000000000E+00 -1.677894208E+03  1.677894208E+03  0.000000000E+00  0.00000E+00  9.000E+00
      25     1     1     2     0     0 -1.981099056E+00 -9.043785486E+00 -6.737548321E+02  6.853144302E+02  1.249983183E+02  0.00000E+00  9.000E+00
       5     1     1     2   501     0 -1.471597882E+00 -2.155183168E-01 -1.668864417E+00  5.249729223E+00  4.750000000E+00  0.00000E+00  9.000E+00
      -5     1     1     2     0   503 -4.988693860E-01  7.125815932E+00 -4.649749547E+01  4.728219230E+01  4.750000000E+00  0.00000E+00  9.000E+00
      21     1     1     2   511   502  3.951566324E+00  2.133487871E+00 -9.480051181E+02  9.480157544E+02  1.525878906E-05  0.00000E+00  9.000E+00
#rwgt            1           9   2.2479396565065304E-004           9      583693           0
</event>
<event>
      6   9999  3.45752E-01  7.23232E+00 -1.00000E+00  2.03348E-01
      21    -1     0     0   501   502  0.000000000E+00  0.000000000E+00  7.307099793E+00  7.307099793E+00  0.000000000E+00  0.00000E+00  9.000E+00
       2    -1     0     0   502     0  0.000000000E+00  0.000000000E+00 -2.278788125E+03  2.278788125E+03  0.000000000E+00  0.00000E+00  9.000E+00
      25     1     1     2     0     0 -4.273285487E+00  8.516345699E-01 -1.784580715E+03  1.788958415E+03  1.249995887E+02  0.00000E+00  9.000E+00
       5     1     1     2   501     0 -1.497714150E+00 -4.460215251E+00  2.681750879E+00  7.203537710E+00  4.750000000E+00  0.00000E+00  9.000E+00
      -5     1     1     2     0   503  4.266187786E+00 -3.465460216E+00 -9.231598362E+01  9.260136664E+01  4.750000000E+00  0.00000E+00  9.000E+00
       2     1     1     2   503     0  1.504811851E+00  7.074040897E+00 -3.972660772E+02  3.973319048E+02  5.394796609E-06  0.00000E+00  9.000E+00
#rwgt            1           9  0.23285567658980758                9      587697           0
</event>
<event>
      6   9999  3.45752E-01  8.19649E+00 -1.00000E+00  1.96776E-01
      21    -1     0     0   501   511  0.000000000E+00  0.000000000E+00  2.099849414E+01  2.099849414E+01  0.000000000E+00  0.00000E+00  9.000E+00
      21    -1     0     0   502   503  0.000000000E+00  0.000000000E+00 -9.896312703E+02  9.896312703E+02  0.000000000E+00  0.00000E+00  9.000E+00
      25     1     1     2     0     0 -2.366559063E+00 -8.166275838E+00 -8.776823809E+02  8.865842712E+02  1.250320743E+02  0.00000E+00  9.000E+00
       5     1     1     2   501     0 -1.279535047E+00  3.154493566E+00  1.440574777E+01  1.554593543E+01  4.750000000E+00  0.00000E+00  9.000E+00
      -5     1     1     2     0   503 -2.579138623E+00 -3.200951034E-01 -9.561761994E+01  9.577080015E+01  4.750000000E+00  0.00000E+00  9.000E+00
      21     1     1     2   502   511  6.225232733E+00  5.331877375E+00 -9.738523109E+00  1.272875765E+01  1.192092896E-07  0.00000E+00  9.000E+00
#rwgt            1           9   2.8083338889560152E-003           9      591452           0
</event>
<event>
      6   9999  3.45752E-01  3.93232E+00 -1.00000E+00  2.49394E-01
      21    -1     0     0   512   502  0.000000000E+00  0.000000000E+00  1.357366339E+02  1.357366339E+02  0.000000000E+00  0.00000E+00  9.000E+00
      21    -1     0     0   502   503  0.000000000E+00  0.000000000E+00 -7.582942866E+02  7.582942866E+02  0.000000000E+00  0.00000E+00  9.000E+00
      25     1     1     2     0     0 -1.026832057E+00  2.077866645E+01 -6.798592914E+02  6.915680244E+02  1.249994756E+02  0.00000E+00  9.000E+00
       5     1     1     2   501     0 -1.500457218E+00  1.583186019E+00  3.235352656E+00  6.147182822E+00  4.750000000E+00  0.00000E+00  9.000E+00
      -5     1     1     2     0   503  3.764228685E+00 -1.862914385E+01 -6.974394807E+01  7.244304805E+01  4.750000000E+00  0.00000E+00  9.000E+00
      21     1     1     2   512   501 -1.236939410E+00 -3.732708613E+00  1.238102341E+02  1.238726652E+02  2.336015456E-06  0.00000E+00  9.000E+00
#rwgt            1           9   4.8940897739382216E-003           9      595016           0
</event>
<event>
      6   9999 -3.45752E-01  1.30147E+01 -1.00000E+00  1.75894E-01
      21    -1     0     0   502   511  0.000000000E+00  0.000000000E+00  5.473764450E+02  5.473764450E+02  0.000000000E+00  0.00000E+00  9.000E+00
      21    -1     0     0   501   502  0.000000000E+00  0.000000000E+00 -7.703113349E+02  7.703113349E+02  0.000000000E+00  0.00000E+00  9.000E+00
      25     1     1     2     0     0  1.467042266E+01 -1.711046101E+01 -4.646210058E+02  4.816684901E+02  1.249954644E+02  0.00000E+00  9.000E+00
       5     1     1     2   501     0 -8.858323603E+00 -5.836587470E-01 -2.654911832E+02  2.656820306E+02  4.750000000E+00  0.00000E+00  9.000E+00
      -5     1     1     2     0   503  2.417690324E+00  7.611872758E+00 -3.081600551E+01  3.218655820E+01  4.750000000E+00  0.00000E+00  9.000E+00
      21     1     1     2   503   511 -8.229789380E+00  1.008224699E+01  5.379933046E+02  5.381507010E+02  1.321449896E-05  0.00000E+00  9.000E+00
#rwgt            1           9  -9.6780983974429080E-002           9      599640           0
</event>
<event>
      6   9999  3.45752E-01  1.01300E+01 -1.00000E+00  1.86605E-01
      21    -1     0     0   501   502  0.000000000E+00  0.000000000E+00  1.426039478E+01  1.426039478E+01  0.000000000E+00  0.00000E+00  9.000E+00
       1    -1     0     0   502     0  0.000000000E+00  0.000000000E+00 -1.617618372E+03  1.617618372E+03  0.000000000E+00  0.00000E+00  9.000E+00
      25     1     1     2     0     0 -1.635719107E+00 -8.665752674E+00 -7.694021180E+02  7.795399762E+02  1.250007376E+02  0.00000E+00  9.000E+00
       5     1     1     2   501     0 -2.348913575E+00  1.053939651E+00  8.121738161E+00  9.754656044E+00  4.750000000E+00  0.00000E+00  9.000E+00
      -5     1     1     2     0   503 -2.786126813E+00  7.693930687E-02 -3.400861027E+01  3.445165446E+01  4.750000000E+00  0.00000E+00  9.000E+00
       1     1     1     2   503     0  6.770759495E+00  7.534873716E+00 -8.080689868E+02  8.081324798E+02  0.000000000E+00  0.00000E+00  9.000E+00
#rwgt            1           9   5.1203088302620327E-005           9      601578           0
</event>
<event>
      6   9999 -3.45752E-01  2.21189E+02 -1.00000E+00  1.07402E-01
      21    -1     0     0   501   511  0.000000000E+00  0.000000000E+00  3.402746864E+02  3.402746864E+02  0.000000000E+00  0.00000E+00  9.000E+00
      21    -1     0     0   502   503  0.000000000E+00  0.000000000E+00 -1.294920198E+03  1.294920198E+03  0.000000000E+00  0.00000E+00  9.000E+00
      25     1     1     2     0     0  6.888037445E+00  1.635645741E+02 -5.895935793E+02  6.245346179E+02  1.249883404E+02  0.00000E+00  9.000E+00
       5     1     1     2   501     0 -6.828085772E+01 -2.253023719E+01 -3.708048382E+02  3.777415487E+02  4.750000000E+00  0.00000E+00  9.000E+00
      -5     1     1     2     0   503 -3.889033111E+01  5.611505352E+01 -2.705012055E+02  2.790247691E+02  4.750000000E+00  0.00000E+00  9.000E+00
      21     1     1     2   502   511  1.002831514E+02 -1.971493904E+02  2.762541115E+02  3.538939484E+02  9.344061824E-06  0.00000E+00  9.000E+00
#rwgt            1           9 -0.38945717508447336                9      604306           0
</event>
<event>
      6   9999  3.45752E-01  9.78093E+00 -1.00000E+00  1.88213E-01
      21    -1     0     0   512   502  0.000000000E+00  0.000000000E+00  6.755199160E+01  6.755199160E+01  0.000000000E+00  0.00000E+00  9.000E+00
      21    -1     0     0   502   503  0.000000000E+00  0.000000000E+00 -7.893469475E+02  7.893469475E+02  0.000000000E+00  0.00000E+00  9.000E+00
      25     1     1     2     0     0 -3.159293393E+00  6.497287393E+00 -7.648374014E+02  7.750184394E+02  1.250005394E+02  0.00000E+00  9.000E+00
       5     1     1     2   501     0  1.251148752E+00 -1.919915947E+00  5.294951663E+01  5.321151438E+01  4.750000000E+00  0.00000E+00  9.000E+00
      -5     1     1     2     0   503  2.502898741E+00  5.185463842E+00 -1.564130159E+01  1.733108054E+01  4.750000000E+00  0.00000E+00  9.000E+00
      21     1     1     2   512   501 -5.947541004E-01 -9.762835288E+00  5.734230522E+00  1.133790479E+01  3.769728732E-07  0.00000E+00  9.000E+00
#rwgt            1           9   5.3679082086969539E-002           9      604564           0
</event>
<event>
      6   9999  3.45752E-01  1.31755E+01 -1.00000E+00  1.75402E-01
      21    -1     0     0   501   511  0.000000000E+00  0.000000000E+00  5.784894354E+01  5.784894354E+01  0.000000000E+00  0.00000E+00  9.000E+00
      21    -1     0     0   502   503  0.000000000E+00  0.000000000E+00 -1.138564262E+03  1.138564262E+03  0.000000000E+00  0.00000E+00  9.000E+00
      25     1     1     2     0     0 -6.680005836E+01 -2.929783289E+01 -7.600938470E+02  7.737494969E+02  1.250000679E+02  0.00000E+00  9.000E+00
       5     1     1     2   501     0 -2.979326865E+00 -3.861747481E+00  1.938650265E+01  2.054722530E+01  4.750000000E+00  0.00000E+00  9.000E+00
      -5     1     1     2     0   503  7.279914745E+01  2.033481109E+01 -3.655839807E+02  3.733462600E+02  4.750000000E+00  0.00000E+00  9.000E+00
      21     1     1     2   502   511 -3.019762216E+00  1.282476928E+01  2.557600626E+01  2.877022362E+01  1.215700987E-06  0.00000E+00  9.000E+00
#rwgt            1           9   5.0486227749852136E-004           9      608118           0
</event>
<event>
      6   9999  3.45752E-01  3.37730E+00 -1.00000E+00  2.64113E-01
      21    -1     0     0   512   502  0.000000000E+00  0.000000000E+00  5.271130913E+01  5.271130913E+01  0.000000000E+00  0.00000E+00  9.000E+00
      21    -1     0     0   502   503  0.000000000E+00  0.000000000E+00 -1.195181341E+03  1.195181341E+03  0.000000000E+00  0.00000E+00  9.000E+00
      25     1     1     2     0     0 -1.000964777E+00 -1.334752021E+01 -1.070718564E+03  1.078073445E+03  1.249998026E+02  0.00000E+00  9.000E+00
       5     1     1     2   501     0  1.790213105E+00  7.704321520E+00  2.988449399E+01  3.127629955E+01  4.750000000E+00  0.00000E+00  9.000E+00
      -5     1     1     2     0   503 -8.043313305E-01  2.265931944E+00 -1.198753294E+02  1.199934936E+02  4.750000000E+00  0.00000E+00  9.000E+00
      21     1     1     2   512   501  1.508300201E-02  3.377266750E+00  1.823936769E+01  1.854941217E+01  6.307962682E-07  0.00000E+00  9.000E+00
#rwgt            1           9   1.1518279247031526E-003           9      611269           0
</event>
<event>
      6   9999  3.45752E-01  1.00614E+01 -1.00000E+00  1.86914E-01
      21    -1     0     0   501   502  0.000000000E+00  0.000000000E+00  2.791973946E+01  2.791973946E+01  0.000000000E+00  0.00000E+00  9.000E+00
      21    -1     0     0   511   503  0.000000000E+00  0.000000000E+00 -1.197928829E+03  1.197928829E+03  0.000000000E+00  0.00000E+00  9.000E+00
      25     1     1     2     0     0  2.531034739E+01 -4.069569300E-01 -9.063787036E+02  9.153077714E+02  1.250007308E+02  0.00000E+00  9.000E+00
       5     1     1     2   501     0 -1.091157598E+00  1.145928557E+00  2.195734293E+01  2.252090552E+01  4.750000000E+00  0.00000E+00  9.000E+00
      -5     1     1     2     0   503 -1.880538644E+01 -9.219673490E+00 -1.061687003E+02  1.083189751E+02  4.750000000E+00  0.00000E+00  9.000E+00
      21     1     1     2   511   502 -5.413803357E+00  8.480701864E+00 -1.794190287E+02  1.797009166E+02  0.000000000E+00  0.00000E+00  9.000E+00
#rwgt            1           9   5.9763921907551639E-003           9      618465           0
</event>
<event>
      6   9999  3.45752E-01  2.86663E+00 -1.00000E+00  2.82181E-01
      21    -1     0     0   512   502  0.000000000E+00  0.000000000E+00  2.486584325E+01  2.486584325E+01  0.000000000E+00  0.00000E+00  9.000E+00
      21    -1     0     0   502   503  0.000000000E+00  0.000000000E+00 -1.024745714E+03  1.024745714E+03  0.000000000E+00  0.00000E+00  9.000E+00
      25     1     1     2     0     0  6.762451375E+01  1.489727256E+01 -8.083636540E+02  8.208965932E+02  1.249976644E+02  0.00000E+00  9.000E+00
       5     1     1     2   501     0  2.650131461E+00  6.298633605E-01  9.004268514E+00  1.053846650E+01  4.750000000E+00  0.00000E+00  9.000E+00
      -5     1     1     2     0   503 -6.977450134E+01 -1.834979761E+01 -2.022794381E+02  2.148132437E+02  4.750000000E+00  0.00000E+00  9.000E+00
      21     1     1     2   512   501 -5.001438641E-01  2.822661691E+00  1.758952622E+00  3.363253965E+00  1.632340424E-07  0.00000E+00  9.000E+00
#rwgt            1           9   2.2458399982511626E-003           9      621592           0
</event>
<event>
      6   9999  3.45752E-01  1.30852E+01 -1.00000E+00  1.75677E-01
      21    -1     0     0   501   502  0.000000000E+00  0.000000000E+00  2.204152209E+01  2.204152209E+01  0.000000000E+00  0.00000E+00  9.000E+00
       2    -1     0     0   502     0  0.000000000E+00  0.000000000E+00 -4.314571867E+03  4.314571867E+03  0.000000000E+00  0.00000E+00  9.000E+00
      25     1     1     2     0     0  3.137275618E+01 -5.894124130E+01 -1.847685702E+03  1.853112337E+03  1.249982445E+02  0.00000E+00  9.000E+00
       5     1     1     2   501     0 -1.473698716E+01 -9.659516129E+00  1.410170056E+01  2.306307658E+01  4.750000000E+00  0.00000E+00  9.000E+00
      -5     1     1     2     0   503 -2.831904210E+01  6.270808582E+01 -1.730103887E+03  1.731478066E+03  4.750000000E+00  0.00000E+00  9.000E+00
       2     1     1     2   503     0  1.168327308E+01  5.892671609E+00 -7.288424574E+02  7.289599098E+02  0.000000000E+00  0.00000E+00  9.000E+00
#rwgt            1           9   5.6977510562400083E-003           9      628924           0
</event>
<event>
      6   9999  3.45752E-01  2.57331E+01 -1.00000E+00  1.52281E-01
      21    -1     0     0   501   502  0.000000000E+00  0.000000000E+00  1.125139983E+01  1.125139983E+01  0.000000000E+00  0.00000E+00  9.000E+00
      21    -1     0     0   511   503  0.000000000E+00  0.000000000E+00 -1.798208413E+03  1.798208413E+03  0.000000000E+00  0.00000E+00  9.000E+00
      25     1     1     2     0     0  7.701145154E+00 -9.304879775E+00 -7.481750636E+02  7.586395026E+02  1.249883217E+02  0.00000E+00  9.000E+00
       5     1     1     2   501     0 -3.793935456E+00 -8.498135904E-01 -1.755209602E+00  6.384308117E+00  4.750000000E+00  0.00000E+00  9.000E+00
      -5     1     1     2     0   503 -2.872154610E+01  3.340103274E+00 -5.717673659E+01  6.424815334E+01  4.750000000E+00  0.00000E+00  9.000E+00
      21     1     1     2   511   502  2.481433640E+01  6.814590092E+00 -9.798500034E+02  9.801878489E+02  0.000000000E+00  0.00000E+00  9.000E+00
#rwgt            1           9   2.0240691938708640E-004           9      631839           0
</event>
<event>
      6   9999 -3.45752E-01  1.12595E+01 -1.00000E+00  1.81925E-01
      21    -1     0     0   501   512  0.000000000E+00  0.000000000E+00  1.230830102E+02  1.230830102E+02  0.000000000E+00  0.00000E+00  9.000E+00
      21    -1     0     0   502   503  0.000000000E+00  0.000000000E+00 -9.984499759E+02  9.984499759E+02  0.000000000E+00  0.00000E+00  9.000E+00
      25     1     1     2     0     0  2.595614222E+00  5.389612756E+00 -8.574340491E+02  8.665195676E+02  1.250089088E+02  0.00000E+00  9.000E+00
       5     1     1     2   501     0  3.949491045E+00 -3.002312706E+00  1.539328202E+01  1.685609660E+01  4.750000000E+00  0.00000E+00  9.000E+00
      -5     1     1     2     0   503  4.643852997E+00 -1.128788788E+00 -1.353482309E+02  1.355158502E+02  4.750000000E+00  0.00000E+00  9.000E+00
      21     1     1     2   502   512 -1.118895826E+01 -1.258511262E+00  1.020220323E+02  1.026414717E+02  3.303624740E-06  0.00000E+00  9.000E+00
#rwgt            1           9  -5.9952550709063245E-004           9      633054           0
</event>
<event>
      6   9999  3.45752E-01  1.94365E+01 -1.00000E+00  1.61164E-01
      21    -1     0     0   511   502  0.000000000E+00  0.000000000E+00  5.226473285E+01  5.226473285E+01  0.000000000E+00  0.00000E+00  9.000E+00
      21    -1     0     0   502   503  0.000000000E+00  0.000000000E+00 -3.235115041E+03  3.235115041E+03  0.000000000E+00  0.00000E+00  9.000E+00
      25     1     1     2     0     0 -1.522980908E+01  3.815187749E+01 -2.903339679E+03  2.906319889E+03  1.250059729E+02  0.00000E+00  9.000E+00
       5     1     1     2   501     0  1.784826992E+01 -4.983620502E+00  4.437747532E+01  4.832514903E+01  4.750000000E+00  0.00000E+00  9.000E+00
      -5     1     1     2     0   503  4.927873548E+00 -1.525648388E+01 -3.055677299E+02  3.060249079E+02  4.750000000E+00  0.00000E+00  9.000E+00
      21     1     1     2   511   501 -7.546334388E+00 -1.791177311E+01 -1.832037480E+01  2.670982799E+01  4.129530925E-07  0.00000E+00  9.000E+00
#rwgt            1           9   1.4297815387481766E-004           9      636158           0
</event>
<event>
      6   9999 -3.45752E-01  8.29222E+00 -1.00000E+00  1.96188E-01
      21    -1     0     0   512   502  0.000000000E+00  0.000000000E+00  7.487371562E+01  7.487371562E+01  0.000000000E+00  0.00000E+00  9.000E+00
      21    -1     0     0   502   503  0.000000000E+00  0.000000000E+00 -8.702724057E+02  8.702724057E+02  0.000000000E+00  0.00000E+00  9.000E+00
      25     1     1     2     0     0  3.759083565E+00  5.371395840E+00 -8.461748645E+02  8.553827600E+02  1.249991285E+02  0.00000E+00  9.000E+00
       5     1     1     2   501     0 -6.646033447E-01  2.796567255E+00  1.208547383E+01  1.329976179E+01  4.750000000E+00  0.00000E+00  9.000E+00
      -5     1     1     2     0   503  3.848070386E+00 -3.633442696E+00 -1.790401449E+01  1.926462526E+01  4.750000000E+00  0.00000E+00  9.000E+00
      21     1     1     2   512   501 -6.942550606E+00 -4.534520399E+00  5.659471509E+01  5.719897429E+01  6.743495762E-07  0.00000E+00  9.000E+00
#rwgt            1           9  -5.4235832515873647E-004           9      639320           0
</event>
<event>
      6   9999  3.45752E-01  1.41520E+01 -1.00000E+00  1.72591E-01
      21    -1     0     0   511   503  0.000000000E+00  0.000000000E+00  4.248849774E+01  4.248849774E+01  0.000000000E+00  0.00000E+00  9.000E+00
      21    -1     0     0   501   502  0.000000000E+00  0.000000000E+00 -2.613634226E+02  2.613634226E+02  0.000000000E+00  0.00000E+00  9.000E+00
      25     1     1     2     0     0 -2.649908138E+01 -6.146382352E+00 -7.278927182E+01  1.472039997E+02  1.250230383E+02  0.00000E+00  9.000E+00
       5     1     1     2   501     0  1.408901924E+01  5.355120631E+00 -6.734249228E+01  6.917189853E+01  4.750000000E+00  0.00000E+00  9.000E+00
      -5     1     1     2     0   503  8.471480220E+00  1.438414837E+01 -6.661263416E+01  6.883658353E+01  4.750000000E+00  0.00000E+00  9.000E+00
      21     1     1     2   511   502  3.938581921E+00 -1.359288665E+01 -1.213052660E+01  1.863943858E+01  4.460403188E-07  0.00000E+00  9.000E+00
#rwgt            1           9  0.37893081235295811                9      642595           0
</event>
<event>
      6   9999  3.45752E-01  7.51066E+00 -1.00000E+00  2.01317E-01
      21    -1     0     0   501   512  0.000000000E+00  0.000000000E+00  3.092307569E+01  3.092307569E+01  0.000000000E+00  0.00000E+00  9.000E+00
      21    -1     0     0   502   503  0.000000000E+00  0.000000000E+00 -7.935294197E+02  7.935294197E+02  0.000000000E+00  0.00000E+00  9.000E+00
      25     1     1     2     0     0 -7.337179416E+00 -7.863673604E+00 -6.022845851E+02  6.152129677E+02  1.249984103E+02  0.00000E+00  9.000E+00
       5     1     1     2   501     0  9.844585321E+00 -1.245284536E+00 -4.375436998E+00  1.183949081E+01  4.750000000E+00  0.00000E+00  9.000E+00
      -5     1     1     2     0   503 -4.469461394E+00  1.859110240E+00 -1.759252938E+02  1.760559680E+02  4.750000000E+00  0.00000E+00  9.000E+00
      21     1     1     2   502   512  1.962055489E+00  7.249847901E+00  1.997897192E+01  2.134406886E+01  1.305872339E-06  0.00000E+00  9.000E+00
#rwgt            1           9   4.5724710307463292                9      644762           0
</event>
<event>
      6   9999  3.45752E-01  5.97294E+00 -1.00000E+00  2.14332E-01
      21    -1     0     0   501   511  0.000000000E+00  0.000000000E+00  1.454453259E+01  1.454453259E+01  0.000000000E+00  0.00000E+00  9.000E+00
      21    -1     0     0   502   503  0.000000000E+00  0.000000000E+00 -8.015452637E+02  8.015452637E+02  0.000000000E+00  0.00000E+00  9.000E+00
      25     1     1     2     0     0 -2.088094116E+01  2.244578759E+01 -6.141593344E+02  6.275032210E+02  1.250151082E+02  0.00000E+00  9.000E+00
       5     1     1     2   501     0 -1.167921443E+00 -5.112723881E-01 -2.199511042E-01  4.923039553E+00  4.750000000E+00  0.00000E+00  9.000E+00
      -5     1     1     2     0   503  1.788029233E+01 -1.765678101E+01 -1.752726980E+02  1.771286197E+02  4.750000000E+00  0.00000E+00  9.000E+00
      21     1     1     2   502   511  4.168570275E+00 -4.277734195E+00  2.651252374E+00  6.534916000E+00  6.071194645E-07  0.00000E+00  9.000E+00
#rwgt            1           9   5.1322189682706304E-004           9      647573           0
</event>
<event>
      6   9999 -3.45752E-01  1.74019E+01 -1.00000E+00  1.64964E-01
      21    -1     0     0   512   503  0.000000000E+00  0.000000000E+00  3.091924236E+01  3.091924236E+01  0.000000000E+00  0.00000E+00  9.000E+00
      21    -1     0     0   501   502  0.000000000E+00  0.000000000E+00 -9.702229492E+02  9.702229492E+02  0.000000000E+00  0.00000E+00  9.000E+00
      25     1     1     2     0     0  2.812413830E+01 -2.014952009E+01 -2.233418398E+02  2.582706535E+02  1.250007310E+02  0.00000E+00  9.000E+00
       5     1     1     2   501     0 -1.180319460E+01  1.554969801E+01 -5.452142992E+02  5.455843684E+02  4.750000000E+00  0.00000E+00  9.000E+00
      -5     1     1     2     0   503 -2.264253463E+01 -1.161327186E+01 -1.769344892E+02  1.788181435E+02  4.750000000E+00  0.00000E+00  9.000E+00
      21     1     1     2   512   502  6.321590934E+00  1.621309394E+01  6.186921457E+00  1.846902608E+01  3.953724850E-07  0.00000E+00  9.000E+00
#rwgt            1           9  -2.4822744185356622E-004           9      650840           0
</event>
<event>
      6   9999  3.45752E-01  4.69950E+00 -1.00000E+00  2.34201E-01
      21    -1     0     0   502   503  0.000000000E+00  0.000000000E+00  3.596802868E+01  3.596802868E+01  0.000000000E+00  0.00000E+00  9.000E+00
      21    -1     0     0   511   502  0.000000000E+00  0.000000000E+00 -2.974298315E+02  2.974298315E+02  0.000000000E+00  0.00000E+00  9.000E+00
      25     1     1     2     0     0 -2.248198839E+00 -3.348505911E+00 -1.144844554E+02  1.695552649E+02  1.250041217E+02  0.00000E+00  9.000E+00
       5     1     1     2   501     0 -3.193069386E-01  4.880536229E-01  7.193984357E+00  8.640374077E+00  4.750000000E+00  0.00000E+00  9.000E+00
      -5     1     1     2     0   503 -9.600199936E-01 -2.446770635E-01 -1.187191249E+01  1.282522169E+01  4.750000000E+00  0.00000E+00  9.000E+00
      21     1     1     2   511   501  3.527525771E+00  3.105129352E+00 -1.422994193E+02  1.423769995E+02  1.907348633E-06  0.00000E+00  9.000E+00
#rwgt            1           9   2.3840902366662484E-003           9      652591           0
</event>
<event>
      6   9999 -3.45752E-01  9.14558E+00 -1.00000E+00  1.91374E-01
      21    -1     0     0   501   502  0.000000000E+00  0.000000000E+00  6.226817522E+01  6.226817522E+01  0.000000000E+00  0.00000E+00  9.000E+00
      21    -1     0     0   512   503  0.000000000E+00  0.000000000E+00 -1.641911336E+03  1.641911336E+03  0.000000000E+00  0.00000E+00  9.000E+00
      25     1     1     2     0     0  5.406600992E+00  8.916768167E+01 -1.164349275E+03  1.174442250E+03  1.250010305E+02  0.00000E+00  9.000E+00
       5     1     1     2   501     0  9.786655047E-01 -3.152663877E-01  5.018973654E+01  5.042449140E+01  4.750000000E+00  0.00000E+00  9.000E+00
      -5     1     1     2     0   503 -1.310731023E+01 -8.265114497E+01 -2.508241176E+02  2.644585295E+02  4.750000000E+00  0.00000E+00  9.000E+00
      21     1     1     2   512   502  6.722043731E+00 -6.201270306E+00 -2.146595043E+02  2.148542399E+02  3.814697266E-06  0.00000E+00  9.000E+00
#rwgt            1           9  -2.0886492289262154E-003           9      657437           0
</event>
<event>
      6   9999  3.45752E-01  1.11961E+01 -1.00000E+00  1.82169E-01
      21    -1     0     0   511   502  0.000000000E+00  0.000000000E+00  8.441592054E+01  8.441592054E+01  0.000000000E+00  0.00000E+00  9.000E+00
      21    -1     0     0   502   503  0.000000000E+00  0.000000000E+00 -6.785173878E+02  6.785173878E+02  0.000000000E+00  0.00000E+00  9.000E+00
      25     1     1     2     0     0 -1.418580748E+01 -1.033935355E+01 -6.274928726E+02  6.400638439E+02  1.250051188E+02  0.00000E+00  9.000E+00
       5     1     1     2   501     0  1.439731556E-01  1.033457993E+00 -1.148619820E+00  4.997058253E+00  4.750000000E+00  0.00000E+00  9.000E+00
      -5     1     1     2     0   503  2.262043011E+01  1.650031284E+01 -3.633608909E+01  4.611743761E+01  4.750000000E+00  0.00000E+00  9.000E+00
      21     1     1     2   511   501 -8.578595780E+00 -7.194417282E+00  7.087611424E+01  7.175496858E+01  9.536743164E-07  0.00000E+00  9.000E+00
#rwgt            1           9   1.4848122549529072E-003           9      662280           0
</event>
<event>
      6   9999  3.45752E-01  8.89907E+00 -1.00000E+00  1.92692E-01
      21    -1     0     0   501   512  0.000000000E+00  0.000000000E+00  5.366438987E+01  5.366438987E+01  0.000000000E+00  0.00000E+00  9.000E+00
      21    -1     0     0   502   503  0.000000000E+00  0.000000000E+00 -1.350963103E+03  1.350963103E+03  0.000000000E+00  0.00000E+00  9.000E+00
      25     1     1     2     0     0  1.361808782E+01 -4.735219488E+01 -6.768823008E+01  1.504657834E+02  1.250222892E+02  0.00000E+00  9.000E+00
       5     1     1     2   501     0 -2.367362002E+00 -2.235311987E+00  8.739916514E+00  1.046659750E+01  4.750000000E+00  0.00000E+00  9.000E+00
      -5     1     1     2     0   503 -1.471071146E+01  4.138860239E+01 -1.231929373E+03  1.232721365E+03  4.750000000E+00  0.00000E+00  9.000E+00
      21     1     1     2   502   512  3.459985638E+00  8.198904480E+00 -6.421026187E+00  1.097374652E+01  3.039252468E-07  0.00000E+00  9.000E+00
#rwgt            1           9   3.6163606949169952E-005           9      664597           0
</event>
<event>
      6   9999  3.45752E-01  1.12111E+01 -1.00000E+00  1.82111E-01
      21    -1     0     0   511   502  0.000000000E+00  0.000000000E+00  8.628977400E+02  8.628977400E+02  0.000000000E+00  0.00000E+00  9.000E+00
      21    -1     0     0   502   503  0.000000000E+00  0.000000000E+00 -9.059866761E+02  9.059866761E+02  0.000000000E+00  0.00000E+00  9.000E+00
      25     1     1     2     0     0  9.611581659E-01 -1.023593531E+01 -8.612273681E+02  8.703120034E+02  1.249988219E+02  0.00000E+00  9.000E+00
       5     1     1     2   501     0 -1.499612319E+01  1.242487615E+01  4.000799362E+00  2.044089415E+01  4.750000000E+00  0.00000E+00  9.000E+00
      -5     1     1     2     0   503  1.697996473E+01  8.628421666E+00 -2.894547439E+01  3.497387383E+01  4.750000000E+00  0.00000E+00  9.000E+00
      21     1     1     2   511   501 -2.944999706E+00 -1.081736251E+01  8.430831071E+02  8.431576447E+02  1.525878906E-05  0.00000E+00  9.000E+00
#rwgt            1           9   1.4375905868871976E-003           9      668978           0
</event>
<event>
      6   9999  3.45752E-01  4.72823E+00 -1.00000E+00  2.33716E-01
      21    -1     0     0   501   502  0.000000000E+00  0.000000000E+00  8.246137890E+01  8.246137890E+01  0.000000000E+00  0.00000E+00  9.000E+00
      21    -1     0     0   512   503  0.000000000E+00  0.000000000E+00 -2.672402892E+02  2.672402892E+02  0.000000000E+00  0.00000E+00  9.000E+00
      25     1     1     2     0     0 -6.332764821E+00  6.931338660E+00 -2.177197016E+02  2.512262946E+02  1.249985411E+02  0.00000E+00  9.000E+00
       5     1     1     2   501     0  6.211345680E+00  1.218654960E+00  6.409649039E+01  6.458319065E+01  4.750000000E+00  0.00000E+00  9.000E+00
      -5     1     1     2     0   503  3.989111224E+00 -5.430224814E+00 -2.339002532E+01  2.480032529E+01  4.750000000E+00  0.00000E+00  9.000E+00
      21     1     1     2   512   502 -3.867692083E+00 -2.719768805E+00 -7.765673716E+00  9.091857492E+00  1.460009660E-07  0.00000E+00  9.000E+00
#rwgt            1           9   31.682995368655689                9      672286           0
</event>
<event>
      6   9999  3.45752E-01  8.99825E+00 -1.00000E+00  1.92155E-01
      21    -1     0     0   501   511  0.000000000E+00  0.000000000E+00  3.680218945E+01  3.680218945E+01  0.000000000E+00  0.00000E+00  9.000E+00
      21    -1     0     0   502   503  0.000000000E+00  0.000000000E+00 -8.944246031E+02  8.944246031E+02  0.000000000E+00  0.00000E+00  9.000E+00
      25     1     1     2     0     0  3.026992536E+00  4.948294640E+00 -6.308243247E+02  6.431023114E+02  1.249304048E+02  0.00000E+00  9.000E+00
       5     1     1     2   501     0 -2.516370780E+00 -5.633236222E+00  1.132856747E+01  1.374643275E+01  4.750000000E+00  0.00000E+00  9.000E+00
      -5     1     1     2     0   503  2.492221274E+00 -7.797477609E+00 -2.550423811E+02  2.552179274E+02  4.750000000E+00  0.00000E+00  9.000E+00
      21     1     1     2   502   511 -3.002843030E+00  8.482419191E+00  1.691572455E+01  1.916012105E+01  8.596304120E-07  0.00000E+00  9.000E+00
#rwgt            1           9   7.9210568790145777E-002           9      677184           0
</event>
<event>
      6   9999  3.45752E-01  3.12055E+01 -1.00000E+00  1.46740E-01
      21    -1     0     0   501   502  0.000000000E+00  0.000000000E+00  7.917526818E+00  7.917526818E+00  0.000000000E+00  0.00000E+00  9.000E+00
      21    -1     0     0   512   503  0.000000000E+00  0.000000000E+00 -9.857676608E+02  9.857676608E+02  0.000000000E+00  0.00000E+00  9.000E+00
      25     1     1     2     0     0  3.353789509E+01  1.370871190E+00 -7.429393425E+02  7.541291083E+02  1.250007025E+02  0.00000E+00  9.000E+00
       5     1     1     2   501     0  1.950300203E+00  2.577858886E-01 -7.821191981E+00  9.359683139E+00  4.750000000E+00  0.00000E+00  9.000E+00
      -5     1     1     2     0   503 -4.362710192E+00  6.045931617E-01 -3.718930594E+01  3.774924833E+01  4.750000000E+00  0.00000E+00  9.000E+00
      21     1     1     2   512   502 -3.112548510E+01 -2.233250240E+00 -1.899002935E+02  1.924471478E+02  3.814697266E-06  0.00000E+00  9.000E+00
#rwgt            1           9   7.9423006965465058E-006           9      680097           0
</event>
<event>
      6   9999  3.45752E-01  7.64552E+00 -1.00000E+00  2.00375E-01
      21    -1     0     0   501   502  0.000000000E+00  0.000000000E+00  1.263164671E+02  1.263164671E+02  0.000000000E+00  0.00000E+00  9.000E+00
      21    -1     0     0   502   511  0.000000000E+00  0.000000000E+00 -7.088275684E+02  7.088275684E+02  0.000000000E+00  0.00000E+00  9.000E+00
      25     1     1     2     0     0 -4.208744221E+01  1.117073811E+01 -1.826241265E+02  2.255502457E+02  1.250008143E+02  0.00000E+00  9.000E+00
       5     1     1     2   501     0  3.191478398E+00 -2.921967278E+00  9.238724518E+01  9.261041518E+01  4.750000000E+00  0.00000E+00  9.000E+00
      -5     1     1     2     0   503  3.927583255E+01 -6.126958161E-01 -1.943489498E+01  4.408224202E+01  4.750000000E+00  0.00000E+00  9.000E+00
      21     1     1     2   503   511 -3.798687325E-01 -7.636075017E+00 -4.728393250E+02  4.729011326E+02  5.394796609E-06  0.00000E+00  9.000E+00
#rwgt            1           9   5.0921365262490074E-002           9      681458           0
</event>
<event>
      6   9999 -3.45752E-01  2.68306E+00 -1.00000E+00  2.90241E-01
      21    -1     0     0   512   502  0.000000000E+00  0.000000000E+00  6.953408733E+01  6.953408733E+01  0.000000000E+00  0.00000E+00  9.000E+00
      21    -1     0     0   502   503  0.000000000E+00  0.000000000E+00 -7.567187995E+02  7.567187995E+02  0.000000000E+00  0.00000E+00  9.000E+00
      25     1     1     2     0     0  6.920182753E+00 -4.061931623E+00 -6.737266698E+02  6.852737792E+02  1.250125544E+02  0.00000E+00  9.000E+00
       5     1     1     2   501     0 -9.601615145E-01  1.565488556E+00  3.344540432E-01  5.103628519E+00  4.750000000E+00  0.00000E+00  9.000E+00
      -5     1     1     2     0   503 -7.619429777E+00  4.604803968E+00 -7.446404333E+01  7.514463506E+01  4.750000000E+00  0.00000E+00  9.000E+00
      21     1     1     2   512   501  1.659408539E+00 -2.108360901E+00  6.067154684E+01  6.073084404E+01  1.907348633E-06  0.00000E+00  9.000E+00
#rwgt            1           9  -3.3866607527608333E-004           9      685670           0
</event>
<event>
      6   9999  3.45752E-01  2.42167E+01 -1.00000E+00  1.54117E-01
      21    -1     0     0   501   502  0.000000000E+00  0.000000000E+00  1.195305864E+03  1.195305864E+03  0.000000000E+00  0.00000E+00  9.000E+00
      21    -1     0     0   502   511  0.000000000E+00  0.000000000E+00 -4.332031120E+01  4.332031120E+01  0.000000000E+00  0.00000E+00  9.000E+00
      25     1     1     2     0     0 -1.608686616E+01  7.466037596E+01  3.864106906E+02  4.132436892E+02  1.249966634E+02  0.00000E+00  9.000E+00
       5     1     1     2   501     0 -6.068682729E+00  3.865820727E+00  7.334702302E+02  7.335209026E+02  4.750000000E+00  0.00000E+00  9.000E+00
      -5     1     1     2     0   503  1.323697632E+01 -5.601159231E+01  3.491187574E+01  6.748272062E+01  4.750000000E+00  0.00000E+00  9.000E+00
      21     1     1     2   503   511  8.918572577E+00 -2.251460438E+01 -2.807243448E+00  2.437886304E+01  5.372690075E-07  0.00000E+00  9.000E+00
#rwgt            1           9   20.859972972453711                9      691834           0
</event>
<event>
      6   9999  3.45752E-01  4.83954E+01 -1.00000E+00  1.35550E-01
      21    -1     0     0   501   512  0.000000000E+00  0.000000000E+00  5.147454297E+02  5.147454297E+02  0.000000000E+00  0.00000E+00  9.000E+00
      21    -1     0     0   502   503  0.000000000E+00  0.000000000E+00 -3.099872119E+02  3.099872119E+02  0.000000000E+00  0.00000E+00  9.000E+00
      25     1     1     2     0     0 -8.286023859E+01 -1.419394059E+01 -1.649673753E+02  2.233839661E+02  1.249754948E+02  0.00000E+00  9.000E+00
       5     1     1     2   501     0 -1.197081734E+00  1.531511552E+01  8.397629851E+01  8.550185367E+01  4.750000000E+00  0.00000E+00  9.000E+00
      -5     1     1     2     0   503  6.066603261E+01  4.124577591E+01 -1.016442847E+02  1.254420370E+02  4.750000000E+00  0.00000E+00  9.000E+00
      21     1     1     2   502   512  2.339128772E+01 -4.236695084E+01  3.873935792E+02  3.904047849E+02  5.394796609E-06  0.00000E+00  9.000E+00
#rwgt            1           9   10.393265128551917                9      693791           0
</event>
<event>
      6   9999  3.45752E-01  2.19464E+01 -1.00000E+00  1.57192E-01
      21    -1     0     0   501   502  0.000000000E+00  0.000000000E+00  2.018882124E+03  2.018882124E+03  0.000000000E+00  0.00000E+00  9.000E+00
      21    -1     0     0   511   503  0.000000000E+00  0.000000000E+00 -2.021297800E+02  2.021297800E+02  0.000000000E+00  0.00000E+00  9.000E+00
      25     1     1     2     0     0 -1.318501136E+01  1.074667563E+01  1.321416937E+02  1.826968314E+02  1.250094773E+02  0.00000E+00  9.000E+00
       5     1     1     2   501     0 -1.135340903E+00 -2.379952434E+00  1.838760180E+03  1.838768206E+03  4.750000000E+00  0.00000E+00  9.000E+00
      -5     1     1     2     0   503 -4.264681203E+00  3.305533525E+00  2.142870878E+01  2.260234762E+01  4.750000000E+00  0.00000E+00  9.000E+00
      21     1     1     2   511   502  1.858503346E+01 -1.167225672E+01 -1.755782384E+02  1.769445191E+02  8.529922400E-06  0.00000E+00  9.000E+00
#rwgt            1           9   3.1067587390848237E-004           9      694731           0
</event>
<event>
      6   9999  3.45752E-01  1.34161E+01 -1.00000E+00  1.74681E-01
      21    -1     0     0   501   512  0.000000000E+00  0.000000000E+00  2.344460269E+02  2.344460269E+02  0.000000000E+00  0.00000E+00  9.000E+00
      21    -1     0     0   502   503  0.000000000E+00  0.000000000E+00 -8.316076101E+01  8.316076101E+01  0.000000000E+00  0.00000E+00  9.000E+00
      25     1     1     2     0     0 -4.809471831E+01 -3.004542431E+01  2.882620279E-01  1.372621044E+02  1.249998910E+02  0.00000E+00  9.000E+00
       5     1     1     2   501     0  1.760530721E-01 -4.436200393E+00  1.019635796E+02  1.021706657E+02  4.750000000E+00  0.00000E+00  9.000E+00
      -5     1     1     2     0   503  3.846676124E+01  2.496035915E+01  3.043239678E+01  5.523951957E+01  4.750000000E+00  0.00000E+00  9.000E+00
      21     1     1     2   502   512  9.451903993E+00  9.521265549E+00  1.860102747E+01  2.293449824E+01  4.129530925E-07  0.00000E+00  9.000E+00
#rwgt            1           9   3.9477906993958559E-004           9      696939           0
</event>
<event>
      6   9999  3.45752E-01  3.58671E+00 -1.00000E+00  2.58079E-01
      21    -1     0     0   511   502  0.000000000E+00  0.000000000E+00  1.603403519E+02  1.603403519E+02  0.000000000E+00  0.00000E+00  9.000E+00
      21    -1     0     0   502   503  0.000000000E+00  0.000000000E+00 -7.471734550E+02  7.471734550E+02  0.000000000E+00  0.00000E+00  9.000E+00
      25     1     1     2     0     0 -1.742632104E+01 -7.365131723E+00 -6.084051108E+02  6.214002544E+02  1.249943019E+02  0.00000E+00  9.000E+00
       5     1     1     2   501     0  1.821805756E+00 -1.751343684E+00  3.117545254E+00  6.218341364E+00  4.750000000E+00  0.00000E+00  9.000E+00
      -5     1     1     2     0   503  1.896640510E+01  7.866609383E+00 -1.298490836E+02  1.315482994E+02  4.750000000E+00  0.00000E+00  9.000E+00
      21     1     1     2   511   501 -3.361889817E+00  1.249866025E+00  1.483035460E+02  1.483469118E+02  1.907348633E-06  0.00000E+00  9.000E+00
#rwgt            1           9   1.1038794151176246E-003           9      699465           0
</event>
<event>
      6   9999  3.45752E-01  4.72670E+00 -1.00000E+00  2.33741E-01
      21    -1     0     0   501   512  0.000000000E+00  0.000000000E+00  1.592075148E+02  1.592075148E+02  0.000000000E+00  0.00000E+00  9.000E+00
      21    -1     0     0   502   503  0.000000000E+00  0.000000000E+00 -1.769295980E+02  1.769295980E+02  0.000000000E+00  0.00000E+00  9.000E+00
      25     1     1     2     0     0  7.131937960E+00  5.169258174E+01 -1.336057684E+02  1.902578987E+02  1.249983165E+02  0.00000E+00  9.000E+00
       5     1     1     2   501     0 -4.361020505E+00 -1.157872793E+00  8.577684909E+01  8.602667906E+01  4.750000000E+00  0.00000E+00  9.000E+00
      -5     1     1     2     0   503 -3.513374285E+00 -4.586668011E+01  3.000113783E+01  5.512464888E+01  4.750000000E+00  0.00000E+00  9.000E+00
      21     1     1     2   502   512  7.424568302E-01 -4.668028840E+00  1.056982572E-01  4.727886158E+00  1.119835524E-07  0.00000E+00  9.000E+00
#rwgt            1           9  0.53630566061858509                9      704586           0
</event>
<event>
      6   9999  3.45752E-01  1.88649E+00 -1.00000E+00  3.43022E-01
      21    -1     0     0   501   511  0.000000000E+00  0.000000000E+00  4.213019088E+01  4.213019088E+01  0.000000000E+00  0.00000E+00  9.000E+00
      21    -1     0     0   502   503  0.000000000E+00  0.000000000E+00 -6.350047699E+02  6.350047699E+02  0.000000000E+00  0.00000E+00  9.000E+00
      25     1     1     2     0     0 -4.263938640E+00  6.914644902E-01 -3.299909201E+02  3.528989691E+02  1.250000629E+02  0.00000E+00  9.000E+00
       5     1     1     2   501     0  2.582931873E+00 -4.441218230E+00  2.582002350E+01  2.675130034E+01  4.750000000E+00  0.00000E+00  9.000E+00
      -5     1     1     2     0   503 -1.953134438E-01  3.945418716E+00 -2.928574487E+02  2.929226045E+02  4.750000000E+00  0.00000E+00  9.000E+00
      21     1     1     2   502   511  1.876320210E+00 -1.956649756E-01  4.153766281E+00  4.562086872E+00  0.000000000E+00  0.00000E+00  9.000E+00
#rwgt            1           9   4.0109439543009433E-004           9      710155           0
</event>
<event>
      6   9999  3.45752E-01  7.63892E+00 -1.00000E+00  2.00420E-01
      21    -1     0     0   501   502  0.000000000E+00  0.000000000E+00  1.097931025E+01  1.097931025E+01  0.000000000E+00  0.00000E+00  9.000E+00
      21    -1     0     0   502   512  0.000000000E+00  0.000000000E+00 -8.341456414E+02  8.341456414E+02  0.000000000E+00  0.00000E+00  9.000E+00
      25     1     1     2     0     0 -3.857417033E+00 -4.042927054E+00 -6.987221977E+02  7.098374746E+02  1.250012238E+02  0.00000E+00  9.000E+00
       5     1     1     2   501     0  6.753529243E-01 -3.618951551E+00  3.224084805E+00  6.819833922E+00  4.750000000E+00  0.00000E+00  9.000E+00
      -5     1     1     2     0   503  1.420236921E+00  2.289023951E-01 -2.342925449E+01  2.394915312E+01  4.750000000E+00  0.00000E+00  9.000E+00
      21     1     1     2   503   512  1.761827188E+00  7.432976209E+00 -1.042389638E+02  1.045184899E+02  1.907348633E-06  0.00000E+00  9.000E+00
#rwgt            1           9   2.1020857595940480E-007           9      720632           0
</event>
<event>
      6   9999  3.45752E-01  5.94154E+01 -1.00000E+00  1.30897E-01
       2    -1     0     0   501     0  0.000000000E+00  0.000000000E+00  1.888760086E+03  1.888760086E+03  0.000000000E+00  0.00000E+00  9.000E+00
      21    -1     0     0   502   503  0.000000000E+00  0.000000000E+00 -1.096813692E+02  1.096813692E+02  0.000000000E+00  0.00000E+00  9.000E+00
      25     1     1     2     0     0 -8.436497182E+01  1.764317912E+02  3.742162313E+02  4.403481030E+02  1.249921542E+02  0.00000E+00  9.000E+00
       5     1     1     2   501     0  1.806133505E+01 -2.129112202E+00  7.124330103E+02  7.126809255E+02  4.750000000E+00  0.00000E+00  9.000E+00
      -5     1     1     2     0   503  1.189275598E+02 -1.467180738E+02  4.362877044E+01  1.938968534E+02  4.750000000E+00  0.00000E+00  9.000E+00
       2     1     1     2   502     0 -5.262392299E+01 -2.758460519E+01  6.488007051E+02  6.515155736E+02  7.629394531E-06  0.00000E+00  9.000E+00
#rwgt            1           9   6.5522305886731598                9      723436           0
</event>
<event>
      6   9999  3.45752E-01  3.67567E+01 -1.00000E+00  1.42349E-01
      -2    -1     0     0     0   511  0.000000000E+00  0.000000000E+00  3.591499781E+01  3.591499781E+01  0.000000000E+00  0.00000E+00  9.000E+00
       2    -1     0     0   501     0  0.000000000E+00  0.000000000E+00 -1.198771184E+03  1.198771184E+03  0.000000000E+00  0.00000E+00  9.000E+00
      25     1     1     2     0     0 -1.636457682E+02  3.743141553E+01 -8.692169807E+02  8.940600819E+02  1.249968889E+02  0.00000E+00  9.000E+00
       5     1     1     2   501     0  1.848729903E+01  7.001671674E+00 -2.982743620E+01  3.609767419E+01  4.750000000E+00  0.00000E+00  9.000E+00
      -5     1     1     2     0   502  1.104088160E+02 -3.245313692E+01 -2.062900510E+02  2.362656564E+02  4.750000000E+00  0.00000E+00  9.000E+00
      21     1     1     2   502   511  3.474965318E+01 -1.197995028E+01 -5.752171849E+01  6.826276952E+01  0.000000000E+00  0.00000E+00  9.000E+00
#rwgt            1           3   1.4147986855318683E-003           9      725177           0
</event>
<event>
      6   9999  3.45752E-01  1.24087E+01 -1.00000E+00  1.77833E-01
      21    -1     0     0   501   512  0.000000000E+00  0.000000000E+00  1.322654052E+01  1.322654052E+01  0.000000000E+00  0.00000E+00  9.000E+00
      21    -1     0     0   502   503  0.000000000E+00  0.000000000E+00 -8.662301640E+02  8.662301640E+02  0.000000000E+00  0.00000E+00  9.000E+00
      25     1     1     2     0     0 -7.982458711E+00 -4.022654191E+01 -5.083537526E+02  5.250984357E+02  1.249917401E+02  0.00000E+00  9.000E+00
       5     1     1     2   501     0  3.221297755E+01  6.132646549E-02 -1.417577337E+02  1.454492944E+02  4.750000000E+00  0.00000E+00  9.000E+00
      -5     1     1     2     0   503 -1.672676155E+01  3.028240312E+01 -1.739269618E+02  1.773977425E+02  4.750000000E+00  0.00000E+00  9.000E+00
      21     1     1     2   502   512 -7.503757285E+00  9.882812320E+00 -2.896517546E+01  3.151123200E+01  5.840038640E-07  0.00000E+00  9.000E+00
#rwgt            1           9   1.0112180035615939E-003           9      727697           0
</event>
<event>
      6   9999  3.45752E-01  4.18540E+00 -1.00000E+00  2.43847E-01
      21    -1     0     0   501   502  0.000000000E+00  0.000000000E+00  8.656894900E+01  8.656894900E+01  0.000000000E+00  0.00000E+00  9.000E+00
       1    -1     0     0   502     0  0.000000000E+00  0.000000000E+00 -1.947440142E+02  1.947440142E+02  0.000000000E+00  0.00000E+00  9.000E+00
      25     1     1     2     0     0 -3.839373205E+00 -3.887186977E+00 -4.204820326E+01  1.319939215E+02  1.249979716E+02  0.00000E+00  9.000E+00
       5     1     1     2   501     0 -1.744614829E+00 -2.076992928E+00  3.622351197E+01  3.663417667E+01  4.750000000E+00  0.00000E+00  9.000E+00
      -5     1     1     2     0   503  2.101556355E+00  3.642495081E+00  3.162786929E+00  7.088725604E+00  4.750000000E+00  0.00000E+00  9.000E+00
       1     1     1     2   503     0  3.482431680E+00  2.321684824E+00 -1.055131609E+02  1.055961395E+02  1.348699152E-06  0.00000E+00  9.000E+00
#rwgt            1           9   1.8722163562767237E-003           9      730243           0
</event>
<event>
      6   9999  3.45752E-01  3.07522E+01 -1.00000E+00  1.47146E-01
      21    -1     0     0   501   502  0.000000000E+00  0.000000000E+00  1.298224228E+02  1.298224228E+02  0.000000000E+00  0.00000E+00  9.000E+00
      -1    -1     0     0     0   503  0.000000000E+00  0.000000000E+00 -9.688958143E+02  9.688958143E+02  0.000000000E+00  0.00000E+00  9.000E+00
      25     1     1     2     0     0 -5.609858931E+01 -4.856175053E+01 -4.409002492E+01  1.519077744E+02  1.250069850E+02  0.00000E+00  9.000E+00
       5     1     1     2   501     0  3.829117928E+00  3.466875435E+00  6.226824590E+01  6.266241550E+01  4.750000000E+00  0.00000E+00  9.000E+00
      -5     1     1     2     0   503  8.299301660E+01  4.642297618E+01 -1.597720349E+02  1.859908577E+02  4.750000000E+00  0.00000E+00  9.000E+00
      -1     1     1     2     0   502 -3.072354522E+01 -1.328101086E+00 -6.974795776E+02  6.981571895E+02  7.629394531E-06  0.00000E+00  9.000E+00
#rwgt            1           9   4.0968139484188653                9      734940           0
</event>
<event>
      6   9999  3.45752E-01  6.35191E+00 -1.00000E+00  2.10667E-01
      21    -1     0     0   501   502  0.000000000E+00  0.000000000E+00  3.089645834E+01  3.089645834E+01  0.000000000E+00  0.00000E+00  9.000E+00
      21    -1     0     0   502   511  0.000000000E+00  0.000000000E+00 -1.288184833E+03  1.288184833E+03  0.000000000E+00  0.00000E+00  9.000E+00
      25     1     1     2     0     0 -4.053178358E+01  1.251134072E+01 -4.843031557E+02  5.019701665E+02  1.250005694E+02  0.00000E+00  9.000E+00
       5     1     1     2   501     0 -2.682646015E-01 -6.119826512E+00  2.081346842E+01  2.221007002E+01  4.750000000E+00  0.00000E+00  9.000E+00
      -5     1     1     2     0   503  3.449296831E+01 -5.638201684E+00 -6.399597679E+02  6.409310581E+02  4.750000000E+00  0.00000E+00  9.000E+00
      21     1     1     2   503   511  6.307079871E+00 -7.533125251E-01 -1.538389194E+02  1.539699966E+02  1.907348633E-06  0.00000E+00  9.000E+00
#rwgt            1           9   2.0001105016859436E-002           9      736431           0
</event>
<event>
      6   9999  3.45752E-01  5.97687E+01 -1.00000E+00  1.30767E-01
      21    -1     0     0   512   502  0.000000000E+00  0.000000000E+00  1.509906076E+02  1.509906076E+02  0.000000000E+00  0.00000E+00  9.000E+00
      21    -1     0     0   502   503  0.000000000E+00  0.000000000E+00 -1.196072984E+03  1.196072984E+03  0.000000000E+00  0.00000E+00  9.000E+00
      25     1     1     2     0     0  1.595604217E+02 -5.070922747E-01 -7.967523023E+02  8.221302814E+02  1.249967321E+02  0.00000E+00  9.000E+00
       5     1     1     2   501     0 -1.345261230E+02 -8.018083752E+01 -3.010674680E+02  3.393971527E+02  4.750000000E+00  0.00000E+00  9.000E+00
      -5     1     1     2     0   503 -1.199929164E+01  2.235800272E+01 -5.588301460E+01  6.155759178E+01  4.750000000E+00  0.00000E+00  9.000E+00
      21     1     1     2   512   501 -1.303500706E+01  5.832992708E+01  1.086204081E+02  1.239785662E+02  1.348699152E-06  0.00000E+00  9.000E+00
#rwgt            1           9   2.3629026871506021E-002           9      740863           0
</event>
<event>
      6   9999  3.45752E-01  2.65301E+00 -1.00000E+00  2.91662E-01
      21    -1     0     0   501   502  0.000000000E+00  0.000000000E+00  7.596940615E+01  7.596940615E+01  0.000000000E+00  0.00000E+00  9.000E+00
      21    -1     0     0   511   503  0.000000000E+00  0.000000000E+00 -4.111413641E+02  4.111413641E+02  0.000000000E+00  0.00000E+00  9.000E+00
      25     1     1     2     0     0  1.004934019E+00 -2.748272531E+00 -2.068169723E+01  1.267320810E+02  1.249988994E+02  0.00000E+00  9.000E+00
       5     1     1     2   501     0 -8.418989421E-01 -7.620007527E-01  1.988863914E+01  2.047949964E+01  4.750000000E+00  0.00000E+00  9.000E+00
      -5     1     1     2     0   503  7.227682263E-01  1.009511838E+00  5.675088813E-01  4.942274212E+00  4.750000000E+00  0.00000E+00  9.000E+00
      21     1     1     2   511   502 -8.858033033E-01  2.500761446E+00 -3.349464088E+02  3.349569155E+02  5.394796609E-06  0.00000E+00  9.000E+00
#rwgt            1           9   4.8000726565722764E-003           9      741868           0
</event>
<event>
      6   9999  3.45752E-01  1.35601E+01 -1.00000E+00  1.74259E-01
      21    -1     0     0   501   502  0.000000000E+00  0.000000000E+00  8.986091793E+00  8.986091793E+00  0.000000000E+00  0.00000E+00  9.000E+00
      21    -1     0     0   502   512  0.000000000E+00  0.000000000E+00 -2.713398879E+03  2.713398879E+03  0.000000000E+00  0.00000E+00  9.000E+00
      25     1     1     2     0     0 -1.161471260E+00  3.427866923E+00 -6.524538597E+02  6.643290743E+02  1.249959223E+02  0.00000E+00  9.000E+00
       5     1     1     2   501     0  2.761630310E+00 -8.429994481E-01 -5.494977648E-01  5.585847996E+00  4.750000000E+00  0.00000E+00  9.000E+00
      -5     1     1     2     0   503  9.693981003E+00 -1.008941326E+01 -1.072232306E+02  1.082365613E+02  4.750000000E+00  0.00000E+00  9.000E+00
      21     1     1     2   503   512 -1.129414005E+01  7.504545785E+00 -1.944186199E+03  1.944233487E+03  3.737624730E-05  0.00000E+00  9.000E+00
#rwgt            1           9   3.5111273420056975E-004           9      747927           0
</event>
<event>
      6   9999  3.45752E-01  8.94355E+00 -1.00000E+00  1.92450E-01
      21    -1     0     0   501   502  0.000000000E+00  0.000000000E+00  1.519557785E+01  1.519557785E+01  0.000000000E+00  0.00000E+00  9.000E+00
      21    -1     0     0   511   503  0.000000000E+00  0.000000000E+00 -8.976976305E+02  8.976976305E+02  0.000000000E+00  0.00000E+00  9.000E+00
      25     1     1     2     0     0  3.869845994E+01  3.019802606E+00 -6.441653014E+02  6.573279426E+02  1.249975943E+02  0.00000E+00  9.000E+00
       5     1     1     2   501     0 -2.289013728E+00  2.412107830E+00  3.447682293E+00  6.745877350E+00  4.750000000E+00  0.00000E+00  9.000E+00
      -5     1     1     2     0   503 -4.515471565E+01 -3.559115059E+00 -1.543537848E+02  1.609324983E+02  4.750000000E+00  0.00000E+00  9.000E+00
      21     1     1     2   511   502  8.745269437E+00 -1.872795377E+00 -8.743064878E+01  8.788689007E+01  0.000000000E+00  0.00000E+00  9.000E+00
#rwgt            1           9   1.8130212426127930                9      750444           0
</event>
<event>
      6   9999  3.45752E-01  1.09587E+01 -1.00000E+00  1.83101E-01
      21    -1     0     0   512   502  0.000000000E+00  0.000000000E+00  1.254527256E+01  1.254527256E+01  0.000000000E+00  0.00000E+00  9.000E+00
      21    -1     0     0   502   503  0.000000000E+00  0.000000000E+00 -3.537639301E+03  3.537639301E+03  0.000000000E+00  0.00000E+00  9.000E+00
      25     1     1     2     0     0 -1.787147408E+01 -5.724020738E+01 -1.200778809E+03  1.208755455E+03  1.249966778E+02  0.00000E+00  9.000E+00
       5     1     1     2   501     0 -5.527856429E+00  3.992546511E+00  1.689339043E+00  8.480211716E+00  4.750000000E+00  0.00000E+00  9.000E+00
      -5     1     1     2     0   503  1.261551591E+01  5.129790503E+01 -2.319699693E+03  2.320305983E+03  4.750000000E+00  0.00000E+00  9.000E+00
      21     1     1     2   512   501  1.078381460E+01  1.949755834E+00 -6.304865014E+00  1.264292403E+01  9.757700887E-07  0.00000E+00  9.000E+00
#rwgt            1           9  0.27832290013635241                9      753897           0
</event>
<event>
      6   9999 -3.45752E-01  1.61767E+01 -1.00000E+00  1.67577E-01
      21    -1     0     0   502   503  0.000000000E+00  0.000000000E+00  2.640321000E+00  2.640321000E+00  0.000000000E+00  0.00000E+00  9.000E+00
       2    -1     0     0   501     0  0.000000000E+00  0.000000000E+00 -4.344091557E+03  4.344091557E+03  0.000000000E+00  0.00000E+00  9.000E+00
      25     1     1     2     0     0  9.727346247E+00 -1.738279604E+00 -2.683046817E+03  2.685975158E+03  1.249987263E+02  0.00000E+00  9.000E+00
       5     1     1     2   501     0  2.147017522E+00  7.319323335E+00 -3.743435095E+01  3.849773122E+01  4.750000000E+00  0.00000E+00  9.000E+00
      -5     1     1     2     0   503  4.302307739E+00 -5.607945514E+00 -2.944584243E+01  3.065255358E+01  4.750000000E+00  0.00000E+00  9.000E+00
       2     1     1     2   502     0 -1.617667151E+01  2.690178331E-02 -1.591524226E+03  1.591606436E+03  3.051757812E-05  0.00000E+00  9.000E+00
#rwgt            1           9 -0.16214612483126128                9      756881           0
</event>
<event>
      6   9999  3.45752E-01  5.65299E+01 -1.00000E+00  1.31996E-01
      21    -1     0     0   502   503  0.000000000E+00  0.000000000E+00  1.130931971E+02  1.130931971E+02  0.000000000E+00  0.00000E+00  9.000E+00
      21    -1     0     0   511   502  0.000000000E+00  0.000000000E+00 -7.047183526E+02  7.047183526E+02  0.000000000E+00  0.00000E+00  9.000E+00
      25     1     1     2     0     0 -9.017656919E+01  2.271512195E+02 -3.938861530E+02  4.801033282E+02  1.249936562E+02  0.00000E+00  9.000E+00
       5     1     1     2   501     0 -9.586636108E-01  1.161929084E+00  2.961431962E+00  5.796696851E+00  4.750000000E+00  0.00000E+00  9.000E+00
      -5     1     1     2     0   503  4.247901898E+01 -1.995346274E+02 -1.323955402E+02  2.432481781E+02  4.750000000E+00  0.00000E+00  9.000E+00
      21     1     1     2   511   501  4.865621382E+01 -2.877852114E+01 -6.830489425E+01  8.866334644E+01  0.000000000E+00  0.00000E+00  9.000E+00
#rwgt            1           9   2.4029909723530970E-004           9      758349           0
</event>
<event>
      6   9999  3.45752E-01  1.94728E+01 -1.00000E+00  1.61101E-01
      21    -1     0     0   512   502  0.000000000E+00  0.000000000E+00  3.095643858E+01  3.095643858E+01  0.000000000E+00  0.00000E+00  9.000E+00
      21    -1     0     0   502   503  0.000000000E+00  0.000000000E+00 -1.197814354E+03  1.197814354E+03  0.000000000E+00  0.00000E+00  9.000E+00
      25     1     1     2     0     0 -6.635411395E+01 -1.993177611E+01 -3.647355249E+02  3.917356881E+02  1.249988082E+02  0.00000E+00  9.000E+00
       5     1     1     2   501     0 -1.958906886E+00  4.331334917E-02  1.397360455E+01  1.488836177E+01  4.750000000E+00  0.00000E+00  9.000E+00
      -5     1     1     2     0   503  6.239049973E+01  1.338162336E+00 -7.635154879E+02  7.660762547E+02  4.750000000E+00  0.00000E+00  9.000E+00
      21     1     1     2   512   501  5.922521107E+00  1.855030043E+01 -5.258050694E+01  5.607048789E+01  6.743495762E-07  0.00000E+00  9.000E+00
#rwgt            1           9   4.0087673359225757E-004           9      759643           0
</event>
<event>
      6   9999  3.45752E-01  7.49385E+00 -1.00000E+00  2.01436E-01
      21    -1     0     0   511   502  0.000000000E+00  0.000000000E+00  6.640831894E+01  6.640831894E+01  0.000000000E+00  0.00000E+00  9.000E+00
      21    -1     0     0   502   503  0.000000000E+00  0.000000000E+00 -1.768363960E+03  1.768363960E+03  0.000000000E+00  0.00000E+00  9.000E+00
      25     1     1     2     0     0 -1.168178233E+01 -1.996037930E+00 -1.527285861E+03  1.532438362E+03  1.249991353E+02  0.00000E+00  9.000E+00
       5     1     1     2   501     0  1.479362609E+01  6.611973019E+00  3.498509960E+01  3.884699801E+01  4.750000000E+00  0.00000E+00  9.000E+00
      -5     1     1     2     0   503  4.315656803E+00 -3.620955122E+00 -2.359906720E+02  2.361056882E+02  4.750000000E+00  0.00000E+00  9.000E+00
      21     1     1     2   511   501 -7.427500563E+00 -9.949799669E-01  2.633579320E+01  2.738122994E+01  7.539457465E-07  0.00000E+00  9.000E+00
#rwgt            1           9   8.0967090201955527E-002           9      761486           0
</event>
<event>
      6   9999  3.45752E-01  9.53949E+00 -1.00000E+00  1.89376E-01
      21    -1     0     0   501   502  0.000000000E+00  0.000000000E+00  1.203129158E+01  1.203129158E+01  0.000000000E+00  0.00000E+00  9.000E+00
      21    -1     0     0   512   503  0.000000000E+00  0.000000000E+00 -1.395326517E+03  1.395326517E+03  0.000000000E+00  0.00000E+00  9.000E+00
      25     1     1     2     0     0 -3.720017350E+01 -2.775439518E+01 -6.576431152E+02  6.710237170E+02  1.249968098E+02  0.00000E+00  9.000E+00
       5     1     1     2   501     0  8.179038294E-01 -4.282769794E-01 -2.014497982E-01  4.843084747E+00  4.750000000E+00  0.00000E+00  9.000E+00
      -5     1     1     2     0   503  3.637711457E+01  1.864318465E+01 -1.390186916E+02  1.449814537E+02  4.750000000E+00  0.00000E+00  9.000E+00
      21     1     1     2   512   502  5.155100738E-03  9.539487507E+00 -5.864319684E+02  5.865095527E+02  0.000000000E+00  0.00000E+00  9.000E+00
#rwgt            1           9   7.9693814341260614E-005           9      766460           0
</event>
<event>
      6   9999 -3.45752E-01  1.27190E+01 -1.00000E+00  1.76823E-01
      21    -1     0     0   501   511  0.000000000E+00  0.000000000E+00  1.375702897E+01  1.375702897E+01  0.000000000E+00  0.00000E+00  9.000E+00
      21    -1     0     0   502   503  0.000000000E+00  0.000000000E+00 -8.711516083E+02  8.711516083E+02  0.000000000E+00  0.00000E+00  9.000E+00
      25     1     1     2     0     0  2.077920539E+01  2.402426982E+01 -7.790758943E+02  7.896795186E+02  1.250022081E+02  0.00000E+00  9.000E+00
       5     1     1     2   501     0  1.908949080E+00  1.673146041E+00  3.373678787E+00  6.355132793E+00  4.750000000E+00  0.00000E+00  9.000E+00
      -5     1     1     2     0   503 -1.325332938E+01 -1.716761146E+01 -5.474158887E+01  5.907268130E+01  4.750000000E+00  0.00000E+00  9.000E+00
      21     1     1     2   502   511 -9.434825089E+00 -8.529804403E+00 -2.695077493E+01  2.980130462E+01  3.371747881E-07  0.00000E+00  9.000E+00
#rwgt            1           9  -2.8717821882008165E-004           9      768992           0
</event>
<event>
      6   9999  3.45752E-01  1.66505E+01 -1.00000E+00  1.66534E-01
      21    -1     0     0   501   512  0.000000000E+00  0.000000000E+00  9.786983919E+00  9.786983919E+00  0.000000000E+00  0.00000E+00  9.000E+00
      21    -1     0     0   502   503  0.000000000E+00  0.000000000E+00 -7.796159684E+02  7.796159684E+02  0.000000000E+00  0.00000E+00  9.000E+00
      25     1     1     2     0     0 -1.802850299E+01 -3.259937114E+00 -5.275012040E+02  5.424226197E+02  1.250164950E+02  0.00000E+00  9.000E+00
       5     1     1     2   501     0  3.068947634E+00 -2.049191750E+00 -5.511858643E+01  5.544581766E+01  4.750000000E+00  0.00000E+00  9.000E+00
      -5     1     1     2     0   503  2.494251929E+00  1.634787612E+01 -1.471538966E+02  1.481563570E+02  4.750000000E+00  0.00000E+00  9.000E+00
      21     1     1     2   502   512  1.246530343E+01 -1.103874726E+01 -4.005529750E+01  4.337815796E+01  6.743495762E-07  0.00000E+00  9.000E+00
#rwgt            1           9   2.2161712956431986E-002           9      771875           0
</event>
<event>
      6   9999  3.45752E-01  1.17853E+01 -1.00000E+00  1.79979E-01
      21    -1     0     0   501   502  0.000000000E+00  0.000000000E+00  2.250529599E+03  2.250529599E+03  0.000000000E+00  0.00000E+00  9.000E+00
      21    -1     0     0   502   511  0.000000000E+00  0.000000000E+00 -2.129638816E+01  2.129638816E+01  0.000000000E+00  0.00000E+00  9.000E+00
      25     1     1     2     0     0  8.806129252E+00  4.793089376E+00  4.669977320E+02  4.835413322E+02  1.249992667E+02  0.00000E+00  9.000E+00
       5     1     1     2   501     0  1.007493763E+00  3.251101108E+00  1.636959913E+03  1.636970343E+03  4.750000000E+00  0.00000E+00  9.000E+00
      -5     1     1     2     0   503 -9.999672563E+00  3.739657410E+00  1.353235048E+02  1.358270663E+02  4.750000000E+00  0.00000E+00  9.000E+00
      21     1     1     2   503   511  1.860495482E-01 -1.178384789E+01 -1.004793922E+01  1.548724534E+01  1.660393271E-06  0.00000E+00  9.000E+00
#rwgt            1           9   12.940879401246775                9      773266           0
</event>
<event>
      6   9999 -3.45752E-01  1.05319E+01 -1.00000E+00  1.84854E-01
      21    -1     0     0   501   512  0.000000000E+00  0.000000000E+00  8.737212795E+02  8.737212795E+02  0.000000000E+00  0.00000E+00  9.000E+00
      21    -1     0     0   502   503  0.000000000E+00  0.000000000E+00 -2.721300762E+01  2.721300762E+01  0.000000000E+00  0.00000E+00  9.000E+00
      25     1     1     2     0     0 -6.963831615E+00  2.373881218E+01  1.307855949E+02  1.826084210E+02  1.250157488E+02  0.00000E+00  9.000E+00
       5     1     1     2   501     0 -6.197179629E-01  1.278962330E+00  4.840964392E+02  4.841218284E+02  4.750000000E+00  0.00000E+00  9.000E+00
      -5     1     1     2     0   503  1.105745249E+01 -1.507532688E+01  8.329724716E+01  8.550161765E+01  4.750000000E+00  0.00000E+00  9.000E+00
      21     1     1     2   502   512 -3.473902913E+00 -9.942447627E+00  1.483289906E+02  1.487024200E+02  0.000000000E+00  0.00000E+00  9.000E+00
#rwgt            1           9  -7.6696040060114927E-004           9      776241           0
</event>
<event>
      6   9999 -3.45752E-01  1.11954E+01 -1.00000E+00  1.82172E-01
      21    -1     0     0   501   502  0.000000000E+00  0.000000000E+00  1.049857654E+03  1.049857654E+03  0.000000000E+00  0.00000E+00  9.000E+00
      21    -1     0     0   502   511  0.000000000E+00  0.000000000E+00 -8.208723223E+01  8.208723223E+01  0.000000000E+00  0.00000E+00  9.000E+00
      25     1     1     2     0     0  1.127649796E+00  6.839071037E+00  9.582277584E+02  9.663707397E+02  1.249957004E+02  0.00000E+00  9.000E+00
       5     1     1     2   501     0 -3.155401255E-01  4.262024111E-01  6.981166400E+01  6.997508231E+01  4.750000000E+00  0.00000E+00  9.000E+00
      -5     1     1     2     0   503 -8.161160909E+00  1.180317256E+00  1.594408356E+01  1.856809082E+01  4.750000000E+00  0.00000E+00  9.000E+00
      21     1     1     2   503   511  7.349051238E+00 -8.445590704E+00 -7.621308452E+01  7.703097305E+01  3.568322551E-06  0.00000E+00  9.000E+00
#rwgt            1           9  -1.0802681371743291E-003           9      779351           0
</event>
<event>
      6   9999  3.45752E-01  3.67310E+00 -1.00000E+00  2.55772E-01
      21    -1     0     0   501   512  0.000000000E+00  0.000000000E+00  1.278757394E+02  1.278757394E+02  0.000000000E+00  0.00000E+00  9.000E+00
      21    -1     0     0   502   503  0.000000000E+00  0.000000000E+00 -1.856569682E+02  1.856569682E+02  0.000000000E+00  0.00000E+00  9.000E+00
      25     1     1     2     0     0  2.085498530E+01  3.040187062E+00 -9.090596977E+01  1.559894407E+02  1.249985485E+02  0.00000E+00  9.000E+00
       5     1     1     2   501     0 -3.261477865E+00 -4.754978792E+00 -2.550226603E+01  2.657395593E+01  4.750000000E+00  0.00000E+00  9.000E+00
      -5     1     1     2     0   503 -1.559672322E+01 -1.368151231E+00 -3.428282801E+01  3.798689787E+01  4.750000000E+00  0.00000E+00  9.000E+00
      21     1     1     2   502   512 -1.996784209E+00  3.082942961E+00  9.290983504E+01  9.298241302E+01  1.348699152E-06  0.00000E+00  9.000E+00
#rwgt            1           9  0.27057769903543638                9      781244           0
</event>
<event>
      6   9999  3.45752E-01  6.11125E+00 -1.00000E+00  2.12952E-01
      21    -1     0     0   501   502  0.000000000E+00  0.000000000E+00  2.398503014E+01  2.398503014E+01  0.000000000E+00  0.00000E+00  9.000E+00
      21    -1     0     0   511   503  0.000000000E+00  0.000000000E+00 -1.657693350E+03  1.657693350E+03  0.000000000E+00  0.00000E+00  9.000E+00
      25     1     1     2     0     0  6.750709936E+00  4.645651809E+00 -8.970457908E+02  9.057502668E+02  1.250009634E+02  0.00000E+00  9.000E+00
       5     1     1     2   501     0 -1.769061303E+00  7.168871802E-01  1.914140816E+01  1.981412404E+01  4.750000000E+00  0.00000E+00  9.000E+00
      -5     1     1     2     0   503  1.487511437E-01 -2.041933213E+00 -4.700913859E+01  4.729284543E+01  4.750000000E+00  0.00000E+00  9.000E+00
      21     1     1     2   511   502 -5.130399776E+00 -3.320605776E+00 -7.087947988E+02  7.088211440E+02  1.321449896E-05  0.00000E+00  9.000E+00
#rwgt            1           9   1.1328209921564288E-004           9      785915           0
</event>
<event>
      6   9999  3.45752E-01  2.69303E+00 -1.00000E+00  2.89776E-01
      21    -1     0     0   501   502  0.000000000E+00  0.000000000E+00  6.842661097E+00  6.842661097E+00  0.000000000E+00  0.00000E+00  9.000E+00
      21    -1     0     0   502   512  0.000000000E+00  0.000000000E+00 -9.949378440E+02  9.949378440E+02  0.000000000E+00  0.00000E+00  9.000E+00
      25     1     1     2     0     0 -1.637410891E+00  3.391637497E+00 -6.332271107E+02  6.454580923E+02  1.250015634E+02  0.00000E+00  9.000E+00
       5     1     1     2   501     0  1.708250129E+00 -4.474562120E-01 -1.323361204E+01  1.417072063E+01  4.750000000E+00  0.00000E+00  9.000E+00
      -5     1     1     2     0   503  5.045285744E-01 -3.133296591E-01 -2.239623875E+01  2.290211201E+01  4.750000000E+00  0.00000E+00  9.000E+00
      21     1     1     2   503   512 -5.753678121E-01 -2.630851625E+00 -3.192382214E+02  3.192495801E+02  0.000000000E+00  0.00000E+00  9.000E+00
#rwgt            1           9   1.6466769354268967E-002           9      790476           0
</event>
<event>
      6   9999  3.45752E-01  1.55309E+01 -1.00000E+00  1.69073E-01
      21    -1     0     0   511   503  0.000000000E+00  0.000000000E+00  4.521085049E+01  4.521085049E+01  0.000000000E+00  0.00000E+00  9.000E+00
      21    -1     0     0   501   502  0.000000000E+00  0.000000000E+00 -7.709140111E+02  7.709140111E+02  0.000000000E+00  0.00000E+00  9.000E+00
      25     1     1     2     0     0  7.699011825E+00 -8.464537801E+00 -6.943520753E+02  7.056076283E+02  1.250055896E+02  0.00000E+00  9.000E+00
       5     1     1     2   501     0 -2.585443599E-01  1.303804976E+00 -3.368687623E+00  5.973048543E+00  4.750000000E+00  0.00000E+00  9.000E+00
      -5     1     1     2     0   503 -6.626347434E+00  2.267024638E+01 -6.234330834E+01  6.683636096E+01  4.750000000E+00  0.00000E+00  9.000E+00
      21     1     1     2   511   502 -8.141200308E-01 -1.550951355E+01  3.436091061E+01  3.770782386E+01  1.348699152E-06  0.00000E+00  9.000E+00
#rwgt            1           9   7.2721637121664531E-006           9      796120           0
</event>
<event>
      6   9999  3.45752E-01  6.02635E+00 -1.00000E+00  2.13793E-01
      21    -1     0     0   501   502  0.000000000E+00  0.000000000E+00  2.912733739E+01  2.912733739E+01  0.000000000E+00  0.00000E+00  9.000E+00
      21    -1     0     0   502   512  0.000000000E+00  0.000000000E+00 -1.151520497E+03  1.151520497E+03  0.000000000E+00  0.00000E+00  9.000E+00
      25     1     1     2     0     0 -1.882526461E+00 -2.723751937E+01 -7.544502377E+02  7.652223371E+02  1.249985510E+02  0.00000E+00  9.000E+00
       5     1     1     2   501     0  6.471039029E+00  2.603003819E-01  2.254045420E+01  2.392857451E+01  4.750000000E+00  0.00000E+00  9.000E+00
      -5     1     1     2     0   503 -5.180180263E+00  2.097998312E+01 -3.077562232E+02  3.085505621E+02  4.750000000E+00  0.00000E+00  9.000E+00
      21     1     1     2   503   512  5.916676950E-01  5.997235869E+00 -8.272715274E+01  8.294636043E+01  0.000000000E+00  0.00000E+00  9.000E+00
#rwgt            1           9   4.2460638413955181E-005           9      798295           0
</event>
<event>
      6   9999  3.45752E-01  7.34840E+00 -1.00000E+00  2.02486E-01
      21    -1     0     0   501   502  0.000000000E+00  0.000000000E+00  1.322036035E+01  1.322036035E+01  0.000000000E+00  0.00000E+00  9.000E+00
      21    -1     0     0   511   503  0.000000000E+00  0.000000000E+00 -8.205238471E+02  8.205238471E+02  0.000000000E+00  0.00000E+00  9.000E+00
      25     1     1     2     0     0  3.043904942E+01 -2.430216970E+01 -5.356095103E+02  5.513821324E+02  1.250103085E+02  0.00000E+00  9.000E+00
       5     1     1     2   501     0  3.272052553E-01  2.912275924E-01 -1.571102431E+00  5.022224571E+00  4.750000000E+00  0.00000E+00  9.000E+00
      -5     1     1     2     0   503 -2.345891692E+01  2.323520736E+01 -7.506073191E+01  8.213934270E+01  4.750000000E+00  0.00000E+00  9.000E+00
      21     1     1     2   511   502 -7.307337748E+00  7.757347515E-01 -1.950621421E+02  1.952005078E+02  2.697398305E-06  0.00000E+00  9.000E+00
#rwgt            1           9  0.45065773113107704                9      803091           0
</event>
<event>
      6   9999  3.45752E-01  5.46359E+00 -1.00000E+00  2.19885E-01
      21    -1     0     0   512   502  0.000000000E+00  0.000000000E+00  2.328343580E+00  2.328343580E+00  0.000000000E+00  0.00000E+00  9.000E+00
      21    -1     0     0   502   503  0.000000000E+00  0.000000000E+00 -4.737596730E+03  4.737596730E+03  0.000000000E+00  0.00000E+00  9.000E+00
      25     1     1     2     0     0 -5.418787061E+00  1.845963609E+01 -3.802157159E+03  3.804259974E+03  1.249990789E+02  0.00000E+00  9.000E+00
       5     1     1     2   501     0  3.974036087E-01 -1.571443004E+01 -7.508602481E+02  7.510397965E+02  4.750000000E+00  0.00000E+00  9.000E+00
      -5     1     1     2     0   503  2.176062870E+00  1.919021742E+00 -1.768674820E+02  1.769550412E+02  4.750000000E+00  0.00000E+00  9.000E+00
      21     1     1     2   512   501  2.845320582E+00 -4.664227795E+00 -5.383497621E+00  7.670261845E+00  1.519626234E-06  0.00000E+00  9.000E+00
#rwgt            1           9   1.1869399421208549E-004           9      806415           0
</event>
<event>
      6   9999  3.45752E-01  9.40403E+00 -1.00000E+00  1.90049E-01
      -1    -1     0     0     0   503  0.000000000E+00  0.000000000E+00  2.302108564E+01  2.302108564E+01  0.000000000E+00  0.00000E+00  9.000E+00
      21    -1     0     0   501   502  0.000000000E+00  0.000000000E+00 -6.727760814E+02  6.727760814E+02  0.000000000E+00  0.00000E+00  9.000E+00
      25     1     1     2     0     0  4.360723797E+00  5.995602609E-01 -6.428663470E+02  6.549200476E+02  1.249950128E+02  0.00000E+00  9.000E+00
       5     1     1     2   501     0  5.038904585E+00 -3.891780540E+00 -8.409654633E+00  1.156811593E+01  4.750000000E+00  0.00000E+00  9.000E+00
      -5     1     1     2     0   503 -3.070551566E-01  8.920152761E-01 -1.194213477E+01  1.288670078E+01  4.750000000E+00  0.00000E+00  9.000E+00
      -1     1     1     2     0   502 -9.092573226E+00  2.400205003E+00  1.346314064E+01  1.642230275E+01  6.529361695E-07  0.00000E+00  9.000E+00
#rwgt            1           9   3.1478173669936116E-004           9      810637           0
</event>
<event>
      6   9999  3.45752E-01  1.93593E+01 -1.00000E+00  1.61297E-01
      21    -1     0     0   501   502  0.000000000E+00  0.000000000E+00  3.730333466E+01  3.730333466E+01  0.000000000E+00  0.00000E+00  9.000E+00
      21    -1     0     0   502   511  0.000000000E+00  0.000000000E+00 -1.388111896E+03  1.388111896E+03  0.000000000E+00  0.00000E+00  9.000E+00
      25     1     1     2     0     0 -5.432000794E+00  2.185112538E+01 -1.148852800E+03  1.155852219E+03  1.249984732E+02  0.00000E+00  9.000E+00
       5     1     1     2   501     0  1.129005166E+01  2.370007459E-01  3.175406354E+01  3.403534174E+01  4.750000000E+00  0.00000E+00  9.000E+00
      -5     1     1     2     0   503  4.892680187E+00 -5.988354871E+00 -5.162702303E+01  5.241861044E+01  4.750000000E+00  0.00000E+00  9.000E+00
      21     1     1     2   503   511 -1.075073106E+01 -1.609977125E+01 -1.820828024E+02  1.831090598E+02  0.000000000E+00  0.00000E+00  9.000E+00
#rwgt            1           9   4.7846329765326125E-005           9      812873           0
</event>
<event>
      6   9999  3.45752E-01  2.29033E+01 -1.00000E+00  1.55843E-01
      21    -1     0     0   501   502  0.000000000E+00  0.000000000E+00  1.016804670E+02  1.016804670E+02  0.000000000E+00  0.00000E+00  9.000E+00
      21    -1     0     0   502   512  0.000000000E+00  0.000000000E+00 -1.791573754E+03  1.791573754E+03  0.000000000E+00  0.00000E+00  9.000E+00
      25     1     1     2     0     0  4.687860700E+01  4.726619064E+00 -4.050443348E+01  1.395960376E+02  1.250059993E+02  0.00000E+00  9.000E+00
       5     1     1     2   501     0 -5.952243005E+00 -1.188265076E+01  4.986295424E+01  5.182184183E+01  4.750000000E+00  0.00000E+00  9.000E+00
      -5     1     1     2     0   503 -6.280309913E+01  3.759448920E-01 -1.490839131E+03  1.492168974E+03  4.750000000E+00  0.00000E+00  9.000E+00
      21     1     1     2   503   512  2.187673514E+01  6.780086803E+00 -2.084126771E+02  2.096673678E+02  3.814697266E-06  0.00000E+00  9.000E+00
#rwgt            1           9   5.5387928920281309E-003           9      815334           0
</event>
<event>
      6   9999 -3.45752E-01  1.15645E+02 -1.00000E+00  1.17812E-01
      21    -1     0     0   502   503  0.000000000E+00  0.000000000E+00  3.221489272E+03  3.221489272E+03  0.000000000E+00  0.00000E+00  9.000E+00
      21    -1     0     0   501   511  0.000000000E+00  0.000000000E+00 -2.182829113E+02  2.182829113E+02  0.000000000E+00  0.00000E+00  9.000E+00
      25     1     1     2     0     0  9.706525455E+01 -6.278140007E+01  1.350254573E+03  1.360946102E+03  1.249948568E+02  0.00000E+00  9.000E+00
       5     1     1     2   501     0 -4.200283033E+00 -1.164064920E+00  1.976125363E+02  1.977176634E+02  4.750000000E+00  0.00000E+00  9.000E+00
      -5     1     1     2     0   503 -2.054391398E+02  3.747262866E+01  1.645412875E+03  1.658618560E+03  4.750000000E+00  0.00000E+00  9.000E+00
      21     1     1     2   502   511  1.125741683E+02  2.647283632E+01 -1.900736231E+02  2.224898573E+02  9.725607898E-06  0.00000E+00  9.000E+00
#rwgt            1           9  -7.5121214597782641E-004           9      817968           0
</event>
<event>
      6   9999  3.45752E-01  2.27946E+01 -1.00000E+00  1.55992E-01
      21    -1     0     0   502   512  0.000000000E+00  0.000000000E+00  1.247076546E+03  1.247076546E+03  0.000000000E+00  0.00000E+00  9.000E+00
      21    -1     0     0   501   502  0.000000000E+00  0.000000000E+00 -3.447999937E+01  3.447999937E+01  0.000000000E+00  0.00000E+00  9.000E+00
      25     1     1     2     0     0 -9.348694363E+01  1.053865573E+02  3.066154712E+02  3.598386303E+02  1.249986303E+02  0.00000E+00  9.000E+00
       5     1     1     2   501     0  3.771737675E+01 -8.035350160E+01  5.817587311E+02  5.885108915E+02  4.750000000E+00  0.00000E+00  9.000E+00
      -5     1     1     2     0   503  4.901427352E+01 -3.262442468E+00  1.608109459E+02  1.682134517E+02  4.750000000E+00  0.00000E+00  9.000E+00
      21     1     1     2   503   512  6.755293358E+00 -2.177061328E+01  1.634113985E+02  1.649935719E+02  0.000000000E+00  0.00000E+00  9.000E+00
#rwgt            1           9   9.9324645975960120E-004           9      818319           0
</event>
<event>
      6   9999  3.45752E-01  3.80130E+00 -1.00000E+00  2.52521E-01
      21    -1     0     0   511   502  0.000000000E+00  0.000000000E+00  1.258113401E+02  1.258113401E+02  0.000000000E+00  0.00000E+00  9.000E+00
      21    -1     0     0   502   503  0.000000000E+00  0.000000000E+00 -9.193400787E+02  9.193400787E+02  0.000000000E+00  0.00000E+00  9.000E+00
      25     1     1     2     0     0 -1.486612601E+01  9.467144601E+00 -8.054537666E+02  8.152864429E+02  1.250023413E+02  0.00000E+00  9.000E+00
       5     1     1     2   501     0 -1.343863198E+00 -2.607638934E+00  5.083405506E+00  7.550447712E+00  4.750000000E+00  0.00000E+00  9.000E+00
      -5     1     1     2     0   503  1.371481200E+01 -9.727247643E+00 -1.069961291E+02  1.084133274E+02  4.750000000E+00  0.00000E+00  9.000E+00
      21     1     1     2   511   501  2.495177209E+00  2.867741976E+00  1.138377516E+02  1.139012008E+02  3.303624740E-06  0.00000E+00  9.000E+00
#rwgt            1           9   1.0772976916728385E-004           9      820287           0
</event>
<event>
      6   9999  3.45752E-01  4.56810E+01 -1.00000E+00  1.36921E-01
      21    -1     0     0   512   502  0.000000000E+00  0.000000000E+00  1.155335421E+02  1.155335421E+02  0.000000000E+00  0.00000E+00  9.000E+00
      21    -1     0     0   502   503  0.000000000E+00  0.000000000E+00 -1.717936612E+03  1.717936612E+03  0.000000000E+00  0.00000E+00  9.000E+00
      25     1     1     2     0     0  2.782348231E+01 -1.288405353E+02 -1.275045896E+03  1.287922010E+03  1.250081408E+02  0.00000E+00  9.000E+00
       5     1     1     2   501     0 -2.284455863E+00  2.265679121E+00  8.873440484E+01  8.891967804E+01  4.750000000E+00  0.00000E+00  9.000E+00
      -5     1     1     2     0   503 -4.969911452E+01  8.780573582E+01 -3.923562320E+02  4.051491386E+02  4.750000000E+00  0.00000E+00  9.000E+00
      21     1     1     2   512   501  2.416008807E+01  3.876912041E+01 -2.373534682E+01  5.147932830E+01  8.259061849E-07  0.00000E+00  9.000E+00
#rwgt            1           9   1.6577880884073466E-005           9      825347           0
</event>
<event>
      6   9999  3.45752E-01  1.77012E+01 -1.00000E+00  1.64366E-01
      21    -1     0     0   501   502  0.000000000E+00  0.000000000E+00  4.326956898E+01  4.326956898E+01  0.000000000E+00  0.00000E+00  9.000E+00
      21    -1     0     0   502   511  0.000000000E+00  0.000000000E+00 -1.429798976E+03  1.429798976E+03  0.000000000E+00  0.00000E+00  9.000E+00
      25     1     1     2     0     0  1.057200753E+02  1.386825523E+02 -7.374530971E+02  7.680310365E+02  1.250000721E+02  0.00000E+00  9.000E+00
       5     1     1     2   501     0 -1.469696700E+00  2.490126253E-01  1.466900275E+01  1.549077653E+01  4.750000000E+00  0.00000E+00  9.000E+00
      -5     1     1     2     0   503 -8.757608319E+01 -1.329902185E+02 -4.980256592E+02  5.228843928E+02  4.750000000E+00  0.00000E+00  9.000E+00
      21     1     1     2   503   511 -1.667429538E+01 -5.941346377E+00 -1.657196538E+02  1.666623394E+02  1.907348633E-06  0.00000E+00  9.000E+00
#rwgt            1           9   1.2432505713266863E-004           9      826925           0
</event>
<event>
      6   9999  3.45752E-01  3.27972E+00 -1.00000E+00  2.67163E-01
      21    -1     0     0   502   512  0.000000000E+00  0.000000000E+00  1.191415691E+01  1.191415691E+01  0.000000000E+00  0.00000E+00  9.000E+00
      21    -1     0     0   501   502  0.000000000E+00  0.000000000E+00 -6.562545947E+02  6.562545947E+02  0.000000000E+00  0.00000E+00  9.000E+00
      25     1     1     2     0     0  3.902925884E+00 -2.555044735E+00 -5.957722523E+02  6.087608759E+02  1.249938649E+02  0.00000E+00  9.000E+00
       5     1     1     2   501     0  1.023005532E+00  3.187254566E+00 -1.994698949E+01  2.077618882E+01  4.750000000E+00  0.00000E+00  9.000E+00
      -5     1     1     2     0   503 -3.422505207E+00  2.282629275E+00 -3.275644482E+01  3.335372716E+01  4.750000000E+00  0.00000E+00  9.000E+00
      21     1     1     2   503   512 -1.503426209E+00 -2.914839106E+00  4.135248781E+00  5.277959820E+00  5.900558792E-07  0.00000E+00  9.000E+00
#rwgt            1           9   3.4947757059596880E-004           9      829545           0
</event>
<event>
      6   9999  3.45752E-01  4.57143E+00 -1.00000E+00  2.36428E-01
      21    -1     0     0   511   502  0.000000000E+00  0.000000000E+00  1.463437222E+01  1.463437222E+01  0.000000000E+00  0.00000E+00  9.000E+00
      21    -1     0     0   502   503  0.000000000E+00  0.000000000E+00 -3.942803851E+02  3.942803851E+02  0.000000000E+00  0.00000E+00  9.000E+00
      25     1     1     2     0     0 -1.712562188E+00  1.562715411E+00 -3.643187745E+02  3.851722764E+02  1.249965524E+02  0.00000E+00  9.000E+00
       5     1     1     2   501     0 -8.488570674E-01  8.283053579E-01  6.708570601E-01  4.941578420E+00  4.750000000E+00  0.00000E+00  9.000E+00
      -5     1     1     2     0   503 -1.544562134E+00 -3.813263711E-01 -1.062207875E+01  1.174402567E+01  4.750000000E+00  0.00000E+00  9.000E+00
      21     1     1     2   511   501  4.105981389E+00 -2.009694398E+00 -5.376016637E+00  7.056876761E+00  1.460009660E-07  0.00000E+00  9.000E+00
#rwgt            1           9   2.3490752917212311E-006           9      834513           0
</event>
<event>
      6   9999  3.45752E-01  8.19461E+00 -1.00000E+00  1.96787E-01
      21    -1     0     0   501   512  0.000000000E+00  0.000000000E+00  3.511587814E+02  3.511587814E+02  0.000000000E+00  0.00000E+00  9.000E+00
      21    -1     0     0   502   503  0.000000000E+00  0.000000000E+00 -1.286185823E+03  1.286185823E+03  0.000000000E+00  0.00000E+00  9.000E+00
      25     1     1     2     0     0  5.915923139E+00  1.027917147E+01 -1.254040430E+03  1.260310782E+03  1.250008334E+02  0.00000E+00  9.000E+00
       5     1     1     2   501     0  6.191328492E+00 -6.603167682E+00  4.240611539E+01  4.362081492E+01  4.750000000E+00  0.00000E+00  9.000E+00
      -5     1     1     2     0   503 -3.913193014E+00 -3.581056990E+00 -2.790062495E+01  2.879486797E+01  4.750000000E+00  0.00000E+00  9.000E+00
      21     1     1     2   502   512 -8.194058617E+00 -9.494679352E-02  3.045078973E+02  3.046181399E+02  5.394796609E-06  0.00000E+00  9.000E+00
#rwgt            1           9   6.6579715921951442E-007           9      838100           0
</event>
<event>
      6   9999  3.45752E-01  5.45716E+00 -1.00000E+00  2.19960E-01
      21    -1     0     0   501   502  0.000000000E+00  0.000000000E+00  8.301461428E+01  8.301461428E+01  0.000000000E+00  0.00000E+00  9.000E+00
      21    -1     0     0   502   511  0.000000000E+00  0.000000000E+00 -2.626112603E+02  2.626112603E+02  0.000000000E+00  0.00000E+00  9.000E+00
      25     1     1     2     0     0 -2.263147193E+01 -3.880965488E+01 -1.530622794E+02  2.026624094E+02  1.250024718E+02  0.00000E+00  9.000E+00
       5     1     1     2   501     0 -2.087878787E+00 -1.521482112E+00  5.089958088E+01  5.118597444E+01  4.750000000E+00  0.00000E+00  9.000E+00
      -5     1     1     2     0   503  2.589669225E+01  3.500248695E+01 -6.939751984E+01  8.206333544E+01  4.750000000E+00  0.00000E+00  9.000E+00
      21     1     1     2   503   511 -1.177341533E+00  5.328650041E+00 -8.036427663E+00  9.714155338E+00  1.685873940E-07  0.00000E+00  9.000E+00
#rwgt            1           9   64.794749276674665                9      842724           0
</event>
<event>
      6   9999 -3.45752E-01  9.13092E+00 -1.00000E+00  1.91451E-01
      21    -1     0     0   501   502  0.000000000E+00  0.000000000E+00  4.315503601E+00  4.315503601E+00  0.000000000E+00  0.00000E+00  9.000E+00
       2    -1     0     0   502     0  0.000000000E+00  0.000000000E+00 -2.913646988E+03  2.913646988E+03  0.000000000E+00  0.00000E+00  9.000E+00
      25     1     1     2     0     0 -1.170850136E+01  3.855430178E+00 -1.806770875E+03  1.811131753E+03  1.250011129E+02  0.00000E+00  9.000E+00
       5     1     1     2   501     0  1.689769031E+00  1.073874150E-01 -2.604166725E+00  5.675476699E+00  4.750000000E+00  0.00000E+00  9.000E+00
      -5     1     1     2     0   503  1.407808554E+01  4.216136353E+00 -1.025006649E+02  1.036576920E+02  4.750000000E+00  0.00000E+00  9.000E+00
       2     1     1     2   503     0 -4.059353204E+00 -8.178953946E+00 -9.974557786E+02  9.974975708E+02  0.000000000E+00  0.00000E+00  9.000E+00
#rwgt            1           9  -1.3041532755597132E-002           9      847645           0
</event>
<event>
      6   9999  3.45752E-01  7.79368E+00 -1.00000E+00  1.99368E-01
      21    -1     0     0   501   502  0.000000000E+00  0.000000000E+00  2.070380691E+01  2.070380691E+01  0.000000000E+00  0.00000E+00  9.000E+00
      21    -1     0     0   511   503  0.000000000E+00  0.000000000E+00 -1.296115051E+03  1.296115051E+03  0.000000000E+00  0.00000E+00  9.000E+00
      25     1     1     2     0     0 -7.232449864E-02  4.420848802E+00 -9.126998905E+02  9.212303556E+02  1.249989150E+02  0.00000E+00  9.000E+00
       5     1     1     2   501     0  3.634340555E+00  3.046798024E-01  1.574992865E+01  1.685004492E+01  4.750000000E+00  0.00000E+00  9.000E+00
      -5     1     1     2     0   503  2.143898921E+00  5.833336439E-01 -7.798206738E+01  7.815818520E+01  4.750000000E+00  0.00000E+00  9.000E+00
      21     1     1     2   511   502 -5.705914977E+00 -5.308862248E+00 -3.004792151E+02  3.005802725E+02  3.814697266E-06  0.00000E+00  9.000E+00
#rwgt            1           9   2.7589422692308346E-003           9      850350           0
</event>
<event>
      6   9999  3.45752E-01  1.34239E+01 -1.00000E+00  1.74658E-01
      21    -1     0     0   501   512  0.000000000E+00  0.000000000E+00  1.100204890E+01  1.100204890E+01  0.000000000E+00  0.00000E+00  9.000E+00
      21    -1     0     0   502   503  0.000000000E+00  0.000000000E+00 -1.205408219E+03  1.205408219E+03  0.000000000E+00  0.00000E+00  9.000E+00
      25     1     1     2     0     0  1.655001994E+01  1.101325687E+01 -1.141741821E+03  1.148735531E+03  1.249949574E+02  0.00000E+00  9.000E+00
       5     1     1     2   501     0  7.624173033E-01 -1.298570898E-01  1.986163687E+00  5.206293230E+00  4.750000000E+00  0.00000E+00  9.000E+00
      -5     1     1     2     0   503 -3.997751850E+00 -1.259238691E+01 -1.471989377E+01  2.034177968E+01  4.750000000E+00  0.00000E+00  9.000E+00
      21     1     1     2   502   512 -1.331468540E+01  1.708987134E+00 -3.993061909E+01  4.212666407E+01  8.259061849E-07  0.00000E+00  9.000E+00
#rwgt            1           9   3.3451881205532453E-004           9      853952           0
</event>
<event>
      6   9999  3.45752E-01  5.23567E+00 -1.00000E+00  2.22647E-01
       1    -1     0     0   501     0  0.000000000E+00  0.000000000E+00  1.296452710E+02  1.296452710E+02  0.000000000E+00  0.00000E+00  9.000E+00
      21    -1     0     0   502   503  0.000000000E+00  0.000000000E+00 -8.683148988E+02  8.683148988E+02  0.000000000E+00  0.00000E+00  9.000E+00
      25     1     1     2     0     0  2.083928698E+01 -9.772482929E+00 -5.782713190E+02  5.920763569E+02  1.250076666E+02  0.00000E+00  9.000E+00
       5     1     1     2   501     0  1.490168213E+00  1.982349433E-01 -6.128306620E-03  4.982211954E+00  4.750000000E+00  0.00000E+00  9.000E+00
      -5     1     1     2     0   503 -1.945965956E+01  1.395334431E+01 -2.800586821E+02  2.811206184E+02  4.750000000E+00  0.00000E+00  9.000E+00
       1     1     1     2   502     0 -2.869795638E+00 -4.379096329E+00  1.196665015E+02  1.197809826E+02  2.697398305E-06  0.00000E+00  9.000E+00
#rwgt            1           9   2.3296382524171884E-002           9      855845           0
</event>
<event>
      6   9999  3.45752E-01  2.00884E+01 -1.00000E+00  1.60064E-01
      21    -1     0     0   511   502  0.000000000E+00  0.000000000E+00  1.967949780E+01  1.967949780E+01  0.000000000E+00  0.00000E+00  9.000E+00
      21    -1     0     0   502   503  0.000000000E+00  0.000000000E+00 -2.173387632E+03  2.173387632E+03  0.000000000E+00  0.00000E+00  9.000E+00
      25     1     1     2     0     0 -7.662498704E+01  1.508320829E+02 -1.516168130E+03  1.530690474E+03  1.250032949E+02  0.00000E+00  9.000E+00
       5     1     1     2   501     0  2.400398449E+01 -1.554675315E+01 -5.716704612E+01  6.409778831E+01  4.750000000E+00  0.00000E+00  9.000E+00
      -5     1     1     2     0   503  4.586818236E+01 -1.163659553E+02 -4.969209927E+02  5.124431297E+02  4.750000000E+00  0.00000E+00  9.000E+00
      21     1     1     2   511   501  6.752820196E+00 -1.891937445E+01 -8.345196601E+01  8.583573813E+01  9.536743164E-07  0.00000E+00  9.000E+00
#rwgt            1           9   1.9025064280644678E-003           9      859550           0
</event>
<event>
      6   9999  3.45752E-01  9.53556E+00 -1.00000E+00  1.89396E-01
      21    -1     0     0   501   512  0.000000000E+00  0.000000000E+00  7.795111302E+00  7.795111302E+00  0.000000000E+00  0.00000E+00  9.000E+00
      21    -1     0     0   502   503  0.000000000E+00  0.000000000E+00 -1.224297169E+03  1.224297169E+03  0.000000000E+00  0.00000E+00  9.000E+00
      25     1     1     2     0     0 -6.321946067E-01  1.706665312E+01 -9.641213037E+02  9.723398537E+02  1.249929299E+02  0.00000E+00  9.000E+00
       5     1     1     2   501     0  1.007408939E+00  3.425502751E+00 -1.290808206E+00  6.080923260E+00  4.750000000E+00  0.00000E+00  9.000E+00
      -5     1     1     2     0   503  2.510346111E+00 -1.140367376E+01 -2.319060694E+02  2.322484297E+02  4.750000000E+00  0.00000E+00  9.000E+00
      21     1     1     2   502   512 -2.885560443E+00 -9.088482109E+00 -1.918387609E+01  2.142307326E+01  4.768371582E-07  0.00000E+00  9.000E+00
#rwgt            1           9   25.538315871858615                9      861816           0
</event>
<event>
      6   9999  3.45752E-01  2.37502E+01 -1.00000E+00  1.54715E-01
      21    -1     0     0   511   502  0.000000000E+00  0.000000000E+00  1.927184719E+02  1.927184719E+02  0.000000000E+00  0.00000E+00  9.000E+00
      21    -1     0     0   502   503  0.000000000E+00  0.000000000E+00 -1.899087994E+03  1.899087994E+03  0.000000000E+00  0.00000E+00  9.000E+00
      25     1     1     2     0     0  9.788602852E+00 -2.957596004E+01 -1.770390154E+03  1.775071005E+03  1.250008759E+02  0.00000E+00  9.000E+00
       5     1     1     2   501     0 -1.322482084E+01  1.027667707E+01  7.263174535E+01  7.468894771E+01  4.750000000E+00  0.00000E+00  9.000E+00
      -5     1     1     2     0   503  1.607562806E+01  3.940696077E+01 -1.203861586E+02  1.277760699E+02  4.750000000E+00  0.00000E+00  9.000E+00
      21     1     1     2   511   501 -1.263941007E+01 -2.010767780E+01  1.117750456E+02  1.142704433E+02  3.015782986E-06  0.00000E+00  9.000E+00
#rwgt            1           9   1.2279580176387844E-003           9      863965           0
</event>
<event>
      6   9999  3.45752E-01  8.88938E+00 -1.00000E+00  1.92745E-01
      21    -1     0     0   512   503  0.000000000E+00  0.000000000E+00  1.499694923E+01  1.499694923E+01  0.000000000E+00  0.00000E+00  9.000E+00
      21    -1     0     0   501   502  0.000000000E+00  0.000000000E+00 -8.323386259E+02  8.323386259E+02  0.000000000E+00  0.00000E+00  9.000E+00
      25     1     1     2     0     0  5.747722877E+01 -2.037064676E+01 -6.681263477E+02  6.824490771E+02  1.250013247E+02  0.00000E+00  9.000E+00
       5     1     1     2   501     0 -1.021142372E+01  1.681594270E+01 -2.761247836E+01  3.423537008E+01  4.750000000E+00  0.00000E+00  9.000E+00
      -5     1     1     2     0   503 -3.845792255E+01  2.353783964E+00 -1.014821398E+02  1.086542190E+02  4.750000000E+00  0.00000E+00  9.000E+00
      21     1     1     2   512   502 -8.807882498E+00  1.200920094E+00 -2.012071078E+01  2.199690900E+01  4.129530925E-07  0.00000E+00  9.000E+00
#rwgt            1           9   7.7949904268510869E-005           9      866559           0
</event>
<event>
      6   9999  3.45752E-01  2.29759E+01 -1.00000E+00  1.55744E-01
      21    -1     0     0   511   502  0.000000000E+00  0.000000000E+00  1.518877004E+02  1.518877004E+02  0.000000000E+00  0.00000E+00  9.000E+00
      21    -1     0     0   502   503  0.000000000E+00  0.000000000E+00 -6.147649275E+02  6.147649275E+02  0.000000000E+00  0.00000E+00  9.000E+00
      25     1     1     2     0     0 -5.242851938E+01 -4.508153278E+01 -5.815334796E+02  5.988213735E+02  1.249990210E+02  0.00000E+00  9.000E+00
       5     1     1     2   501     0  3.388743272E+01  3.456006742E+01  7.595706592E+01  9.019309686E+01  4.750000000E+00  0.00000E+00  9.000E+00
      -5     1     1     2     0   503 -3.860554023E+00  5.416835487E+00 -1.413913134E+01  1.633167227E+01  4.750000000E+00  0.00000E+00  9.000E+00
      21     1     1     2   511   501  2.240164069E+01  5.104629873E+00  5.683831791E+01  6.130648525E+01  6.743495762E-07  0.00000E+00  9.000E+00
#rwgt            1           9   2.7524341229761801E-002           9      869997           0
</event>
<event>
      6   9999  3.45752E-01  3.62677E+00 -1.00000E+00  2.56997E-01
      21    -1     0     0   501   502  0.000000000E+00  0.000000000E+00  4.779227516E+01  4.779227516E+01  0.000000000E+00  0.00000E+00  9.000E+00
      21    -1     0     0   512   503  0.000000000E+00  0.000000000E+00 -2.368583485E+03  2.368583485E+03  0.000000000E+00  0.00000E+00  9.000E+00
      25     1     1     2     0     0 -8.994555962E+01  4.160956929E+01 -2.258855102E+02  2.765311402E+02  1.249945912E+02  0.00000E+00  9.000E+00
       5     1     1     2   501     0 -1.275704307E+00  4.359631559E+00  1.948857377E+01  2.056698365E+01  4.750000000E+00  0.00000E+00  9.000E+00
      -5     1     1     2     0   503  9.221592038E+01 -4.248148639E+01 -1.056686710E+03  1.061563855E+03  4.750000000E+00  0.00000E+00  9.000E+00
      21     1     1     2   512   502 -9.946564580E-01 -3.487714457E+00 -1.057707564E+03  1.057713782E+03  0.000000000E+00  0.00000E+00  9.000E+00
#rwgt            1           9   8.6647675458832328E-004           9      872197           0
</event>
<event>
      6   9999  3.45752E-01  8.17333E+00 -1.00000E+00  1.96920E-01
      21    -1     0     0   501   502  0.000000000E+00  0.000000000E+00  3.829118867E+03  3.829118867E+03  0.000000000E+00  0.00000E+00  9.000E+00
      21    -1     0     0   502   511  0.000000000E+00  0.000000000E+00 -2.743241998E+00  2.743241998E+00  0.000000000E+00  0.00000E+00  9.000E+00
      25     1     1     2     0     0  2.075115359E+00 -1.532613258E+01  2.576100302E+03  2.579177968E+03  1.250081002E+02  0.00000E+00  9.000E+00
       5     1     1     2   501     0 -4.418342836E-01 -1.812500176E+00  1.116844971E+03  1.116856630E+03  4.750000000E+00  0.00000E+00  9.000E+00
      -5     1     1     2     0   503 -8.867295906E+00  1.333438608E+01  1.016373814E+02  1.030007504E+02  4.750000000E+00  0.00000E+00  9.000E+00
      21     1     1     2   503   511  7.234014831E+00  3.804246676E+00  3.179296943E+01  3.282675995E+01  1.752011592E-06  0.00000E+00  9.000E+00
#rwgt            1           9   1.6873955482817882E-002           9      879818           0
</event>
<event>
      6   9999  3.45752E-01  2.52497E+00 -1.00000E+00  2.98080E-01
      21    -1     0     0   501   512  0.000000000E+00  0.000000000E+00  6.672861038E+02  6.672861038E+02  0.000000000E+00  0.00000E+00  9.000E+00
      21    -1     0     0   502   503  0.000000000E+00  0.000000000E+00 -9.581314042E+02  9.581314042E+02  0.000000000E+00  0.00000E+00  9.000E+00
      25     1     1     2     0     0 -3.468084282E+01  3.296947223E+01 -3.149468392E+02  3.422060477E+02  1.249948822E+02  0.00000E+00  9.000E+00
       5     1     1     2   501     0 -1.789930271E-01  1.510599102E+00  1.847274982E+00  5.318728514E+00  4.750000000E+00  0.00000E+00  9.000E+00
      -5     1     1     2     0   503  3.622274416E+01 -3.235452396E+01 -6.268684665E+02  6.287650907E+02  4.750000000E+00  0.00000E+00  9.000E+00
      21     1     1     2   502   512 -1.362908317E+00 -2.125547371E+00  6.491227303E+02  6.491276411E+02  7.629394531E-06  0.00000E+00  9.000E+00
#rwgt            1           9   9.5317269392074368E-006           9      882434           0
</event>
<event>
      6   9999  3.45752E-01  5.05472E+01 -1.00000E+00  1.34535E-01
      21    -1     0     0   511   502  0.000000000E+00  0.000000000E+00  1.890012736E+01  1.890012736E+01  0.000000000E+00  0.00000E+00  9.000E+00
      21    -1     0     0   502   503  0.000000000E+00  0.000000000E+00 -1.264900700E+03  1.264900700E+03  0.000000000E+00  0.00000E+00  9.000E+00
      25     1     1     2     0     0  7.789828088E-01  3.963486410E+01 -1.149278236E+03  1.156739312E+03  1.250353676E+02  0.00000E+00  9.000E+00
       5     1     1     2   501     0  7.739725793E-01  8.179827714E+00 -1.055041186E+01  1.419092334E+01  4.750000000E+00  0.00000E+00  9.000E+00
      -5     1     1     2     0   503  7.433635996E-01  2.680335661E+00 -5.098697748E+01  5.128324445E+01  4.750000000E+00  0.00000E+00  9.000E+00
      21     1     1     2   511   501 -2.296318988E+00 -5.049502748E+01 -3.518494787E+01  6.158734803E+01  1.348699152E-06  0.00000E+00  9.000E+00
#rwgt            1           9   2.1114821042107472E-004           9      891024           0
</event>
<event>
      6   9999  3.45752E-01  3.14769E+01 -1.00000E+00  1.46501E-01
      21    -1     0     0   501   512  0.000000000E+00  0.000000000E+00  1.689883412E+02  1.689883412E+02  0.000000000E+00  0.00000E+00  9.000E+00
      21    -1     0     0   502   503  0.000000000E+00  0.000000000E+00 -7.351546541E+02  7.351546541E+02  0.000000000E+00  0.00000E+00  9.000E+00
      25     1     1     2     0     0  6.506964813E+01  1.072155986E+02 -1.257790641E+02  2.171998121E+02  1.250045668E+02  0.00000E+00  9.000E+00
       5     1     1     2   501     0  2.819181122E+00  2.136825313E+00  1.075711667E+02  1.077340810E+02  4.750000000E+00  0.00000E+00  9.000E+00
      -5     1     1     2     0   503 -9.004876578E+01 -8.699777433E+01 -5.262775388E+02  5.409879881E+02  4.750000000E+00  0.00000E+00  9.000E+00
      21     1     1     2   502   512  2.215993653E+01 -2.235464960E+01 -2.168087679E+01  3.822111412E+01  6.743495762E-07  0.00000E+00  9.000E+00
#rwgt            1           9  0.39738644540856760                9      892026           0
</event>
<event>
      6   9999  3.45752E-01  3.06127E+00 -1.00000E+00  2.74635E-01
      21    -1     0     0   511   502  0.000000000E+00  0.000000000E+00  3.970917644E+02  3.970917644E+02  0.000000000E+00  0.00000E+00  9.000E+00
      21    -1     0     0   502   503  0.000000000E+00  0.000000000E+00 -1.415947852E+02  1.415947852E+02  0.000000000E+00  0.00000E+00  9.000E+00
      25     1     1     2     0     0 -4.911382528E+00  1.401563143E+00 -1.059744738E+02  1.639562851E+02  1.249999531E+02  0.00000E+00  9.000E+00
       5     1     1     2   501     0  8.138191081E-02  8.137944859E-01  7.286985459E+00  8.736792407E+00  4.750000000E+00  0.00000E+00  9.000E+00
      -5     1     1     2     0   503  2.069258067E+00 -8.926142354E-01 -4.726340025E+00  7.069609547E+00  4.750000000E+00  0.00000E+00  9.000E+00
      21     1     1     2   511   501  2.760742550E+00 -1.322743394E+00  3.589108076E+02  3.589238626E+02  7.629394531E-06  0.00000E+00  9.000E+00
#rwgt            1           9   2.6531390187282483E-002           9      894336           0
</event>
<event>
      6   9999  3.45752E-01  1.00298E+01 -1.00000E+00  1.87058E-01
      21    -1     0     0   501   502  0.000000000E+00  0.000000000E+00  1.039038763E+03  1.039038763E+03  0.000000000E+00  0.00000E+00  9.000E+00
      21    -1     0     0   502   512  0.000000000E+00  0.000000000E+00 -9.114940133E+00  9.114940133E+00  0.000000000E+00  0.00000E+00  9.000E+00
      25     1     1     2     0     0 -4.512269517E+00 -1.315490428E+01  6.471381444E+02  6.592452291E+02  1.249923280E+02  0.00000E+00  9.000E+00
       5     1     1     2   501     0  4.921539092E-01 -3.364666413E-01  2.802031235E+02  2.802440157E+02  4.750000000E+00  0.00000E+00  9.000E+00
      -5     1     1     2     0   503  4.537713912E+00  3.474902875E+00  9.680449593E+01  9.708933375E+01  4.750000000E+00  0.00000E+00  9.000E+00
      21     1     1     2   503   512 -5.175983036E-01  1.001646805E+01  5.778058854E+00  1.157512437E+01  3.576278687E-07  0.00000E+00  9.000E+00
#rwgt            1           9   3.8126413948634348E-003           9      899888           0
</event>
<event>
      6   9999  3.45752E-01  4.27112E+00 -1.00000E+00  2.42099E-01
      21    -1     0     0   501   511  0.000000000E+00  0.000000000E+00  4.002464737E+02  4.002464737E+02  0.000000000E+00  0.00000E+00  9.000E+00
      21    -1     0     0   502   503  0.000000000E+00  0.000000000E+00 -1.294769552E+01  1.294769552E+01  0.000000000E+00  0.00000E+00  9.000E+00
      25     1     1     2     0     0  2.319630664E+00 -2.574713045E+00  3.102952318E+02  3.345456888E+02  1.250027087E+02  0.00000E+00  9.000E+00
       5     1     1     2   501     0  1.110065244E-01 -4.684932912E-01  3.598859543E+01  3.630390212E+01  4.750000000E+00  0.00000E+00  9.000E+00
      -5     1     1     2     0   503 -3.573446645E+00 -1.072188943E+00  1.966835826E+01  2.057488583E+01  4.750000000E+00  0.00000E+00  9.000E+00
      21     1     1     2   502   511  1.142809457E+00  4.115395279E+00  2.134659270E+01  2.176969251E+01  3.371747881E-07  0.00000E+00  9.000E+00
#rwgt            1           9   1.4536343653824594E-003           9      902078           0
</event>
<event>
      6   9999  3.45752E-01  1.19659E+01 -1.00000E+00  1.79341E-01
      21    -1     0     0   501   502  0.000000000E+00  0.000000000E+00  1.632221179E+01  1.632221179E+01  0.000000000E+00  0.00000E+00  9.000E+00
      21    -1     0     0   512   503  0.000000000E+00  0.000000000E+00 -3.795362719E+02  3.795362719E+02  0.000000000E+00  0.00000E+00  9.000E+00
      25     1     1     2     0     0  7.511036451E+00  9.193197949E+00 -2.490565259E+02  2.789215883E+02  1.250086748E+02  0.00000E+00  9.000E+00
       5     1     1     2   501     0 -1.480681635E+00 -3.670916642E+00 -1.857979578E+01  1.958160766E+01  4.750000000E+00  0.00000E+00  9.000E+00
      -5     1     1     2     0   503  4.501156772E+00  1.583526225E-01 -3.509947307E+01  3.570463552E+01  4.750000000E+00  0.00000E+00  9.000E+00
      21     1     1     2   512   502 -1.053151159E+01 -5.680633930E+00 -6.047826535E+01  6.165065221E+01  6.743495762E-07  0.00000E+00  9.000E+00
#rwgt            1           9   1548.7146644285085                9      905937           0
</event>
<event>
      6   9999 -3.45752E-01  1.86729E+01 -1.00000E+00  1.62520E-01
      21    -1     0     0   511   502  0.000000000E+00  0.000000000E+00  1.913055468E+02  1.913055468E+02  0.000000000E+00  0.00000E+00  9.000E+00
      21    -1     0     0   502   503  0.000000000E+00  0.000000000E+00 -2.899380561E+02  2.899380561E+02  0.000000000E+00  0.00000E+00  9.000E+00
      25     1     1     2     0     0  1.049088215E+02 -1.162480010E+02 -1.018664821E+02  2.247698347E+02  1.250009594E+02  0.00000E+00  9.000E+00
       5     1     1     2   501     0 -6.288174831E-01  3.849216322E+00  4.511581203E+01  4.553252544E+01  4.750000000E+00  0.00000E+00  9.000E+00
      -5     1     1     2     0   503 -1.206585006E+02  1.213666668E+02 -6.329505429E+01  1.825299098E+02  4.750000000E+00  0.00000E+00  9.000E+00
      21     1     1     2   511   501  1.637849660E+01 -8.967882123E+00  2.141321503E+01  2.841133292E+01  4.768371582E-07  0.00000E+00  9.000E+00
#rwgt            1           9  -7.3605004779940560E-005           9      908716           0
</event>
<event>
      6   9999  3.45752E-01  6.76463E+00 -1.00000E+00  2.07050E-01
      21    -1     0     0   501   502  0.000000000E+00  0.000000000E+00  9.441534142E+02  9.441534142E+02  0.000000000E+00  0.00000E+00  9.000E+00
      21    -1     0     0   512   503  0.000000000E+00  0.000000000E+00 -1.235301061E+01  1.235301061E+01  0.000000000E+00  0.00000E+00  9.000E+00
      25     1     1     2     0     0  1.195573247E+01  1.233329224E+01  4.176311676E+02  4.362759937E+02  1.250036035E+02  0.00000E+00  9.000E+00
       5     1     1     2   501     0 -1.629990944E+00  3.586538580E-01  4.037276607E+02  4.037590520E+02  4.750000000E+00  0.00000E+00  9.000E+00
      -5     1     1     2     0   503 -7.581879976E+00 -6.508782755E+00  1.089933385E+02  1.095534550E+02  4.750000000E+00  0.00000E+00  9.000E+00
      21     1     1     2   512   502 -2.743861551E+00 -6.183163346E+00  1.448236741E+00  6.917924171E+00  3.251049553E-07  0.00000E+00  9.000E+00
#rwgt            1           9   1.8902062175579160E-004           9      910968           0
</event>
<event>
      6   9999  3.45752E-01  1.64076E+01 -1.00000E+00  1.67063E-01
      21    -1     0     0   511   502  0.000000000E+00  0.000000000E+00  2.103414289E+01  2.103414289E+01  0.000000000E+00  0.00000E+00  9.000E+00
      21    -1     0     0   502   503  0.000000000E+00  0.000000000E+00 -1.013081795E+03  1.013081795E+03  0.000000000E+00  0.00000E+00  9.000E+00
      25     1     1     2     0     0  3.382328152E+01  1.899273782E+01 -5.930680268E+02  6.073378283E+02  1.249992593E+02  0.00000E+00  9.000E+00
       5     1     1     2   501     0  1.606689866E+00 -6.816323287E-01  1.116592364E+01  1.225913642E+01  4.750000000E+00  0.00000E+00  9.000E+00
      -5     1     1     2     0   503 -2.180849825E+01 -9.164199269E+00 -3.745228831E+02  3.752992747E+02  4.750000000E+00  0.00000E+00  9.000E+00
      21     1     1     2   511   501 -1.362147314E+01 -9.146906217E+00 -3.562266620E+01  3.921969876E+01  6.743495762E-07  0.00000E+00  9.000E+00
#rwgt            1           9   3.8026435272722205E-004           9      914512           0
</event>
<event>
      6   9999  3.45752E-01  4.74653E+01 -1.00000E+00  1.36008E-01
      21    -1     0     0   512   502  0.000000000E+00  0.000000000E+00  1.315829167E+02  1.315829167E+02  0.000000000E+00  0.00000E+00  9.000E+00
      21    -1     0     0   502   503  0.000000000E+00  0.000000000E+00 -1.223483967E+03  1.223483967E+03  0.000000000E+00  0.00000E+00  9.000E+00
      25     1     1     2     0     0  1.490098529E+00 -1.694402297E+02 -2.717592433E+02  3.437875665E+02  1.249983708E+02  0.00000E+00  9.000E+00
       5     1     1     2   501     0 -8.476015815E+00 -1.527026817E+01 -1.049865119E+01  2.092386462E+01  4.750000000E+00  0.00000E+00  9.000E+00
      -5     1     1     2     0   503  2.503303677E+01  1.408099321E+02 -8.876133166E+02  8.990739971E+02  4.750000000E+00  0.00000E+00  9.000E+00
      21     1     1     2   512   501 -1.804711949E+01  4.390056569E+01  7.797016068E+01  9.128145565E+01  2.132480600E-06  0.00000E+00  9.000E+00
#rwgt            1           9   17.633610246877662                9      917243           0
</event>
<event>
      6   9999 -3.45752E-01  2.20624E+02 -1.00000E+00  1.07439E-01
      21    -1     0     0   501   502  0.000000000E+00  0.000000000E+00  5.016397341E+03  5.016397341E+03  0.000000000E+00  0.00000E+00  9.000E+00
      -2    -1     0     0     0   503  0.000000000E+00  0.000000000E+00 -2.524637084E+02  2.524637084E+02  0.000000000E+00  0.00000E+00  9.000E+00
      25     1     1     2     0     0  6.067611105E+01  7.288488004E+02  1.223658185E+03  1.431036708E+03  1.249981632E+02  0.00000E+00  9.000E+00
       5     1     1     2   501     0 -1.990761407E+01 -7.381142189E+02  3.154509757E+03  3.239778277E+03  4.750000000E+00  0.00000E+00  9.000E+00
      -5     1     1     2     0   503  3.912111178E+00  2.253175405E+02  2.599693106E+02  3.440783394E+02  4.750000000E+00  0.00000E+00  9.000E+00
      -2     1     1     2     0   502 -4.468060815E+01 -2.160521220E+02  1.257963789E+02  2.539677245E+02  1.907348633E-06  0.00000E+00  9.000E+00
#rwgt            1           9  -6.5057370830528887E-004           9      919049           0
</event>
<event>
      6   9999  3.45752E-01  1.28451E+01 -1.00000E+00  1.76423E-01
      21    -1     0     0   511   502  0.000000000E+00  0.000000000E+00  4.386110769E+01  4.386110769E+01  0.000000000E+00  0.00000E+00  9.000E+00
      21    -1     0     0   502   503  0.000000000E+00  0.000000000E+00 -2.576173962E+02  2.576173962E+02  0.000000000E+00  0.00000E+00  9.000E+00
      25     1     1     2     0     0  1.207692626E+01  9.426351190E+00 -2.227590369E+02  2.558926380E+02  1.249989817E+02  0.00000E+00  9.000E+00
       5     1     1     2   501     0  4.062478767E-01 -2.052413432E+00  1.516318812E+01  1.602692149E+01  4.750000000E+00  0.00000E+00  9.000E+00
      -5     1     1     2     0   503 -1.150482734E+00 -1.342107490E+01  1.877588411E+00  1.440613412E+01  4.750000000E+00  0.00000E+00  9.000E+00
      21     1     1     2   511   501 -1.133269141E+01  6.047137142E+00 -8.038028133E+00  1.515281025E+01  0.000000000E+00  0.00000E+00  9.000E+00
#rwgt            1           9  0.10624792717557420                9      919954           0
</event>
<event>
      6   9999 -3.45752E-01  4.09779E+01 -1.00000E+00  1.39580E-01
      21    -1     0     0   501   502  0.000000000E+00  0.000000000E+00  1.930170826E+01  1.930170826E+01  0.000000000E+00  0.00000E+00  9.000E+00
      21    -1     0     0   502   512  0.000000000E+00  0.000000000E+00 -1.142144040E+03  1.142144040E+03  0.000000000E+00  0.00000E+00  9.000E+00
      25     1     1     2     0     0  4.877730393E+01 -3.587015446E+01 -9.497308346E+02  9.598336111E+02  1.250040372E+02  0.00000E+00  9.000E+00
       5     1     1     2   501     0  2.880491704E+00 -2.768103398E+00 -5.062906305E+00  8.009690951E+00  4.750000000E+00  0.00000E+00  9.000E+00
      -5     1     1     2     0   503 -1.457117582E+01  2.120924508E+01 -6.533749784E+00  2.697042135E+01  4.750000000E+00  0.00000E+00  9.000E+00
      21     1     1     2   503   512 -3.708661981E+01  1.742901278E+01 -1.615148413E+02  1.666320252E+02  2.697398305E-06  0.00000E+00  9.000E+00
#rwgt            1           9  -3.9432160680539434E-004           9      922053           0
</event>
<event>
      6   9999  3.45752E-01  1.06901E+01 -1.00000E+00  1.84192E-01
      21    -1     0     0   501   502  0.000000000E+00  0.000000000E+00  7.211111708E+00  7.211111708E+00  0.000000000E+00  0.00000E+00  9.000E+00
      21    -1     0     0   511   503  0.000000000E+00  0.000000000E+00 -1.755149589E+03  1.755149589E+03  0.000000000E+00  0.00000E+00  9.000E+00
      25     1     1     2     0     0  2.464182852E+00  7.953876734E+00 -7.000482610E+02  7.111691915E+02  1.249988595E+02  0.00000E+00  9.000E+00
       5     1     1     2   501     0  5.896100217E-01  9.412950049E-01 -3.457247612E+00  5.979024779E+00  4.750000000E+00  0.00000E+00  9.000E+00
      -5     1     1     2     0   503  6.808206952E+00 -4.769668692E+00 -6.318133707E+01  6.390262338E+01  4.750000000E+00  0.00000E+00  9.000E+00
      21     1     1     2   511   502 -9.861999826E+00 -4.125503046E+00 -9.812516317E+02  9.813098611E+02  1.525878906E-05  0.00000E+00  9.000E+00
#rwgt            1           9   1.3981086341845136E-003           9      922942           0
</event>
<event>
      6   9999  3.45752E-01  4.22003E+00 -1.00000E+00  2.43133E-01
      21    -1     0     0   512   502  0.000000000E+00  0.000000000E+00  8.708650213E+00  8.708650213E+00  0.000000000E+00  0.00000E+00  9.000E+00
      21    -1     0     0   502   503  0.000000000E+00  0.000000000E+00 -6.926552908E+02  6.926552908E+02  0.000000000E+00  0.00000E+00  9.000E+00
      25     1     1     2     0     0 -9.982749541E-01 -1.745271062E+00 -6.530100414E+02  6.648696439E+02  1.250019464E+02  0.00000E+00  9.000E+00
       5     1     1     2   501     0 -1.473067174E-01  3.118917148E-01 -4.335351718E+00  6.440244578E+00  4.750000000E+00  0.00000E+00  9.000E+00
      -5     1     1     2     0   503  3.645582645E+00  4.833185156E+00 -2.373876874E+01  2.495479098E+01  4.750000000E+00  0.00000E+00  9.000E+00
      21     1     1     2   512   501 -2.500000973E+00 -3.399805808E+00 -2.862478708E+00  5.099261589E+00  2.107342426E-07  0.00000E+00  9.000E+00
#rwgt            1           9   7.0898462603438640E-004           9      924940           0
</event>
<event>
      6   9999  3.45752E-01  5.14883E+00 -1.00000E+00  2.23752E-01
      21    -1     0     0   501   502  0.000000000E+00  0.000000000E+00  1.110306688E+01  1.110306688E+01  0.000000000E+00  0.00000E+00  9.000E+00
       1    -1     0     0   502     0  0.000000000E+00  0.000000000E+00 -2.037572101E+03  2.037572101E+03  0.000000000E+00  0.00000E+00  9.000E+00
      25     1     1     2     0     0 -2.790505830E+01 -1.138749241E+01 -1.375839310E+03  1.381833319E+03  1.249845885E+02  0.00000E+00  9.000E+00
       5     1     1     2   501     0 -1.181225428E+00  3.021848414E+00  6.369789071E+00  8.582748637E+00  4.750000000E+00  0.00000E+00  9.000E+00
      -5     1     1     2     0   503  2.913484443E+01  3.217042236E+00 -3.623725260E+02  3.635871266E+02  4.750000000E+00  0.00000E+00  9.000E+00
       1     1     1     2   503     0 -4.856070281E-02  5.148601755E+00 -2.946269879E+02  2.946719743E+02  3.814697266E-06  0.00000E+00  9.000E+00
#rwgt            1           9   6.3835403899423623E-003           9      928798           0
</event>
<event>
      6   9999  3.45752E-01  3.18850E+01 -1.00000E+00  1.46146E-01
      21    -1     0     0   501   502  0.000000000E+00  0.000000000E+00  7.915967832E+01  7.915967832E+01  0.000000000E+00  0.00000E+00  9.000E+00
      21    -1     0     0   502   511  0.000000000E+00  0.000000000E+00 -1.261915525E+03  1.261915525E+03  0.000000000E+00  0.00000E+00  9.000E+00
      25     1     1     2     0     0  1.137993751E+02 -6.904264618E+01 -5.562443306E+02  5.854495374E+02  1.250048827E+02  0.00000E+00  9.000E+00
       5     1     1     2   501     0 -4.587264852E+00 -5.220396271E+00  5.672138129E+01  5.734259439E+01  4.750000000E+00  0.00000E+00  9.000E+00
      -5     1     1     2     0   503 -9.381277657E+01  4.634322181E+01 -6.014868181E+02  6.105386852E+02  4.750000000E+00  0.00000E+00  9.000E+00
      21     1     1     2   503   511 -1.539933372E+01  2.791982064E+01 -8.174607887E+01  8.774438600E+01  9.536743164E-07  0.00000E+00  9.000E+00
#rwgt            1           9   9.3856493888923212E-002           9      933541           0
</event>
<event>
      6   9999 -3.45752E-01  9.83089E+00 -1.00000E+00  1.87977E-01
      21    -1     0     0   512   502  0.000000000E+00  0.000000000E+00  1.139828906E+02  1.139828906E+02  0.000000000E+00  0.00000E+00  9.000E+00
      21    -1     0     0   502   503  0.000000000E+00  0.000000000E+00 -1.461243246E+03  1.461243246E+03  0.000000000E+00  0.00000E+00  9.000E+00
      25     1     1     2     0     0  7.164640544E+01  4.752325815E+01 -1.081561229E+03  1.092149961E+03  1.250007120E+02  0.00000E+00  9.000E+00
       5     1     1     2   501     0  1.139072304E+01  1.112906661E+01  5.365363661E+01  5.616831773E+01  4.750000000E+00  0.00000E+00  9.000E+00
      -5     1     1     2     0   503 -8.243903504E+01 -4.883964646E+01 -3.664475467E+02  3.787979310E+02  4.750000000E+00  0.00000E+00  9.000E+00
      21     1     1     2   512   501 -5.980934354E-01 -9.812678298E+00  4.709478381E+01  4.810992656E+01  2.023048729E-06  0.00000E+00  9.000E+00
#rwgt            1           9  -1.3045869042773906E-004           9      935401           0
</event>
<event>
      6   9999  3.45752E-01  1.63577E+01 -1.00000E+00  1.67173E-01
      21    -1     0     0   501   502  0.000000000E+00  0.000000000E+00  2.335844529E+01  2.335844529E+01  0.000000000E+00  0.00000E+00  9.000E+00
      21    -1     0     0   511   503  0.000000000E+00  0.000000000E+00 -1.139777991E+03  1.139777991E+03  0.000000000E+00  0.00000E+00  9.000E+00
      25     1     1     2     0     0  8.691181315E+00  7.990853545E+01 -8.085134434E+02  8.220577476E+02  1.249961657E+02  0.00000E+00  9.000E+00
       5     1     1     2   501     0 -1.838335529E+01 -9.511066325E+01 -1.329099129E+02  1.645344750E+02  4.750000000E+00  0.00000E+00  9.000E+00
      -5     1     1     2     0   503 -2.272868432E+00  4.048047287E+00 -6.498494883E+01  6.532349265E+01  4.750000000E+00  0.00000E+00  9.000E+00
      21     1     1     2   511   502  1.196504241E+01  1.115408051E+01 -1.100112408E+02  1.112207214E+02  1.348699152E-06  0.00000E+00  9.000E+00
#rwgt            1           9   9.4454216638642629E-003           9      939831           0
</event>
<event>
      6   9999  3.45752E-01  2.12263E+01 -1.00000E+00  1.58263E-01
      21    -1     0     0   512   502  0.000000000E+00  0.000000000E+00  3.222061040E+01  3.222061040E+01  0.000000000E+00  0.00000E+00  9.000E+00
      21    -1     0     0   502   503  0.000000000E+00  0.000000000E+00 -2.165342641E+02  2.165342641E+02  0.000000000E+00  0.00000E+00  9.000E+00
      25     1     1     2     0     0 -1.932728285E+01  1.591059987E+00 -1.700509745E+02  2.119389680E+02  1.249988676E+02  0.00000E+00  9.000E+00
       5     1     1     2   501     0 -1.763108974E+00 -1.938357310E-01  2.220328025E+00  5.535203888E+00  4.750000000E+00  0.00000E+00  9.000E+00
      -5     1     1     2     0   503 -1.114897428E-01 -3.802853681E-01 -5.832039989E+00  7.532080546E+00  4.750000000E+00  0.00000E+00  9.000E+00
      21     1     1     2   512   501  2.120188156E+01 -1.016938888E+00 -1.065096719E+01  2.374862204E+01  3.953724850E-07  0.00000E+00  9.000E+00
#rwgt            1           9   4.0747571695295840E-003           9      942059           0
</event>
<event>
      6   9999  3.45752E-01  1.09870E+01 -1.00000E+00  1.82988E-01
      21    -1     0     0   501   502  0.000000000E+00  0.000000000E+00  4.282648238E+01  4.282648238E+01  0.000000000E+00  0.00000E+00  9.000E+00
       2    -1     0     0   502     0  0.000000000E+00  0.000000000E+00 -1.490786088E+03  1.490786088E+03  0.000000000E+00  0.00000E+00  9.000E+00
      25     1     1     2     0     0 -7.555589429E+01  8.343545872E+01 -3.612149318E+02  3.984612923E+02  1.250000221E+02  0.00000E+00  9.000E+00
       5     1     1     2   501     0  1.120049194E+00 -1.165003794E+00  1.577574964E+01  1.655441092E+01  4.750000000E+00  0.00000E+00  9.000E+00
      -5     1     1     2     0   503  6.345556890E+01 -8.188542273E+01 -3.281069009E+02  3.441054091E+02  4.750000000E+00  0.00000E+00  9.000E+00
       2     1     1     2   503     0  1.098027619E+01 -3.850321923E-01 -7.744135222E+02  7.744914577E+02  0.000000000E+00  0.00000E+00  9.000E+00
#rwgt            1           9   8.1888669880609000E-002           9      943165           0
</event>
<event>
      6   9999  3.45752E-01  1.78880E+01 -1.00000E+00  1.64000E-01
      21    -1     0     0   501   502  0.000000000E+00  0.000000000E+00  3.319733146E+02  3.319733146E+02  0.000000000E+00  0.00000E+00  9.000E+00
      21    -1     0     0   502   511  0.000000000E+00  0.000000000E+00 -1.097538915E+02  1.097538915E+02  0.000000000E+00  0.00000E+00  9.000E+00
      25     1     1     2     0     0  2.897704891E+01  1.927102566E+01  2.414422452E+01  1.319795752E+02  1.249984916E+02  0.00000E+00  9.000E+00
       5     1     1     2   501     0  1.421543259E+00  8.656825540E-01  2.213661976E+02  2.214234092E+02  4.750000000E+00  0.00000E+00  9.000E+00
      -5     1     1     2     0   503 -1.261616560E+01 -2.207683840E+01  2.552096594E+01  3.633781268E+01  4.750000000E+00  0.00000E+00  9.000E+00
      21     1     1     2   503   511 -1.778242657E+01  1.940130182E+00 -4.881196494E+01  5.198640901E+01  9.536743164E-07  0.00000E+00  9.000E+00
#rwgt            1           9   6.5807377327263566E-005           9      947228           0
</event>
<event>
      6   9999  3.45752E-01  2.67924E+01 -1.00000E+00  1.51087E-01
      21    -1     0     0   502   512  0.000000000E+00  0.000000000E+00  2.039879106E+02  2.039879106E+02  0.000000000E+00  0.00000E+00  9.000E+00
      21    -1     0     0   501   502  0.000000000E+00  0.000000000E+00 -4.462461192E+02  4.462461192E+02  0.000000000E+00  0.00000E+00  9.000E+00
      25     1     1     2     0     0  1.864063983E+02 -1.186738217E+02 -2.708033245E+02  3.711992518E+02  1.249944906E+02  0.00000E+00  9.000E+00
       5     1     1     2   501     0  4.169642437E+00  1.839158749E+00 -3.756517941E+01  3.813756189E+01  4.750000000E+00  0.00000E+00  9.000E+00
      -5     1     1     2     0   503 -1.663535594E+02  1.053846271E+02  3.539204788E+01  2.001364182E+02  4.750000000E+00  0.00000E+00  9.000E+00
      21     1     1     2   503   512 -2.422248138E+01  1.145003585E+01  3.071824734E+01  4.076079789E+01  3.371747881E-07  0.00000E+00  9.000E+00
#rwgt            1           9  0.25699243921616588                9      949597           0
</event>
<event>
      6   9999  3.45752E-01  4.20060E+01 -1.00000E+00  1.38964E-01
      21    -1     0     0   501   502  0.000000000E+00  0.000000000E+00  2.633383790E+02  2.633383790E+02  0.000000000E+00  0.00000E+00  9.000E+00
      21    -1     0     0   502   511  0.000000000E+00  0.000000000E+00 -1.145303895E+02  1.145303895E+02  0.000000000E+00  0.00000E+00  9.000E+00
      25     1     1     2     0     0 -4.956256125E+01  7.599861137E+01  1.079730438E+02  1.884542702E+02  1.249983894E+02  0.00000E+00  9.000E+00
       5     1     1     2   501     0 -5.933814518E-01  5.227474355E+00  7.305626645E+01  7.339931306E+01  4.750000000E+00  0.00000E+00  9.000E+00
      -5     1     1     2     0   503  5.149478565E+01 -3.924143224E+01 -3.530540829E+01  7.389612512E+01  4.750000000E+00  0.00000E+00  9.000E+00
      21     1     1     2   503   511 -1.338842943E+00 -4.198465349E+01  3.084087565E+00  4.211906011E+01  5.824810352E-07  0.00000E+00  9.000E+00
#rwgt            1           9   8.6969230490129999E-004           9      952132           0
</event>
<event>
      6   9999  3.45752E-01  4.89874E+00 -1.00000E+00  2.30936E-01
      21    -1     0     0   501   502  0.000000000E+00  0.000000000E+00  1.061523817E+02  1.061523817E+02  0.000000000E+00  0.00000E+00  9.000E+00
      21    -1     0     0   512   503  0.000000000E+00  0.000000000E+00 -2.266126055E+02  2.266126055E+02  0.000000000E+00  0.00000E+00  9.000E+00
      25     1     1     2     0     0 -3.455486541E+00 -6.583561098E+00 -1.708547962E+02  2.118267283E+02  1.249956710E+02  0.00000E+00  9.000E+00
       5     1     1     2   501     0  3.974946452E+00 -1.609623607E+00  8.470296903E+01  8.494437327E+01  4.750000000E+00  0.00000E+00  9.000E+00
      -5     1     1     2     0   503  3.040366325E-01  3.364161941E+00 -1.555279331E+01  1.660909099E+01  4.750000000E+00  0.00000E+00  9.000E+00
      21     1     1     2   512   502 -8.234965438E-01  4.829022763E+00 -1.875560338E+01  1.938479470E+01  4.129530925E-07  0.00000E+00  9.000E+00
#rwgt            1           9   1.3615766280155215E-003           9      953463           0
</event>
<event>
      6   9999  3.45752E-01  2.25129E+00 -1.00000E+00  3.14190E-01
      21    -1     0     0   511   502  0.000000000E+00  0.000000000E+00  1.701402573E+01  1.701402573E+01  0.000000000E+00  0.00000E+00  9.000E+00
      21    -1     0     0   502   503  0.000000000E+00  0.000000000E+00 -6.908686876E+02  6.908686876E+02  0.000000000E+00  0.00000E+00  9.000E+00
      25     1     1     2     0     0 -4.217753475E+00  4.181302170E+00 -6.323566019E+02  6.446205940E+02  1.250022620E+02  0.00000E+00  9.000E+00
       5     1     1     2   501     0  3.780057600E+00 -1.828928589E+00 -3.063029664E+01  3.127956822E+01  4.750000000E+00  0.00000E+00  9.000E+00
      -5     1     1     2     0   503 -5.035368694E-01 -3.072819437E-01 -2.103312542E+01  2.157087936E+01  4.750000000E+00  0.00000E+00  9.000E+00
      21     1     1     2   511   501  9.412327449E-01 -2.045091638E+00  1.016536218E+01  1.041167167E+01  7.725644944E-07  0.00000E+00  9.000E+00
#rwgt            1           9   1.4338866299188604E-003           9      958469           0
</event>
<event>
      6   9999  3.45752E-01  1.35464E+01 -1.00000E+00  1.74299E-01
      21    -1     0     0   512   502  0.000000000E+00  0.000000000E+00  1.870680604E+02  1.870680604E+02  0.000000000E+00  0.00000E+00  9.000E+00
      21    -1     0     0   502   503  0.000000000E+00  0.000000000E+00 -2.202614617E+02  2.202614617E+02  0.000000000E+00  0.00000E+00  9.000E+00
      25     1     1     2     0     0 -4.773109403E+00  4.260038523E+00 -1.758518636E+02  2.158458725E+02  1.249985289E+02  0.00000E+00  9.000E+00
       5     1     1     2   501     0 -3.388033931E-01  1.315351480E+00 -7.573065274E+00  9.042054794E+00  4.750000000E+00  0.00000E+00  9.000E+00
      -5     1     1     2     0   503 -3.777205778E+00  4.646567589E+00 -1.490493568E+01  1.675044720E+01  4.750000000E+00  0.00000E+00  9.000E+00
      21     1     1     2   512   501  8.889118574E+00 -1.022195759E+01  1.651364633E+02  1.656911475E+02  0.000000000E+00  0.00000E+00  9.000E+00
#rwgt            1           9   1.1242105408585318E-003           9      964538           0
</event>
<event>
      6   9999  3.45752E-01  6.11229E+00 -1.00000E+00  2.12942E-01
      21    -1     0     0   501   502  0.000000000E+00  0.000000000E+00  1.428481622E+01  1.428481622E+01  0.000000000E+00  0.00000E+00  9.000E+00
      21    -1     0     0   502   511  0.000000000E+00  0.000000000E+00 -1.433195252E+03  1.433195252E+03  0.000000000E+00  0.00000E+00  9.000E+00
      25     1     1     2     0     0 -7.711335019E+00 -1.963676764E+01 -4.265774992E+02  4.450146957E+02  1.249985969E+02  0.00000E+00  9.000E+00
       5     1     1     2   501     0  2.246357841E+00 -2.479525503E-01  3.163986155E+00  6.138478020E+00  4.750000000E+00  0.00000E+00  9.000E+00
      -5     1     1     2     0   503  1.154207292E+01  2.053973827E+01 -3.603863579E+02  3.611869181E+02  4.750000000E+00  0.00000E+00  9.000E+00
      21     1     1     2   503   511 -6.077095738E+00 -6.550180775E-01 -6.351105652E+02  6.351399768E+02  7.629394531E-06  0.00000E+00  9.000E+00
#rwgt            1           9   3.0203784674578672E-004           9      966003           0
</event>
<event>
      6   9999  3.45752E-01  2.35708E+02 -1.00000E+00  1.06481E-01
      -2    -1     0     0     0   502  0.000000000E+00  0.000000000E+00  3.241720889E+02  3.241720889E+02  0.000000000E+00  0.00000E+00  9.000E+00
      21    -1     0     0   501   512  0.000000000E+00  0.000000000E+00 -7.844131285E+02  7.844131285E+02  0.000000000E+00  0.00000E+00  9.000E+00
      25     1     1     2     0     0 -7.526545362E+01 -1.052933675E+02 -5.113093553E+02  5.420452744E+02  1.249969638E+02  0.00000E+00  9.000E+00
       5     1     1     2   501     0 -5.708673777E+01 -7.131814903E+01 -4.312685937E+01  1.011319065E+02  4.750000000E+00  0.00000E+00  9.000E+00
      -5     1     1     2     0   502 -1.065312381E+01 -1.075877496E+01 -1.354201735E+02  1.363467131E+02  4.750000000E+00  0.00000E+00  9.000E+00
      -2     1     1     2     0   512  1.430053152E+02  1.873702914E+02  2.296153485E+02  3.290613234E+02  2.697398305E-06  0.00000E+00  9.000E+00
#rwgt            1           3   5.1731390438201352E-003           9      969696           0
</event>
<event>
      6   9999  3.45752E-01  1.72353E+01 -1.00000E+00  1.65304E-01
      21    -1     0     0   502   503  0.000000000E+00  0.000000000E+00  1.273253631E+01  1.273253631E+01  0.000000000E+00  0.00000E+00  9.000E+00
      21    -1     0     0   501   511  0.000000000E+00  0.000000000E+00 -9.153733237E+02  9.153733237E+02  0.000000000E+00  0.00000E+00  9.000E+00
      25     1     1     2     0     0 -2.624086818E+01  2.184558962E+00 -3.974591746E+02  4.174835443E+02  1.250014355E+02  0.00000E+00  9.000E+00
       5     1     1     2   501     0  3.866295674E+01 -1.826910124E+01 -4.108084622E+02  4.130553708E+02  4.750000000E+00  0.00000E+00  9.000E+00
      -5     1     1     2     0   503  1.299729245E-01  4.273486368E+00 -1.434948267E+01  1.570826953E+01  4.750000000E+00  0.00000E+00  9.000E+00
      21     1     1     2   502   511 -1.255206149E+01  1.181105591E+01 -8.002366794E+01  8.185867529E+01  1.651812370E-06  0.00000E+00  9.000E+00
#rwgt            1           9  0.26426498982271396                9      970127           0
</event>
<event>
      6   9999  3.45752E-01  1.36388E+01 -1.00000E+00  1.74032E-01
      21    -1     0     0   512   502  0.000000000E+00  0.000000000E+00  3.893399964E+01  3.893399964E+01  0.000000000E+00  0.00000E+00  9.000E+00
      21    -1     0     0   502   503  0.000000000E+00  0.000000000E+00 -1.176435281E+03  1.176435281E+03  0.000000000E+00  0.00000E+00  9.000E+00
      25     1     1     2     0     0 -9.393264508E+00  1.109773302E+01 -1.116338427E+03  1.123409102E+03  1.250005304E+02  0.00000E+00  9.000E+00
       5     1     1     2   501     0  3.966344869E+00  1.743280771E+00  2.970830323E+01  3.039599810E+01  4.750000000E+00  0.00000E+00  9.000E+00
      -5     1     1     2     0   503 -6.135879642E+00 -5.607891189E+00 -4.614812274E+01  4.713076697E+01  4.750000000E+00  0.00000E+00  9.000E+00
      21     1     1     2   512   501  1.156279928E+01 -7.233122598E+00 -4.723035129E+00  1.443341438E+01  2.528810911E-07  0.00000E+00  9.000E+00
#rwgt            1           9   6.7718017175369934E-003           9      971888           0
</event>
<event>
      6   9999  3.45752E-01  4.12978E+01 -1.00000E+00  1.39386E-01
      21    -1     0     0   502   503  0.000000000E+00  0.000000000E+00  1.413749866E+01  1.413749866E+01  0.000000000E+00  0.00000E+00  9.000E+00
      -2    -1     0     0     0   502  0.000000000E+00  0.000000000E+00 -1.587995548E+03  1.587995548E+03  0.000000000E+00  0.00000E+00  9.000E+00
      25     1     1     2     0     0 -3.877518446E+00 -2.750487242E+01 -4.568101912E+02  4.744182711E+02  1.250023680E+02  0.00000E+00  9.000E+00
       5     1     1     2   501     0 -2.673873183E+01  6.405379230E+01 -3.895890515E+02  3.957524980E+02  4.750000000E+00  0.00000E+00  9.000E+00
      -5     1     1     2     0   503 -7.041022817E+00 -1.959502499E+01 -6.946742641E+01  7.267617793E+01  4.750000000E+00  0.00000E+00  9.000E+00
      -2     1     1     2     0   501  3.765727309E+01 -1.695389488E+01 -6.579913804E+02  6.592860998E+02  7.629394531E-06  0.00000E+00  9.000E+00
#rwgt            1           9   8.0522517743079960E-003           9      975509           0
</event>
<event>
      6   9999  3.45752E-01  4.31658E+00 -1.00000E+00  2.41196E-01
      21    -1     0     0   511   502  0.000000000E+00  0.000000000E+00  9.922606982E+01  9.922606982E+01  0.000000000E+00  0.00000E+00  9.000E+00
      21    -1     0     0   502   503  0.000000000E+00  0.000000000E+00 -9.290455413E+02  9.290455413E+02  0.000000000E+00  0.00000E+00  9.000E+00
      25     1     1     2     0     0  6.067554025E+00 -4.014332189E+00 -8.599817318E+02  8.690483180E+02  1.249938795E+02  0.00000E+00  9.000E+00
       5     1     1     2   501     0  4.685716355E+00  3.186289675E+00  1.249925130E+01  1.452247095E+01  4.750000000E+00  0.00000E+00  9.000E+00
      -5     1     1     2     0   503 -6.494483662E+00  1.532040722E+00 -6.319705237E+01  6.372562589E+01  4.750000000E+00  0.00000E+00  9.000E+00
      21     1     1     2   511   501 -4.258786717E+00 -7.039982081E-01  8.086006141E+01  8.097519626E+01  9.536743164E-07  0.00000E+00  9.000E+00
#rwgt            1           9  0.88758772362156135                9      976516           0
</event>
<event>
      6   9999  3.45752E-01  1.86143E+01 -1.00000E+00  1.62628E-01
      21    -1     0     0   501   512  0.000000000E+00  0.000000000E+00  1.351573388E+02  1.351573388E+02  0.000000000E+00  0.00000E+00  9.000E+00
      21    -1     0     0   502   503  0.000000000E+00  0.000000000E+00 -1.444033097E+03  1.444033097E+03  0.000000000E+00  0.00000E+00  9.000E+00
      25     1     1     2     0     0 -4.504462552E+01 -1.931271585E+02 -6.521635097E+02  6.930153007E+02  1.250033840E+02  0.00000E+00  9.000E+00
       5     1     1     2   501     0  5.211221790E+00  5.694689654E+00  7.099442067E+01  7.157064056E+01  4.750000000E+00  0.00000E+00  9.000E+00
      -5     1     1     2     0   503  2.747169499E+01  2.013493795E+02 -7.548230416E+02  7.817139204E+02  4.750000000E+00  0.00000E+00  9.000E+00
      21     1     1     2   502   512  1.236170873E+01 -1.391691063E+01  2.711637218E+01  3.289057440E+01  1.617033478E-06  0.00000E+00  9.000E+00
#rwgt            1           9  0.26849811900383025                9      981960           0
</event>
<event>
      6   9999  3.45752E-01  2.28743E+01 -1.00000E+00  1.55883E-01
      21    -1     0     0   511   503  0.000000000E+00  0.000000000E+00  9.037402387E+01  9.037402387E+01  0.000000000E+00  0.00000E+00  9.000E+00
      21    -1     0     0   501   502  0.000000000E+00  0.000000000E+00 -7.700531199E+02  7.700531199E+02  0.000000000E+00  0.00000E+00  9.000E+00
      25     1     1     2     0     0  2.899832340E+01  2.783255664E+00 -5.135354503E+02  5.293286639E+02  1.249861048E+02  0.00000E+00  9.000E+00
       5     1     1     2   501     0 -6.433716243E+00  1.334522939E+01 -2.160209203E+02  2.165804432E+02  4.750000000E+00  0.00000E+00  9.000E+00
      -5     1     1     2     0   503 -7.092440142E-01 -9.377531179E+00 -2.980770256E+01  3.161491341E+01  4.750000000E+00  0.00000E+00  9.000E+00
      21     1     1     2   511   502 -2.185536314E+01 -6.750953880E+00  7.968497715E+01  8.290312334E+01  1.651812370E-06  0.00000E+00  9.000E+00
#rwgt            1           9   2.2588710692013226E-003           9      985252           0
</event>
<event>
      6   9999  3.45752E-01  5.71454E+00 -1.00000E+00  2.17050E-01
      21    -1     0     0   501   502  0.000000000E+00  0.000000000E+00  1.020116180E+01  1.020116180E+01  0.000000000E+00  0.00000E+00  9.000E+00
      21    -1     0     0   512   503  0.000000000E+00  0.000000000E+00 -1.691303731E+03  1.691303731E+03  0.000000000E+00  0.00000E+00  9.000E+00
      25     1     1     2     0     0 -4.876670801E+00  1.828854251E-01 -7.686399360E+02  7.787533819E+02  1.250026535E+02  0.00000E+00  9.000E+00
       5     1     1     2   501     0 -1.505316746E+00 -1.191993032E+00  3.131769366E+00  6.004773539E+00  4.750000000E+00  0.00000E+00  9.000E+00
      -5     1     1     2     0   503  1.219061196E+00  3.458621346E+00 -1.530784359E+01  1.644204206E+01  4.750000000E+00  0.00000E+00  9.000E+00
      21     1     1     2   512   502  5.162926350E+00 -2.449513739E+00 -9.002865586E+02  9.003046949E+02  1.078959322E-05  0.00000E+00  9.000E+00
#rwgt            1           9   2.2424645930980325E-003           9      986712           0
</event>
<event>
      6   9999  3.45752E-01  6.76727E+00 -1.00000E+00  2.07028E-01
      21    -1     0     0   501   502  0.000000000E+00  0.000000000E+00  1.425408740E+01  1.425408740E+01  0.000000000E+00  0.00000E+00  9.000E+00
      21    -1     0     0   502   511  0.000000000E+00  0.000000000E+00 -1.070170761E+03  1.070170761E+03  0.000000000E+00  0.00000E+00  9.000E+00
      25     1     1     2     0     0 -1.002645857E+00  8.653381407E+00 -7.913352258E+02  8.011945550E+02  1.250015564E+02  0.00000E+00  9.000E+00
       5     1     1     2   501     0  4.249207843E+00 -4.494669527E+00  7.487152571E+00  1.081100250E+01  4.750000000E+00  0.00000E+00  9.000E+00
      -5     1     1     2     0   503  1.264295467E+00  8.858965364E-01 -5.027710346E+01  5.052457707E+01  4.750000000E+00  0.00000E+00  9.000E+00
      21     1     1     2   503   511 -4.510857453E+00 -5.044608415E+00 -2.217914972E+02  2.218947141E+02  3.814697266E-06  0.00000E+00  9.000E+00
#rwgt            1           9   3.8980464441161662E-003           9      990939           0
</event>
<event>
      6   9999 -3.45752E-01  1.28422E+01 -1.00000E+00  1.76432E-01
      21    -1     0     0   501   502  0.000000000E+00  0.000000000E+00  9.836524973E+02  9.836524973E+02  0.000000000E+00  0.00000E+00  9.000E+00
      21    -1     0     0   502   512  0.000000000E+00  0.000000000E+00 -2.794860771E+01  2.794860771E+01  0.000000000E+00  0.00000E+00  9.000E+00
      25     1     1     2     0     0  1.086478880E+01 -9.117763155E+00  1.288486166E+02  1.800785836E+02  1.250006121E+02  0.00000E+00  9.000E+00
       5     1     1     2   501     0  1.934055227E+00 -1.448099565E+00  7.202014634E+02  7.202211799E+02  4.750000000E+00  0.00000E+00  9.000E+00
      -5     1     1     2     0   503 -1.741246805E+01 -1.418988811E+00  7.471926014E+01  7.688132353E+01  4.750000000E+00  0.00000E+00  9.000E+00
      21     1     1     2   503   512  4.613624025E+00  1.198485153E+01  3.193454944E+01  3.442001802E+01  5.840038640E-07  0.00000E+00  9.000E+00
#rwgt            1           9  -98.119140191756259                9      994862           0
</event>
<event>
      6   9999  3.45752E-01  8.86020E+00 -1.00000E+00  1.92905E-01
      21    -1     0     0   501   502  0.000000000E+00  0.000000000E+00  1.191765288E+01  1.191765288E+01  0.000000000E+00  0.00000E+00  9.000E+00
      21    -1     0     0   511   503  0.000000000E+00  0.000000000E+00 -8.595049616E+02  8.595049616E+02  0.000000000E+00  0.00000E+00  9.000E+00
      25     1     1     2     0     0 -8.792357788E+00  1.255781292E+01 -6.286162983E+02  6.411067074E+02  1.249974225E+02  0.00000E+00  9.000E+00
       5     1     1     2   501     0  1.410735915E+00 -8.195277871E-01  3.353088283E+00  6.038832888E+00  4.750000000E+00  0.00000E+00  9.000E+00
      -5     1     1     2     0   503  1.622935978E+01 -1.126857669E+01 -1.696955557E+02  1.709079198E+02  4.750000000E+00  0.00000E+00  9.000E+00
      21     1     1     2   511   502 -8.847737906E+00 -4.697084442E-01 -5.262854299E+01  5.336915429E+01  6.743495762E-07  0.00000E+00  9.000E+00
#rwgt            1           9   1.6175727814296781E-004           9      997500           0
</event>
<event>
      6   9999  3.45752E-01  8.80502E+00 -1.00000E+00  1.93210E-01
      21    -1     0     0   501   502  0.000000000E+00  0.000000000E+00  9.213299623E+00  9.213299623E+00  0.000000000E+00  0.00000E+00  9.000E+00
      21    -1     0     0   502   512  0.000000000E+00  0.000000000E+00 -1.020757185E+03  1.020757185E+03  0.000000000E+00  0.00000E+00  9.000E+00
      25     1     1     2     0     0 -1.812680957E+01 -2.061868288E+01 -5.219796139E+02  5.374399854E+02  1.250012370E+02  0.00000E+00  9.000E+00
       5     1     1     2   501     0  3.364721148E+00  7.905395093E+00 -6.366633556E+01  6.441879698E+01  4.750000000E+00  0.00000E+00  9.000E+00
      -5     1     1     2     0   503  2.351444976E+01  1.175173062E+01 -1.720807561E+02  1.741418434E+02  4.750000000E+00  0.00000E+00  9.000E+00
      21     1     1     2   503   512 -8.752361342E+00  9.615571675E-01 -2.538171796E+02  2.539698586E+02  2.697398305E-06  0.00000E+00  9.000E+00
#rwgt            1           9   3.7211155393103272E-004           9     1001348           0
</event>
<event>
      6   9999  3.45752E-01  5.91135E+00 -1.00000E+00  2.14962E-01
      21    -1     0     0   511   502  0.000000000E+00  0.000000000E+00  2.123380402E+01  2.123380402E+01  0.000000000E+00  0.00000E+00  9.000E+00
      21    -1     0     0   502   503  0.000000000E+00  0.000000000E+00 -8.494610024E+02  8.494610024E+02  0.000000000E+00  0.00000E+00  9.000E+00
      25     1     1     2     0     0 -2.244585929E+00 -2.840933794E+00 -8.184461001E+02  8.279444384E+02  1.249994611E+02  0.00000E+00  9.000E+00
       5     1     1     2   501     0  1.100891753E+00 -1.658346412E+00  3.165465291E+00  6.045225056E+00  4.750000000E+00  0.00000E+00  9.000E+00
      -5     1     1     2     0   503  2.109381669E-01 -1.338020602E+00 -2.382107467E+01  2.432778026E+01  4.750000000E+00  0.00000E+00  9.000E+00
      21     1     1     2   511   501  9.327560088E-01  5.837300808E+00  1.087451111E+01  1.237736266E+01  9.078709013E-07  0.00000E+00  9.000E+00
#rwgt            1           9   8.9225467471775022E-005           9     1004399           0
</event>
<event>
      6   9999  3.45752E-01  4.41629E+01 -1.00000E+00  1.37737E-01
      21    -1     0     0   501   512  0.000000000E+00  0.000000000E+00  3.239415947E+01  3.239415947E+01  0.000000000E+00  0.00000E+00  9.000E+00
      21    -1     0     0   502   503  0.000000000E+00  0.000000000E+00 -1.071602278E+03  1.071602278E+03  0.000000000E+00  0.00000E+00  9.000E+00
      25     1     1     2     0     0  2.838444664E+01 -4.648716858E+01 -6.521095107E+02  6.662123635E+02  1.250014627E+02  0.00000E+00  9.000E+00
       5     1     1     2   501     0 -4.504945451E+01  4.794232517E+01 -6.835371143E+01  9.498795850E+01  4.750000000E+00  0.00000E+00  9.000E+00
      -5     1     1     2     0   503 -2.314143799E+01 -2.058126226E+01 -2.862673169E+02  2.879768285E+02  4.750000000E+00  0.00000E+00  9.000E+00
      21     1     1     2   502   512  3.980644586E+01  1.912610566E+01 -3.247757932E+01  5.481928683E+01  1.348699152E-06  0.00000E+00  9.000E+00
#rwgt            1           9   30.629083376361081                9     1008325           0
</event>
<event>
      6   9999  3.45752E-01  1.59386E+01 -1.00000E+00  1.68118E-01
      21    -1     0     0   511   502  0.000000000E+00  0.000000000E+00  8.136764569E+02  8.136764569E+02  0.000000000E+00  0.00000E+00  9.000E+00
      21    -1     0     0   502   503  0.000000000E+00  0.000000000E+00 -1.171135374E+03  1.171135374E+03  0.000000000E+00  0.00000E+00  9.000E+00
      25     1     1     2     0     0  2.714411063E+01 -3.639858323E+01 -7.294447720E+02  7.414689941E+02  1.249997366E+02  0.00000E+00  9.000E+00
       5     1     1     2   501     0  2.500205891E+00 -2.608102775E-01 -1.245212934E+00  5.516530318E+00  4.750000000E+00  0.00000E+00  9.000E+00
      -5     1     1     2     0   503 -1.670595626E+01  2.735143776E+01 -4.316115292E+02  4.328259058E+02  4.750000000E+00  0.00000E+00  9.000E+00
      21     1     1     2   511   501 -1.293836027E+01  9.307955749E+00  8.048425970E+02  8.050004007E+02  1.868812365E-05  0.00000E+00  9.000E+00
#rwgt            1           9   3.1194206169872663E-003           9     1009267           0
</event>
<event>
      6   9999 -3.45752E-01  7.50547E+00 -1.00000E+00  2.01354E-01
      21    -1     0     0   501   502  0.000000000E+00  0.000000000E+00  1.499418742E+01  1.499418742E+01  0.000000000E+00  0.00000E+00  9.000E+00
      21    -1     0     0   502   512  0.000000000E+00  0.000000000E+00 -1.998337782E+03  1.998337782E+03  0.000000000E+00  0.00000E+00  9.000E+00
      25     1     1     2     0     0 -2.076162712E+01  7.725659262E+01 -1.724147237E+03  1.730522628E+03  1.250009732E+02  0.00000E+00  9.000E+00
       5     1     1     2   501     0 -1.194451096E+00 -1.082127276E+00  3.313918237E+00  6.011843889E+00  4.750000000E+00  0.00000E+00  9.000E+00
      -5     1     1     2     0   503  2.747003708E+01 -7.108247388E+01 -2.042346844E+02  2.180405692E+02  4.750000000E+00  0.00000E+00  9.000E+00
      21     1     1     2   503   512 -5.513958863E+00 -5.091991464E+00 -5.827559109E+01  5.875692841E+01  0.000000000E+00  0.00000E+00  9.000E+00
#rwgt            1           9  -9.4812559288232293E-003           9     1011124           0
</event>
<event>
      6   9999  3.45752E-01  1.32706E+01 -1.00000E+00  1.75115E-01
      21    -1     0     0   501   502  0.000000000E+00  0.000000000E+00  2.573635403E+01  2.573635403E+01  0.000000000E+00  0.00000E+00  9.000E+00
       2    -1     0     0   502     0  0.000000000E+00  0.000000000E+00 -2.793789032E+03  2.793789032E+03  0.000000000E+00  0.00000E+00  9.000E+00
      25     1     1     2     0     0  1.188824086E+02  1.714928469E+01 -3.725447710E+02  4.109038070E+02  1.250008288E+02  0.00000E+00  9.000E+00
       5     1     1     2   501     0 -4.361245501E+01  2.730012739E+00 -9.800626955E+01  1.074117804E+02  4.750000000E+00  0.00000E+00  9.000E+00
      -5     1     1     2     0   503 -6.229031402E+01 -2.264300644E+01 -6.019842327E+02  6.056404609E+02  4.750000000E+00  0.00000E+00  9.000E+00
       2     1     1     2   503     0 -1.297963957E+01  2.763709013E+00 -1.695517405E+03  1.695569338E+03  0.000000000E+00  0.00000E+00  9.000E+00
#rwgt            1           9   1.8407576932777532                9     1015120           0
</event>
<event>
      6   9999 -3.45752E-01  2.15161E+01 -1.00000E+00  1.57825E-01
      21    -1     0     0   501   502  0.000000000E+00  0.000000000E+00  6.411048462E+01  6.411048462E+01  0.000000000E+00  0.00000E+00  9.000E+00
      21    -1     0     0   511   503  0.000000000E+00  0.000000000E+00 -1.697548228E+03  1.697548228E+03  0.000000000E+00  0.00000E+00  9.000E+00
      25     1     1     2     0     0  1.305740163E+02  1.485328274E+02 -6.029974626E+02  6.467936028E+02  1.249978004E+02  0.00000E+00  9.000E+00
       5     1     1     2   501     0 -3.346121184E+00  7.423877923E+00  3.202708242E+01  3.338573046E+01  4.750000000E+00  0.00000E+00  9.000E+00
      -5     1     1     2     0   503 -1.107143314E+02 -1.421637568E+02 -9.604013046E+02  9.771701107E+02  4.750000000E+00  0.00000E+00  9.000E+00
      21     1     1     2   511   502 -1.651356377E+01 -1.379294854E+01 -1.020660581E+02  1.043092682E+02  1.348699152E-06  0.00000E+00  9.000E+00
#rwgt            1           9  -2.8240093228878370E-004           9     1017916           0
</event>
<event>
      6   9999  3.45752E-01  7.20862E+00 -1.00000E+00  2.03526E-01
      21    -1     0     0   501   502  0.000000000E+00  0.000000000E+00  1.060717401E+01  1.060717401E+01  0.000000000E+00  0.00000E+00  9.000E+00
      21    -1     0     0   512   503  0.000000000E+00  0.000000000E+00 -1.483729713E+03  1.483729713E+03  0.000000000E+00  0.00000E+00  9.000E+00
      25     1     1     2     0     0 -7.619270122E-01 -1.016678735E+01 -5.367708900E+02  5.512275971E+02  1.249997255E+02  0.00000E+00  9.000E+00
       5     1     1     2   501     0  2.064283614E+00  1.368218709E+00  8.572555617E-01  5.425004735E+00  4.750000000E+00  0.00000E+00  9.000E+00
      -5     1     1     2     0   503  4.135071077E+00  1.353128650E+01 -2.544618483E+02  2.548991747E+02  4.750000000E+00  0.00000E+00  9.000E+00
      21     1     1     2   512   502 -5.437427679E+00 -4.732717858E+00 -6.827470565E+02  6.827851107E+02  1.525878906E-05  0.00000E+00  9.000E+00
#rwgt            1           9   3.2663774110148770E-004           9     1020708           0
</event>
<event>
      6   9999  3.45752E-01  5.09239E+00 -1.00000E+00  2.24486E-01
      21    -1     0     0   511   502  0.000000000E+00  0.000000000E+00  3.899770228E+01  3.899770228E+01  0.000000000E+00  0.00000E+00  9.000E+00
      21    -1     0     0   502   503  0.000000000E+00  0.000000000E+00 -1.712916571E+02  1.712916571E+02  0.000000000E+00  0.00000E+00  9.000E+00
      25     1     1     2     0     0  1.001908874E+01 -1.025425168E+01 -1.230486855E+02  1.759883568E+02  1.250015637E+02  0.00000E+00  9.000E+00
       5     1     1     2   501     0 -4.083712450E+00  8.834936891E+00 -5.490085351E+00  1.214233727E+01  4.750000000E+00  0.00000E+00  9.000E+00
      -5     1     1     2     0   503 -9.507304248E+00  5.048879183E+00 -9.026214679E+00  1.482953359E+01  4.750000000E+00  0.00000E+00  9.000E+00
      21     1     1     2   511   501  3.571927959E+00 -3.629564399E+00  5.271030676E+00  7.329131699E+00  1.332800375E-07  0.00000E+00  9.000E+00
#rwgt            1           9   5.4238237223001612E-004           9     1023719           0
</event>
<event>
      6   9999  3.45752E-01  6.24670E+01 -1.00000E+00  1.29810E-01
      21    -1     0     0   501   512  0.000000000E+00  0.000000000E+00  7.476101460E+01  7.476101460E+01  0.000000000E+00  0.00000E+00  9.000E+00
      21    -1     0     0   502   503  0.000000000E+00  0.000000000E+00 -1.542766959E+03  1.542766959E+03  0.000000000E+00  0.00000E+00  9.000E+00
      25     1     1     2     0     0 -5.832381143E+01 -8.672698310E-01 -2.832930309E+02  3.150919052E+02  1.250021930E+02  0.00000E+00  9.000E+00
       5     1     1     2   501     0 -1.193342642E+01 -1.822108339E+02 -6.804652254E+02  7.045556615E+02  4.750000000E+00  0.00000E+00  9.000E+00
      -5     1     1     2     0   503  7.464018594E+01  2.453911080E+02 -3.753083173E+02  4.546062568E+02  4.750000000E+00  0.00000E+00  9.000E+00
      21     1     1     2   502   512 -4.382948091E+00 -6.231300422E+01 -1.289393710E+02  1.432741502E+02  1.907348633E-06  0.00000E+00  9.000E+00
#rwgt            1           9  0.19008468054884375                9     1027741           0
</event>
<event>
      6   9999  3.45752E-01  3.28081E+01 -1.00000E+00  1.45368E-01
      21    -1     0     0   511   503  0.000000000E+00  0.000000000E+00  1.975520831E+02  1.975520831E+02  0.000000000E+00  0.00000E+00  9.000E+00
      21    -1     0     0   501   502  0.000000000E+00  0.000000000E+00 -1.844782815E+02  1.844782815E+02  0.000000000E+00  0.00000E+00  9.000E+00
      25     1     1     2     0     0 -4.780624877E+01  4.329265780E+01 -1.044552909E+02  1.752009432E+02  1.249990842E+02  0.00000E+00  9.000E+00
       5     1     1     2   501     0  7.148536475E+00 -6.791900815E-01 -2.214439376E+01  2.375919923E+01  4.750000000E+00  0.00000E+00  9.000E+00
      -5     1     1     2     0   503  8.139978297E+00 -4.696857675E+01  9.515048064E+00  4.884060901E+01  4.750000000E+00  0.00000E+00  9.000E+00
      21     1     1     2   511   502  3.251773400E+01  4.355109037E+00  1.301584382E+02  1.342296131E+02  0.000000000E+00  0.00000E+00  9.000E+00
#rwgt            1           9   4593.3035181049327                9     1028982           0
</event>
<event>
      6   9999  3.45752E-01  1.02639E+01 -1.00000E+00  1.86010E-01
      21    -1     0     0   512   502  0.000000000E+00  0.000000000E+00  3.128700220E+01  3.128700220E+01  0.000000000E+00  0.00000E+00  9.000E+00
      21    -1     0     0   502   503  0.000000000E+00  0.000000000E+00 -9.318798559E+02  9.318798559E+02  0.000000000E+00  0.00000E+00  9.000E+00
      25     1     1     2     0     0 -3.518828974E+00 -5.238409873E+00 -7.716096013E+02  7.816945082E+02  1.250004169E+02  0.00000E+00  9.000E+00
       5     1     1     2   501     0  4.681976643E+00 -9.252270932E-02  3.537107439E+00  7.550039389E+00  4.750000000E+00  0.00000E+00  9.000E+00
      -5     1     1     2     0   503  8.175826116E+00  9.588963372E+00 -1.516320592E+02  1.522288942E+02  4.750000000E+00  0.00000E+00  9.000E+00
      21     1     1     2   512   501 -9.338973785E+00 -4.258030790E+00  1.911169938E+01  2.169341630E+01  4.129530925E-07  0.00000E+00  9.000E+00
#rwgt            1           9   6.6315630530466470E-003           9     1030244           0
</event>
<event>
      6   9999 -3.45752E-01  1.03621E+01 -1.00000E+00  1.85581E-01
      21    -1     0     0   511   502  0.000000000E+00  0.000000000E+00  1.945078760E+01  1.945078760E+01  0.000000000E+00  0.00000E+00  9.000E+00
      21    -1     0     0   502   503  0.000000000E+00  0.000000000E+00 -2.088505532E+03  2.088505532E+03  0.000000000E+00  0.00000E+00  9.000E+00
      25     1     1     2     0     0 -6.991110886E+01  2.068748041E+01 -1.309553487E+03  1.317524491E+03  1.249996565E+02  0.00000E+00  9.000E+00
       5     1     1     2   501     0 -3.927935825E+00 -2.905253138E+00  1.141545160E+01  1.329451808E+01  4.750000000E+00  0.00000E+00  9.000E+00
      -5     1     1     2     0   503  8.196435290E+01 -2.421286161E+01 -7.266358499E+02  7.316601934E+02  4.750000000E+00  0.00000E+00  9.000E+00
      21     1     1     2   511   501 -8.125308222E+00  6.430634334E+00 -4.428085893E+01  4.547711687E+01  0.000000000E+00  0.00000E+00  9.000E+00
#rwgt            1           9  -9.0076324138903458E-004           9     1033102           0
</event>
<event>
      6   9999  3.45752E-01  2.99546E+01 -1.00000E+00  1.47881E-01
      21    -1     0     0   501   502  0.000000000E+00  0.000000000E+00  1.142506235E+03  1.142506235E+03  0.000000000E+00  0.00000E+00  9.000E+00
      21    -1     0     0   512   503  0.000000000E+00  0.000000000E+00 -3.561514405E+01  3.561514405E+01  0.000000000E+00  0.00000E+00  9.000E+00
      25     1     1     2     0     0  4.253504162E+01 -7.949163208E+01  6.841881365E+02  7.013321290E+02  1.250007983E+02  0.00000E+00  9.000E+00
       5     1     1     2   501     0  3.301807040E+00 -2.729912427E+00  3.640489684E+02  3.641051609E+02  4.750000000E+00  0.00000E+00  9.000E+00
      -5     1     1     2     0   503 -3.903319001E+01  5.304979567E+01  3.671049913E+01  7.555192909E+01  4.750000000E+00  0.00000E+00  9.000E+00
      21     1     1     2   512   502 -6.803658652E+00  2.917174884E+01  2.194348718E+01  3.713216033E+01  6.743495762E-07  0.00000E+00  9.000E+00
#rwgt            1           9   1.0165549816267783E-004           9     1036174           0
</event>
<event>
      6   9999  3.45752E-01  3.50059E+00 -1.00000E+00  2.60482E-01
      21    -1     0     0   501   502  0.000000000E+00  0.000000000E+00  1.420595495E+01  1.420595495E+01  0.000000000E+00  0.00000E+00  9.000E+00
      21    -1     0     0   511   503  0.000000000E+00  0.000000000E+00 -9.463311312E+02  9.463311312E+02  0.000000000E+00  0.00000E+00  9.000E+00
      25     1     1     2     0     0  5.331471470E+01 -1.500298898E+00 -7.119460585E+02  7.248013178E+02  1.250002015E+02  0.00000E+00  9.000E+00
       5     1     1     2   501     0  3.034732411E-02 -8.914767823E-01  6.970278154E-01  4.883031803E+00  4.750000000E+00  0.00000E+00  9.000E+00
      -5     1     1     2     0   503 -5.639099931E+01  6.665607162E-01 -1.571437974E+02  1.670243236E+02  4.750000000E+00  0.00000E+00  9.000E+00
      21     1     1     2   511   502  3.045937291E+00  1.725214965E+00 -6.373234815E+01  6.382841296E+01  9.536743164E-07  0.00000E+00  9.000E+00
#rwgt            1           9   5.5921792893021715E-005           9     1037882           0
</event>
<event>
      6   9999  3.45752E-01  1.52653E+01 -1.00000E+00  1.69714E-01
      21    -1     0     0   501   502  0.000000000E+00  0.000000000E+00  2.139062035E+02  2.139062035E+02  0.000000000E+00  0.00000E+00  9.000E+00
      21    -1     0     0   502   512  0.000000000E+00  0.000000000E+00 -4.298188459E+02  4.298188459E+02  0.000000000E+00  0.00000E+00  9.000E+00
      25     1     1     2     0     0 -4.672014591E-02 -1.758649009E+01 -1.291407993E+02  1.805856986E+02  1.249982467E+02  0.00000E+00  9.000E+00
       5     1     1     2   501     0  1.314948861E+01 -1.449392928E+00  1.824833343E+02  1.830238771E+02  4.750000000E+00  0.00000E+00  9.000E+00
      -5     1     1     2     0   503  1.006904913E+00  1.320964972E+01 -2.633845394E+02  2.637602829E+02  4.750000000E+00  0.00000E+00  9.000E+00
      21     1     1     2   503   512 -1.410967337E+01  5.826233300E+00 -5.870638031E+00  1.635519086E+01  2.795705652E-07  0.00000E+00  9.000E+00
#rwgt            1           9  0.35679623582922537                9     1043290           0
</event>
<event>
      6   9999  3.45752E-01  8.14705E+00 -1.00000E+00  1.97083E-01
      21    -1     0     0   501   502  0.000000000E+00  0.000000000E+00  9.300970882E+00  9.300970882E+00  0.000000000E+00  0.00000E+00  9.000E+00
      21    -1     0     0   511   503  0.000000000E+00  0.000000000E+00 -1.010432237E+03  1.010432237E+03  0.000000000E+00  0.00000E+00  9.000E+00
      25     1     1     2     0     0 -7.893123843E-01 -1.257624298E+01 -7.322048662E+02  7.429051921E+02  1.250014936E+02  0.00000E+00  9.000E+00
       5     1     1     2   501     0 -5.838935608E-01  7.903146443E-01 -2.310956171E+00  5.372945873E+00  4.750000000E+00  0.00000E+00  9.000E+00
      -5     1     1     2     0   503 -6.026807062E+00  1.519388448E+01 -2.847111631E+01  3.317142585E+01  4.750000000E+00  0.00000E+00  9.000E+00
      21     1     1     2   511   502  7.400013007E+00 -3.407956146E+00 -2.381443277E+02  2.382836444E+02  3.814697266E-06  0.00000E+00  9.000E+00
#rwgt            1           9   1.5506523113055924E-004           9     1046361           0
</event>
<event>
      6   9999  3.45752E-01  1.63899E+01 -1.00000E+00  1.67102E-01
      21    -1     0     0   502   503  0.000000000E+00  0.000000000E+00  1.463941003E+01  1.463941003E+01  0.000000000E+00  0.00000E+00  9.000E+00
      21    -1     0     0   512   502  0.000000000E+00  0.000000000E+00 -1.672608710E+03  1.672608710E+03  0.000000000E+00  0.00000E+00  9.000E+00
      25     1     1     2     0     0 -4.403798549E+01  8.370691829E+00 -3.016409132E+02  3.295777260E+02  1.249992971E+02  0.00000E+00  9.000E+00
       5     1     1     2   501     0 -8.025658924E-01 -3.459279958E+00 -6.349550852E+01  6.377188121E+01  4.750000000E+00  0.00000E+00  9.000E+00
      -5     1     1     2     0   503  2.880624075E+01 -1.516029145E+00 -4.734492902E+02  4.743510206E+02  4.750000000E+00  0.00000E+00  9.000E+00
      21     1     1     2   512   501  1.603431063E+01 -3.395382726E+00 -8.193835878E+02  8.195474920E+02  1.078959322E-05  0.00000E+00  9.000E+00
#rwgt            1           9   7.4803170681452582E-005           9     1048983           0
</event>
<event>
      6   9999 -3.45752E-01  1.74718E+01 -1.00000E+00  1.64823E-01
      21    -1     0     0   511   503  0.000000000E+00  0.000000000E+00  1.784682890E+01  1.784682890E+01  0.000000000E+00  0.00000E+00  9.000E+00
      21    -1     0     0   501   502  0.000000000E+00  0.000000000E+00 -9.345259807E+02  9.345259807E+02  0.000000000E+00  0.00000E+00  9.000E+00
      25     1     1     2     0     0 -7.102646669E+01 -1.206124393E+01 -7.783246671E+02  7.915833804E+02  1.249989126E+02  0.00000E+00  9.000E+00
       5     1     1     2   501     0  3.168285619E+00 -7.053131468E+00 -3.013733792E+01  3.147389926E+01  4.750000000E+00  0.00000E+00  9.000E+00
      -5     1     1     2     0   503  5.149614788E+01  1.298687031E+01 -8.159748266E+01  9.747422081E+01  4.750000000E+00  0.00000E+00  9.000E+00
      21     1     1     2   511   502  1.636203319E+01  6.127505088E+00 -2.661966410E+01  3.184130910E+01  3.371747881E-07  0.00000E+00  9.000E+00
#rwgt            1           9  -9.8060476095981591E-002           9     1050974           0
</event>
<event>
      6   9999  3.45752E-01  1.21651E+01 -1.00000E+00  1.78652E-01
      21    -1     0     0   512   502  0.000000000E+00  0.000000000E+00  4.617115033E+01  4.617115033E+01  0.000000000E+00  0.00000E+00  9.000E+00
      21    -1     0     0   502   503  0.000000000E+00  0.000000000E+00 -1.004110415E+03  1.004110415E+03  0.000000000E+00  0.00000E+00  9.000E+00
      25     1     1     2     0     0 -1.337379386E+01 -7.065112438E+00 -9.016853490E+02  9.104345859E+02  1.250035696E+02  0.00000E+00  9.000E+00
       5     1     1     2   501     0  2.912184564E+00 -4.138710276E+00  2.277422980E+01  2.380835535E+01  4.750000000E+00  0.00000E+00  9.000E+00
      -5     1     1     2     0   503  5.881379676E-01  4.097207792E+00 -9.541891588E+01  9.562669619E+01  4.750000000E+00  0.00000E+00  9.000E+00
      21     1     1     2   512   501  9.873471330E+00  7.106614921E+00  1.639077087E+01  2.041192743E+01  7.152557373E-07  0.00000E+00  9.000E+00
#rwgt            1           9   8.1898753410365908E-005           9     1053040           0
</event>
<event>
      6   9999  3.45752E-01  9.58935E+00 -1.00000E+00  1.89133E-01
      21    -1     0     0   501   502  0.000000000E+00  0.000000000E+00  9.705405181E+01  9.705405181E+01  0.000000000E+00  0.00000E+00  9.000E+00
      21    -1     0     0   502   511  0.000000000E+00  0.000000000E+00 -1.426444039E+03  1.426444039E+03  0.000000000E+00  0.00000E+00  9.000E+00
      25     1     1     2     0     0  1.590836990E+01  4.034825644E+00 -6.867915158E+01  1.435622840E+02  1.249957898E+02  0.00000E+00  9.000E+00
       5     1     1     2   501     0 -2.064262017E+00 -1.514266711E-01  5.836968283E+01  5.859920206E+01  4.750000000E+00  0.00000E+00  9.000E+00
      -5     1     1     2     0   503 -1.034270219E+01 -1.281065355E+01 -6.504415850E+01  6.726358144E+01  4.750000000E+00  0.00000E+00  9.000E+00
      21     1     1     2   503   511 -3.501405694E+00  8.927254574E+00 -1.254036360E+03  1.254073023E+03  1.525878906E-05  0.00000E+00  9.000E+00
#rwgt            1           9   1.5215262046140005E-003           9     1055952           0
</event>
<event>
      6   9999  3.45752E-01  1.14817E+01 -1.00000E+00  1.81087E-01
      21    -1     0     0   512   502  0.000000000E+00  0.000000000E+00  1.745432498E+01  1.745432498E+01  0.000000000E+00  0.00000E+00  9.000E+00
      21    -1     0     0   502   503  0.000000000E+00  0.000000000E+00 -9.088805884E+02  9.088805884E+02  0.000000000E+00  0.00000E+00  9.000E+00
      25     1     1     2     0     0  4.396855542E+01 -9.881741675E+00 -4.650159499E+02  4.836270853E+02  1.249977650E+02  0.00000E+00  9.000E+00
       5     1     1     2   501     0  1.585630321E+00  1.326516021E+01 -8.581830403E+00  1.657374466E+01  4.750000000E+00  0.00000E+00  9.000E+00
      -5     1     1     2     0   503 -4.815591844E+01  7.799600035E+00 -4.082495541E+02  4.111813312E+02  4.750000000E+00  0.00000E+00  9.000E+00
      21     1     1     2   512   501  2.601732703E+00 -1.118301857E+01 -9.578929053E+00  1.495275223E+01  3.576278687E-07  0.00000E+00  9.000E+00
#rwgt            1           9   3.8462847352899678E-005           9     1059268           0
</event>
<event>
      6   9999  3.45752E-01  2.78927E+01 -1.00000E+00  1.49914E-01
      21    -1     0     0   511   503  0.000000000E+00  0.000000000E+00  7.700662154E+00  7.700662154E+00  0.000000000E+00  0.00000E+00  9.000E+00
      21    -1     0     0   501   502  0.000000000E+00  0.000000000E+00 -9.749666020E+02  9.749666020E+02  0.000000000E+00  0.00000E+00  9.000E+00
      25     1     1     2     0     0  1.643889998E+01 -2.535399395E+01 -7.267470271E+02  7.380370658E+02  1.249976265E+02  0.00000E+00  9.000E+00
       5     1     1     2   501     0 -4.958081947E+00  1.449702617E+00 -1.007935973E+02  1.010375968E+02  4.750000000E+00  0.00000E+00  9.000E+00
      -5     1     1     2     0   503  7.525205332E-01 -1.162609208E+00 -2.829476150E+01  2.872410096E+01  4.750000000E+00  0.00000E+00  9.000E+00
      21     1     1     2   511   502 -1.223333857E+01  2.506690054E+01 -1.114305540E+02  1.148685006E+02  1.907348633E-06  0.00000E+00  9.000E+00
#rwgt            1           9  0.69811461545611542                9     1061563           0
</event>
<event>
      6   9999 -3.45752E-01  2.71522E+01 -1.00000E+00  1.50696E-01
      21    -1     0     0   502   512  0.000000000E+00  0.000000000E+00  6.241134893E+01  6.241134893E+01  0.000000000E+00  0.00000E+00  9.000E+00
      21    -1     0     0   501   502  0.000000000E+00  0.000000000E+00 -1.160597227E+03  1.160597227E+03  0.000000000E+00  0.00000E+00  9.000E+00
      25     1     1     2     0     0  7.185284615E+01 -1.036653312E+02 -2.789028716E+02  3.306375706E+02  1.250002357E+02  0.00000E+00  9.000E+00
       5     1     1     2   501     0 -1.854863515E+01  2.413757329E+01 -1.795885064E+02  1.822121523E+02  4.750000000E+00  0.00000E+00  9.000E+00
      -5     1     1     2     0   503 -7.978684674E+01  8.552032517E+01 -6.636835987E+02  6.739274061E+02  4.750000000E+00  0.00000E+00  9.000E+00
      21     1     1     2   503   512  2.648263574E+01 -5.992567300E+00  2.398909895E+01  3.623144666E+01  1.118282261E-06  0.00000E+00  9.000E+00
#rwgt            1           9 -0.26703768564140917                9     1063712           0
</event>
<event>
      6   9999  3.45752E-01  9.47126E+00 -1.00000E+00  1.89714E-01
      21    -1     0     0   501   502  0.000000000E+00  0.000000000E+00  4.570850767E+01  4.570850767E+01  0.000000000E+00  0.00000E+00  9.000E+00
      21    -1     0     0   511   503  0.000000000E+00  0.000000000E+00 -1.365338090E+03  1.365338090E+03  0.000000000E+00  0.00000E+00  9.000E+00
      25     1     1     2     0     0  5.120846913E+01  1.207717948E+02 -7.293288984E+02  7.515019612E+02  1.250056879E+02  0.00000E+00  9.000E+00
       5     1     1     2   501     0 -1.663522554E+00  2.770596115E+00  2.721098657E+01  2.781085759E+01  4.750000000E+00  0.00000E+00  9.000E+00
      -5     1     1     2     0   503 -4.510253331E+01 -1.151776053E+02 -5.696766104E+02  5.829700869E+02  4.750000000E+00  0.00000E+00  9.000E+00
      21     1     1     2   511   502 -4.442413269E+00 -8.364785679E+00 -4.783506005E+01  4.876369187E+01  1.348699152E-06  0.00000E+00  9.000E+00
#rwgt            1           9   6.7945755803056453E-003           9     1065504           0
</event>
<event>
      6   9999 -3.45752E-01  9.85613E+00 -1.00000E+00  1.87859E-01
      21    -1     0     0   501   502  0.000000000E+00  0.000000000E+00  7.029603174E+01  7.029603174E+01  0.000000000E+00  0.00000E+00  9.000E+00
      21    -1     0     0   502   512  0.000000000E+00  0.000000000E+00 -6.182690131E+02  6.182690131E+02  0.000000000E+00  0.00000E+00  9.000E+00
      25     1     1     2     0     0  1.358511975E+00 -1.125770254E+01 -5.824391188E+02  5.958091749E+02  1.249986575E+02  0.00000E+00  9.000E+00
       5     1     1     2   501     0  5.849515987E+00 -7.384054162E+00  4.403547032E+01  4.528163248E+01  4.750000000E+00  0.00000E+00  9.000E+00
      -5     1     1     2     0   503 -5.269349295E+00  8.978173354E+00  1.622891805E+01  1.985733919E+01  4.750000000E+00  0.00000E+00  9.000E+00
      21     1     1     2   503   512 -1.938678668E+00  9.663583353E+00 -2.579825099E+01  2.761689831E+01  0.000000000E+00  0.00000E+00  9.000E+00
#rwgt            1           9  -1.3210567928361738                9     1069684           0
</event>
<event>
      6   9999 -3.45752E-01  1.10002E+01 -1.00000E+00  1.82936E-01
      21    -1     0     0   502   511  0.000000000E+00  0.000000000E+00  2.334460468E+01  2.334460468E+01  0.000000000E+00  0.00000E+00  9.000E+00
      21    -1     0     0   501   502  0.000000000E+00  0.000000000E+00 -9.671814890E+02  9.671814890E+02  0.000000000E+00  0.00000E+00  9.000E+00
      25     1     1     2     0     0 -5.113735462E+00  9.212557263E+00 -9.533935056E+02  9.616110489E+02  1.250024452E+02  0.00000E+00  9.000E+00
       5     1     1     2   501     0  3.978058736E+00  2.332393461E+00  1.052385703E+01  1.243298345E+01  4.750000000E+00  0.00000E+00  9.000E+00
      -5     1     1     2     0   503  5.032191758E-01 -5.629305808E-01 -2.423758265E+00  5.385835544E+00  4.750000000E+00  0.00000E+00  9.000E+00
      21     1     1     2   503   511  6.324575498E-01 -1.098202014E+01  1.456522526E+00  1.109622579E+01  6.265579474E-07  0.00000E+00  9.000E+00
#rwgt            1           9  -1.0215569968298437E-005           9     1073854           0
</event>
<event>
      6   9999 -3.45752E-01  2.10762E+01 -1.00000E+00  1.58492E-01
      21    -1     0     0   501   502  0.000000000E+00  0.000000000E+00  1.198076973E+01  1.198076973E+01  0.000000000E+00  0.00000E+00  9.000E+00
      21    -1     0     0   502   512  0.000000000E+00  0.000000000E+00 -1.122395409E+03  1.122395409E+03  0.000000000E+00  0.00000E+00  9.000E+00
      25     1     1     2     0     0 -2.367795950E+01 -2.246433027E+00 -5.942847524E+02  6.077517674E+02  1.249886056E+02  0.00000E+00  9.000E+00
       5     1     1     2   501     0  3.511677827E+00 -7.622623561E+00 -7.010192246E-01  9.669032995E+00  4.750000000E+00  0.00000E+00  9.000E+00
      -5     1     1     2     0   503 -5.746798120E-01  1.361318391E+01 -3.331032616E+02  3.334156482E+02  4.750000000E+00  0.00000E+00  9.000E+00
      21     1     1     2   503   512  2.074096148E+01 -3.744127326E+00 -1.823256059E+02  1.835397301E+02  3.814697266E-06  0.00000E+00  9.000E+00
#rwgt            1           9  -22.605159273713610                9     1076498           0
</event>
<event>
      6   9999  3.45752E-01  2.41886E+01 -1.00000E+00  1.54153E-01
      21    -1     0     0   511   503  0.000000000E+00  0.000000000E+00  2.854158504E+01  2.854158504E+01  0.000000000E+00  0.00000E+00  9.000E+00
      21    -1     0     0   501   502  0.000000000E+00  0.000000000E+00 -2.731235103E+02  2.731235103E+02  0.000000000E+00  0.00000E+00  9.000E+00
      25     1     1     2     0     0 -2.937712361E+00 -1.519555612E+01 -2.069952220E+02  2.423045819E+02  1.249998136E+02  0.00000E+00  9.000E+00
       5     1     1     2   501     0  5.176221227E-01 -6.276155497E-01 -2.993017289E+00  5.672960993E+00  4.750000000E+00  0.00000E+00  9.000E+00
      -5     1     1     2     0   503  1.490564617E+01 -4.893996985E+00 -1.004873223E+01  1.922677856E+01  4.750000000E+00  0.00000E+00  9.000E+00
      21     1     1     2   511   502 -1.248555594E+01  2.071716865E+01 -2.454495379E+01  3.446077394E+01  3.371747881E-07  0.00000E+00  9.000E+00
#rwgt            1           9   1.2545778881877523E-004           9     1078126           0
</event>
<event>
      6   9999  3.45752E-01  1.13964E+01 -1.00000E+00  1.81406E-01
      21    -1     0     0   501   502  0.000000000E+00  0.000000000E+00  1.069007156E+01  1.069007156E+01  0.000000000E+00  0.00000E+00  9.000E+00
      21    -1     0     0   512   503  0.000000000E+00  0.000000000E+00 -1.987865416E+03  1.987865416E+03  0.000000000E+00  0.00000E+00  9.000E+00
      25     1     1     2     0     0 -2.783570986E+01  5.695905032E+01 -1.125514812E+03  1.134207832E+03  1.249986210E+02  0.00000E+00  9.000E+00
       5     1     1     2   501     0  2.343807894E-01 -4.698398498E-01 -6.969451859E+00  8.450529158E+00  4.750000000E+00  0.00000E+00  9.000E+00
      -5     1     1     2     0   503  2.327917411E+01 -6.703425249E+01 -2.222549269E+02  2.333566497E+02  4.750000000E+00  0.00000E+00  9.000E+00
      21     1     1     2   512   502  4.322154962E+00  1.054504203E+01 -6.224361540E+02  6.225404764E+02  1.078959322E-05  0.00000E+00  9.000E+00
#rwgt            1           9   1.7688692795149214E-004           9     1079830           0
</event>
<event>
      6   9999 -3.45752E-01  7.00252E+00 -1.00000E+00  2.05119E-01
      21    -1     0     0   511   502  0.000000000E+00  0.000000000E+00  3.966883582E+01  3.966883582E+01  0.000000000E+00  0.00000E+00  9.000E+00
      21    -1     0     0   502   503  0.000000000E+00  0.000000000E+00 -8.291791755E+02  8.291791755E+02  0.000000000E+00  0.00000E+00  9.000E+00
      25     1     1     2     0     0 -3.328171944E-01 -7.261973513E+00 -3.999852474E+02  4.191245099E+02  1.249972385E+02  0.00000E+00  9.000E+00
       5     1     1     2   501     0 -1.742927164E-01  1.129047177E+00 -8.291342993E-01  4.955309190E+00  4.750000000E+00  0.00000E+00  9.000E+00
      -5     1     1     2     0   503  4.913720238E+00  1.157507839E+01 -4.161846146E+02  4.164016367E+02  4.750000000E+00  0.00000E+00  9.000E+00
      21     1     1     2   511   501 -4.406610327E+00 -5.442152051E+00  2.748865660E+01  2.836655557E+01  6.743495762E-07  0.00000E+00  9.000E+00
#rwgt            1           9  -5.3902294153327151E-003           9     1082549           0
</event>
<event>
      6   9999 -3.45752E-01  3.97950E+01 -1.00000E+00  1.40315E-01
      21    -1     0     0   512   502  0.000000000E+00  0.000000000E+00  6.717336967E+01  6.717336967E+01  0.000000000E+00  0.00000E+00  9.000E+00
      21    -1     0     0   502   503  0.000000000E+00  0.000000000E+00 -1.527628156E+03  1.527628156E+03  0.000000000E+00  0.00000E+00  9.000E+00
      25     1     1     2     0     0  1.231172965E+02 -1.974208301E+02 -9.825076696E+02  1.017388287E+03  1.249990127E+02  0.00000E+00  9.000E+00
       5     1     1     2   501     0  3.682224424E+00 -9.193799491E+00  2.039539934E+01  2.316504997E+01  4.750000000E+00  0.00000E+00  9.000E+00
      -5     1     1     2     0   503 -1.047403351E+02  1.734930720E+02 -4.114455679E+02  4.586724340E+02  4.750000000E+00  0.00000E+00  9.000E+00
      21     1     1     2   512   501 -2.205918586E+01  3.312155762E+01 -8.689694783E+01  9.557575425E+01  0.000000000E+00  0.00000E+00  9.000E+00
#rwgt            1           9  -7.9831710208356089E-005           9     1085689           0
</event>
<event>
      6   9999  3.45752E-01  1.41962E+01 -1.00000E+00  1.72471E-01
      21    -1     0     0   501   502  0.000000000E+00  0.000000000E+00  5.879120471E+01  5.879120471E+01  0.000000000E+00  0.00000E+00  9.000E+00
      21    -1     0     0   511   503  0.000000000E+00  0.000000000E+00 -2.657249799E+03  2.657249799E+03  0.000000000E+00  0.00000E+00  9.000E+00
      25     1     1     2     0     0  1.469519197E+01 -2.791392302E+00 -7.954852536E+01  1.489178263E+02  1.249992423E+02  0.00000E+00  9.000E+00
       5     1     1     2   501     0  2.490755703E+00 -5.329631517E-01  1.789039591E+01  1.868466429E+01  4.750000000E+00  0.00000E+00  9.000E+00
      -5     1     1     2     0   503 -4.618681111E+00 -3.278371609E+00  3.443584101E+00  8.154796568E+00  4.750000000E+00  0.00000E+00  9.000E+00
      21     1     1     2   511   502 -1.256726656E+01  6.602727062E+00 -2.540244049E+03  2.540283717E+03  4.315837288E-05  0.00000E+00  9.000E+00
#rwgt            1           9   6.6134858891710299E-004           9     1087423           0
</event>
<event>
      6   9999  3.45752E-01  1.73751E+01 -1.00000E+00  1.65019E-01
      21    -1     0     0   501   502  0.000000000E+00  0.000000000E+00  2.998340476E+01  2.998340476E+01  0.000000000E+00  0.00000E+00  9.000E+00
      21    -1     0     0   502   512  0.000000000E+00  0.000000000E+00 -1.580470689E+03  1.580470689E+03  0.000000000E+00  0.00000E+00  9.000E+00
      25     1     1     2     0     0  8.997703925E+01 -4.546099440E+01 -8.816313426E+02  8.961372537E+02  1.250023346E+02  0.00000E+00  9.000E+00
       5     1     1     2   501     0  3.542681826E+00 -1.696096305E+00  1.505493143E+01  1.626778404E+01  4.750000000E+00  0.00000E+00  9.000E+00
      -5     1     1     2     0   503 -8.242228055E+01  6.052644284E+01 -3.771367177E+02  3.907832506E+02  4.750000000E+00  0.00000E+00  9.000E+00
      21     1     1     2   503   512 -1.109744052E+01 -1.336935214E+01 -3.067741551E+02  3.072658051E+02  5.394796609E-06  0.00000E+00  9.000E+00
#rwgt            1           9   2.3332285940981179E-004           9     1089144           0
</event>
<event>
      6   9999  3.45752E-01  3.02938E+01 -1.00000E+00  1.47565E-01
      21    -1     0     0   501   502  0.000000000E+00  0.000000000E+00  1.711882873E+03  1.711882873E+03  0.000000000E+00  0.00000E+00  9.000E+00
      21    -1     0     0   502   511  0.000000000E+00  0.000000000E+00 -7.151919712E+01  7.151919712E+01  0.000000000E+00  0.00000E+00  9.000E+00
      25     1     1     2     0     0  2.965012115E+01 -1.626009662E+01  3.178076654E+02  3.431763441E+02  1.249990821E+02  0.00000E+00  9.000E+00
       5     1     1     2   501     0 -2.660114240E+00 -4.791637454E+00  1.138567222E+03  1.138590320E+03  4.750000000E+00  0.00000E+00  9.000E+00
      -5     1     1     2     0   503 -2.583595424E+01 -9.220033561E+00  2.380460424E+02  2.396684927E+02  4.750000000E+00  0.00000E+00  9.000E+00
      21     1     1     2   503   511 -1.154052673E+00  3.027176764E+01 -5.405725335E+01  6.196691370E+01  1.168007728E-06  0.00000E+00  9.000E+00
#rwgt            1           9   1.0901526346721215E-003           9     1091598           0
</event>
<event>
      6   9999  3.45752E-01  2.19149E+01 -1.00000E+00  1.57237E-01
      21    -1     0     0   501   502  0.000000000E+00  0.000000000E+00  2.296742525E+01  2.296742525E+01  0.000000000E+00  0.00000E+00  9.000E+00
      21    -1     0     0   502   512  0.000000000E+00  0.000000000E+00 -2.620633497E+03  2.620633497E+03  0.000000000E+00  0.00000E+00  9.000E+00
      25     1     1     2     0     0 -4.453403977E+01 -9.701919489E-01 -3.422305048E+02  3.670581628E+02  1.250030181E+02  0.00000E+00  9.000E+00
       5     1     1     2   501     0 -5.885130217E-01 -7.900033477E+00  7.474416280E+00  1.188218310E+01  4.750000000E+00  0.00000E+00  9.000E+00
      -5     1     1     2     0   503  4.200544927E+01 -1.282184778E+01 -6.068911997E+02  6.084967940E+02  4.750000000E+00  0.00000E+00  9.000E+00
      21     1     1     2   503   512  3.117103526E+00  2.169207321E+01 -1.656018783E+03  1.656163782E+03  2.157918644E-05  0.00000E+00  9.000E+00
#rwgt            1           9   1.5577907776190012E-004           9     1092733           0
</event>
<event>
      6   9999  3.45752E-01  1.33291E+01 -1.00000E+00  1.74940E-01
      21    -1     0     0   501   502  0.000000000E+00  0.000000000E+00  2.537455890E+01  2.537455890E+01  0.000000000E+00  0.00000E+00  9.000E+00
      21    -1     0     0   502   511  0.000000000E+00  0.000000000E+00 -2.841510630E+02  2.841510630E+02  0.000000000E+00  0.00000E+00  9.000E+00
      25     1     1     2     0     0 -4.163147569E+00  7.463934643E+00 -1.857300819E+02  2.240377325E+02  1.249968006E+02  0.00000E+00  9.000E+00
       5     1     1     2   501     0 -7.316272787E-01  1.534575770E+00  3.556823719E+00  6.172819148E+00  4.750000000E+00  0.00000E+00  9.000E+00
      -5     1     1     2     0   503  1.281659748E+00  3.831575134E+00 -1.427644543E+01  1.557892852E+01  4.750000000E+00  0.00000E+00  9.000E+00
      21     1     1     2   503   511  3.613115100E+00 -1.283008555E+01 -6.232680056E+01  6.373614174E+01  6.743495762E-07  0.00000E+00  9.000E+00
#rwgt            1           9   1.9591616193213568                9     1094854           0
</event>
<event>
      6   9999  3.45752E-01  1.69544E+01 -1.00000E+00  1.65887E-01
      21    -1     0     0   501   502  0.000000000E+00  0.000000000E+00  6.164703653E+01  6.164703653E+01  0.000000000E+00  0.00000E+00  9.000E+00
      21    -1     0     0   512   503  0.000000000E+00  0.000000000E+00 -2.965151530E+03  2.965151530E+03  0.000000000E+00  0.00000E+00  9.000E+00
      25     1     1     2     0     0  1.074762272E+02  1.079279631E+02 -2.711047270E+03  2.718198398E+03  1.250025847E+02  0.00000E+00  9.000E+00
       5     1     1     2   501     0  4.130557567E-01 -7.159069512E+00  3.178093805E+01  3.292435898E+01  4.750000000E+00  0.00000E+00  9.000E+00
      -5     1     1     2     0   503 -9.368109932E+01 -9.151805020E+01 -1.484719716E+02  1.980358320E+02  4.750000000E+00  0.00000E+00  9.000E+00
      21     1     1     2   512   502 -1.420818368E+01 -9.250843420E+00 -7.576619002E+01  7.763997770E+01  9.536743164E-07  0.00000E+00  9.000E+00
#rwgt            1           9   2.2605766189462431E-004           9     1097201           0
</event>
<event>
      6   9999  3.45752E-01  1.45485E+01 -1.00000E+00  1.71530E-01
      21    -1     0     0   511   502  0.000000000E+00  0.000000000E+00  5.898005876E+00  5.898005876E+00  0.000000000E+00  0.00000E+00  9.000E+00
      21    -1     0     0   502   503  0.000000000E+00  0.000000000E+00 -1.944666544E+03  1.944666544E+03  0.000000000E+00  0.00000E+00  9.000E+00
      25     1     1     2     0     0  7.405642461E+00 -7.240374797E+00 -1.688864693E+03  1.693516346E+03  1.250055789E+02  0.00000E+00  9.000E+00
       5     1     1     2   501     0  1.399726816E+00 -1.824827691E+00 -4.727608743E+00  7.085338079E+00  4.750000000E+00  0.00000E+00  9.000E+00
      -5     1     1     2     0   503 -7.931687597E+00 -5.457087013E+00 -2.240769318E+02  2.243339594E+02  4.750000000E+00  0.00000E+00  9.000E+00
      21     1     1     2   511   501 -8.736816795E-01  1.452228950E+01 -2.109930432E+01  2.562890662E+01  2.384185791E-07  0.00000E+00  9.000E+00
#rwgt            1           9   6.9366872048450684E-002           9     1100645           0
</event>
<event>
      6   9999  3.45752E-01  2.28158E+00 -1.00000E+00  3.12219E-01
      21    -1     0     0   512   502  0.000000000E+00  0.000000000E+00  1.501428348E+03  1.501428348E+03  0.000000000E+00  0.00000E+00  9.000E+00
      21    -1     0     0   502   503  0.000000000E+00  0.000000000E+00 -3.469899290E+01  3.469899290E+01  0.000000000E+00  0.00000E+00  9.000E+00
      25     1     1     2     0     0 -3.111633279E+00 -1.350591981E+01  1.066043635E+02  1.648922219E+02  1.250314457E+02  0.00000E+00  9.000E+00
       5     1     1     2   501     0 -1.260389482E-01  5.666517858E-01  3.312427720E+01  3.346815233E+01  4.750000000E+00  0.00000E+00  9.000E+00
      -5     1     1     2     0   503  5.206959538E+00  1.178708936E+01  3.378791506E+00  1.414307729E+01  4.750000000E+00  0.00000E+00  9.000E+00
      21     1     1     2   512   501 -1.969287311E+00  1.152178662E+00  1.323621923E+03  1.323623889E+03  2.157918644E-05  0.00000E+00  9.000E+00
#rwgt            1           9   1.0359687822513299                9     1101979           0
</event>
<event>
      6   9999  3.45752E-01  2.70856E+01 -1.00000E+00  1.50767E-01
      21    -1     0     0   501   502  0.000000000E+00  0.000000000E+00  1.415586093E+01  1.415586093E+01  0.000000000E+00  0.00000E+00  9.000E+00
      21    -1     0     0   502   511  0.000000000E+00  0.000000000E+00 -2.069515362E+03  2.069515362E+03  0.000000000E+00  0.00000E+00  9.000E+00
      25     1     1     2     0     0 -1.415836375E+01 -1.746301496E+01 -3.685123749E+02  3.897843188E+02  1.250001144E+02  0.00000E+00  9.000E+00
       5     1     1     2   501     0  1.812263544E-01  2.634736517E+00 -7.370425601E-01  5.484561171E+00  4.750000000E+00  0.00000E+00  9.000E+00
      -5     1     1     2     0   503  1.421068770E+01  4.191287077E+01 -4.984405840E+02  5.004240308E+02  4.750000000E+00  0.00000E+00  9.000E+00
      21     1     1     2   503   511 -2.335503114E-01 -2.708459232E+01 -1.187669500E+03  1.187978313E+03  0.000000000E+00  0.00000E+00  9.000E+00
#rwgt            1           9   7.0684389125027049E-004           9     1108694           0
</event>
<event>
      6   9999  3.45752E-01  1.04611E+01 -1.00000E+00  1.85155E-01
      21    -1     0     0   502   512  0.000000000E+00  0.000000000E+00  1.409038883E+02  1.409038883E+02  0.000000000E+00  0.00000E+00  9.000E+00
      21    -1     0     0   501   502  0.000000000E+00  0.000000000E+00 -1.195939820E+02  1.195939820E+02  0.000000000E+00  0.00000E+00  9.000E+00
      25     1     1     2     0     0 -4.434732549E+00 -9.849175249E+00 -7.992465502E+01  1.487510871E+02  1.249890488E+02  0.00000E+00  9.000E+00
       5     1     1     2   501     0 -5.285117595E-01  1.383127199E+00  1.739122315E-01  4.978464723E+00  4.750000000E+00  0.00000E+00  9.000E+00
      -5     1     1     2     0   503 -4.853772585E-02 -7.163373641E-01 -3.526678648E-01  4.816883822E+00  4.750000000E+00  0.00000E+00  9.000E+00
      21     1     1     2   503   512  5.011782034E+00  9.182385414E+00  1.014133170E+02  1.019514346E+02  0.000000000E+00  0.00000E+00  9.000E+00
#rwgt            1           9   8.3068306130240174E-002           9     1109979           0
</event>
<event>
      6   9999  3.45752E-01  1.71528E+01 -1.00000E+00  1.65474E-01
      21    -1     0     0   511   502  0.000000000E+00  0.000000000E+00  2.724531327E+01  2.724531327E+01  0.000000000E+00  0.00000E+00  9.000E+00
      21    -1     0     0   502   503  0.000000000E+00  0.000000000E+00 -1.079842532E+03  1.079842532E+03  0.000000000E+00  0.00000E+00  9.000E+00
      25     1     1     2     0     0 -2.057859329E+01 -7.423322532E+01 -8.138313912E+02  8.269704275E+02  1.249980179E+02  0.00000E+00  9.000E+00
       5     1     1     2   501     0 -5.581738614E-01 -1.869815672E+00  1.155294927E+01  1.264282031E+01  4.750000000E+00  0.00000E+00  9.000E+00
      -5     1     1     2     0   503  6.313145150E+00  6.747300629E+01 -2.344971998E+02  2.441392258E+02  4.750000000E+00  0.00000E+00  9.000E+00
      21     1     1     2   511   501  1.482362201E+01  8.630034697E+00 -1.582157703E+01  2.333537161E+01  7.907449699E-07  0.00000E+00  9.000E+00
#rwgt            1           9   2.2240969594795111E-004           9     1112460           0
</event>
<event>
      6   9999  3.45752E-01  4.31540E+01 -1.00000E+00  1.38301E-01
      21    -1     0     0   501   502  0.000000000E+00  0.000000000E+00  5.007156553E+03  5.007156553E+03  0.000000000E+00  0.00000E+00  9.000E+00
      21    -1     0     0   512   503  0.000000000E+00  0.000000000E+00 -2.115449099E+01  2.115449099E+01  0.000000000E+00  0.00000E+00  9.000E+00
      25     1     1     2     0     0 -9.568467940E+01 -1.350803272E+02  2.332601730E+03  2.341806584E+03  1.249999688E+02  0.00000E+00  9.000E+00
       5     1     1     2   501     0 -5.950429819E-01 -2.097378842E+00  8.024925561E+02  8.025095751E+02  4.750000000E+00  0.00000E+00  9.000E+00
      -5     1     1     2     0   503  9.498242986E+01  9.404322449E+01  1.832007953E+03  1.836883636E+03  4.750000000E+00  0.00000E+00  9.000E+00
      21     1     1     2   512   502  1.297292525E+00  4.313448156E+01  1.889982264E+01  4.711124880E+01  2.249236377E-06  0.00000E+00  9.000E+00
#rwgt            1           9   4.8687925246892859E-004           9     1115993           0
</event>
<event>
      6   9999  3.45752E-01  3.70436E+01 -1.00000E+00  1.42148E-01
      21    -1     0     0   501   502  0.000000000E+00  0.000000000E+00  2.936925496E+02  2.936925496E+02  0.000000000E+00  0.00000E+00  9.000E+00
      21    -1     0     0   502   511  0.000000000E+00  0.000000000E+00 -2.791746607E+02  2.791746607E+02  0.000000000E+00  0.00000E+00  9.000E+00
      25     1     1     2     0     0  3.221477602E+01 -2.081808538E+01 -1.669154645E+02  2.120259695E+02  1.249922197E+02  0.00000E+00  9.000E+00
       5     1     1     2   501     0  2.494364842E+00 -4.273840094E+00  2.619625950E+02  2.620523826E+02  4.750000000E+00  0.00000E+00  9.000E+00
      -5     1     1     2     0   503 -1.793094424E+01 -7.934078637E+00 -2.793152486E+01  3.445578247E+01  4.750000000E+00  0.00000E+00  9.000E+00
      21     1     1     2   503   511 -1.677819662E+01  3.302600411E+01 -5.259771665E+01  6.433307568E+01  6.743495762E-07  0.00000E+00  9.000E+00
#rwgt            1           9   4.1992824601743187E-004           9     1117467           0
</event>
<event>
      6   9999  3.45752E-01  1.04447E+01 -1.00000E+00  1.85225E-01
      21    -1     0     0   501   502  0.000000000E+00  0.000000000E+00  1.900827323E+01  1.900827323E+01  0.000000000E+00  0.00000E+00  9.000E+00
      21    -1     0     0   502   512  0.000000000E+00  0.000000000E+00 -1.319644520E+03  1.319644520E+03  0.000000000E+00  0.00000E+00  9.000E+00
      25     1     1     2     0     0 -2.290777803E+01  2.594359432E+01 -7.926353047E+02  8.031768575E+02  1.249980074E+02  0.00000E+00  9.000E+00
       5     1     1     2   501     0 -5.122194247E-02  6.611025116E-01  1.205114602E+01  1.297043949E+01  4.750000000E+00  0.00000E+00  9.000E+00
      -5     1     1     2     0   503  1.260601275E+01 -2.522373489E+01 -1.770482310E+02  1.793426524E+02  4.750000000E+00  0.00000E+00  9.000E+00
      21     1     1     2   503   512  1.035298722E+01 -1.380961942E+00 -3.430038572E+02  3.431628439E+02  0.000000000E+00  0.00000E+00  9.000E+00
#rwgt            1           9  0.29616940148814669                9     1119460           0
</event>
<event>
      6   9999  3.45752E-01  1.72500E+01 -1.00000E+00  1.65274E-01
      21    -1     0     0   502   503  0.000000000E+00  0.000000000E+00  1.211513086E+01  1.211513086E+01  0.000000000E+00  0.00000E+00  9.000E+00
      21    -1     0     0   511   502  0.000000000E+00  0.000000000E+00 -1.282002242E+03  1.282002242E+03  0.000000000E+00  0.00000E+00  9.000E+00
      25     1     1     2     0     0 -1.947748772E+01 -2.678771627E+00 -3.792688785E+02  3.998190887E+02  1.249954925E+02  0.00000E+00  9.000E+00
       5     1     1     2   501     0 -1.223065370E+01 -1.617889254E+01 -2.674256504E+02  2.682356920E+02  4.750000000E+00  0.00000E+00  9.000E+00
      -5     1     1     2     0   503  2.133658290E+01  5.073881686E+00 -9.599764945E+01  9.858552250E+01  4.750000000E+00  0.00000E+00  9.000E+00
      21     1     1     2   511   501  1.037155853E+01  1.378378248E+01 -5.271949333E+02  5.274770702E+02  0.000000000E+00  0.00000E+00  9.000E+00
#rwgt            1           9   11.660171410194504                9     1122443           0
</event>
<event>
      6   9999  3.45752E-01  1.55372E+01 -1.00000E+00  1.69058E-01
      21    -1     0     0   501   512  0.000000000E+00  0.000000000E+00  2.756903287E+02  2.756903287E+02  0.000000000E+00  0.00000E+00  9.000E+00
      21    -1     0     0   502   503  0.000000000E+00  0.000000000E+00 -2.927810713E+01  2.927810713E+01  0.000000000E+00  0.00000E+00  9.000E+00
      25     1     1     2     0     0 -2.290587915E+01  4.427471370E+00  1.195855536E+02  1.745599294E+02  1.250047300E+02  0.00000E+00  9.000E+00
       5     1     1     2   501     0 -6.926991874E-01  2.689720443E-01  1.627540466E+01  1.697066513E+01  4.750000000E+00  0.00000E+00  9.000E+00
      -5     1     1     2     0   503  8.229385864E+00 -2.417700294E+00  3.832133779E+01  3.955572647E+01  4.750000000E+00  0.00000E+00  9.000E+00
      21     1     1     2   502   512  1.536919247E+01 -2.278743120E+00  7.222992557E+01  7.388211486E+01  1.348699152E-06  0.00000E+00  9.000E+00
#rwgt            1           9   8.9569229159028700E-003           9     1124043           0
</event>
<event>
      6   9999  3.45752E-01  1.05924E+01 -1.00000E+00  1.84599E-01
      21    -1     0     0   501   511  0.000000000E+00  0.000000000E+00  6.574872581E+02  6.574872581E+02  0.000000000E+00  0.00000E+00  9.000E+00
      21    -1     0     0   502   503  0.000000000E+00  0.000000000E+00 -1.015642608E+02  1.015642608E+02  0.000000000E+00  0.00000E+00  9.000E+00
      25     1     1     2     0     0 -1.449826518E+02  6.107347438E+01  2.427807850E+02  3.151433701E+02  1.249915818E+02  0.00000E+00  9.000E+00
       5     1     1     2   501     0  1.330525696E+00 -1.003118672E+00  2.704007316E+02  2.704475822E+02  4.750000000E+00  0.00000E+00  9.000E+00
      -5     1     1     2     0   503  1.360509556E+02 -5.269333906E+01  1.867447372E+01  1.471657194E+02  4.750000000E+00  0.00000E+00  9.000E+00
      21     1     1     2   502   511  7.601170563E+00 -7.377016653E+00  2.406700698E+01  2.629484728E+01  4.768371582E-07  0.00000E+00  9.000E+00
#rwgt            1           9   21.009197015493530                9     1125612           0
</event>
<event>
      6   9999  3.45752E-01  6.32026E+00 -1.00000E+00  2.10960E-01
      21    -1     0     0   501   502  0.000000000E+00  0.000000000E+00  4.517841942E+01  4.517841942E+01  0.000000000E+00  0.00000E+00  9.000E+00
      21    -1     0     0   512   503  0.000000000E+00  0.000000000E+00 -1.237139480E+03  1.237139480E+03  0.000000000E+00  0.00000E+00  9.000E+00
      25     1     1     2     0     0  9.081539533E+01 -1.166180632E+02 -4.426920627E+02  4.831650645E+02  1.250000340E+02  0.00000E+00  9.000E+00
       5     1     1     2   501     0 -3.756028095E-01 -1.256518110E+00  1.725388969E+01  1.794377677E+01  4.750000000E+00  0.00000E+00  9.000E+00
      -5     1     1     2     0   503 -9.150098379E+01  1.116440478E+02 -7.319159592E+02  7.460297294E+02  4.750000000E+00  0.00000E+00  9.000E+00
      21     1     1     2   512   502  1.061191272E+00  6.230533517E+00 -3.460692850E+01  3.517932881E+01  4.768371582E-07  0.00000E+00  9.000E+00
#rwgt            1           9   2.5972261261405886E-003           9     1130182           0
</event>
<event>
      6   9999  3.45752E-01  8.99978E+00 -1.00000E+00  1.92147E-01
      21    -1     0     0   501   502  0.000000000E+00  0.000000000E+00  3.352598207E+01  3.352598207E+01  0.000000000E+00  0.00000E+00  9.000E+00
      21    -1     0     0   502   511  0.000000000E+00  0.000000000E+00 -1.821830601E+03  1.821830601E+03  0.000000000E+00  0.00000E+00  9.000E+00
      25     1     1     2     0     0  5.005520520E+01 -6.252227158E+00 -1.932469353E+02  2.356103500E+02  1.249929802E+02  0.00000E+00  9.000E+00
       5     1     1     2   501     0  2.918144870E+00 -3.871526541E+00  1.080531447E+01  1.276015705E+01  4.750000000E+00  0.00000E+00  9.000E+00
      -5     1     1     2     0   503 -4.451628600E+01  7.045747063E+00 -9.687341574E+02  9.697936752E+02  4.750000000E+00  0.00000E+00  9.000E+00
      21     1     1     2   503   511 -8.457064069E+00  3.078006636E+00 -6.371288410E+02  6.371924011E+02  1.078959322E-05  0.00000E+00  9.000E+00
#rwgt            1           9  0.19255325535488149                9     1135352           0
</event>
<event>
      6   9999  3.45752E-01  2.52303E+01 -1.00000E+00  1.52873E-01
      21    -1     0     0   501   512  0.000000000E+00  0.000000000E+00  6.613843610E+01  6.613843610E+01  0.000000000E+00  0.00000E+00  9.000E+00
      21    -1     0     0   502   503  0.000000000E+00  0.000000000E+00 -1.291592398E+03  1.291592398E+03  0.000000000E+00  0.00000E+00  9.000E+00
      25     1     1     2     0     0 -8.300085536E+01 -8.510485618E+01 -7.335196199E+02  7.535303112E+02  1.249996742E+02  0.00000E+00  9.000E+00
       5     1     1     2   501     0  6.212106228E+00 -1.145173669E+01  2.385522028E+01  2.759287176E+01  4.750000000E+00  0.00000E+00  9.000E+00
      -5     1     1     2     0   503  9.750929883E+01  8.216125679E+01 -5.316890751E+02  5.467854886E+02  4.750000000E+00  0.00000E+00  9.000E+00
      21     1     1     2   502   512 -2.072054970E+01  1.439533607E+01  1.589951272E+01  2.982216265E+01  1.668930054E-06  0.00000E+00  9.000E+00
#rwgt            1           9   6.9205606887712268E-004           9     1139111           0
</event>
<event>
      6   9999  3.45752E-01  2.32397E+01 -1.00000E+00  1.55388E-01
      21    -1     0     0   501   511  0.000000000E+00  0.000000000E+00  1.435557885E+02  1.435557885E+02  0.000000000E+00  0.00000E+00  9.000E+00
      21    -1     0     0   502   503  0.000000000E+00  0.000000000E+00 -6.496858570E+02  6.496858570E+02  0.000000000E+00  0.00000E+00  9.000E+00
      25     1     1     2     0     0 -1.445968998E+00  9.388493660E-01 -5.738524006E+02  5.873122517E+02  1.250045242E+02  0.00000E+00  9.000E+00
       5     1     1     2   501     0  2.001628959E+01  7.719571734E+00  8.022276416E+01  8.317750914E+01  4.750000000E+00  0.00000E+00  9.000E+00
      -5     1     1     2     0   503  3.080970343E-01  4.894755709E+00 -6.499003404E+01  6.534768995E+01  4.750000000E+00  0.00000E+00  9.000E+00
      21     1     1     2   502   511 -1.887841762E+01 -1.355317681E+01  5.248960200E+01  5.740419472E+01  6.743495762E-07  0.00000E+00  9.000E+00
#rwgt            1           9   5.0916272858081587E-004           9     1141090           0
</event>
<event>
      6   9999  3.45752E-01  3.05183E+00 -1.00000E+00  2.74980E-01
      21    -1     0     0   512   502  0.000000000E+00  0.000000000E+00  2.948518145E+01  2.948518145E+01  0.000000000E+00  0.00000E+00  9.000E+00
      21    -1     0     0   502   503  0.000000000E+00  0.000000000E+00 -3.432526077E+03  3.432526077E+03  0.000000000E+00  0.00000E+00  9.000E+00
      25     1     1     2     0     0  3.027576686E+00 -3.565944723E-01 -3.300715325E+03  3.303082399E+03  1.249895371E+02  0.00000E+00  9.000E+00
       5     1     1     2   501     0 -4.346363694E+00  1.862700724E+00 -2.066864848E+00  7.013912007E+00  4.750000000E+00  0.00000E+00  9.000E+00
      -5     1     1     2     0   503 -5.409871016E-01  9.135905698E-01 -1.259495058E+02  1.260435156E+02  4.750000000E+00  0.00000E+00  9.000E+00
      21     1     1     2   512   501  1.859774109E+00 -2.419696821E+00  2.569080091E+01  2.587143104E+01  1.651812370E-06  0.00000E+00  9.000E+00
#rwgt            1           9   9.6409542306096789E-005           9     1143231           0
</event>
<event>
      6   9999  3.45752E-01  2.44079E+00 -1.00000E+00  3.02656E-01
      21    -1     0     0   502   503  0.000000000E+00  0.000000000E+00  8.020112158E+00  8.020112158E+00  0.000000000E+00  0.00000E+00  9.000E+00
      21    -1     0     0   511   502  0.000000000E+00  0.000000000E+00 -7.287047132E+02  7.287047132E+02  0.000000000E+00  0.00000E+00  9.000E+00
      25     1     1     2     0     0 -7.311178043E+00 -6.715606369E-01 -5.956232036E+02  6.086425468E+02  1.249993796E+02  0.00000E+00  9.000E+00
       5     1     1     2   501     0 -2.589934561E-01 -6.239968893E-01 -4.335925292E+01  4.362388983E+01  4.750000000E+00  0.00000E+00  9.000E+00
      -5     1     1     2     0   503  5.321725695E+00  2.245278799E+00 -8.940316184E+00  1.165563360E+01  4.750000000E+00  0.00000E+00  9.000E+00
      21     1     1     2   511   501  2.248445803E+00 -9.497212724E-01 -7.276182836E+01  7.280275507E+01  9.536743164E-07  0.00000E+00  9.000E+00
#rwgt            1           9   1.4280363932761584E-002           9     1149052           0
</event>
<event>
      6   9999  3.45752E-01  1.44586E+01 -1.00000E+00  1.71767E-01
      21    -1     0     0   501   502  0.000000000E+00  0.000000000E+00  1.156585838E+02  1.156585838E+02  0.000000000E+00  0.00000E+00  9.000E+00
       2    -1     0     0   502     0  0.000000000E+00  0.000000000E+00 -2.330352233E+02  2.330352233E+02  0.000000000E+00  0.00000E+00  9.000E+00
      25     1     1     2     0     0  1.243078605E+01 -9.150316411E+00  6.351031542E+01  1.410576268E+02  1.250017647E+02  0.00000E+00  9.000E+00
       5     1     1     2   501     0  2.410248198E-01  3.252818974E+00  8.630216329E+00  1.037699658E+01  4.750000000E+00  0.00000E+00  9.000E+00
      -5     1     1     2     0   503  2.374918800E-01 -6.140180058E-01  2.000907838E+00  5.196109379E+00  4.750000000E+00  0.00000E+00  9.000E+00
       2     1     1     2   503     0 -1.290930275E+01  6.511515443E+00 -1.915180791E+02  1.920630744E+02  0.000000000E+00  0.00000E+00  9.000E+00
#rwgt            1           9   4.6063773675676751E-003           9     1155361           0
</event>
<event>
      6   9999  3.45752E-01  2.25874E+01 -1.00000E+00  1.56280E-01
      21    -1     0     0   511   503  0.000000000E+00  0.000000000E+00  2.184002882E+02  2.184002882E+02  0.000000000E+00  0.00000E+00  9.000E+00
      21    -1     0     0   501   502  0.000000000E+00  0.000000000E+00 -6.558688336E+02  6.558688336E+02  0.000000000E+00  0.00000E+00  9.000E+00
      25     1     1     2     0     0 -2.156304041E+01 -9.758602581E+00 -5.636982240E+02  5.778761983E+02  1.250000711E+02  0.00000E+00  9.000E+00
       5     1     1     2   501     0  1.726664920E-01  1.348527923E+00 -4.586379682E+01  4.612915238E+01  4.750000000E+00  0.00000E+00  9.000E+00
      -5     1     1     2     0   503  1.997898335E-01  5.903574091E-01 -3.833163657E+01  3.862984985E+01  4.750000000E+00  0.00000E+00  9.000E+00
      21     1     1     2   511   502  2.119058408E+01  7.819717248E+00  2.104251120E+02  2.116339212E+02  3.814697266E-06  0.00000E+00  9.000E+00
#rwgt            1           9   8.6770175321071235E-004           9     1156967           0
</event>
<event>
      6   9999  3.45752E-01  2.76041E+01 -1.00000E+00  1.50215E-01
      21    -1     0     0   512   503  0.000000000E+00  0.000000000E+00  5.674305085E+02  5.674305085E+02  0.000000000E+00  0.00000E+00  9.000E+00
      21    -1     0     0   501   502  0.000000000E+00  0.000000000E+00 -1.154257586E+02  1.154257586E+02  0.000000000E+00  0.00000E+00  9.000E+00
      25     1     1     2     0     0  3.782351365E+01  3.643052381E+01 -3.861220154E+01  1.409723190E+02  1.249979654E+02  0.00000E+00  9.000E+00
       5     1     1     2   501     0 -1.113271362E+01 -9.319922916E+00 -3.329244523E+00  1.563472561E+01  4.750000000E+00  0.00000E+00  9.000E+00
      -5     1     1     2     0   503 -3.145123091E+01  7.988099763E-02  2.773355072E-01  3.180920813E+01  4.750000000E+00  0.00000E+00  9.000E+00
      21     1     1     2   512   502  4.760430877E+00 -2.719048189E+01  4.936688604E+02  4.944400143E+02  7.629394531E-06  0.00000E+00  9.000E+00
#rwgt            1           9   4.3316166625351777E-003           9     1157913           0
</event>
<event>
      6   9999  3.45752E-01  3.79197E+01 -1.00000E+00  1.41544E-01
      21    -1     0     0   501   502  0.000000000E+00  0.000000000E+00  2.625861175E+01  2.625861175E+01  0.000000000E+00  0.00000E+00  9.000E+00
      21    -1     0     0   502   511  0.000000000E+00  0.000000000E+00 -1.262608837E+03  1.262608837E+03  0.000000000E+00  0.00000E+00  9.000E+00
      25     1     1     2     0     0  2.672016183E+01  1.239691173E+01 -9.771570132E+02  9.855600550E+02  1.250005724E+02  0.00000E+00  9.000E+00
       5     1     1     2   501     0  9.857518332E+00  5.409810397E+00  1.721562612E+01  2.110395695E+01  4.750000000E+00  0.00000E+00  9.000E+00
      -5     1     1     2     0   503 -1.356509222E+01  1.233173303E+01 -9.688061451E+01  9.871423065E+01  4.750000000E+00  0.00000E+00  9.000E+00
      21     1     1     2   503   511 -2.301258794E+01 -3.013845516E+01 -1.795282238E+02  1.834892063E+02  3.814697266E-06  0.00000E+00  9.000E+00
#rwgt            1           9   4.6300994149302917E-004           9     1159630           0
</event>
<event>
      6   9999  3.45752E-01  1.26692E+01 -1.00000E+00  1.76983E-01
      21    -1     0     0   512   502  0.000000000E+00  0.000000000E+00  8.853501168E+01  8.853501168E+01  0.000000000E+00  0.00000E+00  9.000E+00
      21    -1     0     0   502   503  0.000000000E+00  0.000000000E+00 -7.094147801E+02  7.094147801E+02  0.000000000E+00  0.00000E+00  9.000E+00
      25     1     1     2     0     0 -9.211606139E+00  1.819449371E+01 -6.281953345E+02  6.408359244E+02  1.250016415E+02  0.00000E+00  9.000E+00
       5     1     1     2   501     0  8.490541146E+00 -5.428321876E+00 -4.459739409E+01  4.596788039E+01  4.750000000E+00  0.00000E+00  9.000E+00
      -5     1     1     2     0   503  1.256946862E+00 -1.083564096E-01 -2.891573694E+01  2.933042787E+01  4.750000000E+00  0.00000E+00  9.000E+00
      21     1     1     2   512   501 -5.358818684E-01 -1.265781542E+01  8.082869706E+01  8.181555921E+01  1.651812370E-06  0.00000E+00  9.000E+00
#rwgt            1           9   6.8895910301501628E-004           9     1160739           0
</event>
<event>
      6   9999  3.45752E-01  5.52110E+00 -1.00000E+00  2.19217E-01
      -2    -1     0     0     0   502  0.000000000E+00  0.000000000E+00  2.130093825E+01  2.130093825E+01  0.000000000E+00  0.00000E+00  9.000E+00
      21    -1     0     0   502   503  0.000000000E+00  0.000000000E+00 -5.500048843E+02  5.500048843E+02  0.000000000E+00  0.00000E+00  9.000E+00
      25     1     1     2     0     0 -2.985584192E+00  1.999306907E+00 -5.194916018E+02  5.343306208E+02  1.249991083E+02  0.00000E+00  9.000E+00
       5     1     1     2   501     0 -1.387802488E-01 -2.632130387E-01 -7.109678825E+00  8.555616521E+00  4.750000000E+00  0.00000E+00  9.000E+00
      -5     1     1     2     0   503 -2.394809748E+00 -1.881797673E+00 -1.411398933E+01  1.520011417E+01  4.750000000E+00  0.00000E+00  9.000E+00
      -2     1     1     2     0   501  5.519174189E+00  1.457038051E-01  1.201132389E+01  1.321947105E+01  6.743495762E-07  0.00000E+00  9.000E+00
#rwgt            1           9   7.6140863744343340E-002           9     1162647           0
</event>
<event>
      6   9999  3.45752E-01  3.21290E+00 -1.00000E+00  2.69349E-01
      21    -1     0     0   501   502  0.000000000E+00  0.000000000E+00  6.696530612E+01  6.696530612E+01  0.000000000E+00  0.00000E+00  9.000E+00
      21    -1     0     0   502   511  0.000000000E+00  0.000000000E+00 -3.095943728E+02  3.095943728E+02  0.000000000E+00  0.00000E+00  9.000E+00
      25     1     1     2     0     0  5.576132047E+01  2.483046113E+01 -1.511037528E+02  2.053846781E+02  1.249985809E+02  0.00000E+00  9.000E+00
       5     1     1     2   501     0  2.069049001E+00  3.706173429E+00  3.118748877E+01  3.183140966E+01  4.750000000E+00  0.00000E+00  9.000E+00
      -5     1     1     2     0   503 -5.679359438E+01 -2.549561283E+01 -1.193406169E+02  1.346858715E+02  4.750000000E+00  0.00000E+00  9.000E+00
      21     1     1     2   503   511 -1.036775091E+00 -3.041021727E+00 -3.372185805E+00  4.657719703E+00  0.000000000E+00  0.00000E+00  9.000E+00
#rwgt            1           9   14.031461526571528                9     1165767           0
</event>
<event>
      6   9999  3.45752E-01  1.32598E+01 -1.00000E+00  1.75147E-01
      21    -1     0     0   501   512  0.000000000E+00  0.000000000E+00  1.560402562E+01  1.560402562E+01  0.000000000E+00  0.00000E+00  9.000E+00
      21    -1     0     0   502   503  0.000000000E+00  0.000000000E+00 -6.862787138E+02  6.862787138E+02  0.000000000E+00  0.00000E+00  9.000E+00
      25     1     1     2     0     0 -3.793224052E+00 -2.492080311E+01 -5.314127754E+02  5.464986958E+02  1.250034068E+02  0.00000E+00  9.000E+00
       5     1     1     2   501     0  5.033043780E+00  4.743984539E+00 -3.392951076E+01  3.495155389E+01  4.750000000E+00  0.00000E+00  9.000E+00
      -5     1     1     2     0   503 -1.270355866E+01  1.351308821E+01 -1.054482242E+02  1.071721720E+02  4.750000000E+00  0.00000E+00  9.000E+00
      21     1     1     2   502   512  1.146373893E+01  6.663730363E+00  1.158221373E-01  1.326031777E+01  1.386701472E-07  0.00000E+00  9.000E+00
#rwgt            1           9   9.8546398518247120E-004           9     1172332           0
</event>
<event>
      6   9999  3.45752E-01  6.87414E+00 -1.00000E+00  2.06148E-01
      21    -1     0     0   511   502  0.000000000E+00  0.000000000E+00  1.469026597E+01  1.469026597E+01  0.000000000E+00  0.00000E+00  9.000E+00
      21    -1     0     0   502   503  0.000000000E+00  0.000000000E+00 -2.703866404E+03  2.703866404E+03  0.000000000E+00  0.00000E+00  9.000E+00
      25     1     1     2     0     0  8.410555613E+01  6.367677336E+01 -8.987645220E+02  9.135260674E+02  1.249949349E+02  0.00000E+00  9.000E+00
       5     1     1     2   501     0 -2.273689532E+00  1.999529506E+00  8.827838785E-01  5.701718136E+00  4.750000000E+00  0.00000E+00  9.000E+00
      -5     1     1     2     0   503 -8.141087984E+01 -5.881506441E+01 -1.789366988E+03  1.792189645E+03  4.750000000E+00  0.00000E+00  9.000E+00
      21     1     1     2   511   501 -4.209867540E-01 -6.861238461E+00 -1.927411792E+00  7.139239405E+00  5.523488817E-07  0.00000E+00  9.000E+00
#rwgt            1           9   3.7217413913724533E-003           9     1173919           0
</event>
<event>
      6   9999  3.45752E-01  5.69790E+00 -1.00000E+00  2.17232E-01
      21    -1     0     0   501   502  0.000000000E+00  0.000000000E+00  9.105653618E+00  9.105653618E+00  0.000000000E+00  0.00000E+00  9.000E+00
      21    -1     0     0   512   503  0.000000000E+00  0.000000000E+00 -8.390710314E+02  8.390710314E+02  0.000000000E+00  0.00000E+00  9.000E+00
      25     1     1     2     0     0  4.599843947E+00  7.637600354E+00 -6.983104981E+02  7.094604926E+02  1.249685850E+02  0.00000E+00  9.000E+00
       5     1     1     2   501     0  6.948035901E-01 -1.133303483E+00 -8.161929082E-02  4.933182596E+00  4.750000000E+00  0.00000E+00  9.000E+00
      -5     1     1     2     0   503 -8.072467408E+00 -1.147921653E+01 -5.384154888E+01  5.584274374E+01  4.750000000E+00  0.00000E+00  9.000E+00
      21     1     1     2   512   502  2.777819871E+00  4.974919660E+00 -7.773171147E+01  7.794026608E+01  9.536743164E-07  0.00000E+00  9.000E+00
#rwgt            1           9   1.9556850271801217E-005           9     1178502           0
</event>
<event>
      6   9999 -3.45752E-01  5.56195E+00 -1.00000E+00  2.18749E-01
      21    -1     0     0   502   503  0.000000000E+00  0.000000000E+00  7.899129478E+00  7.899129478E+00  0.000000000E+00  0.00000E+00  9.000E+00
      21    -1     0     0   501   511  0.000000000E+00  0.000000000E+00 -9.429015431E+02  9.429015431E+02  0.000000000E+00  0.00000E+00  9.000E+00
      25     1     1     2     0     0 -7.013448131E+00 -6.152141404E+00 -5.155933405E+02  5.306118860E+02  1.250017742E+02  0.00000E+00  9.000E+00
       5     1     1     2   501     0  2.806159975E+00  4.237570536E+00 -1.265361725E+02  1.267272543E+02  4.750000000E+00  0.00000E+00  9.000E+00
      -5     1     1     2     0   503 -1.021902596E+00  1.961824708E-02 -2.194031470E+01  2.247186194E+01  4.750000000E+00  0.00000E+00  9.000E+00
      21     1     1     2   502   511  5.229190752E+00  1.894952621E+00 -2.709325859E+02  2.709896703E+02  0.000000000E+00  0.00000E+00  9.000E+00
#rwgt            1           9 -0.11667838946232995                9     1181925           0
</event>
<event>
      6   9999  3.45752E-01  9.07332E+00 -1.00000E+00  1.91755E-01
      21    -1     0     0   501   502  0.000000000E+00  0.000000000E+00  2.079603919E+03  2.079603919E+03  0.000000000E+00  0.00000E+00  9.000E+00
      21    -1     0     0   512   503  0.000000000E+00  0.000000000E+00 -4.449661054E+00  4.449661054E+00  0.000000000E+00  0.00000E+00  9.000E+00
      25     1     1     2     0     0  4.138493753E+00  1.182912168E+01  1.540683543E+03  1.545796811E+03  1.249997855E+02  0.00000E+00  9.000E+00
       5     1     1     2   501     0 -3.204932850E-01 -9.682596163E-01  4.278683145E+02  4.278958954E+02  4.750000000E+00  0.00000E+00  9.000E+00
      -5     1     1     2     0   503  1.602083057E+00 -1.813738530E+01  8.219691543E+01  8.432334684E+01  4.750000000E+00  0.00000E+00  9.000E+00
      21     1     1     2   512   502 -5.420083525E+00  7.276523238E+00  2.440548453E+01  2.603752620E+01  4.768371582E-07  0.00000E+00  9.000E+00
#rwgt            1           9   6.8003041805530960E-003           9     1185328           0
</event>
<event>
      6   9999 -3.45752E-01  5.98918E+01 -1.00000E+00  1.30722E-01
      21    -1     0     0   501   502  0.000000000E+00  0.000000000E+00  5.645923824E+01  5.645923824E+01  0.000000000E+00  0.00000E+00  9.000E+00
       2    -1     0     0   502     0  0.000000000E+00  0.000000000E+00 -1.950494317E+03  1.950494317E+03  0.000000000E+00  0.00000E+00  9.000E+00
      25     1     1     2     0     0 -3.882961585E+01  6.493353473E+01 -1.305274761E+03  1.313426247E+03  1.249888045E+02  0.00000E+00  9.000E+00
       5     1     1     2   501     0 -1.166360300E+01 -6.233795986E+00  2.876704969E+01  3.201570701E+01  4.750000000E+00  0.00000E+00  9.000E+00
      -5     1     1     2     0   503  4.586901263E+01  1.013301421E+00 -5.376354180E+00  4.643770864E+01  4.750000000E+00  0.00000E+00  9.000E+00
       2     1     1     2   503     0  4.624206215E+00 -5.971304016E+01 -6.121510134E+02  6.150738929E+02  7.629394531E-06  0.00000E+00  9.000E+00
#rwgt            1           9  -11.352394733069383                9     1187910           0
</event>
<event>
      6   9999  3.45752E-01  1.98650E+01 -1.00000E+00  1.60435E-01
      21    -1     0     0   511   502  0.000000000E+00  0.000000000E+00  2.280086001E+02  2.280086001E+02  0.000000000E+00  0.00000E+00  9.000E+00
      21    -1     0     0   502   503  0.000000000E+00  0.000000000E+00 -1.399160645E+03  1.399160645E+03  0.000000000E+00  0.00000E+00  9.000E+00
      25     1     1     2     0     0  2.981355508E+00 -1.730488376E+01 -1.246366915E+03  1.252741976E+03  1.249944984E+02  0.00000E+00  9.000E+00
       5     1     1     2   501     0  1.882318465E+01  1.571407873E+01  6.410286140E+01  6.879668517E+01  4.750000000E+00  0.00000E+00  9.000E+00
      -5     1     1     2     0   503 -6.990439304E+00  1.482569446E+01 -1.461378695E+02  1.471309174E+02  4.750000000E+00  0.00000E+00  9.000E+00
      21     1     1     2   511   501 -1.481410085E+01 -1.323488943E+01  1.572498784E+02  1.584996661E+02  3.303624740E-06  0.00000E+00  9.000E+00
#rwgt            1           9   4.9857487552587428E-005           9     1188983           0
</event>
<event>
      6   9999 -3.45752E-01  9.04092E+00 -1.00000E+00  1.91927E-01
      21    -1     0     0   501   502  0.000000000E+00  0.000000000E+00  1.811601487E+01  1.811601487E+01  0.000000000E+00  0.00000E+00  9.000E+00
      21    -1     0     0   512   503  0.000000000E+00  0.000000000E+00 -1.075035912E+03  1.075035912E+03  0.000000000E+00  0.00000E+00  9.000E+00
      25     1     1     2     0     0  2.999329157E+01  4.139323399E+01 -6.919634240E+02  7.050200072E+02  1.250073323E+02  0.00000E+00  9.000E+00
       5     1     1     2   501     0  8.180090515E-01 -1.609852585E+00  7.141491477E+00  8.764939514E+00  4.750000000E+00  0.00000E+00  9.000E+00
      -5     1     1     2     0   503 -3.532834693E+01 -4.761501555E+01 -2.517995782E+02  2.587293409E+02  4.750000000E+00  0.00000E+00  9.000E+00
      21     1     1     2   512   502  4.517046310E+00  7.831634143E+00 -1.202983868E+02  1.206376395E+02  0.000000000E+00  0.00000E+00  9.000E+00
#rwgt            1           9  -1.1401630118708316E-003           9     1191750           0
</event>
<event>
      6   9999  3.45752E-01  7.35546E+00 -1.00000E+00  2.02435E-01
       1    -1     0     0   501     0  0.000000000E+00  0.000000000E+00  2.500420651E+02  2.500420651E+02  0.000000000E+00  0.00000E+00  9.000E+00
      21    -1     0     0   502   503  0.000000000E+00  0.000000000E+00 -6.609996098E+02  6.609996098E+02  0.000000000E+00  0.00000E+00  9.000E+00
      25     1     1     2     0     0 -2.337091298E+00  1.122578982E+00 -6.076041661E+02  6.203331098E+02  1.249944890E+02  0.00000E+00  9.000E+00
       5     1     1     2   501     0 -7.337007198E-01  9.321666900E-01 -3.488241150E+00  6.011453885E+00  4.750000000E+00  0.00000E+00  9.000E+00
      -5     1     1     2     0   503 -1.820994498E+00  3.438271668E+00 -4.200206856E+01  4.244848638E+01  4.750000000E+00  0.00000E+00  9.000E+00
       1     1     1     2   502     0  4.891786516E+00 -5.493017339E+00  2.421369312E+02  2.422486249E+02  4.672030912E-06  0.00000E+00  9.000E+00
#rwgt            1           9   1.3300402613229951E-003           9     1195468           0
</event>
<event>
      6   9999  3.45752E-01  1.32740E+01 -1.00000E+00  1.75104E-01
      21    -1     0     0   501   502  0.000000000E+00  0.000000000E+00  9.499120192E+02  9.499120192E+02  0.000000000E+00  0.00000E+00  9.000E+00
      21    -1     0     0   502   511  0.000000000E+00  0.000000000E+00 -4.904398464E+01  4.904398464E+01  0.000000000E+00  0.00000E+00  9.000E+00
      25     1     1     2     0     0  6.757091087E+00 -7.882240766E+00  6.590061121E+02  6.708370793E+02  1.250021728E+02  0.00000E+00  9.000E+00
       5     1     1     2   501     0 -1.610385873E-01 -1.856453343E+00  2.613312677E+02  2.613810749E+02  4.750000000E+00  0.00000E+00  9.000E+00
      -5     1     1     2     0   503 -2.480692767E-01 -1.919040640E+00  2.231441788E+01  2.289628792E+01  4.750000000E+00  0.00000E+00  9.000E+00
      21     1     1     2   503   511 -6.347983223E+00  1.165773475E+01 -4.178376311E+01  4.384156168E+01  2.336015456E-06  0.00000E+00  9.000E+00
#rwgt            1           9   7.4054232187097538E-003           9     1198116           0
</event>
<event>
      6   9999  3.45752E-01  8.41119E+00 -1.00000E+00  1.95473E-01
      21    -1     0     0   501   502  0.000000000E+00  0.000000000E+00  6.814357245E+01  6.814357245E+01  0.000000000E+00  0.00000E+00  9.000E+00
      21    -1     0     0   502   512  0.000000000E+00  0.000000000E+00 -1.510047220E+03  1.510047220E+03  0.000000000E+00  0.00000E+00  9.000E+00
      25     1     1     2     0     0 -7.769753466E+01 -1.708547790E+02 -8.458037156E+02  8.753496370E+02  1.249991969E+02  0.00000E+00  9.000E+00
       5     1     1     2   501     0  1.166717304E+00  3.220034022E+00  3.758047700E+01  3.803399269E+01  4.750000000E+00  0.00000E+00  9.000E+00
      -5     1     1     2     0   503  8.335169080E+01  1.725565180E+02 -5.911585459E+02  6.214613786E+02  4.750000000E+00  0.00000E+00  9.000E+00
      21     1     1     2   503   512 -6.820873441E+00 -4.921772996E+00 -4.252186340E+01  4.334578446E+01  0.000000000E+00  0.00000E+00  9.000E+00
#rwgt            1           9   2.5790921375370713E-004           9     1199639           0
</event>
<event>
      6   9999  3.45752E-01  2.08812E+01 -1.00000E+00  1.58794E-01
      21    -1     0     0   501   511  0.000000000E+00  0.000000000E+00  2.164459770E+01  2.164459770E+01  0.000000000E+00  0.00000E+00  9.000E+00
      21    -1     0     0   502   503  0.000000000E+00  0.000000000E+00 -1.049616838E+03  1.049616838E+03  0.000000000E+00  0.00000E+00  9.000E+00
      25     1     1     2     0     0  2.514040816E+01 -1.676314017E+01 -8.860628382E+02  8.953477710E+02  1.250089391E+02  0.00000E+00  9.000E+00
       5     1     1     2   501     0  3.851528331E+00  2.099493521E+00  1.129231230E+01  1.301233878E+01  4.750000000E+00  0.00000E+00  9.000E+00
      -5     1     1     2     0   503 -1.533983304E+01  3.046378273E+01 -9.185346760E+01  9.809676114E+01  4.750000000E+00  0.00000E+00  9.000E+00
      21     1     1     2   502   511 -1.365210344E+01 -1.580013608E+01 -6.134824702E+01  6.480456497E+01  0.000000000E+00  0.00000E+00  9.000E+00
#rwgt            1           9   2.7217091245363535E-004           9     1204353           0
</event>
<event>
      6   9999  3.45752E-01  7.41478E+00 -1.00000E+00  2.02003E-01
      21    -1     0     0   501   502  0.000000000E+00  0.000000000E+00  4.053783520E+01  4.053783520E+01  0.000000000E+00  0.00000E+00  9.000E+00
      21    -1     0     0   512   503  0.000000000E+00  0.000000000E+00 -1.595844044E+02  1.595844044E+02  0.000000000E+00  0.00000E+00  9.000E+00
      25     1     1     2     0     0  8.253763915E+00  8.882923752E+00 -7.415185605E+01  1.458598081E+02  1.250182183E+02  0.00000E+00  9.000E+00
       5     1     1     2   501     0  1.111837859E-01  6.593288958E-02  1.503617336E+00  4.983981749E+00  4.750000000E+00  0.00000E+00  9.000E+00
      -5     1     1     2     0   503 -1.043941704E+00 -7.773330368E+00 -2.672048707E+01  2.824998069E+01  4.750000000E+00  0.00000E+00  9.000E+00
      21     1     1     2   512   502 -7.321005997E+00 -1.175526273E+00 -1.967784345E+01  2.102846912E+01  3.371747881E-07  0.00000E+00  9.000E+00
#rwgt            1           9   4.4858460931271344E-003           9     1206126           0
</event>
<event>
      6   9999  3.45752E-01  1.00550E+01 -1.00000E+00  1.86943E-01
      21    -1     0     0   501   502  0.000000000E+00  0.000000000E+00  1.030287990E+01  1.030287990E+01  0.000000000E+00  0.00000E+00  9.000E+00
      21    -1     0     0   511   503  0.000000000E+00  0.000000000E+00 -1.200443011E+03  1.200443011E+03  0.000000000E+00  0.00000E+00  9.000E+00
      25     1     1     2     0     0 -1.166905112E+01  2.740430142E+01 -9.410378807E+02  9.497706252E+02  1.249991408E+02  0.00000E+00  9.000E+00
       5     1     1     2   501     0 -9.641160759E-01  3.186930023E-01  3.559231452E+00  6.021769970E+00  4.750000000E+00  0.00000E+00  9.000E+00
      -5     1     1     2     0   503  1.522270995E+01 -1.800718915E+01 -1.792431991E+02  1.808498733E+02  4.750000000E+00  0.00000E+00  9.000E+00
      21     1     1     2   511   502 -2.589542755E+00 -9.715805269E+00 -7.341828282E+01  7.410362242E+01  9.536743164E-07  0.00000E+00  9.000E+00
#rwgt            1           9   3.5227626770586135E-002           9     1209272           0
</event>
<event>
      6   9999  3.45752E-01  6.62809E+00 -1.00000E+00  2.08207E-01
      21    -1     0     0   501   502  0.000000000E+00  0.000000000E+00  7.241603865E+00  7.241603865E+00  0.000000000E+00  0.00000E+00  9.000E+00
       1    -1     0     0   502     0  0.000000000E+00  0.000000000E+00 -2.024765912E+03  2.024765912E+03  0.000000000E+00  0.00000E+00  9.000E+00
      25     1     1     2     0     0  9.212229848E-01 -2.147112798E+00 -5.915786726E+02  6.046460714E+02  1.250043479E+02  0.00000E+00  9.000E+00
       5     1     1     2   501     0  2.351830776E-01 -6.444838530E-02 -1.184260035E+01  1.276201974E+01  4.750000000E+00  0.00000E+00  9.000E+00
      -5     1     1     2     0   503  5.430307184E+00  2.951001517E+00 -6.303336252E+01  6.351349413E+01  4.750000000E+00  0.00000E+00  9.000E+00
       1     1     1     2   503     0 -6.586713247E+00 -7.394403338E-01 -1.351069673E+03  1.351085931E+03  2.157918644E-05  0.00000E+00  9.000E+00
#rwgt            1           9   1.9872194025259864E-004           9     1212514           0
</event>
<event>
      6   9999  3.45752E-01  5.60028E+00 -1.00000E+00  2.18315E-01
      21    -1     0     0   511   502  0.000000000E+00  0.000000000E+00  1.768412309E+02  1.768412309E+02  0.000000000E+00  0.00000E+00  9.000E+00
      21    -1     0     0   502   503  0.000000000E+00  0.000000000E+00 -1.946360896E+02  1.946360896E+02  0.000000000E+00  0.00000E+00  9.000E+00
      25     1     1     2     0     0 -8.958079312E+00 -4.394194217E+00 -1.253474772E+02  1.773059604E+02  1.250034297E+02  0.00000E+00  9.000E+00
       5     1     1     2   501     0 -2.315941050E+00  4.008641185E-01  1.202579416E+01  1.314178452E+01  4.750000000E+00  0.00000E+00  9.000E+00
      -5     1     1     2     0   503  5.753992489E+00  4.937985225E+00 -4.222571538E+01  4.316324440E+01  4.750000000E+00  0.00000E+00  9.000E+00
      21     1     1     2   511   501  5.520027872E+00 -9.446551271E-01  1.377525397E+02  1.378663312E+02  1.907348633E-06  0.00000E+00  9.000E+00
#rwgt            1           9   11.860436716843550                9     1215472           0
</event>
<event>
      6   9999  3.45752E-01  5.35000E+01 -1.00000E+00  1.33234E-01
      21    -1     0     0   512   503  0.000000000E+00  0.000000000E+00  4.141370146E+02  4.141370146E+02  0.000000000E+00  0.00000E+00  9.000E+00
      21    -1     0     0   501   502  0.000000000E+00  0.000000000E+00 -9.327921930E+02  9.327921930E+02  0.000000000E+00  0.00000E+00  9.000E+00
      25     1     1     2     0     0  1.583802961E+02 -1.072186431E+01 -8.312540197E+02  8.554579981E+02  1.250034586E+02  0.00000E+00  9.000E+00
       5     1     1     2   501     0  7.248700752E-01  8.636013799E-01  2.102734460E+00  5.315565462E+00  4.750000000E+00  0.00000E+00  9.000E+00
      -5     1     1     2     0   503 -1.409029933E+02  6.016666802E+01 -1.708542596E+01  1.542340940E+02  4.750000000E+00  0.00000E+00  9.000E+00
      21     1     1     2   512   502 -1.820217283E+01 -5.030840510E+01  3.275815329E+02  3.319215501E+02  3.814697266E-06  0.00000E+00  9.000E+00
#rwgt            1           9   3.0038558993173521E-004           9     1219278           0
</event>
<event>
      6   9999  3.45752E-01  5.08691E+01 -1.00000E+00  1.34388E-01
      21    -1     0     0   511   502  0.000000000E+00  0.000000000E+00  9.329568400E+01  9.329568400E+01  0.000000000E+00  0.00000E+00  9.000E+00
      21    -1     0     0   502   503  0.000000000E+00  0.000000000E+00 -1.543424556E+03  1.543424556E+03  0.000000000E+00  0.00000E+00  9.000E+00
      25     1     1     2     0     0  2.345531700E+02  8.417124503E+01 -8.493858003E+02  8.939699306E+02  1.250040435E+02  0.00000E+00  9.000E+00
       5     1     1     2   501     0  1.331534616E+00  3.752217703E+00  2.899175576E+01  2.964686365E+01  4.750000000E+00  0.00000E+00  9.000E+00
      -5     1     1     2     0   503 -2.070565437E+02 -4.601158925E+01 -6.272662690E+02  6.621744584E+02  4.750000000E+00  0.00000E+00  9.000E+00
      21     1     1     2   511   501 -2.882816095E+01 -4.191187349E+01 -2.468558690E+00  5.092898767E+01  6.300918612E-07  0.00000E+00  9.000E+00
#rwgt            1           9   1.3037376447641919E-004           9     1221020           0
</event>
<event>
      6   9999  3.45752E-01  7.53796E+00 -1.00000E+00  2.01124E-01
      21    -1     0     0   501   502  0.000000000E+00  0.000000000E+00  2.850929901E+01  2.850929901E+01  0.000000000E+00  0.00000E+00  9.000E+00
      21    -1     0     0   512   503  0.000000000E+00  0.000000000E+00 -1.106344320E+03  1.106344320E+03  0.000000000E+00  0.00000E+00  9.000E+00
      25     1     1     2     0     0  1.262273113E+01 -4.537134745E+00 -9.354189456E+02  9.438288125E+02  1.249972181E+02  0.00000E+00  9.000E+00
       5     1     1     2   501     0 -4.251336992E+00  1.188294363E+00  2.359921862E+01  2.447389486E+01  4.750000000E+00  0.00000E+00  9.000E+00
      -5     1     1     2     0   503 -8.637914551E-01  2.673031233E+00 -8.778788848E+01  8.796116812E+01  4.750000000E+00  0.00000E+00  9.000E+00
      21     1     1     2   512   502 -7.507602680E+00  6.758091493E-01 -7.822740526E+01  7.858974329E+01  9.536743164E-07  0.00000E+00  9.000E+00
#rwgt            1           9   7.4841815547276695E-005           9     1222358           0
</event>
<event>
      6   9999  3.45752E-01  9.52251E+00 -1.00000E+00  1.89460E-01
       2    -1     0     0   501     0  0.000000000E+00  0.000000000E+00  4.105170693E+03  4.105170693E+03  0.000000000E+00  0.00000E+00  9.000E+00
      21    -1     0     0   502   503  0.000000000E+00  0.000000000E+00 -8.265019488E+01  8.265019488E+01  0.000000000E+00  0.00000E+00  9.000E+00
      25     1     1     2     0     0  9.190005159E+00 -1.664539925E+00 -2.878901945E+01  1.286175363E+02  1.250057444E+02  0.00000E+00  9.000E+00
       5     1     1     2   501     0  1.702913376E-01  1.849868713E-01  1.103714436E+00  4.883022101E+00  4.750000000E+00  0.00000E+00  9.000E+00
      -5     1     1     2     0   503 -1.856128048E+00  7.341777873E+00  7.685532248E+00  1.178884301E+01  4.750000000E+00  0.00000E+00  9.000E+00
       2     1     1     2   502     0 -7.504168448E+00 -5.862224819E+00  4.042520271E+03  4.042531486E+03  6.103515625E-05  0.00000E+00  9.000E+00
#rwgt            1           9   2.3883686039802446E-005           9     1226186           0
</event>
<event>
      6   9999  3.45752E-01  3.91542E+01 -1.00000E+00  1.40726E-01
      21    -1     0     0   502   511  0.000000000E+00  0.000000000E+00  4.656693947E+01  4.656693947E+01  0.000000000E+00  0.00000E+00  9.000E+00
      21    -1     0     0   501   502  0.000000000E+00  0.000000000E+00 -7.663737139E+02  7.663737139E+02  0.000000000E+00  0.00000E+00  9.000E+00
      25     1     1     2     0     0 -4.631001552E+00 -2.147038016E+01 -3.672097053E+02  3.885175361E+02  1.249819381E+02  0.00000E+00  9.000E+00
       5     1     1     2   501     0 -8.628594127E+00 -7.213744574E+00 -3.103861572E+02  3.106261738E+02  4.750000000E+00  0.00000E+00  9.000E+00
      -5     1     1     2     0   503 -5.704190542E-01 -7.946168465E+00 -6.687953670E+01  6.751964085E+01  4.750000000E+00  0.00000E+00  9.000E+00
      21     1     1     2   503   511  1.383001473E+01  3.663029320E+01  2.466862475E+01  4.627730259E+01  2.023048729E-06  0.00000E+00  9.000E+00
#rwgt            1           9   8.7181099611749382E-005           9     1228351           0
</event>
<event>
      6   9999  3.45752E-01  7.14099E+00 -1.00000E+00  2.04041E-01
      21    -1     0     0   501   512  0.000000000E+00  0.000000000E+00  2.045103722E+01  2.045103722E+01  0.000000000E+00  0.00000E+00  9.000E+00
      21    -1     0     0   502   503  0.000000000E+00  0.000000000E+00 -1.283023450E+03  1.283023450E+03  0.000000000E+00  0.00000E+00  9.000E+00
      25     1     1     2     0     0  6.789921788E+01  1.590152414E+01 -3.672816559E+02  3.941878599E+02  1.250003674E+02  0.00000E+00  9.000E+00
       5     1     1     2   501     0 -1.350341770E+00  2.827922989E-01  2.156414007E-01  4.950999454E+00  4.750000000E+00  0.00000E+00  9.000E+00
      -5     1     1     2     0   503 -6.987794293E+01 -9.866797398E+00 -8.943008898E+02  8.970935985E+02  4.750000000E+00  0.00000E+00  9.000E+00
      21     1     1     2   502   512  3.329066823E+00 -6.317519045E+00 -1.205508078E+00  7.242028896E+00  1.182743003E-07  0.00000E+00  9.000E+00
#rwgt            1           9   3.7616269478563130E-004           9     1229107           0
</event>
<event>
      6   9999  3.45752E-01  9.07504E+00 -1.00000E+00  1.91746E-01
      21    -1     0     0   501   502  0.000000000E+00  0.000000000E+00  5.363099822E+01  5.363099822E+01  0.000000000E+00  0.00000E+00  9.000E+00
      21    -1     0     0   511   503  0.000000000E+00  0.000000000E+00 -5.317203174E+02  5.317203174E+02  0.000000000E+00  0.00000E+00  9.000E+00
      25     1     1     2     0     0 -7.729735654E+00  2.930016246E+01 -1.917477021E+02  2.308925513E+02  1.250037624E+02  0.00000E+00  9.000E+00
       5     1     1     2   501     0  2.020836302E-01  5.831161873E-01  2.133587068E+01  2.186693257E+01  4.750000000E+00  0.00000E+00  9.000E+00
      -5     1     1     2     0   503  5.563929884E+00 -2.102324411E+01  2.393504558E+00  2.238806541E+01  4.750000000E+00  0.00000E+00  9.000E+00
      21     1     1     2   511   502  1.963722140E+00 -8.860034535E+00 -3.100709923E+02  3.102037664E+02  5.394796609E-06  0.00000E+00  9.000E+00
#rwgt            1           9   5.9312535233362127E-004           9     1232875           0
</event>
<event>
      6   9999  3.45752E-01  3.21731E+00 -1.00000E+00  2.69202E-01
      21    -1     0     0   512   502  0.000000000E+00  0.000000000E+00  2.295880386E+02  2.295880386E+02  0.000000000E+00  0.00000E+00  9.000E+00
      21    -1     0     0   502   503  0.000000000E+00  0.000000000E+00 -8.984015552E+02  8.984015552E+02  0.000000000E+00  0.00000E+00  9.000E+00
      25     1     1     2     0     0 -4.448482987E+00  3.669955827E+00 -8.518951781E+02  8.610361378E+02  1.249983143E+02  0.00000E+00  9.000E+00
       5     1     1     2   501     0  4.867434808E+00 -1.370186789E+00  9.019070301E+00  1.137872851E+01  4.750000000E+00  0.00000E+00  9.000E+00
      -5     1     1     2     0   503  2.746831868E+00 -1.726247396E+00 -4.054098966E+01  4.094703112E+01  4.750000000E+00  0.00000E+00  9.000E+00
      21     1     1     2   512   501 -3.165783690E+00 -5.735216427E-01  2.146035808E+02  2.146276963E+02  3.814697266E-06  0.00000E+00  9.000E+00
#rwgt            1           9   5.5711342187219717E-005           9     1235769           0
</event>
<event>
      6   9999  3.45752E-01  4.92885E+00 -1.00000E+00  2.30462E-01
      21    -1     0     0   501   511  0.000000000E+00  0.000000000E+00  4.426422468E+02  4.426422468E+02  0.000000000E+00  0.00000E+00  9.000E+00
      21    -1     0     0   502   503  0.000000000E+00  0.000000000E+00 -1.059988892E+03  1.059988892E+03  0.000000000E+00  0.00000E+00  9.000E+00
      25     1     1     2     0     0  8.606063866E+00  4.568273495E+00 -9.078634984E+02  9.164794520E+02  1.249940824E+02  0.00000E+00  9.000E+00
       5     1     1     2   501     0 -1.127208410E+00 -5.023528608E+00  1.976606948E+01  2.097060898E+01  4.750000000E+00  0.00000E+00  9.000E+00
      -5     1     1     2     0   503 -3.745393911E+00  3.673149467E+00 -1.471155548E+02  1.472856713E+02  4.750000000E+00  0.00000E+00  9.000E+00
      21     1     1     2   502   511 -3.733461545E+00 -3.217894353E+00  4.178663387E+02  4.178954063E+02  5.394796609E-06  0.00000E+00  9.000E+00
#rwgt            1           9   1.1248559803291523E-004           9     1242023           0
</event>
<event>
      6   9999  3.45752E-01  5.31523E+00 -1.00000E+00  2.21661E-01
      21    -1     0     0   501   512  0.000000000E+00  0.000000000E+00  1.011231322E+02  1.011231322E+02  0.000000000E+00  0.00000E+00  9.000E+00
      21    -1     0     0   502   503  0.000000000E+00  0.000000000E+00 -7.826414560E+02  7.826414560E+02  0.000000000E+00  0.00000E+00  9.000E+00
      25     1     1     2     0     0  4.864322415E+00  4.107614609E+00 -7.310575228E+02  7.416955929E+02  1.250068667E+02  0.00000E+00  9.000E+00
       5     1     1     2   501     0  4.388997472E-01  9.539103328E-02 -8.180895557E+00  9.470548271E+00  4.750000000E+00  0.00000E+00  9.000E+00
      -5     1     1     2     0   503 -2.371428223E+00  2.305274813E-01 -3.717586331E+01  3.755374985E+01  4.750000000E+00  0.00000E+00  9.000E+00
      21     1     1     2   502   512 -2.931793939E+00 -4.433533123E+00  9.489595789E+01  9.504469715E+01  2.697398305E-06  0.00000E+00  9.000E+00
#rwgt            1           9   3.0026447459191908E-002           9     1247412           0
</event>
<event>
      6   9999  3.45752E-01  1.55591E+01 -1.00000E+00  1.69005E-01
      21    -1     0     0   501   502  0.000000000E+00  0.000000000E+00  8.191577679E+00  8.191577679E+00  0.000000000E+00  0.00000E+00  9.000E+00
      21    -1     0     0   502   511  0.000000000E+00  0.000000000E+00 -1.715411102E+03  1.715411102E+03  0.000000000E+00  0.00000E+00  9.000E+00
      25     1     1     2     0     0  3.040140066E+00  2.179714496E+01 -1.167674547E+03  1.174552357E+03  1.250001304E+02  0.00000E+00  9.000E+00
       5     1     1     2   501     0 -2.444873387E+00  1.370273057E+00 -2.574243500E+00  6.086401542E+00  4.750000000E+00  0.00000E+00  9.000E+00
      -5     1     1     2     0   503 -1.389945601E+01 -1.509992383E+01 -3.570048299E+01  4.145225642E+01  4.750000000E+00  0.00000E+00  9.000E+00
      21     1     1     2   503   511  1.330418933E+01 -8.067494187E+00 -5.012702508E+02  5.015116651E+02  5.394796609E-06  0.00000E+00  9.000E+00
#rwgt            1           9  0.11559804245150446                9     1250825           0
</event>
<event>
      6   9999  3.45752E-01  3.82653E+00 -1.00000E+00  2.51904E-01
      21    -1     0     0   501   502  0.000000000E+00  0.000000000E+00  3.131191375E+01  3.131191375E+01  0.000000000E+00  0.00000E+00  9.000E+00
      21    -1     0     0   502   512  0.000000000E+00  0.000000000E+00 -1.469316347E+03  1.469316347E+03  0.000000000E+00  0.00000E+00  9.000E+00
      25     1     1     2     0     0 -7.726680034E+00 -4.806468862E+00 -9.591219500E+02  9.672750791E+02  1.249934396E+02  0.00000E+00  9.000E+00
       5     1     1     2   501     0  3.917077215E-01  1.207422998E+00  2.670402047E+01  2.715287304E+01  4.750000000E+00  0.00000E+00  9.000E+00
      -5     1     1     2     0   503  6.507344036E+00  7.335004158E+00 -9.932734438E+01  9.992312872E+01  4.750000000E+00  0.00000E+00  9.000E+00
      21     1     1     2   503   512  8.276282767E-01 -3.735958293E+00 -4.062591597E+02  4.062771803E+02  0.000000000E+00  0.00000E+00  9.000E+00
#rwgt            1           9   6.9472967101316414E-004           9     1253472           0
</event>
<event>
      6   9999 -3.45752E-01  1.06869E+02 -1.00000E+00  1.19222E-01
       2    -1     0     0   501     0  0.000000000E+00  0.000000000E+00  1.605288093E+03  1.605288093E+03  0.000000000E+00  0.00000E+00  9.000E+00
      21    -1     0     0   502   503  0.000000000E+00  0.000000000E+00 -1.571607823E+03  1.571607823E+03  0.000000000E+00  0.00000E+00  9.000E+00
      25     1     1     2     0     0 -1.810657366E+02  6.374824037E+01 -1.394494416E+03  1.413185523E+03  1.250200252E+02  0.00000E+00  9.000E+00
       5     1     1     2   501     0 -3.289057361E+01 -1.622648117E+01  3.874310156E+01  5.356004987E+01  4.750000000E+00  0.00000E+00  9.000E+00
      -5     1     1     2     0   503  1.182332217E+02 -9.504139850E+01 -1.221345005E+02  1.948110902E+02  4.750000000E+00  0.00000E+00  9.000E+00
       2     1     1     2   502     0  9.572308856E+01  4.751963930E+01  1.511566085E+03  1.515339254E+03  0.000000000E+00  0.00000E+00  9.000E+00
#rwgt            1           9  -5.9805584285891589E-005           9     1259761           0
</event>
<event>
      6   9999  3.45752E-01  1.45785E+01 -1.00000E+00  1.71451E-01
      21    -1     0     0   501   502  0.000000000E+00  0.000000000E+00  5.098738136E+02  5.098738136E+02  0.000000000E+00  0.00000E+00  9.000E+00
       2    -1     0     0   502     0  0.000000000E+00  0.000000000E+00 -1.538801038E+03  1.538801038E+03  0.000000000E+00  0.00000E+00  9.000E+00
      25     1     1     2     0     0  1.309565316E+01  9.097868890E+00  3.288595246E+02  3.521757334E+02  1.249995717E+02  0.00000E+00  9.000E+00
       5     1     1     2   501     0  9.453707655E-01  2.261857687E+00  1.274557242E+02  1.275677618E+02  4.750000000E+00  0.00000E+00  9.000E+00
      -5     1     1     2     0   503 -3.843053447E+00 -9.418042046E-01  4.158111556E+01  4.203816988E+01  4.750000000E+00  0.00000E+00  9.000E+00
       2     1     1     2   503     0 -1.019797048E+01 -1.041792237E+01 -1.526823589E+03  1.526893187E+03  2.157918644E-05  0.00000E+00  9.000E+00
#rwgt            1           9   6.8334735593272251E-006           9     1260555           0
</event>
<event>
      6   9999  3.45752E-01  2.68325E+01 -1.00000E+00  1.51043E-01
      21    -1     0     0   511   502  0.000000000E+00  0.000000000E+00  1.618470007E+02  1.618470007E+02  0.000000000E+00  0.00000E+00  9.000E+00
      21    -1     0     0   502   503  0.000000000E+00  0.000000000E+00 -1.435036245E+03  1.435036245E+03  0.000000000E+00  0.00000E+00  9.000E+00
      25     1     1     2     0     0 -4.578373529E+00 -2.708892202E+01 -1.100196310E+03  1.107615389E+03  1.250006356E+02  0.00000E+00  9.000E+00
       5     1     1     2   501     0 -1.730854293E+01 -1.920602610E+01  1.044359883E+02  1.076935246E+02  4.750000000E+00  0.00000E+00  9.000E+00
      -5     1     1     2     0   503 -4.467211888E+00  4.125097291E+01 -3.246161318E+02  3.272916044E+02  4.750000000E+00  0.00000E+00  9.000E+00
      21     1     1     2   511   501  2.635412834E+01  5.043975218E+00  4.718720932E+01  5.428272737E+01  2.861022949E-06  0.00000E+00  9.000E+00
#rwgt            1           9   9.7470853235294853E-004           9     1261926           0
</event>
<event>
      6   9999  3.45752E-01  1.25915E+01 -1.00000E+00  1.77234E-01
      21    -1     0     0   502   503  0.000000000E+00  0.000000000E+00  3.884633074E+00  3.884633074E+00  0.000000000E+00  0.00000E+00  9.000E+00
      21    -1     0     0   501   512  0.000000000E+00  0.000000000E+00 -2.425513606E+03  2.425513606E+03  0.000000000E+00  0.00000E+00  9.000E+00
      25     1     1     2     0     0 -2.967332733E+00 -2.344480776E+01 -1.133907930E+03  1.141022056E+03  1.250026924E+02  0.00000E+00  9.000E+00
       5     1     1     2   501     0 -1.103333136E+01  5.507533864E+00 -5.600043034E+02  5.601602000E+02  4.750000000E+00  0.00000E+00  9.000E+00
      -5     1     1     2     0   503  6.022894244E+00  8.195596417E+00 -5.179829223E+02  5.181045390E+02  4.750000000E+00  0.00000E+00  9.000E+00
      21     1     1     2   502   512  7.977769845E+00  9.741677483E+00 -2.097338172E+02  2.101114446E+02  2.697398305E-06  0.00000E+00  9.000E+00
#rwgt            1           9   2.0792348776684313E-002           9     1264420           0
</event>
<event>
      6   9999  3.45752E-01  1.22586E+01 -1.00000E+00  1.78335E-01
      21    -1     0     0   511   502  0.000000000E+00  0.000000000E+00  3.010723942E+00  3.010723942E+00  0.000000000E+00  0.00000E+00  9.000E+00
      21    -1     0     0   502   503  0.000000000E+00  0.000000000E+00 -5.607966485E+03  5.607966485E+03  0.000000000E+00  0.00000E+00  9.000E+00
      25     1     1     2     0     0 -2.005497179E+01  4.459348734E+01 -2.338562621E+03  2.342411380E+03  1.250006358E+02  0.00000E+00  9.000E+00
       5     1     1     2   501     0  1.066456651E+00 -1.286240023E+00 -9.945647832E+00  1.114765240E+01  4.750000000E+00  0.00000E+00  9.000E+00
      -5     1     1     2     0   503  2.123762903E+01 -5.535771312E+01 -3.065806334E+03  3.066383301E+03  4.750000000E+00  0.00000E+00  9.000E+00
      21     1     1     2   511   501 -2.249113898E+00  1.205046580E+01 -1.906411588E+02  1.910348756E+02  2.697398305E-06  0.00000E+00  9.000E+00
#rwgt            1           9   2.7870231605617611E-004           9     1266709           0
</event>
<event>
      6   9999  3.45752E-01  6.04650E+00 -1.00000E+00  2.13592E-01
      21    -1     0     0   512   502  0.000000000E+00  0.000000000E+00  1.596001019E+02  1.596001019E+02  0.000000000E+00  0.00000E+00  9.000E+00
      21    -1     0     0   502   503  0.000000000E+00  0.000000000E+00 -1.589908850E+03  1.589908850E+03  0.000000000E+00  0.00000E+00  9.000E+00
      25     1     1     2     0     0  6.634347778E+01  7.385378185E+01 -6.739243835E+02  6.925673706E+02  1.249785977E+02  0.00000E+00  9.000E+00
       5     1     1     2   501     0 -1.716145114E+01  1.074582601E+01  9.174083277E+01  9.406875718E+01  4.750000000E+00  0.00000E+00  9.000E+00
      -5     1     1     2     0   503 -4.951170080E+01 -7.856209879E+01 -9.029452738E+02  9.077202993E+02  4.750000000E+00  0.00000E+00  9.000E+00
      21     1     1     2   512   501  3.296741555E-01 -6.037509072E+00  5.482007647E+01  5.515252474E+01  6.743495762E-07  0.00000E+00  9.000E+00
#rwgt            1           9   2.7903495297764520E-004           9     1269115           0
</event>
<event>
      6   9999  3.45752E-01  8.81282E+00 -1.00000E+00  1.93167E-01
      21    -1     0     0   501   511  0.000000000E+00  0.000000000E+00  8.330934468E+00  8.330934468E+00  0.000000000E+00  0.00000E+00  9.000E+00
      21    -1     0     0   502   503  0.000000000E+00  0.000000000E+00 -1.015988877E+03  1.015988877E+03  0.000000000E+00  0.00000E+00  9.000E+00
      25     1     1     2     0     0  6.833589183E+00 -3.251135620E-01 -8.998616040E+02  9.085283891E+02  1.250044953E+02  0.00000E+00  9.000E+00
       5     1     1     2   501     0 -6.276756485E-02 -2.235058980E-01  1.897141721E-01  4.759452292E+00  4.750000000E+00  0.00000E+00  9.000E+00
      -5     1     1     2     0   503 -1.536966285E+01  2.478815954E+00 -8.177111618E+01  8.337535011E+01  4.750000000E+00  0.00000E+00  9.000E+00
      21     1     1     2   502   511  8.598841237E+00 -1.930196494E+00 -2.621493641E+01  2.765661982E+01  3.371747881E-07  0.00000E+00  9.000E+00
#rwgt            1           9   8.2826098388125748E-003           9     1275338           0
</event>
<event>
      6   9999  3.45752E-01  3.40846E+00 -1.00000E+00  2.63173E-01
      21    -1     0     0   512   502  0.000000000E+00  0.000000000E+00  1.808439298E+01  1.808439298E+01  0.000000000E+00  0.00000E+00  9.000E+00
      21    -1     0     0   502   503  0.000000000E+00  0.000000000E+00 -8.258107947E+02  8.258107947E+02  0.000000000E+00  0.00000E+00  9.000E+00
      25     1     1     2     0     0 -1.381250586E-01  7.754067660E+00 -6.746210702E+02  6.861470027E+02  1.249959051E+02  0.00000E+00  9.000E+00
       5     1     1     2   501     0 -9.574657163E-01 -2.209854156E+00  4.463949545E+00  6.949067673E+00  4.750000000E+00  0.00000E+00  9.000E+00
      -5     1     1     2     0   503 -2.081114172E+00 -6.779585365E+00 -1.436098373E+02  1.438632743E+02  4.750000000E+00  0.00000E+00  9.000E+00
      21     1     1     2   512   501  3.176704947E+00  1.235371860E+00  6.040556280E+00  6.935843000E+00  6.364034565E-07  0.00000E+00  9.000E+00
#rwgt            1           9   6.5811525313975942E-003           9     1278100           0
</event>
<event>
      6   9999  3.45752E-01  7.28292E+00 -1.00000E+00  2.02970E-01
      21    -1     0     0   511   502  0.000000000E+00  0.000000000E+00  2.281319400E+01  2.281319400E+01  0.000000000E+00  0.00000E+00  9.000E+00
      21    -1     0     0   502   503  0.000000000E+00  0.000000000E+00 -3.781110463E+02  3.781110463E+02  0.000000000E+00  0.00000E+00  9.000E+00
      25     1     1     2     0     0 -2.653270472E+01  2.668106107E+01 -3.052770673E+02  3.320192577E+02  1.250073446E+02  0.00000E+00  9.000E+00
       5     1     1     2   501     0  1.911618114E+01 -2.472418182E+01 -3.621956857E+01  4.807424670E+01  4.750000000E+00  0.00000E+00  9.000E+00
      -5     1     1     2     0   503  1.928269046E-01 -1.030010855E+00 -1.252561738E+01  1.343695261E+01  4.750000000E+00  0.00000E+00  9.000E+00
      21     1     1     2   511   501  7.223696675E+00 -9.268683952E-01 -1.275599037E+00  7.393783306E+00  1.064155762E-07  0.00000E+00  9.000E+00
#rwgt            1           9  0.73913739367680875                9     1283453           0
</event>
<event>
      6   9999  3.45752E-01  1.87065E+01 -1.00000E+00  1.62459E-01
      21    -1     0     0   512   503  0.000000000E+00  0.000000000E+00  7.059568400E+00  7.059568400E+00  0.000000000E+00  0.00000E+00  9.000E+00
      21    -1     0     0   501   502  0.000000000E+00  0.000000000E+00 -1.093943418E+03  1.093943418E+03  0.000000000E+00  0.00000E+00  9.000E+00
      25     1     1     2     0     0  8.031958248E+00 -1.506225217E+01 -9.789994954E+02  9.870950804E+02  1.250012081E+02  0.00000E+00  9.000E+00
       5     1     1     2   501     0 -8.013257796E+00 -2.832956048E+00 -3.899541756E+01  4.019257433E+01  4.750000000E+00  0.00000E+00  9.000E+00
      -5     1     1     2     0   503 -5.650099192E+00  5.650841196E-02 -2.316926014E+01  2.431674175E+01  4.750000000E+00  0.00000E+00  9.000E+00
      21     1     1     2   512   502  5.631398740E+00  1.783869980E+01 -4.571967635E+01  4.939858973E+01  6.743495762E-07  0.00000E+00  9.000E+00
#rwgt            1           9   932.71823094521824                9     1286608           0
</event>
<event>
      6   9999  3.45752E-01  1.05983E+01 -1.00000E+00  1.84574E-01
      21    -1     0     0   501   502  0.000000000E+00  0.000000000E+00  1.497648023E+01  1.497648023E+01  0.000000000E+00  0.00000E+00  9.000E+00
      21    -1     0     0   511   503  0.000000000E+00  0.000000000E+00 -1.005394936E+03  1.005394936E+03  0.000000000E+00  0.00000E+00  9.000E+00
      25     1     1     2     0     0  1.530769278E+01 -5.192287796E+00 -3.396005732E+02  3.622356989E+02  1.249994676E+02  0.00000E+00  9.000E+00
       5     1     1     2   501     0 -1.529895950E+00  5.627119486E-02  1.260978275E+00  5.147457069E+00  4.750000000E+00  0.00000E+00  9.000E+00
      -5     1     1     2     0   503 -2.020369516E+01 -3.291957921E+00 -5.401901141E+02  5.405986942E+02  4.750000000E+00  0.00000E+00  9.000E+00
      21     1     1     2   511   502  6.425898329E+00  8.427974522E+00 -1.118887468E+02  1.123895661E+02  1.348699152E-06  0.00000E+00  9.000E+00
#rwgt            1           9   3.7980095815872371E-004           9     1287777           0
</event>
<event>
      6   9999  3.45752E-01  2.03949E+01 -1.00000E+00  1.59565E-01
      21    -1     0     0   512   502  0.000000000E+00  0.000000000E+00  5.435409565E+02  5.435409565E+02  0.000000000E+00  0.00000E+00  9.000E+00
      21    -1     0     0   502   503  0.000000000E+00  0.000000000E+00 -2.236886664E+01  2.236886664E+01  0.000000000E+00  0.00000E+00  9.000E+00
      25     1     1     2     0     0 -1.164670115E+01 -9.952603200E+00  1.680382771E+02  2.099932264E+02  1.250023704E+02  0.00000E+00  9.000E+00
       5     1     1     2   501     0 -1.736425552E+00 -6.005150542E+00  2.020847645E+02  2.022372160E+02  4.750000000E+00  0.00000E+00  9.000E+00
      -5     1     1     2     0   503  6.598724720E-01  1.815878307E-02  9.231453824E+00  1.040278814E+01  4.750000000E+00  0.00000E+00  9.000E+00
      21     1     1     2   512   501  1.272325423E+01  1.593959496E+01  1.418175945E+02  1.432765927E+02  1.907348633E-06  0.00000E+00  9.000E+00
#rwgt            1           9   8.2002416450964726E-004           9     1290334           0
</event>
<event>
      6   9999  3.45752E-01  6.57750E+00 -1.00000E+00  2.08646E-01
      21    -1     0     0   501   511  0.000000000E+00  0.000000000E+00  8.152868233E+01  8.152868233E+01  0.000000000E+00  0.00000E+00  9.000E+00
      21    -1     0     0   502   503  0.000000000E+00  0.000000000E+00 -1.566732335E+03  1.566732335E+03  0.000000000E+00  0.00000E+00  9.000E+00
      25     1     1     2     0     0  4.922325694E+00 -1.410373268E+01 -2.045944364E+02  2.402244870E+02  1.250031047E+02  0.00000E+00  9.000E+00
       5     1     1     2   501     0  1.033513851E+01  5.481246407E+00  6.095245678E+01  6.224647490E+01  4.750000000E+00  0.00000E+00  9.000E+00
      -5     1     1     2     0   503 -2.000314640E+01  4.068141829E+00 -1.338271411E+03  1.338435507E+03  4.750000000E+00  0.00000E+00  9.000E+00
      21     1     1     2   502   511  4.745682192E+00  4.554344442E+00 -3.290262205E+00  7.354548127E+00  1.115100797E-07  0.00000E+00  9.000E+00
#rwgt            1           9   2.2369349204972556E-003           9     1292259           0
</event>
<event>
      6   9999  3.45752E-01  9.64498E+00 -1.00000E+00  1.88863E-01
      21    -1     0     0   501   502  0.000000000E+00  0.000000000E+00  9.960314435E+01  9.960314435E+01  0.000000000E+00  0.00000E+00  9.000E+00
      21    -1     0     0   502   512  0.000000000E+00  0.000000000E+00 -1.301014197E+02  1.301014197E+02  0.000000000E+00  0.00000E+00  9.000E+00
      25     1     1     2     0     0 -1.124424645E+01  2.894910500E+01 -3.882084882E+01  1.345158112E+02  1.249918454E+02  0.00000E+00  9.000E+00
       5     1     1     2   501     0  1.503961101E+00 -1.090866583E+00  3.779726857E+01  3.813984662E+01  4.750000000E+00  0.00000E+00  9.000E+00
      -5     1     1     2     0   503  1.011984004E+01 -3.749574917E+01 -2.486294844E+01  4.635807452E+01  4.750000000E+00  0.00000E+00  9.000E+00
      21     1     1     2   503   512 -3.795546904E-01  9.637510754E+00 -4.611746673E+00  1.069083171E+01  1.976862425E-07  0.00000E+00  9.000E+00
#rwgt            1           9   28.283458142418691                9     1299404           0
</event>
<event>
      6   9999  3.45752E-01  5.59085E+00 -1.00000E+00  2.18422E-01
      21    -1     0     0   501   502  0.000000000E+00  0.000000000E+00  7.948751106E+00  7.948751106E+00  0.000000000E+00  0.00000E+00  9.000E+00
      21    -1     0     0   502   511  0.000000000E+00  0.000000000E+00 -9.706320302E+02  9.706320302E+02  0.000000000E+00  0.00000E+00  9.000E+00
      25     1     1     2     0     0  7.131258402E-02 -9.086606351E+00 -6.884839685E+02  6.997973760E+02  1.249944843E+02  0.00000E+00  9.000E+00
       5     1     1     2   501     0 -1.134524731E+00  7.385222225E-01 -1.125297648E+00  5.065703923E+00  4.750000000E+00  0.00000E+00  9.000E+00
      -5     1     1     2     0   503 -3.479137506E+00  1.160763552E+01 -1.740412552E+02  1.745272546E+02  4.750000000E+00  0.00000E+00  9.000E+00
      21     1     1     2   503   511  4.542349653E+00 -3.259551390E+00 -9.903275770E+01  9.919044669E+01  1.348699152E-06  0.00000E+00  9.000E+00
#rwgt            1           9  0.34206454534903630                9     1302110           0
</event>
<event>
      6   9999 -3.45752E-01  7.92645E+00 -1.00000E+00  1.98491E-01
      21    -1     0     0   512   502  0.000000000E+00  0.000000000E+00  7.504516585E+01  7.504516585E+01  0.000000000E+00  0.00000E+00  9.000E+00
      21    -1     0     0   502   503  0.000000000E+00  0.000000000E+00 -8.855190177E+02  8.855190177E+02  0.000000000E+00  0.00000E+00  9.000E+00
      25     1     1     2     0     0 -1.831128523E+01 -2.648904838E+00 -7.342578987E+02  7.450533179E+02  1.250098587E+02  0.00000E+00  9.000E+00
       5     1     1     2   501     0 -4.555520915E+00 -3.636488743E+00  1.212116203E+01  1.426400681E+01  4.750000000E+00  0.00000E+00  9.000E+00
      -5     1     1     2     0   503  1.665627491E+01  1.360166083E+00 -1.439889836E+02  1.450333460E+02  4.750000000E+00  0.00000E+00  9.000E+00
      21     1     1     2   512   501  6.210531233E+00  4.925227498E+00  5.565186847E+01  5.621351287E+01  9.536743164E-07  0.00000E+00  9.000E+00
#rwgt            1           9  -37.782874721406003                9     1305657           0
</event>
<event>
      6   9999  3.45752E-01  1.06860E+01 -1.00000E+00  1.84209E-01
      21    -1     0     0   501   502  0.000000000E+00  0.000000000E+00  8.451817375E+00  8.451817375E+00  0.000000000E+00  0.00000E+00  9.000E+00
      21    -1     0     0   502   511  0.000000000E+00  0.000000000E+00 -1.459183060E+03  1.459183060E+03  0.000000000E+00  0.00000E+00  9.000E+00
      25     1     1     2     0     0  7.999239617E+00  1.127783782E+00 -6.040040340E+02  6.168419041E+02  1.249311886E+02  0.00000E+00  9.000E+00
       5     1     1     2   501     0  3.845918654E-01  2.322744581E-01 -1.201861609E+00  4.920247316E+00  4.750000000E+00  0.00000E+00  9.000E+00
      -5     1     1     2     0   503  2.221751092E+00 -2.668390335E+00 -6.293816591E+01  6.321259141E+01  4.750000000E+00  0.00000E+00  9.000E+00
      21     1     1     2   503   511 -1.060558257E+01  1.308332094E+00 -7.825871811E+02  7.826601345E+02  1.078959322E-05  0.00000E+00  9.000E+00
#rwgt            1           9   1.4447169852654346E-002           9     1309333           0
</event>
<event>
      6   9999  3.45752E-01  1.42721E+01 -1.00000E+00  1.72265E-01
      21    -1     0     0   501   512  0.000000000E+00  0.000000000E+00  1.409469814E+01  1.409469814E+01  0.000000000E+00  0.00000E+00  9.000E+00
      21    -1     0     0   502   503  0.000000000E+00  0.000000000E+00 -8.218062599E+02  8.218062599E+02  0.000000000E+00  0.00000E+00  9.000E+00
      25     1     1     2     0     0  3.449789939E+01 -3.039290296E+01 -5.088583330E+02  5.259991604E+02  1.249979205E+02  0.00000E+00  9.000E+00
       5     1     1     2   501     0  4.506926869E-01 -2.064607079E+00 -6.000061729E-02  5.199214014E+00  4.750000000E+00  0.00000E+00  9.000E+00
      -5     1     1     2     0   503 -3.807922092E+01  1.853297119E+01 -2.577390344E+02  2.612383403E+02  4.750000000E+00  0.00000E+00  9.000E+00
      21     1     1     2   502   512  3.130628837E+00  1.392453885E+01 -4.105419377E+01  4.346424330E+01  0.000000000E+00  0.00000E+00  9.000E+00
#rwgt            1           9   1.1365429493851587E-003           9     1311480           0
</event>
<event>
      6   9999  3.45752E-01  1.33061E+01 -1.00000E+00  1.75009E-01
      21    -1     0     0   501   511  0.000000000E+00  0.000000000E+00  1.524892741E+02  1.524892741E+02  0.000000000E+00  0.00000E+00  9.000E+00
      21    -1     0     0   502   503  0.000000000E+00  0.000000000E+00 -5.453548092E+02  5.453548092E+02  0.000000000E+00  0.00000E+00  9.000E+00
      25     1     1     2     0     0  1.266252741E+01  1.100386076E+01 -3.499885473E+02  3.720191447E+02  1.249993448E+02  0.00000E+00  9.000E+00
       5     1     1     2   501     0  2.237843204E-01  1.371747793E+00 -1.598234837E+00  5.200829359E+00  4.750000000E+00  0.00000E+00  9.000E+00
      -5     1     1     2     0   503 -6.356651992E+00 -7.818752928E-01 -1.805463311E+02  1.807223243E+02  4.750000000E+00  0.00000E+00  9.000E+00
      21     1     1     2   502   511 -6.529659738E+00 -1.159373326E+01  1.392675781E+02  1.399017849E+02  3.303624740E-06  0.00000E+00  9.000E+00
#rwgt            1           9   3.2917282194225980E-003           9     1313534           0
</event>
<event>
      6   9999  3.45752E-01  1.85275E+01 -1.00000E+00  1.62788E-01
      21    -1     0     0   501   502  0.000000000E+00  0.000000000E+00  2.849193451E+01  2.849193451E+01  0.000000000E+00  0.00000E+00  9.000E+00
      21    -1     0     0   502   512  0.000000000E+00  0.000000000E+00 -8.780178568E+02  8.780178568E+02  0.000000000E+00  0.00000E+00  9.000E+00
      25     1     1     2     0     0 -9.020288009E+00 -1.320216993E+01 -7.168670554E+02  7.278595931E+02  1.250021972E+02  0.00000E+00  9.000E+00
       5     1     1     2   501     0 -2.680982752E-01 -4.446125635E+00  2.159753565E+01  2.255783580E+01  4.750000000E+00  0.00000E+00  9.000E+00
      -5     1     1     2     0   503 -8.461260287E-01  2.138359205E+00 -2.963137212E+01  3.009766143E+01  4.750000000E+00  0.00000E+00  9.000E+00
      21     1     1     2   503   512  1.013451231E+01  1.550993636E+01 -1.246250304E+02  1.259947010E+02  1.907348633E-06  0.00000E+00  9.000E+00
#rwgt            1           9   1.8425277632022781E-003           9     1315132           0
</event>
<event>
      6   9999  3.45752E-01  9.35378E+00 -1.00000E+00  1.90302E-01
      21    -1     0     0   501   511  0.000000000E+00  0.000000000E+00  3.235875224E+02  3.235875224E+02  0.000000000E+00  0.00000E+00  9.000E+00
      21    -1     0     0   502   503  0.000000000E+00  0.000000000E+00 -6.449196014E+02  6.449196014E+02  0.000000000E+00  0.00000E+00  9.000E+00
      25     1     1     2     0     0 -2.228725318E+00 -6.216322421E-01 -6.243267969E+02  6.367201757E+02  1.249931165E+02  0.00000E+00  9.000E+00
       5     1     1     2   501     0 -2.370784690E+00 -1.021522390E+01  3.791373738E+01  3.962304129E+01  4.750000000E+00  0.00000E+00  9.000E+00
      -5     1     1     2     0   503 -2.158946816E+00  4.370287516E+00 -1.260250638E+01  1.432292328E+01  4.750000000E+00  0.00000E+00  9.000E+00
      21     1     1     2   502   511  6.758456823E+00  6.466568626E+00  2.776834869E+02  2.778409835E+02  0.000000000E+00  0.00000E+00  9.000E+00
#rwgt            1           9   5.0348048412460550E-003           9     1317150           0
</event>
<event>
      6   9999 -3.45752E-01  7.53623E+00 -1.00000E+00  2.01136E-01
       2    -1     0     0   501     0  0.000000000E+00  0.000000000E+00  1.900305938E+02  1.900305938E+02  0.000000000E+00  0.00000E+00  9.000E+00
      21    -1     0     0   502   503  0.000000000E+00  0.000000000E+00 -2.097028740E+03  2.097028740E+03  0.000000000E+00  0.00000E+00  9.000E+00
      25     1     1     2     0     0 -4.027894296E+00 -1.361837631E+01 -1.911913112E+03  1.916047516E+03  1.249986035E+02  0.00000E+00  9.000E+00
       5     1     1     2   501     0  1.007564860E-01 -1.819518329E-01 -2.474434256E+01  2.519698885E+01  4.750000000E+00  0.00000E+00  9.000E+00
      -5     1     1     2     0   503  1.518417254E+00  6.659403885E+00 -1.578925680E+02  1.581116023E+02  4.750000000E+00  0.00000E+00  9.000E+00
       2     1     1     2   502     0  2.408720556E+00  7.140924257E+00  1.875518768E+02  1.877032264E+02  0.000000000E+00  0.00000E+00  9.000E+00
#rwgt            1           9  -2.7354627287182523E-004           9     1320520           0
</event>
<event>
      6   9999  3.45752E-01  3.89799E+00 -1.00000E+00  2.50195E-01
      21    -1     0     0   501   502  0.000000000E+00  0.000000000E+00  2.519381688E+01  2.519381688E+01  0.000000000E+00  0.00000E+00  9.000E+00
      21    -1     0     0   511   503  0.000000000E+00  0.000000000E+00 -1.791828103E+03  1.791828103E+03  0.000000000E+00  0.00000E+00  9.000E+00
      25     1     1     2     0     0  1.450048413E+02 -1.304346162E+01 -5.695537869E+02  6.010103781E+02  1.250016902E+02  0.00000E+00  9.000E+00
       5     1     1     2   501     0  2.153013531E+00 -1.119092162E+00  3.385842389E+00  6.317773596E+00  4.750000000E+00  0.00000E+00  9.000E+00
      -5     1     1     2     0   503 -1.444765245E+02  1.133327355E+01 -1.156315837E+03  1.165371523E+03  4.750000000E+00  0.00000E+00  9.000E+00
      21     1     1     2   511   502 -2.681330326E+00  2.829280229E+00 -4.415050398E+01  4.432224454E+01  6.743495762E-07  0.00000E+00  9.000E+00
#rwgt            1           9   8.0029462082088117E-003           9     1323189           0
</event>
<event>
      6   9999  3.45752E-01  9.12687E+00 -1.00000E+00  1.91472E-01
      21    -1     0     0   501   502  0.000000000E+00  0.000000000E+00  1.450364106E+01  1.450364106E+01  0.000000000E+00  0.00000E+00  9.000E+00
      21    -1     0     0   502   512  0.000000000E+00  0.000000000E+00 -8.503238393E+02  8.503238393E+02  0.000000000E+00  0.00000E+00  9.000E+00
      25     1     1     2     0     0 -1.473387465E+00  1.142928603E+01 -7.748175733E+02  7.849197748E+02  1.249959263E+02  0.00000E+00  9.000E+00
       5     1     1     2   501     0  1.240332104E+00 -3.054964554E-01  8.015676863E+00  9.404537595E+00  4.750000000E+00  0.00000E+00  9.000E+00
      -5     1     1     2     0   503  9.720178488E-01 -2.026883392E+00 -2.387652772E+01  2.444798869E+01  4.750000000E+00  0.00000E+00  9.000E+00
      21     1     1     2   503   512 -7.389624874E-01 -9.096906181E+00 -4.514177404E+01  4.605517920E+01  6.743495762E-07  0.00000E+00  9.000E+00
#rwgt            1           9   7.3443296148298894E-003           9     1329820           0
</event>
<event>
      6   9999  3.45752E-01  3.43617E+00 -1.00000E+00  2.62350E-01
      21    -1     0     0   501   502  0.000000000E+00  0.000000000E+00  5.098909280E+01  5.098909280E+01  0.000000000E+00  0.00000E+00  9.000E+00
      -3    -1     0     0     0   503  0.000000000E+00  0.000000000E+00 -1.687173129E+03  1.687173129E+03  0.000000000E+00  0.00000E+00  9.000E+00
      25     1     1     2     0     0  8.305581541E+00  1.986585809E+01 -1.447528678E+03  1.453075273E+03  1.249993594E+02  0.00000E+00  9.000E+00
       5     1     1     2   501     0 -7.818663429E+00 -3.998667192E+00  4.619654144E+01  4.726313340E+01  4.750000000E+00  0.00000E+00  9.000E+00
      -5     1     1     2     0   503  8.913879541E-01 -1.901481412E+01 -6.405290145E+01  6.699025611E+01  4.750000000E+00  0.00000E+00  9.000E+00
      -3     1     1     2     0   502 -1.378306066E+00  3.147623220E+00 -1.707989973E+02  1.708335586E+02  1.907348633E-06  0.00000E+00  9.000E+00
#rwgt            1           9   1.2928373125366971E-004           9     1332738           0
</event>
<event>
      6   9999  3.45752E-01  7.12684E+01 -1.00000E+00  1.27036E-01
      21    -1     0     0   501   502  0.000000000E+00  0.000000000E+00  1.156125011E+03  1.156125011E+03  0.000000000E+00  0.00000E+00  9.000E+00
      21    -1     0     0   511   503  0.000000000E+00  0.000000000E+00 -5.542011900E+01  5.542011900E+01  0.000000000E+00  0.00000E+00  9.000E+00
      25     1     1     2     0     0 -7.451447342E+01 -1.397814276E+02  3.488697282E+02  4.030218560E+02  1.250010996E+02  0.00000E+00  9.000E+00
       5     1     1     2   501     0  3.254577856E+00 -1.838425041E+01  4.927406402E+02  4.931170997E+02  4.750000000E+00  0.00000E+00  9.000E+00
      -5     1     1     2     0   503  6.406361288E+01  8.726149470E+01  1.641685017E+02  1.967042816E+02  4.750000000E+00  0.00000E+00  9.000E+00
      21     1     1     2   511   502  7.196282687E+00  7.090418332E+01  9.492602148E+01  1.187018924E+02  1.348699152E-06  0.00000E+00  9.000E+00
#rwgt            1           9   6.3978066271954575E-005           9     1340588           0
</event>
<event>
      6   9999  3.45752E-01  5.15124E+00 -1.00000E+00  2.23721E-01
      -2    -1     0     0     0   502  0.000000000E+00  0.000000000E+00  2.969376126E+02  2.969376126E+02  0.000000000E+00  0.00000E+00  9.000E+00
      21    -1     0     0   502   503  0.000000000E+00  0.000000000E+00 -9.375676011E+02  9.375676011E+02  0.000000000E+00  0.00000E+00  9.000E+00
      25     1     1     2     0     0 -3.319360583E+01  4.915620771E+01 -7.661422427E+02  7.785352328E+02  1.250000977E+02  0.00000E+00  9.000E+00
       5     1     1     2   501     0 -1.526240117E+00  1.167308018E+00  4.367536300E+00  6.732747599E+00  4.750000000E+00  0.00000E+00  9.000E+00
      -5     1     1     2     0   503  2.956938081E+01 -5.041285956E+01 -1.587818688E+02  1.692632537E+02  4.750000000E+00  0.00000E+00  9.000E+00
      -2     1     1     2     0   501  5.150465143E+00  8.934383260E-02  2.799265867E+02  2.799739796E+02  3.814697266E-06  0.00000E+00  9.000E+00
#rwgt            1           9   7.4338167044628225E-004           9     1341540           0
</event>
<event>
      6   9999  3.45752E-01  1.37948E+01 -1.00000E+00  1.73585E-01
      21    -1     0     0   501   511  0.000000000E+00  0.000000000E+00  1.038657173E+01  1.038657173E+01  0.000000000E+00  0.00000E+00  9.000E+00
      21    -1     0     0   502   503  0.000000000E+00  0.000000000E+00 -7.140682954E+02  7.140682954E+02  0.000000000E+00  0.00000E+00  9.000E+00
      25     1     1     2     0     0 -9.283173915E+00 -4.924102853E+00 -6.326602984E+02  6.449765411E+02  1.250010451E+02  0.00000E+00  9.000E+00
       5     1     1     2   501     0 -5.071347678E-01 -6.123517690E-01 -9.660299387E+00  1.079425980E+01  4.750000000E+00  0.00000E+00  9.000E+00
      -5     1     1     2     0   503 -1.899369458E+00 -1.787998713E+00 -5.136054466E+01  5.164564445E+01  4.750000000E+00  0.00000E+00  9.000E+00
      21     1     1     2   502   511  1.168967814E+01  7.324453334E+00 -1.000058120E+01  1.703842176E+01  7.907449699E-07  0.00000E+00  9.000E+00
#rwgt            1           9   1.0546481185347563E-004           9     1345939           0
</event>
<event>
      6   9999  3.45752E-01  4.59569E+00 -1.00000E+00  2.35998E-01
      21    -1     0     0   512   502  0.000000000E+00  0.000000000E+00  8.813011307E+02  8.813011307E+02  0.000000000E+00  0.00000E+00  9.000E+00
      21    -1     0     0   502   503  0.000000000E+00  0.000000000E+00 -3.178284310E+03  3.178284310E+03  0.000000000E+00  0.00000E+00  9.000E+00
      25     1     1     2     0     0 -4.071496539E+01  1.584327044E+01 -7.766317824E+02  7.878393099E+02  1.250005405E+02  0.00000E+00  9.000E+00
       5     1     1     2   501     0  1.339383590E+00  6.763430697E-01 -8.451940974E-01  5.052548012E+00  4.750000000E+00  0.00000E+00  9.000E+00
      -5     1     1     2     0   503  3.483510057E+01 -1.580942715E+01 -2.392938610E+03  2.393249084E+03  4.750000000E+00  0.00000E+00  9.000E+00
      21     1     1     2   512   501  4.540481237E+00 -7.101863638E-01  8.734324080E+02  8.734444984E+02  1.525878906E-05  0.00000E+00  9.000E+00
#rwgt            1           9   2.2275625516034543                9     1347925           0
</event>
<event>
      6   9999  3.45752E-01  4.37695E+01 -1.00000E+00  1.37955E-01
      21    -1     0     0   502   503  0.000000000E+00  0.000000000E+00  1.400610818E+02  1.400610818E+02  0.000000000E+00  0.00000E+00  9.000E+00
      21    -1     0     0   511   502  0.000000000E+00  0.000000000E+00 -2.038170939E+02  2.038170939E+02  0.000000000E+00  0.00000E+00  9.000E+00
      25     1     1     2     0     0 -3.006505286E+01 -2.114610280E+01  3.215875595E+01  1.342021223E+02  1.249998359E+02  0.00000E+00  9.000E+00
       5     1     1     2   501     0  7.606092347E+01 -3.421354796E+01 -8.913298501E+01  1.221600690E+02  4.750000000E+00  0.00000E+00  9.000E+00
      -5     1     1     2     0   503 -5.563084949E+00  3.859787473E+01  1.016752239E+01  4.057936495E+01  4.750000000E+00  0.00000E+00  9.000E+00
      21     1     1     2   511   501 -4.043278566E+01  1.676177602E+01 -1.694930547E+01  4.693661948E+01  8.259061849E-07  0.00000E+00  9.000E+00
#rwgt            1           9   9.0576579799667122E-003           9     1353809           0
</event>
<event>
      6   9999 -3.45752E-01  3.69824E+01 -1.00000E+00  1.42190E-01
      21    -1     0     0   501   502  0.000000000E+00  0.000000000E+00  2.188437808E+02  2.188437808E+02  0.000000000E+00  0.00000E+00  9.000E+00
      21    -1     0     0   512   503  0.000000000E+00  0.000000000E+00 -3.123297731E+03  3.123297731E+03  0.000000000E+00  0.00000E+00  9.000E+00
      25     1     1     2     0     0 -2.451179423E+02 -6.549151940E+01 -1.920311296E+03  1.941028731E+03  1.250004619E+02  0.00000E+00  9.000E+00
       5     1     1     2   501     0 -1.880826052E+01  3.029480511E+01  1.174919508E+02  1.228757376E+02  4.750000000E+00  0.00000E+00  9.000E+00
      -5     1     1     2     0   503  2.569185764E+02 -1.115713995E+00 -9.971305930E+01  2.756331918E+02  4.750000000E+00  0.00000E+00  9.000E+00
      21     1     1     2   512   502  7.007626389E+00  3.631242829E+01 -1.001921545E+03  1.002603851E+03  1.525878906E-05  0.00000E+00  9.000E+00
#rwgt            1           9  -1.0514171353914849E-004           9     1354925           0
</event>
<event>
      6   9999  3.45752E-01  2.78458E+01 -1.00000E+00  1.49962E-01
      21    -1     0     0   501   502  0.000000000E+00  0.000000000E+00  1.443715421E+01  1.443715421E+01  0.000000000E+00  0.00000E+00  9.000E+00
      21    -1     0     0   502   511  0.000000000E+00  0.000000000E+00 -9.566048963E+02  9.566048963E+02  0.000000000E+00  0.00000E+00  9.000E+00
      25     1     1     2     0     0  1.071346175E+01 -6.456066670E+01 -6.486283938E+02  6.638008904E+02  1.250198819E+02  0.00000E+00  9.000E+00
       5     1     1     2   501     0 -1.549621869E+01  3.639189261E+01 -9.978153588E+01  1.074403092E+02  4.750000000E+00  0.00000E+00  9.000E+00
      -5     1     1     2     0   503 -1.675122821E+01  1.051446583E+01 -6.694419676E+01  6.996603189E+01  4.750000000E+00  0.00000E+00  9.000E+00
      21     1     1     2   503   511  2.153398516E+01  1.765430826E+01 -1.268136157E+02  1.298348191E+02  2.697398305E-06  0.00000E+00  9.000E+00
#rwgt            1           9   6.0259482908512811E-003           9     1357603           0
</event>
<event>
      6   9999  3.45752E-01  4.99376E+00 -1.00000E+00  2.29457E-01
      21    -1     0     0   501   502  0.000000000E+00  0.000000000E+00  2.365456879E+01  2.365456879E+01  0.000000000E+00  0.00000E+00  9.000E+00
      21    -1     0     0   502   512  0.000000000E+00  0.000000000E+00 -1.276866863E+03  1.276866863E+03  0.000000000E+00  0.00000E+00  9.000E+00
      25     1     1     2     0     0 -5.445279200E+00  5.987835712E+00 -9.549994981E+02  9.631795737E+02  1.250013785E+02  0.00000E+00  9.000E+00
       5     1     1     2   501     0 -5.545256140E+00  2.025059538E+00  1.795096816E+01  1.948462188E+01  4.750000000E+00  0.00000E+00  9.000E+00
      -5     1     1     2     0   503  9.187288319E+00 -1.266971424E+01 -8.070573846E+01  8.234626066E+01  4.750000000E+00  0.00000E+00  9.000E+00
      21     1     1     2   503   512  1.803247021E+00  4.656818995E+00 -2.354580256E+02  2.355109753E+02  0.000000000E+00  0.00000E+00  9.000E+00
#rwgt            1           9   7.4052966209591322E-004           9     1358722           0
</event>
<event>
      6   9999 -3.45752E-01  1.25896E+01 -1.00000E+00  1.77240E-01
      21    -1     0     0   501   511  0.000000000E+00  0.000000000E+00  1.193512259E+03  1.193512259E+03  0.000000000E+00  0.00000E+00  9.000E+00
      21    -1     0     0   502   503  0.000000000E+00  0.000000000E+00 -8.628918074E+02  8.628918074E+02  0.000000000E+00  0.00000E+00  9.000E+00
      25     1     1     2     0     0  5.679903622E+01  1.732075704E+01 -6.210194949E+02  6.362518315E+02  1.250001633E+02  0.00000E+00  9.000E+00
       5     1     1     2   501     0 -1.288098732E+00  3.334316329E-01 -5.332105697E-01  4.961571173E+00  4.750000000E+00  0.00000E+00  9.000E+00
      -5     1     1     2     0   503 -6.695613325E+01 -2.289867996E+01 -2.260425356E+02  2.369077114E+02  4.750000000E+00  0.00000E+00  9.000E+00
      21     1     1     2   502   511  1.144519576E+01  5.244491289E+00  1.178215693E+03  1.178282952E+03  1.525878906E-05  0.00000E+00  9.000E+00
#rwgt            1           9  -2.9799107655892576E-005           9     1364750           0
</event>
<event>
      6   9999  3.45752E-01  1.41594E+01 -1.00000E+00  1.72571E-01
      21    -1     0     0   512   502  0.000000000E+00  0.000000000E+00  3.501776079E+02  3.501776079E+02  0.000000000E+00  0.00000E+00  9.000E+00
      21    -1     0     0   502   503  0.000000000E+00  0.000000000E+00 -1.034677792E+03  1.034677792E+03  0.000000000E+00  0.00000E+00  9.000E+00
      25     1     1     2     0     0 -1.323946667E+00 -5.840216801E+00 -9.555963640E+02  9.637562839E+02  1.250036119E+02  0.00000E+00  9.000E+00
       5     1     1     2   501     0  1.184140561E+01 -8.582991892E-01  1.502749279E+01  1.973179170E+01  4.750000000E+00  0.00000E+00  9.000E+00
      -5     1     1     2     0   503  3.612963333E+00  7.604436051E+00 -7.217445670E+01  7.281892372E+01  4.750000000E+00  0.00000E+00  9.000E+00
      21     1     1     2   512   501 -1.413042228E+01 -9.059200611E-01  3.282431442E+02  3.285484002E+02  3.814697266E-06  0.00000E+00  9.000E+00
#rwgt            1           9   3.6372706960467595E-006           9     1366851           0
</event>
<event>
      6   9999  3.45752E-01  7.35450E+00 -1.00000E+00  2.02442E-01
      21    -1     0     0   501   511  0.000000000E+00  0.000000000E+00  1.744521232E+02  1.744521232E+02  0.000000000E+00  0.00000E+00  9.000E+00
      21    -1     0     0   502   503  0.000000000E+00  0.000000000E+00 -1.180676161E+02  1.180676161E+02  0.000000000E+00  0.00000E+00  9.000E+00
      25     1     1     2     0     0 -1.115947115E+01  8.145529639E+00 -4.768299425E+01  1.344960110E+02  1.249985023E+02  0.00000E+00  9.000E+00
       5     1     1     2   501     0  5.798577865E-01 -7.207231071E-01  3.851746302E+01  3.882026705E+01  4.750000000E+00  0.00000E+00  9.000E+00
      -5     1     1     2     0   503  1.229159559E+01 -2.723366842E-01 -2.504975374E+01  2.830565582E+01  4.750000000E+00  0.00000E+00  9.000E+00
      21     1     1     2   502   511 -1.711982218E+00 -7.152469847E+00  9.059979201E+01  9.089780537E+01  0.000000000E+00  0.00000E+00  9.000E+00
#rwgt            1           9   1.9472692297790972E-004           9     1369003           0
</event>
<event>
      6   9999  3.45752E-01  1.20044E+01 -1.00000E+00  1.79206E-01
      21    -1     0     0   501   512  0.000000000E+00  0.000000000E+00  1.671291294E+01  1.671291294E+01  0.000000000E+00  0.00000E+00  9.000E+00
      21    -1     0     0   502   503  0.000000000E+00  0.000000000E+00 -7.883353360E+02  7.883353360E+02  0.000000000E+00  0.00000E+00  9.000E+00
      25     1     1     2     0     0  5.377693007E+00 -1.845828762E+01 -7.325177050E+02  7.433544504E+02  1.249960912E+02  0.00000E+00  9.000E+00
       5     1     1     2   501     0  2.887965403E-01 -1.566857528E+00  2.597376077E+00  5.643341957E+00  4.750000000E+00  0.00000E+00  9.000E+00
      -5     1     1     2     0   503  4.980563259E+00  1.448029011E+01 -4.100263826E+01  4.402571585E+01  4.750000000E+00  0.00000E+00  9.000E+00
      21     1     1     2   502   512 -1.064705281E+01  5.544855046E+00 -6.994558645E-01  1.202474072E+01  3.061091689E-07  0.00000E+00  9.000E+00
#rwgt            1           9   1.8490228915496953E-004           9     1372339           0
</event>
<event>
      6   9999  3.45752E-01  4.42997E+01 -1.00000E+00  1.37662E-01
      21    -1     0     0   502   511  0.000000000E+00  0.000000000E+00  5.274983225E+01  5.274983225E+01  0.000000000E+00  0.00000E+00  9.000E+00
      21    -1     0     0   501   502  0.000000000E+00  0.000000000E+00 -7.667570378E+02  7.667570378E+02  0.000000000E+00  0.00000E+00  9.000E+00
      25     1     1     2     0     0 -2.341675056E+01  1.316559203E+01 -5.832699867E+02  5.971190721E+02  1.250025273E+02  0.00000E+00  9.000E+00
       5     1     1     2   501     0 -3.471612550E+00  2.019247290E+01 -1.083400363E+02  1.103626477E+02  4.750000000E+00  0.00000E+00  9.000E+00
      -5     1     1     2     0   503 -3.800001945E+00 -1.409885795E+00 -5.604744486E+01  5.639420509E+01  4.750000000E+00  0.00000E+00  9.000E+00
      21     1     1     2   503   511  3.068836505E+01 -3.194817913E+01  3.365026232E+01  5.563094511E+01  0.000000000E+00  0.00000E+00  9.000E+00
#rwgt            1           9   8.5654999180858712E-002           9     1374249           0
</event>
<event>
      6   9999  3.45752E-01  1.89249E+01 -1.00000E+00  1.62064E-01
      21    -1     0     0   512   502  0.000000000E+00  0.000000000E+00  1.150962860E+02  1.150962860E+02  0.000000000E+00  0.00000E+00  9.000E+00
      21    -1     0     0   502   503  0.000000000E+00  0.000000000E+00 -1.706706083E+03  1.706706083E+03  0.000000000E+00  0.00000E+00  9.000E+00
      25     1     1     2     0     0  2.523590002E+02  9.661774182E+01 -2.012639648E+02  3.593779859E+02  1.250012009E+02  0.00000E+00  9.000E+00
       5     1     1     2   501     0 -4.967859303E+00  1.025142325E+01  9.691144146E+00  1.569242109E+01  4.750000000E+00  0.00000E+00  9.000E+00
      -5     1     1     2     0   503 -2.628884565E+02 -9.600713601E+01 -1.400100900E+03  1.427806991E+03  4.750000000E+00  0.00000E+00  9.000E+00
      21     1     1     2   512   501  1.549731567E+01 -1.086202907E+01  6.392305363E-02  1.892497172E+01  3.007205838E-07  0.00000E+00  9.000E+00
#rwgt            1           9   3.3037770593246003E-004           9     1374997           0
</event>
<event>
      6   9999  3.45752E-01  1.26696E+02 -1.00000E+00  1.16224E-01
      21    -1     0     0   501   502  0.000000000E+00  0.000000000E+00  8.484501580E+02  8.484501580E+02  0.000000000E+00  0.00000E+00  9.000E+00
      21    -1     0     0   502   511  0.000000000E+00  0.000000000E+00 -2.655454273E+02  2.655454273E+02  0.000000000E+00  0.00000E+00  9.000E+00
      25     1     1     2     0     0  2.053995145E+02 -3.314678972E+02  5.758202142E+02  7.065798477E+02  1.250049385E+02  0.00000E+00  9.000E+00
       5     1     1     2   501     0  4.882828870E-01 -7.489172110E-01  9.774345737E+00  1.090411077E+01  4.750000000E+00  0.00000E+00  9.000E+00
      -5     1     1     2     0   503 -1.592713490E+02  2.144084876E+02 -2.330509879E+01  2.681493097E+02  4.750000000E+00  0.00000E+00  9.000E+00
      21     1     1     2   503   511 -4.661644837E+01  1.178083268E+02  2.061526950E+01  1.283623171E+02  1.215700987E-06  0.00000E+00  9.000E+00
#rwgt            1           9   6.2940355059384011E-004           9     1378487           0
</event>
<event>
      6   9999  3.45752E-01  1.68903E+01 -1.00000E+00  1.66022E-01
      21    -1     0     0   512   503  0.000000000E+00  0.000000000E+00  1.851557603E+01  1.851557603E+01  0.000000000E+00  0.00000E+00  9.000E+00
      21    -1     0     0   501   502  0.000000000E+00  0.000000000E+00 -7.179169667E+02  7.179169667E+02  0.000000000E+00  0.00000E+00  9.000E+00
      25     1     1     2     0     0  1.500511820E+01 -9.576772210E+00 -5.607508104E+02  5.747899095E+02  1.250004023E+02  0.00000E+00  9.000E+00
       5     1     1     2   501     0  2.750734138E+00  1.543550935E-02 -7.248228764E+01  7.268982940E+01  4.750000000E+00  0.00000E+00  9.000E+00
      -5     1     1     2     0   503 -2.641651443E+00  2.021923269E+00 -7.111655694E+01  7.135260098E+01  4.750000000E+00  0.00000E+00  9.000E+00
      21     1     1     2   512   502 -1.511420089E+01  7.539413431E+00  4.948264233E+00  1.760020291E+01  9.367605236E-07  0.00000E+00  9.000E+00
#rwgt            1           9   2.3714172284285324E-003           9     1379532           0
</event>
<event>
      6   9999  3.45752E-01  1.12259E+01 -1.00000E+00  1.82054E-01
      21    -1     0     0   501   511  0.000000000E+00  0.000000000E+00  2.832044484E+01  2.832044484E+01  0.000000000E+00  0.00000E+00  9.000E+00
      21    -1     0     0   502   503  0.000000000E+00  0.000000000E+00 -1.117791747E+03  1.117791747E+03  0.000000000E+00  0.00000E+00  9.000E+00
      25     1     1     2     0     0 -1.755946447E+00  8.113717132E-01 -8.069835315E+02  8.166100546E+02  1.250032775E+02  0.00000E+00  9.000E+00
       5     1     1     2   501     0  5.863902062E-01  2.326910322E+00 -1.242966140E+00  5.464963856E+00  4.750000000E+00  0.00000E+00  9.000E+00
      -5     1     1     2     0   503 -2.646413381E+00  7.419162868E+00 -3.010934301E+02  3.012339018E+02  4.750000000E+00  0.00000E+00  9.000E+00
      21     1     1     2   502   511  3.815969622E+00 -1.055744490E+01  1.984862547E+01  2.280327170E+01  1.390207266E-06  0.00000E+00  9.000E+00
#rwgt            1           9   2.1435690772721587                9     1380677           0
</event>
<event>
      6   9999  3.45752E-01  4.61000E+00 -1.00000E+00  2.35746E-01
      21    -1     0     0   512   502  0.000000000E+00  0.000000000E+00  4.767763513E+01  4.767763513E+01  0.000000000E+00  0.00000E+00  9.000E+00
      21    -1     0     0   502   503  0.000000000E+00  0.000000000E+00 -9.164045650E+02  9.164045650E+02  0.000000000E+00  0.00000E+00  9.000E+00
      25     1     1     2     0     0 -1.962710138E+01  3.196391500E+01 -3.553193380E+02  3.785291867E+02  1.250023932E+02  0.00000E+00  9.000E+00
       5     1     1     2   501     0  1.826394647E+00  7.268712418E-01  1.946742261E+00  5.496941389E+00  4.750000000E+00  0.00000E+00  9.000E+00
      -5     1     1     2     0   503  2.140010649E+01 -2.981043032E+01 -5.469125781E+02  5.481628926E+02  4.750000000E+00  0.00000E+00  9.000E+00
      21     1     1     2   512   501 -3.599399754E+00 -2.880355925E+00  3.155824393E+01  3.189317935E+01  8.920806376E-07  0.00000E+00  9.000E+00
#rwgt            1           9   1.4071544597672004E-004           9     1382690           0
</event>
<event>
      6   9999  3.45752E-01  2.66468E+02 -1.00000E+00  1.04750E-01
      21    -1     0     0   511   502  0.000000000E+00  0.000000000E+00  2.300648983E+02  2.300648983E+02  0.000000000E+00  0.00000E+00  9.000E+00
       2    -1     0     0   501     0  0.000000000E+00  0.000000000E+00 -3.195005532E+03  3.195005532E+03  0.000000000E+00  0.00000E+00  9.000E+00
      25     1     1     2     0     0  1.840873936E+02  4.255434385E+01 -3.308218809E+02  4.009576617E+02  1.249995556E+02  0.00000E+00  9.000E+00
       5     1     1     2   501     0 -5.224614218E+01 -5.386221787E+01 -5.928795466E+02  5.976282433E+02  4.750000000E+00  0.00000E+00  9.000E+00
      -5     1     1     2     0   502 -3.727848592E+02 -1.024954880E+02 -2.114955939E+03  2.150008154E+03  4.750000000E+00  0.00000E+00  9.000E+00
       2     1     1     2   511     0  2.409436078E+02  1.138033620E+02  7.371673261E+01  2.764763715E+02  5.046370146E-06  0.00000E+00  9.000E+00
#rwgt            1           3   1.5022147395497039E-002           9     1387616           0
</event>
<event>
      6   9999  3.45752E-01  2.15267E+01 -1.00000E+00  1.57810E-01
      21    -1     0     0   501   512  0.000000000E+00  0.000000000E+00  2.756983474E+02  2.756983474E+02  0.000000000E+00  0.00000E+00  9.000E+00
      21    -1     0     0   502   503  0.000000000E+00  0.000000000E+00 -5.816549467E+02  5.816549467E+02  0.000000000E+00  0.00000E+00  9.000E+00
      25     1     1     2     0     0  2.193702068E+01  4.831481095E+00 -5.411328586E+02  5.558364681E+02  1.249993302E+02  0.00000E+00  9.000E+00
       5     1     1     2   501     0  1.205631882E+00 -1.670589089E+00 -1.170516693E+00  5.308203601E+00  4.750000000E+00  0.00000E+00  9.000E+00
      -5     1     1     2     0   503 -1.022025868E+01 -2.037747410E+01 -2.489096740E+01  3.408544992E+01  4.750000000E+00  0.00000E+00  9.000E+00
      21     1     1     2   502   512 -1.292239388E+01  1.721658209E+01  2.612377434E+02  2.621231724E+02  3.814697266E-06  0.00000E+00  9.000E+00
#rwgt            1           9   8.6588051476143794E-006           9     1388230           0
</event>
<event>
      6   9999  3.45752E-01  2.10040E+01 -1.00000E+00  1.58604E-01
      21    -1     0     0   502   503  0.000000000E+00  0.000000000E+00  1.341158433E+01  1.341158433E+01  0.000000000E+00  0.00000E+00  9.000E+00
       2    -1     0     0   501     0  0.000000000E+00  0.000000000E+00 -1.213214203E+03  1.213214203E+03  0.000000000E+00  0.00000E+00  9.000E+00
      25     1     1     2     0     0  1.100214882E+01  2.075998179E+01 -3.361876018E+02  3.594425455E+02  1.249992631E+02  0.00000E+00  9.000E+00
       5     1     1     2   501     0 -2.667669431E+00  9.085981310E+00 -4.079887524E+02  4.081262747E+02  4.750000000E+00  0.00000E+00  9.000E+00
      -5     1     1     2     0   503 -1.088094393E+01 -8.996892925E+00 -3.674836684E+01  3.965279295E+01  4.750000000E+00  0.00000E+00  9.000E+00
       2     1     1     2   502     0  2.546464540E+00 -2.084907018E+01 -4.188778973E+02  4.194041739E+02  5.394796609E-06  0.00000E+00  9.000E+00
#rwgt            1           9   1.8671988472566150E-002           9     1389377           0
</event>
<event>
      6   9999  3.45752E-01  1.70615E+01 -1.00000E+00  1.65663E-01
      21    -1     0     0   501   502  0.000000000E+00  0.000000000E+00  8.400689373E+00  8.400689373E+00  0.000000000E+00  0.00000E+00  9.000E+00
      21    -1     0     0   502   511  0.000000000E+00  0.000000000E+00 -1.556435104E+03  1.556435104E+03  0.000000000E+00  0.00000E+00  9.000E+00
      25     1     1     2     0     0 -1.690767052E+00 -1.244539911E+01 -1.202518351E+03  1.209062511E+03  1.249961004E+02  0.00000E+00  9.000E+00
       5     1     1     2   501     0 -3.173124095E+00 -1.574554127E+00  2.903532643E+00  6.598555829E+00  4.750000000E+00  0.00000E+00  9.000E+00
      -5     1     1     2     0   503 -2.941264126E+00 -1.151519348E+00 -1.079656771E+02  1.081162660E+02  4.750000000E+00  0.00000E+00  9.000E+00
      21     1     1     2   503   511  7.805155274E+00  1.517147258E+01 -2.404539191E+02  2.410584602E+02  2.697398305E-06  0.00000E+00  9.000E+00
#rwgt            1           9   8.6729441622422751E-004           9     1390824           0
</event>
<event>
      6   9999  3.45752E-01  3.57352E+00 -1.00000E+00  2.58440E-01
      21    -1     0     0   512   502  0.000000000E+00  0.000000000E+00  5.311911466E+02  5.311911466E+02  0.000000000E+00  0.00000E+00  9.000E+00
      21    -1     0     0   502   503  0.000000000E+00  0.000000000E+00 -1.683083604E+01  1.683083604E+01  0.000000000E+00  0.00000E+00  9.000E+00
      25     1     1     2     0     0 -3.751316599E-01  2.593949184E+00  2.577415155E+02  2.864659367E+02  1.250006991E+02  0.00000E+00  9.000E+00
       5     1     1     2   501     0 -4.653556134E-01  6.083030900E-01  1.710732584E+02  1.711409034E+02  4.750000000E+00  0.00000E+00  9.000E+00
      -5     1     1     2     0   503 -1.020112703E+00 -1.513117968E-01  6.616967425E-02  4.861111356E+00  4.750000000E+00  0.00000E+00  9.000E+00
      21     1     1     2   512   501  1.860599976E+00 -3.050940477E+00  8.547936695E+01  8.555403114E+01  1.907348633E-06  0.00000E+00  9.000E+00
#rwgt            1           9   14.472564541802239                9     1392483           0
</event>
<event>
      6   9999  3.45752E-01  6.26212E+00 -1.00000E+00  2.11504E-01
      21    -1     0     0   511   502  0.000000000E+00  0.000000000E+00  1.068145401E+01  1.068145401E+01  0.000000000E+00  0.00000E+00  9.000E+00
      21    -1     0     0   502   503  0.000000000E+00  0.000000000E+00 -8.923038097E+02  8.923038097E+02  0.000000000E+00  0.00000E+00  9.000E+00
      25     1     1     2     0     0 -2.605239898E+01  3.232704037E+01 -7.344526526E+02  7.461707952E+02  1.250055663E+02  0.00000E+00  9.000E+00
       5     1     1     2   501     0 -1.975906601E-02  1.137938170E+00 -1.705132726E+00  5.173516339E+00  4.750000000E+00  0.00000E+00  9.000E+00
      -5     1     1     2     0   503  2.176615123E+01 -2.891828434E+01 -1.270751050E+02  1.322145125E+02  4.750000000E+00  0.00000E+00  9.000E+00
      21     1     1     2   511   501  4.306006818E+00 -4.546694194E+00 -1.838946528E+01  1.942643962E+01  4.129530925E-07  0.00000E+00  9.000E+00
#rwgt            1           9   1.3840451134536625E-003           9     1397058           0
</event>
<event>
      6   9999  3.45752E-01  2.73489E+01 -1.00000E+00  1.50485E-01
      21    -1     0     0   512   502  0.000000000E+00  0.000000000E+00  8.285203251E+01  8.285203251E+01  0.000000000E+00  0.00000E+00  9.000E+00
      21    -1     0     0   502   503  0.000000000E+00  0.000000000E+00 -1.556199504E+03  1.556199504E+03  0.000000000E+00  0.00000E+00  9.000E+00
      25     1     1     2     0     0  1.204043063E+01 -1.478071657E+01 -1.212190219E+03  1.218766064E+03  1.249886036E+02  0.00000E+00  9.000E+00
       5     1     1     2   501     0 -1.482152339E+01  5.893557216E-01  7.497134317E+01  7.657212085E+01  4.750000000E+00  0.00000E+00  9.000E+00
      -5     1     1     2     0   503 -1.217956764E+01 -8.702784484E+00 -2.874457214E+02  2.878744268E+02  4.750000000E+00  0.00000E+00  9.000E+00
      21     1     1     2   512   501  1.496066040E+01  2.289414533E+01 -4.868287428E+01  5.583892458E+01  6.743495762E-07  0.00000E+00  9.000E+00
#rwgt            1           9   2.0852664997368059E-004           9     1400580           0
</event>
<event>
      6   9999  3.45752E-01  1.27314E+01 -1.00000E+00  1.76783E-01
      21    -1     0     0   501   511  0.000000000E+00  0.000000000E+00  1.580402167E+01  1.580402167E+01  0.000000000E+00  0.00000E+00  9.000E+00
      21    -1     0     0   502   503  0.000000000E+00  0.000000000E+00 -7.783795383E+02  7.783795383E+02  0.000000000E+00  0.00000E+00  9.000E+00
      25     1     1     2     0     0 -2.771682910E+00 -9.737809328E+00 -5.982118835E+02  6.112162279E+02  1.250012502E+02  0.00000E+00  9.000E+00
       5     1     1     2   501     0 -9.934087755E-01  1.563832673E+00 -9.200734359E-01  5.180875288E+00  4.750000000E+00  0.00000E+00  9.000E+00
      -5     1     1     2     0   503  4.429113202E-01  2.046432806E+01 -1.637091808E+02  1.650522440E+02  4.750000000E+00  0.00000E+00  9.000E+00
      21     1     1     2   502   511  3.322180366E+00 -1.229035141E+01  2.656210480E-01  1.273421276E+01  7.987512372E-07  0.00000E+00  9.000E+00
#rwgt            1           9   1.2996822467661274E-003           9     1402958           0
</event>
<event>
      6   9999 -3.45752E-01  8.30060E+00 -1.00000E+00  1.96137E-01
      21    -1     0     0   501   502  0.000000000E+00  0.000000000E+00  5.802275072E+01  5.802275072E+01  0.000000000E+00  0.00000E+00  9.000E+00
      21    -1     0     0   502   512  0.000000000E+00  0.000000000E+00 -8.777816566E+02  8.777816566E+02  0.000000000E+00  0.00000E+00  9.000E+00
      25     1     1     2     0     0 -5.886155747E+00  1.085706788E+02 -5.450303751E+02  5.696537726E+02  1.250002871E+02  0.00000E+00  9.000E+00
       5     1     1     2   501     0 -4.592384767E+00  9.891760912E-01  3.349456095E+01  3.415430545E+01  4.750000000E+00  0.00000E+00  9.000E+00
      -5     1     1     2     0   503  6.666362661E+00 -1.021864444E+02 -2.127196606E+02  2.361328574E+02  4.750000000E+00  0.00000E+00  9.000E+00
      21     1     1     2   503   512  3.812177853E+00 -7.373410501E+00 -9.550343119E+01  9.586347194E+01  1.348699152E-06  0.00000E+00  9.000E+00
#rwgt            1           9  -5.1221852933537246E-004           9     1404802           0
</event>
<event>
      6   9999 -3.45752E-01  1.12756E+01 -1.00000E+00  1.81864E-01
      21    -1     0     0   511   502  0.000000000E+00  0.000000000E+00  4.195317774E+01  4.195317774E+01  0.000000000E+00  0.00000E+00  9.000E+00
      21    -1     0     0   502   503  0.000000000E+00  0.000000000E+00 -1.212422181E+03  1.212422181E+03  0.000000000E+00  0.00000E+00  9.000E+00
      25     1     1     2     0     0 -1.245376417E+01 -6.709727930E+01 -2.123456251E+02  2.556819308E+02  1.250017764E+02  0.00000E+00  9.000E+00
       5     1     1     2   501     0 -6.033707064E-01  2.906466683E+00  1.382621049E+01  1.491771435E+01  4.750000000E+00  0.00000E+00  9.000E+00
      -5     1     1     2     0   503  3.417648776E+00  5.834106413E+01 -9.706569429E+02  9.724262560E+02  4.750000000E+00  0.00000E+00  9.000E+00
      21     1     1     2   511   501  9.639486098E+00  5.849748477E+00 -1.292645506E+00  1.134945734E+01  4.517288921E-07  0.00000E+00  9.000E+00
#rwgt            1           9  -3.3618967377502875E-004           9     1408980           0
</event>
<event>
      6   9999 -3.45752E-01  3.01331E+01 -1.00000E+00  1.47714E-01
      21    -1     0     0   501   512  0.000000000E+00  0.000000000E+00  4.748828025E+01  4.748828025E+01  0.000000000E+00  0.00000E+00  9.000E+00
      21    -1     0     0   502   503  0.000000000E+00  0.000000000E+00 -1.465368474E+03  1.465368474E+03  0.000000000E+00  0.00000E+00  9.000E+00
      25     1     1     2     0     0 -1.131208567E+02 -4.237538810E+00 -8.400002167E+02  8.567609879E+02  1.249989653E+02  0.00000E+00  9.000E+00
       5     1     1     2   501     0 -4.165879672E+00 -2.769030409E+00  3.100373613E+01  3.176186765E+01  4.750000000E+00  0.00000E+00  9.000E+00
      -5     1     1     2     0   503  9.367442740E+01  2.572720166E+01 -5.461023675E+02  5.546955431E+02  4.750000000E+00  0.00000E+00  9.000E+00
      21     1     1     2   502   512  2.361230900E+01 -1.872063244E+01 -6.278134618E+01  6.963835612E+01  0.000000000E+00  0.00000E+00  9.000E+00
#rwgt            1           9  -7.8018666708025387E-005           9     1412533           0
</event>
<event>
      6   9999  3.45752E-01  2.62217E+01 -1.00000E+00  1.51722E-01
      21    -1     0     0   501   502  0.000000000E+00  0.000000000E+00  3.931672194E+01  3.931672194E+01  0.000000000E+00  0.00000E+00  9.000E+00
      21    -1     0     0   502   511  0.000000000E+00  0.000000000E+00 -1.493259439E+03  1.493259439E+03  0.000000000E+00  0.00000E+00  9.000E+00
      25     1     1     2     0     0  8.437119354E+01 -3.478846175E+01 -6.311780243E+02  6.498784294E+02  1.250101565E+02  0.00000E+00  9.000E+00
       5     1     1     2   501     0  1.698815271E+00  9.484159506E-01  2.720791322E+01  2.768787656E+01  4.750000000E+00  0.00000E+00  9.000E+00
      -5     1     1     2     0   503 -6.136150441E+01  2.506116412E+01 -6.089648659E+02  6.125798451E+02  4.750000000E+00  0.00000E+00  9.000E+00
      21     1     1     2   503   511 -2.470850439E+01  8.778881674E+00 -2.410077403E+02  2.424300102E+02  2.697398305E-06  0.00000E+00  9.000E+00
#rwgt            1           9   7.8719378391617996E-005           9     1414427           0
</event>
<event>
      6   9999  3.45752E-01  1.16037E+01 -1.00000E+00  1.80637E-01
      21    -1     0     0   512   502  0.000000000E+00  0.000000000E+00  2.240959629E+01  2.240959629E+01  0.000000000E+00  0.00000E+00  9.000E+00
      21    -1     0     0   502   503  0.000000000E+00  0.000000000E+00 -1.042953908E+03  1.042953908E+03  0.000000000E+00  0.00000E+00  9.000E+00
      25     1     1     2     0     0 -3.848907625E+01 -1.207768745E+01 -6.865046858E+02  6.989574372E+02  1.250021436E+02  0.00000E+00  9.000E+00
       5     1     1     2   501     0  3.304455496E+00  4.374495920E+00  1.169018114E+01  1.375785142E+01  4.750000000E+00  0.00000E+00  9.000E+00
      -5     1     1     2     0   503  4.534877021E+01  1.330106693E+01 -3.282431243E+02  3.316617863E+02  4.750000000E+00  0.00000E+00  9.000E+00
      21     1     1     2   512   501 -1.016414946E+01 -5.597875400E+00 -1.748668279E+01  2.098642938E+01  0.000000000E+00  0.00000E+00  9.000E+00
#rwgt            1           9   2.3941941786573294E-002           9     1416310           0
</event>
<event>
      6   9999  3.45752E-01  7.58145E+00 -1.00000E+00  2.00819E-01
      21    -1     0     0   502   503  0.000000000E+00  0.000000000E+00  7.889022559E+00  7.889022559E+00  0.000000000E+00  0.00000E+00  9.000E+00
      21    -1     0     0   511   502  0.000000000E+00  0.000000000E+00 -8.107034039E+02  8.107034039E+02  0.000000000E+00  0.00000E+00  9.000E+00
      25     1     1     2     0     0  5.435761870E+00  1.578750647E+01 -5.566930484E+02  5.707992313E+02  1.250032777E+02  0.00000E+00  9.000E+00
       5     1     1     2   501     0 -1.118406252E+00 -1.313454156E+01 -1.133581504E+02  1.142208377E+02  4.750000000E+00  0.00000E+00  9.000E+00
      -5     1     1     2     0   503  3.221708825E+00 -3.453552610E+00 -4.703309442E+01  4.750769311E+01  4.750000000E+00  0.00000E+00  9.000E+00
      21     1     1     2   511   501 -7.539064443E+00  8.005877009E-01 -8.573008817E+01  8.606466435E+01  9.536743164E-07  0.00000E+00  9.000E+00
#rwgt            1           9   1.7941795602157140E-003           9     1419530           0
</event>
<event>
      6   9999  3.45752E-01  1.22131E+01 -1.00000E+00  1.78489E-01
      21    -1     0     0   512   502  0.000000000E+00  0.000000000E+00  5.441328435E+01  5.441328435E+01  0.000000000E+00  0.00000E+00  9.000E+00
      21    -1     0     0   502   503  0.000000000E+00  0.000000000E+00 -3.545445965E+02  3.545445965E+02  0.000000000E+00  0.00000E+00  9.000E+00
      25     1     1     2     0     0  2.058694800E+01  5.736110830E+00 -2.971413197E+02  3.230742773E+02  1.250091972E+02  0.00000E+00  9.000E+00
       5     1     1     2   501     0 -3.436115276E-01 -1.900236595E-02  2.935003584E+01  2.973391218E+01  4.750000000E+00  0.00000E+00  9.000E+00
      -5     1     1     2     0   503 -1.450614384E+01  5.064578753E+00 -3.903768534E+01  4.222062936E+01  4.750000000E+00  0.00000E+00  9.000E+00
      21     1     1     2   512   501 -5.737192636E+00 -1.078168722E+01  6.697657048E+00  1.392906201E+01  3.674277069E-07  0.00000E+00  9.000E+00
#rwgt            1           9   1.5797797199590595                9     1422073           0
</event>
<event>
      6   9999  3.45752E-01  3.64389E+00 -1.00000E+00  2.56541E-01
      21    -1     0     0   501   511  0.000000000E+00  0.000000000E+00  1.831070455E+02  1.831070455E+02  0.000000000E+00  0.00000E+00  9.000E+00
      21    -1     0     0   502   503  0.000000000E+00  0.000000000E+00 -2.293310477E+02  2.293310477E+02  0.000000000E+00  0.00000E+00  9.000E+00
      25     1     1     2     0     0 -1.161822570E+01  4.796754757E+00 -1.849905678E+02  2.236142074E+02  1.249952462E+02  0.00000E+00  9.000E+00
       5     1     1     2   501     0 -2.142875395E-01  7.201371454E-01  3.135321391E+00  5.740841130E+00  4.750000000E+00  0.00000E+00  9.000E+00
      -5     1     1     2     0   503  8.227323301E+00 -4.987249488E+00 -2.249077312E+01  2.491904656E+01  4.750000000E+00  0.00000E+00  9.000E+00
      21     1     1     2   502   511  3.605189934E+00 -5.296424151E-01  1.581220173E+02  1.581639980E+02  4.264961200E-06  0.00000E+00  9.000E+00
#rwgt            1           9   2.7768800928802129E-002           9     1424627           0
</event>
<event>
      6   9999  3.45752E-01  6.18502E+00 -1.00000E+00  2.12237E-01
      21    -1     0     0   512   502  0.000000000E+00  0.000000000E+00  1.011436337E+02  1.011436337E+02  0.000000000E+00  0.00000E+00  9.000E+00
      21    -1     0     0   502   503  0.000000000E+00  0.000000000E+00 -3.200393313E+03  3.200393313E+03  0.000000000E+00  0.00000E+00  9.000E+00
      25     1     1     2     0     0  8.383304629E+00  1.174228022E+00 -3.071698973E+03  3.074253016E+03  1.250014730E+02  0.00000E+00  9.000E+00
       5     1     1     2   501     0  2.955371903E-01 -1.501492372E-01 -1.893679556E+01  1.952625445E+01  4.750000000E+00  0.00000E+00  9.000E+00
      -5     1     1     2     0   503 -2.569155894E+00 -6.167547381E-02 -1.080222205E+02  1.081571402E+02  4.750000000E+00  0.00000E+00  9.000E+00
      21     1     1     2   512   501 -6.109685926E+00 -9.624033106E-01  9.940831028E+01  9.960053531E+01  8.092194914E-06  0.00000E+00  9.000E+00
#rwgt            1           9   2.9770538078936074E-003           9     1430300           0
</event>
<event>
      6   9999  3.45752E-01  5.21470E+00 -1.00000E+00  2.22911E-01
      21    -1     0     0   502   503  0.000000000E+00  0.000000000E+00  6.678109707E+00  6.678109707E+00  0.000000000E+00  0.00000E+00  9.000E+00
      21    -1     0     0   501   511  0.000000000E+00  0.000000000E+00 -8.034309463E+02  8.034309463E+02  0.000000000E+00  0.00000E+00  9.000E+00
      25     1     1     2     0     0 -5.218302198E+00  2.283005944E+00 -6.207974236E+02  6.332844034E+02  1.250090060E+02  0.00000E+00  9.000E+00
       5     1     1     2   501     0  1.414482121E+00 -1.975268474E+00 -1.049664578E+02  1.051019610E+02  4.750000000E+00  0.00000E+00  9.000E+00
      -5     1     1     2     0   503 -1.335730589E+00  5.743565054E-01 -3.107795377E+01  3.147246053E+01  4.750000000E+00  0.00000E+00  9.000E+00
      21     1     1     2   502   511  5.139550666E+00 -8.820939754E-01 -3.991100138E+01  4.025023108E+01  6.743495762E-07  0.00000E+00  9.000E+00
#rwgt            1           9  0.88152493332585180                9     1433846           0
</event>
<event>
      6   9999  3.45752E-01  1.39703E+01 -1.00000E+00  1.73092E-01
      21    -1     0     0   501   512  0.000000000E+00  0.000000000E+00  2.054161826E+01  2.054161826E+01  0.000000000E+00  0.00000E+00  9.000E+00
      21    -1     0     0   502   503  0.000000000E+00  0.000000000E+00 -9.377253996E+02  9.377253996E+02  0.000000000E+00  0.00000E+00  9.000E+00
      25     1     1     2     0     0 -1.842539310E+01  2.404770614E+01 -3.644775312E+02  3.865065439E+02  1.250026016E+02  0.00000E+00  9.000E+00
       5     1     1     2   501     0  5.054951906E+01  2.049032089E+00 -1.245797239E+02  1.345441285E+02  4.750000000E+00  0.00000E+00  9.000E+00
      -5     1     1     2     0   503 -2.086985746E+01 -1.781964674E+01 -4.202633903E+02  4.211851974E+02  4.750000000E+00  0.00000E+00  9.000E+00
      21     1     1     2   502   512 -1.125426851E+01 -8.277091492E+00 -7.863135968E+00  1.603114813E+01  1.460009660E-07  0.00000E+00  9.000E+00
#rwgt            1           9   1.3383243132853770                9     1437537           0
</event>
<event>
      6   9999  3.45752E-01  3.58651E+01 -1.00000E+00  1.42991E-01
      21    -1     0     0   501   502  0.000000000E+00  0.000000000E+00  5.397075897E+02  5.397075897E+02  0.000000000E+00  0.00000E+00  9.000E+00
      21    -1     0     0   511   503  0.000000000E+00  0.000000000E+00 -7.721157528E+01  7.721157528E+01  0.000000000E+00  0.00000E+00  9.000E+00
      25     1     1     2     0     0 -5.130781876E+00 -2.733867436E+01  1.702837654E+02  2.130616355E+02  1.249998869E+02  0.00000E+00  9.000E+00
       5     1     1     2   501     0  1.041712276E+02 -6.343448381E+01  2.035429585E+02  2.373349466E+02  4.750000000E+00  0.00000E+00  9.000E+00
      -5     1     1     2     0   503 -6.454628248E+01  8.095167378E+01  7.585672072E+01  1.284375360E+02  4.750000000E+00  0.00000E+00  9.000E+00
      21     1     1     2   511   502 -3.449416327E+01  9.821484389E+00  1.281256977E+01  3.808504692E+01  6.529361695E-07  0.00000E+00  9.000E+00
#rwgt            1           9  0.12914457345836272                9     1440023           0
</event>
<event>
      6   9999  3.45752E-01  6.88328E+01 -1.00000E+00  1.27756E-01
      21    -1     0     0   501   502  0.000000000E+00  0.000000000E+00  2.587579532E+01  2.587579532E+01  0.000000000E+00  0.00000E+00  9.000E+00
      21    -1     0     0   502   512  0.000000000E+00  0.000000000E+00 -1.809999048E+03  1.809999048E+03  0.000000000E+00  0.00000E+00  9.000E+00
      25     1     1     2     0     0 -1.204237231E+02  2.610307695E+01 -8.416629542E+02  8.597702577E+02  1.250004949E+02  0.00000E+00  9.000E+00
       5     1     1     2   501     0  7.506205077E+01  1.401326627E+01 -1.083880260E+02  1.326695511E+02  4.750000000E+00  0.00000E+00  9.000E+00
      -5     1     1     2     0   503 -2.198695247E+01 -2.589946755E+01 -9.217414542E+01  9.835061810E+01  4.750000000E+00  0.00000E+00  9.000E+00
      21     1     1     2   503   512  6.734862479E+01 -1.421687567E+01 -7.418981273E+02  7.450844167E+02  1.525878906E-05  0.00000E+00  9.000E+00
#rwgt            1           9   1.9415201698853708E-002           9     1441744           0
</event>
<event>
      6   9999  3.45752E-01  1.84171E+01 -1.00000E+00  1.62993E-01
      21    -1     0     0   501   502  0.000000000E+00  0.000000000E+00  3.684634492E+01  3.684634492E+01  0.000000000E+00  0.00000E+00  9.000E+00
      21    -1     0     0   511   503  0.000000000E+00  0.000000000E+00 -1.411871832E+03  1.411871832E+03  0.000000000E+00  0.00000E+00  9.000E+00
      25     1     1     2     0     0 -6.564858347E+00 -2.311853264E+01 -9.155595691E+02  9.243657235E+02  1.250004089E+02  0.00000E+00  9.000E+00
       5     1     1     2   501     0  2.298283355E-01  8.015848279E+00  3.033418795E+01  3.173376913E+01  4.750000000E+00  0.00000E+00  9.000E+00
      -5     1     1     2     0   503  2.368169857E+01  2.128999898E+01 -2.415542787E+02  2.436906215E+02  4.750000000E+00  0.00000E+00  9.000E+00
      21     1     1     2   511   502 -1.734666856E+01 -6.187314628E+00 -2.482458268E+02  2.489280625E+02  0.000000000E+00  0.00000E+00  9.000E+00
#rwgt            1           9   1.3882858614461162E-003           9     1442310           0
</event>
<event>
      6   9999  3.45752E-01  6.92315E+00 -1.00000E+00  2.05751E-01
      21    -1     0     0   501   512  0.000000000E+00  0.000000000E+00  3.769571693E+02  3.769571693E+02  0.000000000E+00  0.00000E+00  9.000E+00
      21    -1     0     0   502   503  0.000000000E+00  0.000000000E+00 -7.088261046E+02  7.088261046E+02  0.000000000E+00  0.00000E+00  9.000E+00
      25     1     1     2     0     0 -3.845906362E+00 -3.533598161E-01 -6.080650908E+02  6.207919099E+02  1.249980993E+02  0.00000E+00  9.000E+00
       5     1     1     2   501     0  3.511607057E+00  2.301561554E+00 -1.393446202E+01  1.530883084E+01  4.750000000E+00  0.00000E+00  9.000E+00
      -5     1     1     2     0   503 -6.840480031E-01  4.899645953E+00 -7.959608833E+01  7.989101469E+01  4.750000000E+00  0.00000E+00  9.000E+00
      21     1     1     2   502   512  1.018347308E+00 -6.847847691E+00  3.697267059E+02  3.697915184E+02  7.629394531E-06  0.00000E+00  9.000E+00
#rwgt            1           9   3.0340831488244254E-003           9     1445226           0
</event>
<event>
      6   9999  3.45752E-01  1.83011E+01 -1.00000E+00  1.63210E-01
      21    -1     0     0   501   511  0.000000000E+00  0.000000000E+00  1.924470629E+01  1.924470629E+01  0.000000000E+00  0.00000E+00  9.000E+00
      21    -1     0     0   502   503  0.000000000E+00  0.000000000E+00 -4.052314345E+02  4.052314345E+02  0.000000000E+00  0.00000E+00  9.000E+00
      25     1     1     2     0     0 -9.709812049E+00  1.085184384E+01 -3.452834927E+02  3.675011369E+02  1.249974095E+02  0.00000E+00  9.000E+00
       5     1     1     2   501     0 -1.796961087E+00  2.216556019E+00  3.602792415E+00  6.609448004E+00  4.750000000E+00  0.00000E+00  9.000E+00
      -5     1     1     2     0   503  5.733261410E-01  1.607743154E+00 -1.487949137E+01  1.571226605E+01  4.750000000E+00  0.00000E+00  9.000E+00
      21     1     1     2   502   511  1.093344700E+01 -1.467614301E+01 -2.942653656E+01  3.465328976E+01  4.768371582E-07  0.00000E+00  9.000E+00
#rwgt            1           9  0.20625476443189419                9     1448131           0
</event>
<event>
      6   9999 -3.45752E-01  3.58949E+01 -1.00000E+00  1.42969E-01
      21    -1     0     0   501   512  0.000000000E+00  0.000000000E+00  1.525220066E+03  1.525220066E+03  0.000000000E+00  0.00000E+00  9.000E+00
      21    -1     0     0   502   503  0.000000000E+00  0.000000000E+00 -1.561583953E+03  1.561583953E+03  0.000000000E+00  0.00000E+00  9.000E+00
      25     1     1     2     0     0 -6.255405382E+01  9.384870433E+01 -8.872637431E+02  9.030963169E+02  1.250016753E+02  0.00000E+00  9.000E+00
       5     1     1     2   501     0 -9.107275678E+00  1.295071946E+00  7.869753885E+01  7.937559325E+01  4.750000000E+00  0.00000E+00  9.000E+00
      -5     1     1     2     0   503  4.864590672E+01 -6.759866160E+01 -6.632278305E+02  6.684532302E+02  4.750000000E+00  0.00000E+00  9.000E+00
      21     1     1     2   502   512  2.301542277E+01 -2.754511468E+01  1.435430148E+03  1.435878878E+03  2.157918644E-05  0.00000E+00  9.000E+00
#rwgt            1           9  -3.5318559369888801E-004           9     1449511           0
</event>
<event>
      6   9999  3.45752E-01  6.30835E+00 -1.00000E+00  2.11070E-01
      21    -1     0     0   501   502  0.000000000E+00  0.000000000E+00  6.132670911E+00  6.132670911E+00  0.000000000E+00  0.00000E+00  9.000E+00
      21    -1     0     0   502   511  0.000000000E+00  0.000000000E+00 -1.463298245E+03  1.463298245E+03  0.000000000E+00  0.00000E+00  9.000E+00
      25     1     1     2     0     0  3.025413065E+00  2.915158387E+00 -8.166001859E+02  8.261232705E+02  1.250045729E+02  0.00000E+00  9.000E+00
       5     1     1     2   501     0  6.526057127E-01  1.432064580E+00 -3.480229636E+00  6.095178545E+00  4.750000000E+00  0.00000E+00  9.000E+00
      -5     1     1     2     0   503 -2.316823435E+00  1.812522483E+00 -4.153969387E+02  4.154345100E+02  4.750000000E+00  0.00000E+00  9.000E+00
      21     1     1     2   503   511 -1.361195344E+00 -6.159745449E+00 -2.216882195E+02  2.217779565E+02  2.697398305E-06  0.00000E+00  9.000E+00
#rwgt            1           9   3.6996847614745580E-002           9     1452274           0
</event>
<event>
      6   9999  3.45752E-01  3.75539E+01 -1.00000E+00  1.41794E-01
      21    -1     0     0   501   502  0.000000000E+00  0.000000000E+00  1.173778391E+01  1.173778391E+01  0.000000000E+00  0.00000E+00  9.000E+00
       2    -1     0     0   502     0  0.000000000E+00  0.000000000E+00 -2.593888929E+03  2.593888929E+03  0.000000000E+00  0.00000E+00  9.000E+00
      25     1     1     2     0     0 -3.129049156E+01 -1.789344861E+01 -5.283095145E+02  5.440916001E+02  1.250018233E+02  0.00000E+00  9.000E+00
       5     1     1     2   501     0  1.820789986E+01  7.288899343E-02 -2.482584314E+01  3.115153155E+01  4.750000000E+00  0.00000E+00  9.000E+00
      -5     1     1     2     0   503 -2.194628880E+01  4.282657596E+00 -2.696953435E+02  2.706623756E+02  4.750000000E+00  0.00000E+00  9.000E+00
       2     1     1     2   503     0  3.502888050E+01  1.353790202E+01 -1.759320443E+03  1.759721205E+03  2.157918644E-05  0.00000E+00  9.000E+00
#rwgt            1           9  0.74735323724523428                9     1455125           0
</event>
<event>
      6   9999  3.45752E-01  1.09748E+02 -1.00000E+00  1.18743E-01
      21    -1     0     0   511   502  0.000000000E+00  0.000000000E+00  6.207739075E+01  6.207739075E+01  0.000000000E+00  0.00000E+00  9.000E+00
      21    -1     0     0   502   503  0.000000000E+00  0.000000000E+00 -9.636892286E+02  9.636892286E+02  0.000000000E+00  0.00000E+00  9.000E+00
      25     1     1     2     0     0  5.937839411E+01 -8.619651079E+01 -6.509822942E+02  6.710880538E+02  1.250023856E+02  0.00000E+00  9.000E+00
       5     1     1     2   501     0  4.008398670E+01  4.940778888E+01 -1.811734117E+02  1.920786901E+02  4.750000000E+00  0.00000E+00  9.000E+00
      -5     1     1     2     0   503  1.669605548E-01 -9.239355951E+00 -5.009022306E+01  5.115649050E+01  4.750000000E+00  0.00000E+00  9.000E+00
      21     1     1     2   511   501 -9.962934137E+01  4.602807786E+01 -1.936590885E+01  1.114433849E+02  1.348699152E-06  0.00000E+00  9.000E+00
#rwgt            1           9   6.4245362483569407E-003           9     1456477           0
</event>
<event>
      6   9999  3.45752E-01  1.82270E+01 -1.00000E+00  1.63350E-01
      21    -1     0     0   501   512  0.000000000E+00  0.000000000E+00  3.966396243E+02  3.966396243E+02  0.000000000E+00  0.00000E+00  9.000E+00
      21    -1     0     0   502   503  0.000000000E+00  0.000000000E+00 -3.544506691E+01  3.544506691E+01  0.000000000E+00  0.00000E+00  9.000E+00
      25     1     1     2     0     0 -4.298778547E+01  1.680190614E+01  1.085471727E+02  1.718697204E+02  1.250058332E+02  0.00000E+00  9.000E+00
       5     1     1     2   501     0 -1.816334775E+00  7.878425550E-01  6.571953222E+01  6.592070376E+01  4.750000000E+00  0.00000E+00  9.000E+00
      -5     1     1     2     0   503  2.725632242E+01 -1.266034781E+01  1.506857291E+02  1.537268453E+02  4.750000000E+00  0.00000E+00  9.000E+00
      21     1     1     2   502   512  1.754779783E+01 -4.929400884E+00  3.624212341E+01  4.056742179E+01  4.768371582E-07  0.00000E+00  9.000E+00
#rwgt            1           9   3.1184007569780905E-004           9     1457108           0
</event>
<event>
      6   9999  3.45752E-01  5.41488E+00 -1.00000E+00  2.20459E-01
      21    -1     0     0   501   502  0.000000000E+00  0.000000000E+00  1.180558512E+01  1.180558512E+01  0.000000000E+00  0.00000E+00  9.000E+00
      21    -1     0     0   511   503  0.000000000E+00  0.000000000E+00 -6.180077314E+02  6.180077314E+02  0.000000000E+00  0.00000E+00  9.000E+00
      25     1     1     2     0     0  2.509464841E-01 -4.954117066E+00 -4.912776958E+02  5.069555477E+02  1.250021871E+02  0.00000E+00  9.000E+00
       5     1     1     2   501     0 -2.679779604E-01  4.815775114E-01  2.096517029E+00  5.221265435E+00  4.750000000E+00  0.00000E+00  9.000E+00
      -5     1     1     2     0   503 -9.286117469E-01 -8.591328821E-01 -8.645330155E+01  8.659293434E+01  4.750000000E+00  0.00000E+00  9.000E+00
      21     1     1     2   511   502  9.456432232E-01  5.331672437E+00 -3.056766601E+01  3.104356902E+01  0.000000000E+00  0.00000E+00  9.000E+00
#rwgt            1           9   2.8395843720625320E-002           9     1459338           0
</event>
<event>
      6   9999  3.45752E-01  7.64687E+00 -1.00000E+00  2.00365E-01
      21    -1     0     0   501   512  0.000000000E+00  0.000000000E+00  5.707866253E+02  5.707866253E+02  0.000000000E+00  0.00000E+00  9.000E+00
      21    -1     0     0   502   503  0.000000000E+00  0.000000000E+00 -1.789804419E+02  1.789804419E+02  0.000000000E+00  0.00000E+00  9.000E+00
      25     1     1     2     0     0 -4.947639183E+00 -8.125080973E-01 -1.522291332E+02  1.970377223E+02  1.250000628E+02  0.00000E+00  9.000E+00
       5     1     1     2   501     0 -9.564204533E-01  5.400419186E+00  3.693770633E+01  3.764353751E+01  4.750000000E+00  0.00000E+00  9.000E+00
      -5     1     1     2     0   503  3.516395340E+00  2.676638122E+00 -1.311610644E+00  6.619082286E+00  4.750000000E+00  0.00000E+00  9.000E+00
      21     1     1     2   502   512  2.387664296E+00 -7.264549211E+00  5.084092209E+02  5.084667251E+02  0.000000000E+00  0.00000E+00  9.000E+00
#rwgt            1           9   1.7094256344371548E-005           9     1463543           0
</event>
<event>
      6   9999  3.45752E-01  1.13882E+01 -1.00000E+00  1.81437E-01
      21    -1     0     0   502   511  0.000000000E+00  0.000000000E+00  2.174396650E+01  2.174396650E+01  0.000000000E+00  0.00000E+00  9.000E+00
      21    -1     0     0   501   502  0.000000000E+00  0.000000000E+00 -1.499203319E+03  1.499203319E+03  0.000000000E+00  0.00000E+00  9.000E+00
      25     1     1     2     0     0 -3.111298672E+01 -1.438361011E+01 -6.893119845E+02  7.013912332E+02  1.249949753E+02  0.00000E+00  9.000E+00
       5     1     1     2   501     0  2.222859132E+01  9.367542785E+00 -7.797221794E+02  7.801096722E+02  4.750000000E+00  0.00000E+00  9.000E+00
      -5     1     1     2     0   503 -1.173108341E+00 -3.259692888E-01 -2.153195732E+01  2.208325441E+01  4.750000000E+00  0.00000E+00  9.000E+00
      21     1     1     2   503   511  1.005750374E+01  5.342036617E+00  1.310676889E+01  1.736312551E+01  4.768371582E-07  0.00000E+00  9.000E+00
#rwgt            1           9   1480.2563687786401                9     1466870           0
</event>
<event>
      6   9999  3.45752E-01  1.09146E+01 -1.00000E+00  1.83277E-01
      21    -1     0     0   501   502  0.000000000E+00  0.000000000E+00  1.237518365E+03  1.237518365E+03  0.000000000E+00  0.00000E+00  9.000E+00
       4    -1     0     0   502     0  0.000000000E+00  0.000000000E+00 -1.556713378E+01  1.556713378E+01  0.000000000E+00  0.00000E+00  9.000E+00
      25     1     1     2     0     0 -3.195165298E+01 -3.618531735E+01  4.837792200E+02  5.019890375E+02  1.249814977E+02  0.00000E+00  9.000E+00
       5     1     1     2   501     0  4.633576380E+01  3.304929199E+01  7.006912271E+02  7.030149479E+02  4.750000000E+00  0.00000E+00  9.000E+00
      -5     1     1     2     0   503 -4.045814580E+00  6.635862487E+00  3.591875733E+01  3.705567318E+01  4.750000000E+00  0.00000E+00  9.000E+00
       4     1     1     2   503     0 -1.033829623E+01 -3.499837120E+00  1.562027006E+00  1.102584043E+01  5.062010214E-07  0.00000E+00  9.000E+00
#rwgt            1           9   4.2545517789263956                9     1469401           0
</event>
<event>
      6   9999  3.45752E-01  1.35444E+01 -1.00000E+00  1.74305E-01
      21    -1     0     0   501   502  0.000000000E+00  0.000000000E+00  1.812251704E+01  1.812251704E+01  0.000000000E+00  0.00000E+00  9.000E+00
      21    -1     0     0   502   511  0.000000000E+00  0.000000000E+00 -5.048891594E+02  5.048891594E+02  0.000000000E+00  0.00000E+00  9.000E+00
      25     1     1     2     0     0 -3.203981985E+00  8.328905138E+00 -2.377944779E+02  2.687938985E+02  1.249972400E+02  0.00000E+00  9.000E+00
       5     1     1     2   501     0  9.385584407E-01  3.343433165E-02 -2.355856163E+00  5.384660441E+00  4.750000000E+00  0.00000E+00  9.000E+00
      -5     1     1     2     0   503  1.559838094E+01 -1.074650055E+01 -1.533621720E+02  1.546005015E+02  4.750000000E+00  0.00000E+00  9.000E+00
      21     1     1     2   503   511 -1.333295740E+01  2.384161078E+00 -9.325413633E+01  9.423261601E+01  1.348699152E-06  0.00000E+00  9.000E+00
#rwgt            1           9   3.3788825090385458E-002           9     1471802           0
</event>
<event>
      6   9999  3.45752E-01  8.38631E+00 -1.00000E+00  1.95621E-01
      21    -1     0     0   501   502  0.000000000E+00  0.000000000E+00  5.616175007E+00  5.616175007E+00  0.000000000E+00  0.00000E+00  9.000E+00
      21    -1     0     0   512   503  0.000000000E+00  0.000000000E+00 -2.313487336E+03  2.313487336E+03  0.000000000E+00  0.00000E+00  9.000E+00
      25     1     1     2     0     0  2.285539941E+00 -8.593058225E+00 -1.189856676E+03  1.196437634E+03  1.250001505E+02  0.00000E+00  9.000E+00
       5     1     1     2   501     0  9.764745038E-01  2.730350461E-01 -4.802457655E-01  4.880695298E+00  4.750000000E+00  0.00000E+00  9.000E+00
      -5     1     1     2     0   503 -1.001905500E+00  2.440023090E-01 -5.410976691E+01  5.432764238E+01  4.750000000E+00  0.00000E+00  9.000E+00
      21     1     1     2   512   502 -2.260108945E+00  8.076020870E+00 -1.063424473E+03  1.063457540E+03  1.525878906E-05  0.00000E+00  9.000E+00
#rwgt            1           9   7.7137610899423816E-004           9     1473760           0
</event>
<event>
      6   9999  3.45752E-01  3.22689E+01 -1.00000E+00  1.45819E-01
      21    -1     0     0   502   503  0.000000000E+00  0.000000000E+00  1.244622321E+02  1.244622321E+02  0.000000000E+00  0.00000E+00  9.000E+00
       2    -1     0     0   501     0  0.000000000E+00  0.000000000E+00 -7.345388619E+02  7.345388619E+02  0.000000000E+00  0.00000E+00  9.000E+00
      25     1     1     2     0     0  9.571012386E+01 -7.575610152E+01  1.060736415E+01  1.750334473E+02  1.249991070E+02  0.00000E+00  9.000E+00
       5     1     1     2   501     0 -1.406310931E+02  9.905500531E+01 -4.480345639E+02  4.799443003E+02  4.750000000E+00  0.00000E+00  9.000E+00
      -5     1     1     2     0   503  1.282160840E+01 -1.999574565E+01  3.911865113E+00  2.453749528E+01  4.750000000E+00  0.00000E+00  9.000E+00
       2     1     1     2   502     0  3.209936083E+01 -3.303158136E+00 -1.765612952E+02  1.794858512E+02  1.907348633E-06  0.00000E+00  9.000E+00
#rwgt            1           9   6.0427347353465707E-002           9     1476374           0
</event>
<event>
      6   9999  3.45752E-01  1.03892E+01 -1.00000E+00  1.85464E-01
      21    -1     0     0   501   502  0.000000000E+00  0.000000000E+00  4.907200161E+02  4.907200161E+02  0.000000000E+00  0.00000E+00  9.000E+00
      21    -1     0     0   511   503  0.000000000E+00  0.000000000E+00 -5.369374958E+01  5.369374958E+01  0.000000000E+00  0.00000E+00  9.000E+00
      25     1     1     2     0     0 -5.507849597E+00  1.330457984E+01  8.869287004E+01  1.539412366E+02  1.249965235E+02  0.00000E+00  9.000E+00
       5     1     1     2   501     0  4.465368999E-01  4.736530025E-01  3.223099139E+02  3.223455706E+02  4.750000000E+00  0.00000E+00  9.000E+00
      -5     1     1     2     0   503 -5.230544204E+00 -1.235924160E+01  4.461403443E+01  4.683037491E+01  4.750000000E+00  0.00000E+00  9.000E+00
      21     1     1     2   511   502  1.029185690E+01 -1.418991240E+00 -1.859055186E+01  2.129658360E+01  2.384185791E-07  0.00000E+00  9.000E+00
#rwgt            1           9   7.6238518001665902E-003           9     1478605           0
</event>
<event>
      6   9999  3.45752E-01  1.93717E+01 -1.00000E+00  1.61276E-01
      21    -1     0     0   501   502  0.000000000E+00  0.000000000E+00  3.416084372E+01  3.416084372E+01  0.000000000E+00  0.00000E+00  9.000E+00
      21    -1     0     0   512   503  0.000000000E+00  0.000000000E+00 -1.662830261E+03  1.662830261E+03  0.000000000E+00  0.00000E+00  9.000E+00
      25     1     1     2     0     0 -4.056554593E+01  4.836308436E+01 -1.461075204E+03  1.467770553E+03  1.250003781E+02  0.00000E+00  9.000E+00
       5     1     1     2   501     0  2.245430049E+00  9.558315401E+00  1.944970917E+01  2.229926089E+01  4.750000000E+00  0.00000E+00  9.000E+00
      -5     1     1     2     0   503  4.959622642E+01 -4.216976918E+01 -1.141244129E+02  1.314725037E+02  4.750000000E+00  0.00000E+00  9.000E+00
      21     1     1     2   512   502 -1.127611054E+01 -1.575163057E+01 -7.291951001E+01  7.544878710E+01  1.651812370E-06  0.00000E+00  9.000E+00
#rwgt            1           9   2.5338749947977631E-002           9     1481455           0
</event>
<event>
      6   9999 -3.45752E-01  1.32853E+01 -1.00000E+00  1.75071E-01
      21    -1     0     0   501   511  0.000000000E+00  0.000000000E+00  6.347103909E+01  6.347103909E+01  0.000000000E+00  0.00000E+00  9.000E+00
      21    -1     0     0   502   503  0.000000000E+00  0.000000000E+00 -1.392812173E+03  1.392812173E+03  0.000000000E+00  0.00000E+00  9.000E+00
      25     1     1     2     0     0 -2.059024489E+02  1.038644875E+01 -2.798720557E+02  3.694016910E+02  1.250021799E+02  0.00000E+00  9.000E+00
       5     1     1     2   501     0  2.292979186E+01 -1.710299579E+01 -3.483773346E+01  4.532679111E+01  4.750000000E+00  0.00000E+00  9.000E+00
      -5     1     1     2     0   503  1.708297078E+02  1.326845761E+00 -1.013950172E+03  1.028251945E+03  4.750000000E+00  0.00000E+00  9.000E+00
      21     1     1     2   502   511  1.214294919E+01  5.389701271E+00 -6.811733661E-01  1.330278512E+01  2.269677253E-07  0.00000E+00  9.000E+00
#rwgt            1           9  -4.9101521898029441                9     1483869           0
</event>
<event>
      6   9999  3.45752E-01  9.32734E+00 -1.00000E+00  1.90437E-01
      21    -1     0     0   512   502  0.000000000E+00  0.000000000E+00  5.156282063E+01  5.156282063E+01  0.000000000E+00  0.00000E+00  9.000E+00
      21    -1     0     0   502   503  0.000000000E+00  0.000000000E+00 -1.317097156E+03  1.317097156E+03  0.000000000E+00  0.00000E+00  9.000E+00
      25     1     1     2     0     0 -6.963715256E+01  6.920440545E+01 -7.837315081E+02  7.996874241E+02  1.250052667E+02  0.00000E+00  9.000E+00
       5     1     1     2   501     0 -1.039496422E+00 -3.849419336E+00  3.492152373E+01  3.546792779E+01  4.750000000E+00  0.00000E+00  9.000E+00
      -5     1     1     2     0   503  6.665348475E+01 -7.377006096E+01 -5.143329348E+02  5.238755952E+02  4.750000000E+00  0.00000E+00  9.000E+00
      21     1     1     2   512   501  4.023164232E+00  8.415074845E+00 -2.391415929E+00  9.629029298E+00  2.528810911E-07  0.00000E+00  9.000E+00
#rwgt            1           9   1.3030326358063325E-003           9     1487292           0
</event>
<event>
      6   9999  3.45752E-01  8.15679E+00 -1.00000E+00  1.97023E-01
      21    -1     0     0   511   502  0.000000000E+00  0.000000000E+00  1.017981386E+01  1.017981386E+01  0.000000000E+00  0.00000E+00  9.000E+00
      21    -1     0     0   502   503  0.000000000E+00  0.000000000E+00 -5.037440239E+03  5.037440239E+03  0.000000000E+00  0.00000E+00  9.000E+00
      25     1     1     2     0     0  4.121293013E+01 -3.605265502E+01 -4.277526772E+03  4.279703243E+03  1.250050574E+02  0.00000E+00  9.000E+00
       5     1     1     2   501     0 -8.182583495E-01 -2.200606645E+00 -1.036338966E+01  1.163935400E+01  4.750000000E+00  0.00000E+00  9.000E+00
      -5     1     1     2     0   503 -3.976751773E+01  3.012061793E+01 -7.447966194E+02  7.464805918E+02  4.750000000E+00  0.00000E+00  9.000E+00
      21     1     1     2   511   501 -6.271540455E-01  8.132643729E+00  5.426355566E+00  9.796864343E+00  1.089314633E-06  0.00000E+00  9.000E+00
#rwgt            1           9   3.8324671400442303E-004           9     1491892           0
</event>
<event>
      6   9999  3.45752E-01  1.79451E+01 -1.00000E+00  1.63889E-01
      21    -1     0     0   502   503  0.000000000E+00  0.000000000E+00  1.713554268E+01  1.713554268E+01  0.000000000E+00  0.00000E+00  9.000E+00
      21    -1     0     0   501   512  0.000000000E+00  0.000000000E+00 -1.002928215E+03  1.002928215E+03  0.000000000E+00  0.00000E+00  9.000E+00
      25     1     1     2     0     0 -7.322313822E+00 -5.503354118E+01 -3.109328350E+02  3.396857198E+02  1.249994136E+02  0.00000E+00  9.000E+00
       5     1     1     2   501     0  1.672463496E+00  3.420509354E+01 -4.927622358E+02  4.939736522E+02  4.750000000E+00  0.00000E+00  9.000E+00
      -5     1     1     2     0   503 -1.201254504E+01  1.765571403E+01 -1.026716353E+02  1.049764386E+02  4.750000000E+00  0.00000E+00  9.000E+00
      21     1     1     2   502   512  1.766239537E+01  3.172733616E+00 -7.942596655E+01  8.142794736E+01  1.651812370E-06  0.00000E+00  9.000E+00
#rwgt            1           9   1.0275348749150678E-004           9     1495583           0
</event>
<event>
      6   9999  3.45752E-01  8.72569E+00 -1.00000E+00  1.93653E-01
      21    -1     0     0   501   502  0.000000000E+00  0.000000000E+00  2.430122284E+03  2.430122284E+03  0.000000000E+00  0.00000E+00  9.000E+00
      21    -1     0     0   511   503  0.000000000E+00  0.000000000E+00 -8.509451173E+00  8.509451173E+00  0.000000000E+00  0.00000E+00  9.000E+00
      25     1     1     2     0     0  1.974503733E+00 -4.137067424E+01  1.535219826E+03  1.540857088E+03  1.250008720E+02  0.00000E+00  9.000E+00
       5     1     1     2   501     0  2.945787981E-01  8.786097452E-01  7.877367906E+02  7.877516566E+02  4.750000000E+00  0.00000E+00  9.000E+00
      -5     1     1     2     0   503 -6.320914659E+00  3.276417060E+01  4.818508683E+01  5.880314558E+01  4.750000000E+00  0.00000E+00  9.000E+00
      21     1     1     2   511   502  4.051832127E+00  7.727893898E+00  5.047112896E+01  5.121984524E+01  6.743495762E-07  0.00000E+00  9.000E+00
#rwgt            1           9   1.0779892817728680                9     1497418           0
</event>
<event>
      6   9999  3.45752E-01  9.58609E+00 -1.00000E+00  1.89148E-01
      21    -1     0     0   502   503  0.000000000E+00  0.000000000E+00  1.158854285E+01  1.158854285E+01  0.000000000E+00  0.00000E+00  9.000E+00
      21    -1     0     0   512   502  0.000000000E+00  0.000000000E+00 -1.166218441E+03  1.166218441E+03  0.000000000E+00  0.00000E+00  9.000E+00
      25     1     1     2     0     0  2.056037882E+01  3.157131541E+01 -4.997442071E+02  5.165167375E+02  1.250031615E+02  0.00000E+00  9.000E+00
       5     1     1     2   501     0 -1.718800889E+01  9.979010887E+00 -6.911483944E+01  7.207240692E+01  4.750000000E+00  0.00000E+00  9.000E+00
      -5     1     1     2     0   503 -1.080099250E+01 -3.549155406E+01 -2.086842582E+02  2.120094195E+02  4.750000000E+00  0.00000E+00  9.000E+00
      21     1     1     2   512   501  7.428622576E+00 -6.058772234E+00 -3.770865929E+02  3.772084195E+02  0.000000000E+00  0.00000E+00  9.000E+00
#rwgt            1           9   3.8645878443112380E-004           9     1500362           0
</event>
<event>
      6   9999 -3.45752E-01  6.44633E+00 -1.00000E+00  2.09807E-01
      21    -1     0     0   511   503  0.000000000E+00  0.000000000E+00  3.125930344E+02  3.125930344E+02  0.000000000E+00  0.00000E+00  9.000E+00
      21    -1     0     0   501   502  0.000000000E+00  0.000000000E+00 -7.063880517E+02  7.063880517E+02  0.000000000E+00  0.00000E+00  9.000E+00
      25     1     1     2     0     0  4.819648759E+00 -1.529328825E+00 -5.580789984E+02  5.719315060E+02  1.250116448E+02  0.00000E+00  9.000E+00
       5     1     1     2   501     0 -7.956491110E-01 -1.790635725E+00 -4.139333247E+01  4.171102860E+01  4.750000000E+00  0.00000E+00  9.000E+00
      -5     1     1     2     0   503 -1.889350745E+00 -2.762668418E+00 -9.971202132E+01  9.988118781E+01  4.750000000E+00  0.00000E+00  9.000E+00
      21     1     1     2   511   502 -2.134648903E+00  6.082632968E+00  3.053893348E+02  3.054573636E+02  7.629394531E-06  0.00000E+00  9.000E+00
#rwgt            1           9 -0.11155518441251264                9     1503126           0
</event>
<event>
      6   9999  3.45752E-01  2.28440E+01 -1.00000E+00  1.55925E-01
      21    -1     0     0   501   502  0.000000000E+00  0.000000000E+00  3.278457277E+01  3.278457277E+01  0.000000000E+00  0.00000E+00  9.000E+00
      21    -1     0     0   512   503  0.000000000E+00  0.000000000E+00 -1.186000334E+03  1.186000334E+03  0.000000000E+00  0.00000E+00  9.000E+00
      25     1     1     2     0     0  3.173178293E+01 -1.625914201E+01 -9.105439612E+02  9.197722715E+02  1.249778394E+02  0.00000E+00  9.000E+00
       5     1     1     2   501     0 -4.939615796E+00 -3.195693400E+00  2.200348563E+01  2.326645956E+01  4.750000000E+00  0.00000E+00  9.000E+00
      -5     1     1     2     0   503 -4.945806651E+01  2.230151675E+01 -1.821395820E+02  1.901074639E+02  4.750000000E+00  0.00000E+00  9.000E+00
      21     1     1     2   512   502  2.266589937E+01 -2.846681340E+00 -8.253570372E+01  8.563871191E+01  9.536743164E-07  0.00000E+00  9.000E+00
#rwgt            1           9   2.3590343546417065E-003           9     1506068           0
</event>
<event>
      6   9999  3.45752E-01  6.63774E+00 -1.00000E+00  2.08124E-01
      -4    -1     0     0     0   502  0.000000000E+00  0.000000000E+00  4.991950583E+01  4.991950583E+01  0.000000000E+00  0.00000E+00  9.000E+00
      21    -1     0     0   502   503  0.000000000E+00  0.000000000E+00 -7.571941313E+02  7.571941313E+02  0.000000000E+00  0.00000E+00  9.000E+00
      25     1     1     2     0     0  1.231414058E+01 -8.760051386E+00 -6.443140264E+02  6.565012501E+02  1.249998004E+02  0.00000E+00  9.000E+00
       5     1     1     2   501     0 -1.829717787E+01  6.674007472E+00 -5.021496226E+01  5.406878978E+01  4.750000000E+00  0.00000E+00  9.000E+00
      -5     1     1     2     0   503  1.136825302E+01  5.966647186E+00 -5.351461289E+01  5.523779818E+01  4.750000000E+00  0.00000E+00  9.000E+00
      -4     1     1     2     0   501 -5.385215723E+00 -3.880603272E+00  4.076897609E+01  4.130579913E+01  2.286830675E-06  0.00000E+00  9.000E+00
#rwgt            1           9   2.0854206429107038E-002           9     1508116           0
</event>
<event>
      6   9999  3.45752E-01  4.87349E+00 -1.00000E+00  2.31337E-01
      21    -1     0     0   501   511  0.000000000E+00  0.000000000E+00  4.848375082E+00  4.848375082E+00  0.000000000E+00  0.00000E+00  9.000E+00
      21    -1     0     0   502   503  0.000000000E+00  0.000000000E+00 -2.077976226E+03  2.077976226E+03  0.000000000E+00  0.00000E+00  9.000E+00
      25     1     1     2     0     0  5.290981987E+00  7.048750383E+00 -1.664306043E+03  1.669016579E+03  1.249962277E+02  0.00000E+00  9.000E+00
       5     1     1     2   501     0 -1.037523557E+00  1.306192337E+00 -3.744207051E+00  6.274087981E+00  4.750000000E+00  0.00000E+00  9.000E+00
      -5     1     1     2     0   503 -1.956559640E+00 -4.056673990E+00 -4.013370700E+02  4.013904471E+02  4.750000000E+00  0.00000E+00  9.000E+00
      21     1     1     2   502   511 -2.296898790E+00 -4.298268730E+00 -3.740530158E+00  6.143486306E+00  2.021291847E-07  0.00000E+00  9.000E+00
#rwgt            1           9   1.8355006881555836E-003           9     1511727           0
</event>
<event>
      6   9999 -3.45752E-01  1.92602E+01 -1.00000E+00  1.61470E-01
      21    -1     0     0   501   512  0.000000000E+00  0.000000000E+00  1.036761727E+01  1.036761727E+01  0.000000000E+00  0.00000E+00  9.000E+00
      21    -1     0     0   502   503  0.000000000E+00  0.000000000E+00 -7.658234985E+02  7.658234985E+02  0.000000000E+00  0.00000E+00  9.000E+00
      25     1     1     2     0     0 -5.687951583E+00  6.680892308E+00 -6.780812450E+02  6.895632258E+02  1.250051218E+02  0.00000E+00  9.000E+00
       5     1     1     2   501     0 -7.073922927E-01  1.236587135E+00 -1.601995235E+00  5.211376050E+00  4.750000000E+00  0.00000E+00  9.000E+00
      -5     1     1     2     0   503 -7.477528753E+00  5.442914371E+00 -3.025658081E+01  3.199315451E+01  4.750000000E+00  0.00000E+00  9.000E+00
      21     1     1     2   502   512  1.387287263E+01 -1.336039381E+01 -4.551606024E+01  4.942335943E+01  6.743495762E-07  0.00000E+00  9.000E+00
#rwgt            1           9  -2.9950947979616362E-004           9     1515839           0
</event>
<event>
      6   9999  3.45752E-01  6.22677E+00 -1.00000E+00  2.11838E-01
      21    -1     0     0   511   502  0.000000000E+00  0.000000000E+00  1.750199768E+01  1.750199768E+01  0.000000000E+00  0.00000E+00  9.000E+00
      21    -1     0     0   502   503  0.000000000E+00  0.000000000E+00 -9.526810319E+02  9.526810319E+02  0.000000000E+00  0.00000E+00  9.000E+00
      25     1     1     2     0     0 -9.723550866E-02  7.579443544E+00 -8.556028897E+02  8.647193764E+02  1.250033501E+02  0.00000E+00  9.000E+00
       5     1     1     2   501     0  1.450153921E+00 -3.933677383E+00  1.108059340E+01  1.276396546E+01  4.750000000E+00  0.00000E+00  9.000E+00
      -5     1     1     2     0   503 -4.856397490E+00 -8.793412832E+00 -7.550666164E+01  7.631990014E+01  4.750000000E+00  0.00000E+00  9.000E+00
      21     1     1     2   511   501  3.503479077E+00  5.147646670E+00 -1.515007627E+01  1.637978763E+01  1.685873940E-07  0.00000E+00  9.000E+00
#rwgt            1           9  0.60017344121543115                9     1516957           0
</event>
<event>
      6   9999  3.45752E-01  1.48080E+01 -1.00000E+00  1.70858E-01
       2    -1     0     0   501     0  0.000000000E+00  0.000000000E+00  1.461948366E+03  1.461948366E+03  0.000000000E+00  0.00000E+00  9.000E+00
      21    -1     0     0   502   503  0.000000000E+00  0.000000000E+00 -1.399340902E+03  1.399340902E+03  0.000000000E+00  0.00000E+00  9.000E+00
      25     1     1     2     0     0 -1.450348824E+01  1.314165092E+01 -8.801363313E+01  1.541254079E+02  1.250007503E+02  0.00000E+00  9.000E+00
       5     1     1     2   501     0 -8.850285381E+00 -2.766359152E+00  2.411886812E+01  2.627284898E+01  4.750000000E+00  0.00000E+00  9.000E+00
      -5     1     1     2     0   503  8.595463954E+00 -9.163368709E+00 -1.277120022E+03  1.277190652E+03  4.750000000E+00  0.00000E+00  9.000E+00
       2     1     1     2   502     0  1.475830967E+01 -1.211923058E+00  1.403622250E+03  1.403700359E+03  2.157918644E-05  0.00000E+00  9.000E+00
#rwgt            1           9   4.6746114756357227E-004           9     1520828           0
</event>
<event>
      6   9999  3.45752E-01  4.08060E+00 -1.00000E+00  2.46070E-01
      21    -1     0     0   501   511  0.000000000E+00  0.000000000E+00  1.675712608E+01  1.675712608E+01  0.000000000E+00  0.00000E+00  9.000E+00
      21    -1     0     0   502   503  0.000000000E+00  0.000000000E+00 -8.726810519E+02  8.726810519E+02  0.000000000E+00  0.00000E+00  9.000E+00
      25     1     1     2     0     0 -4.778171927E+00 -2.575112824E+00 -7.561100809E+02  7.663925280E+02  1.250023616E+02  0.00000E+00  9.000E+00
       5     1     1     2   501     0 -4.110783586E-01 -3.159561496E+00  8.998274905E+00  1.066223548E+01  4.750000000E+00  0.00000E+00  9.000E+00
      -5     1     1     2     0   503  9.179526514E+00  6.588478040E+00 -1.073519846E+02  1.080494463E+02  4.750000000E+00  0.00000E+00  9.000E+00
      21     1     1     2   502   511 -3.990276229E+00 -8.538037213E-01 -1.460135206E+00  4.333968158E+00  1.074538015E-07  0.00000E+00  9.000E+00
#rwgt            1           9   6.1930673971015600E-003           9     1523970           0
</event>
<event>
      6   9999  3.45752E-01  1.47643E+01 -1.00000E+00  1.70970E-01
      21    -1     0     0   512   502  0.000000000E+00  0.000000000E+00  1.934053962E+01  1.934053962E+01  0.000000000E+00  0.00000E+00  9.000E+00
      21    -1     0     0   502   503  0.000000000E+00  0.000000000E+00 -8.768432479E+02  8.768432479E+02  0.000000000E+00  0.00000E+00  9.000E+00
      25     1     1     2     0     0 -9.582135292E+00 -1.547733764E+01 -7.785570483E+02  7.887382037E+02  1.250020450E+02  0.00000E+00  9.000E+00
       5     1     1     2   501     0 -1.000379735E+00  1.996588373E+00  5.218852539E+00  7.401759694E+00  4.750000000E+00  0.00000E+00  9.000E+00
      -5     1     1     2     0   503 -3.792606391E+00  1.684818420E+01 -8.335472349E+01  8.525736098E+01  4.750000000E+00  0.00000E+00  9.000E+00
      21     1     1     2   512   501  1.437512142E+01 -3.367434930E+00 -8.097890484E-01  1.478646314E+01  4.864036663E-07  0.00000E+00  9.000E+00
#rwgt            1           9   4.1877316898753338E-004           9     1529483           0
</event>
<event>
      6   9999  3.45752E-01  2.39666E+02 -1.00000E+00  1.06243E-01
      21    -1     0     0   501   511  0.000000000E+00  0.000000000E+00  1.159343622E+03  1.159343622E+03  0.000000000E+00  0.00000E+00  9.000E+00
      21    -1     0     0   502   503  0.000000000E+00  0.000000000E+00 -3.187008924E+03  3.187008924E+03  0.000000000E+00  0.00000E+00  9.000E+00
      25     1     1     2     0     0  1.480371629E+02  4.959604981E+01 -4.944376334E+02  5.333549192E+02  1.249965070E+02  0.00000E+00  9.000E+00
       5     1     1     2   501     0  6.681607290E+00  1.320091852E+02  8.264984093E+02  8.370144873E+02  4.750000000E+00  0.00000E+00  9.000E+00
      -5     1     1     2     0   503  1.509354624E+00  1.430549508E-01 -2.621248220E+03  2.621252962E+03  4.750000000E+00  0.00000E+00  9.000E+00
      21     1     1     2   502   511 -1.562281248E+02 -1.817482900E+02  2.615221416E+02  3.547301769E+02  0.000000000E+00  0.00000E+00  9.000E+00
#rwgt            1           9   2.0907330384255188E-003           9     1532600           0
</event>
<event>
      6   9999  3.45752E-01  8.09283E+00 -1.00000E+00  1.97424E-01
      21    -1     0     0   501   502  0.000000000E+00  0.000000000E+00  4.041894089E+01  4.041894089E+01  0.000000000E+00  0.00000E+00  9.000E+00
      21    -1     0     0   502   512  0.000000000E+00  0.000000000E+00 -4.316980697E+02  4.316980697E+02  0.000000000E+00  0.00000E+00  9.000E+00
      25     1     1     2     0     0  1.192338051E+01 -1.376638320E+01 -2.627802494E+02  2.915649480E+02  1.249999165E+02  0.00000E+00  9.000E+00
       5     1     1     2   501     0 -1.305756242E+00  2.291223665E+00  1.946638076E+01  2.021032373E+01  4.750000000E+00  0.00000E+00  9.000E+00
      -5     1     1     2     0   503 -1.849814535E+01  9.633630433E+00 -1.278615804E+01  2.492060501E+01  4.750000000E+00  0.00000E+00  9.000E+00
      21     1     1     2   503   512  7.880521089E+00  1.841529097E+00 -1.351791021E+02  1.354211338E+02  1.907348633E-06  0.00000E+00  9.000E+00
#rwgt            1           9   1.7673632467681558E-004           9     1533775           0
</event>
<event>
      6   9999 -3.45752E-01  1.49317E+01 -1.00000E+00  1.70543E-01
      21    -1     0     0   511   503  0.000000000E+00  0.000000000E+00  6.455078169E+01  6.455078169E+01  0.000000000E+00  0.00000E+00  9.000E+00
      21    -1     0     0   501   502  0.000000000E+00  0.000000000E+00 -8.636066394E+02  8.636066394E+02  0.000000000E+00  0.00000E+00  9.000E+00
      25     1     1     2     0     0  1.105143206E+01  3.852565213E+01 -3.254093187E+02  3.508768797E+02  1.249679958E+02  0.00000E+00  9.000E+00
       5     1     1     2   501     0  1.472378221E+01 -5.030358693E+01 -4.212168406E+02  4.244919669E+02  4.750000000E+00  0.00000E+00  9.000E+00
      -5     1     1     2     0   503 -1.463961971E+01  1.830405638E+00 -1.008933027E+02  1.020768822E+02  4.750000000E+00  0.00000E+00  9.000E+00
      21     1     1     2   511   502 -1.113559455E+01  9.947529165E+00  4.846360427E+01  5.071169235E+01  1.168007728E-06  0.00000E+00  9.000E+00
#rwgt            1           9 -0.59789046763500597                9     1536834           0
</event>
<event>
      6   9999  3.45752E-01  1.38102E+01 -1.00000E+00  1.73542E-01
      -2    -1     0     0     0   503  0.000000000E+00  0.000000000E+00  4.232002346E+01  4.232002346E+01  0.000000000E+00  0.00000E+00  9.000E+00
      21    -1     0     0   501   502  0.000000000E+00  0.000000000E+00 -5.682043663E+02  5.682043663E+02  0.000000000E+00  0.00000E+00  9.000E+00
      25     1     1     2     0     0  2.440415725E+00  1.639797172E+01 -4.148682082E+02  4.336071785E+02  1.249988240E+02  0.00000E+00  9.000E+00
       5     1     1     2   501     0  7.903684654E+00 -9.619385217E+00 -1.241396825E+02  1.248528097E+02  4.750000000E+00  0.00000E+00  9.000E+00
      -5     1     1     2     0   503  9.281434196E-01  1.200010477E+00 -1.764640775E+01  1.833738481E+01  4.750000000E+00  0.00000E+00  9.000E+00
      -2     1     1     2     0   502 -1.127224380E+01 -7.978596984E+00  3.076995563E+01  3.372701676E+01  3.371747881E-07  0.00000E+00  9.000E+00
#rwgt            1           9   6.1294880058541848E-004           9     1539165           0
</event>
<event>
      6   9999  3.45752E-01  8.11167E+00 -1.00000E+00  1.97305E-01
      21    -1     0     0   501   502  0.000000000E+00  0.000000000E+00  3.099789757E+01  3.099789757E+01  0.000000000E+00  0.00000E+00  9.000E+00
      21    -1     0     0   502   511  0.000000000E+00  0.000000000E+00 -1.158575014E+03  1.158575014E+03  0.000000000E+00  0.00000E+00  9.000E+00
      25     1     1     2     0     0  1.018437057E+02  1.963465450E+01 -6.250397718E+02  6.457995991E+02  1.249989833E+02  0.00000E+00  9.000E+00
       5     1     1     2   501     0  4.501830218E-01  2.813300610E+00  1.472736331E+01  1.573451795E+01  4.750000000E+00  0.00000E+00  9.000E+00
      -5     1     1     2     0   503 -9.538192874E+01 -1.820249172E+01 -4.566836641E+02  4.669170961E+02  4.750000000E+00  0.00000E+00  9.000E+00
      21     1     1     2   503   511 -6.911959958E+00 -4.245463390E+00 -6.058104422E+01  6.112169884E+01  6.743495762E-07  0.00000E+00  9.000E+00
#rwgt            1           9   4.6349330446154545E-002           9     1541348           0
</event>
<event>
      6   9999 -3.45752E-01  2.56310E+01 -1.00000E+00  1.52400E-01
      21    -1     0     0   501   502  0.000000000E+00  0.000000000E+00  2.978648359E+01  2.978648359E+01  0.000000000E+00  0.00000E+00  9.000E+00
      21    -1     0     0   512   503  0.000000000E+00  0.000000000E+00 -1.186841558E+03  1.186841558E+03  0.000000000E+00  0.00000E+00  9.000E+00
      25     1     1     2     0     0  6.082960692E+00 -3.840961743E+01 -9.904335297E+02  9.990478866E+02  1.250032072E+02  0.00000E+00  9.000E+00
       5     1     1     2   501     0 -2.650761186E+00 -2.936220768E+00  2.215992791E+01  2.300593037E+01  4.750000000E+00  0.00000E+00  9.000E+00
      -5     1     1     2     0   503 -4.363167473E+00  1.573177435E+01 -3.800803491E+01  4.163771334E+01  4.750000000E+00  0.00000E+00  9.000E+00
      21     1     1     2   512   502  9.309679673E-01  2.561406385E+01 -1.507734382E+02  1.529365118E+02  0.000000000E+00  0.00000E+00  9.000E+00
#rwgt            1           9  -1.1032671942549957E-004           9     1545493           0
</event>
<event>
      6   9999 -3.45752E-01  1.90867E+01 -1.00000E+00  1.61775E-01
      21    -1     0     0   501   502  0.000000000E+00  0.000000000E+00  1.431201880E+01  1.431201880E+01  0.000000000E+00  0.00000E+00  9.000E+00
      21    -1     0     0   511   503  0.000000000E+00  0.000000000E+00 -1.326111916E+03  1.326111916E+03  0.000000000E+00  0.00000E+00  9.000E+00
      25     1     1     2     0     0  2.309578815E+01  1.873386314E+01 -6.433852189E+02  6.560917903E+02  1.250100974E+02  0.00000E+00  9.000E+00
       5     1     1     2   501     0  3.250029718E+00  6.328737380E+00  4.958513775E+00  9.887616945E+00  4.750000000E+00  0.00000E+00  9.000E+00
      -5     1     1     2     0   503 -1.187906372E+01 -1.261207682E+01 -2.521774864E+02  2.528165813E+02  4.750000000E+00  0.00000E+00  9.000E+00
      21     1     1     2   511   502 -1.446675415E+01 -1.245052370E+01 -4.211957060E+02  4.216279465E+02  9.344061824E-06  0.00000E+00  9.000E+00
#rwgt            1           9  -5.1659407428202977E-002           9     1547077           0
</event>
<event>
      6   9999  3.45752E-01  4.75458E+00 -1.00000E+00  2.33275E-01
      21    -1     0     0   501   502  0.000000000E+00  0.000000000E+00  4.228404586E+00  4.228404586E+00  0.000000000E+00  0.00000E+00  9.000E+00
      21    -1     0     0   502   512  0.000000000E+00  0.000000000E+00 -1.374470457E+03  1.374470457E+03  0.000000000E+00  0.00000E+00  9.000E+00
      25     1     1     2     0     0 -4.278641427E+00  4.939980489E+00 -1.033145411E+03  1.040700493E+03  1.250014625E+02  0.00000E+00  9.000E+00
       5     1     1     2   501     0 -1.414109331E-01 -6.046935795E-01 -2.406284390E+01  2.453504857E+01  4.750000000E+00  0.00000E+00  9.000E+00
      -5     1     1     2     0   503  9.168054149E+00 -4.085260403E+00 -2.520368330E+02  2.522813316E+02  4.750000000E+00  0.00000E+00  9.000E+00
      21     1     1     2   503   512 -4.748001789E+00 -2.500265058E-01 -6.099696416E+01  6.118198812E+01  6.743495762E-07  0.00000E+00  9.000E+00
#rwgt            1           9   1.0253492089399860E-003           9     1548808           0
</event>
<event>
      6   9999  3.45752E-01  6.50428E+00 -1.00000E+00  2.09290E-01
      21    -1     0     0   502   511  0.000000000E+00  0.000000000E+00  2.592490959E+01  2.592490959E+01  0.000000000E+00  0.00000E+00  9.000E+00
      21    -1     0     0   501   502  0.000000000E+00  0.000000000E+00 -8.820949621E+02  8.820949621E+02  0.000000000E+00  0.00000E+00  9.000E+00
      25     1     1     2     0     0 -1.154950004E+01 -3.288986361E+01 -4.441059950E+02  4.626768519E+02  1.249984014E+02  0.00000E+00  9.000E+00
       5     1     1     2   501     0 -3.109049991E+00  5.861678114E+01 -2.105825824E+02  2.186622504E+02  4.750000000E+00  0.00000E+00  9.000E+00
      -5     1     1     2     0   503  8.577756146E+00 -2.341833464E+01 -2.124322741E+02  2.139439877E+02  4.750000000E+00  0.00000E+00  9.000E+00
      21     1     1     2   503   511  6.080793889E+00 -2.308582891E+00  1.095079904E+01  1.273678173E+01  1.215700987E-06  0.00000E+00  9.000E+00
#rwgt            1           9   1.6982165964910312                9     1552662           0
</event>
<event>
      6   9999  3.45752E-01  8.89936E+00 -1.00000E+00  1.92691E-01
      21    -1     0     0   501   502  0.000000000E+00  0.000000000E+00  5.243341591E+01  5.243341591E+01  0.000000000E+00  0.00000E+00  9.000E+00
      21    -1     0     0   512   503  0.000000000E+00  0.000000000E+00 -7.427678911E+02  7.427678911E+02  0.000000000E+00  0.00000E+00  9.000E+00
      25     1     1     2     0     0 -3.829031738E+00 -7.633120365E+00 -8.840802906E+01  1.533190325E+02  1.249712771E+02  0.00000E+00  9.000E+00
       5     1     1     2   501     0 -8.598002044E-01  1.970160926E-01  1.780931414E+01  1.845297379E+01  4.750000000E+00  0.00000E+00  9.000E+00
      -5     1     1     2     0   503 -7.542298723E-01  3.953911477E-01 -1.393359823E+00  5.022862576E+00  4.750000000E+00  0.00000E+00  9.000E+00
      21     1     1     2   512   502  5.443061815E+00  7.040713125E+00 -6.183424004E+02  6.184064381E+02  0.000000000E+00  0.00000E+00  9.000E+00
#rwgt            1           9   3.2977667968768672E-002           9     1556296           0
</event>
<event>
      6   9999  3.45752E-01  9.79310E+00 -1.00000E+00  1.88155E-01
      21    -1     0     0   501   502  0.000000000E+00  0.000000000E+00  7.407466072E+01  7.407466072E+01  0.000000000E+00  0.00000E+00  9.000E+00
      21    -1     0     0   511   503  0.000000000E+00  0.000000000E+00 -4.658806129E+02  4.658806129E+02  0.000000000E+00  0.00000E+00  9.000E+00
      25     1     1     2     0     0  5.439321301E+00 -3.013099480E+00 -2.403574952E+01  1.274392821E+02  1.249975535E+02  0.00000E+00  9.000E+00
       5     1     1     2   501     0 -6.241407775E-01 -1.196229042E+00  1.077968728E+01  1.185684079E+01  4.750000000E+00  0.00000E+00  9.000E+00
      -5     1     1     2     0   503 -1.080928344E+01 -3.535061332E+00  7.537929698E+00  1.444715028E+01  4.750000000E+00  0.00000E+00  9.000E+00
      21     1     1     2   511   502  5.994102912E+00  7.744389854E+00 -3.860878196E+02  3.862120005E+02  0.000000000E+00  0.00000E+00  9.000E+00
#rwgt            1           9  0.14888607068259252                9     1559227           0
</event>
<event>
      6   9999  3.45752E-01  1.17854E+01 -1.00000E+00  1.79979E-01
      21    -1     0     0   501   502  0.000000000E+00  0.000000000E+00  1.360810220E+02  1.360810220E+02  0.000000000E+00  0.00000E+00  9.000E+00
      21    -1     0     0   512   503  0.000000000E+00  0.000000000E+00 -1.123889216E+02  1.123889216E+02  0.000000000E+00  0.00000E+00  9.000E+00
      25     1     1     2     0     0  3.237659608E+01  5.389795476E+00 -5.724213887E+01  1.413467629E+02  1.249998042E+02  0.00000E+00  9.000E+00
       5     1     1     2   501     0  2.875997038E-01 -8.689176402E-01  6.292445231E+01  6.311011749E+01  4.750000000E+00  0.00000E+00  9.000E+00
      -5     1     1     2     0   503 -2.113992626E+01 -2.053838379E+00  2.259038473E+01  3.136881758E+01  4.750000000E+00  0.00000E+00  9.000E+00
      21     1     1     2   512   502 -1.152426952E+01 -2.467039457E+00 -4.580597709E+00  1.264424561E+01  1.788139343E-07  0.00000E+00  9.000E+00
#rwgt            1           9   6.8297615113744291E-004           9     1561657           0
</event>
<event>
      6   9999  3.45752E-01  1.60309E+01 -1.00000E+00  1.67907E-01
      21    -1     0     0   501   502  0.000000000E+00  0.000000000E+00  3.837367082E+03  3.837367082E+03  0.000000000E+00  0.00000E+00  9.000E+00
      21    -1     0     0   511   503  0.000000000E+00  0.000000000E+00 -6.672518334E+00  6.672518334E+00  0.000000000E+00  0.00000E+00  9.000E+00
      25     1     1     2     0     0 -1.179070880E-01  8.148376825E+00  2.087123388E+03  2.090879460E+03  1.250058749E+02  0.00000E+00  9.000E+00
       5     1     1     2   501     0 -2.332852643E+00  3.321494339E-01  1.050076496E+03  1.050089883E+03  4.750000000E+00  0.00000E+00  9.000E+00
      -5     1     1     2     0   503 -1.316268376E+01 -4.845836614E+00  6.845550624E+02  6.847152214E+02  4.750000000E+00  0.00000E+00  9.000E+00
      21     1     1     2   511   502  1.561344350E+01 -3.634689644E+00  8.939616821E+00  1.835503570E+01  1.811824340E-06  0.00000E+00  9.000E+00
#rwgt            1           9   5.2463504593223742E-002           9     1564390           0
</event>
<event>
      6   9999  3.45752E-01  3.13423E+01 -1.00000E+00  1.46619E-01
      21    -1     0     0   501   512  0.000000000E+00  0.000000000E+00  2.070644770E+01  2.070644770E+01  0.000000000E+00  0.00000E+00  9.000E+00
      21    -1     0     0   502   503  0.000000000E+00  0.000000000E+00 -1.021514049E+03  1.021514049E+03  0.000000000E+00  0.00000E+00  9.000E+00
      25     1     1     2     0     0 -1.867576076E+01  2.392918575E+01 -6.366658795E+02  6.495306888E+02  1.250011344E+02  0.00000E+00  9.000E+00
       5     1     1     2   501     0  1.808246850E+00 -4.147667687E+00  7.033522578E+00  9.617995829E+00  4.750000000E+00  0.00000E+00  9.000E+00
      -5     1     1     2     0   503  2.651889640E+01 -4.960085142E+01 -3.005479636E+02  3.058024481E+02  4.750000000E+00  0.00000E+00  9.000E+00
      21     1     1     2   502   512 -9.651382484E+00  2.981933335E+01 -7.062728099E+01  7.726936421E+01  0.000000000E+00  0.00000E+00  9.000E+00
#rwgt            1           9   4.7331302989863061E-004           9     1565469           0
</event>
<event>
      6   9999  3.45752E-01  5.97530E+00 -1.00000E+00  2.14308E-01
      21    -1     0     0   501   511  0.000000000E+00  0.000000000E+00  6.037578128E+01  6.037578128E+01  0.000000000E+00  0.00000E+00  9.000E+00
      21    -1     0     0   502   503  0.000000000E+00  0.000000000E+00 -9.864297967E+02  9.864297967E+02  0.000000000E+00  0.00000E+00  9.000E+00
      25     1     1     2     0     0  1.092181350E+00 -3.281813957E+00 -9.280132864E+02  9.363997427E+02  1.249954203E+02  0.00000E+00  9.000E+00
       5     1     1     2   501     0  4.737318701E-02 -3.380029635E+00  3.379483639E+00  6.738713098E+00  4.750000000E+00  0.00000E+00  9.000E+00
      -5     1     1     2     0   503 -1.516324742E+00  6.984318476E-01 -5.224764016E+01  5.248966994E+01  4.750000000E+00  0.00000E+00  9.000E+00
      21     1     1     2   502   511  3.767702055E-01  5.963411745E+00  5.082742752E+01  5.117745229E+01  1.507891493E-06  0.00000E+00  9.000E+00
#rwgt            1           9   7.1975677479715126                9     1566980           0
</event>
<event>
      6   9999  3.45752E-01  1.05374E+02 -1.00000E+00  1.19477E-01
      21    -1     0     0   512   503  0.000000000E+00  0.000000000E+00  8.856975885E+02  8.856975885E+02  0.000000000E+00  0.00000E+00  9.000E+00
      21    -1     0     0   501   502  0.000000000E+00  0.000000000E+00 -1.688511661E+03  1.688511661E+03  0.000000000E+00  0.00000E+00  9.000E+00
      25     1     1     2     0     0  1.656368449E+02  4.112060654E+01 -3.882993651E+02  4.421857074E+02  1.250013368E+02  0.00000E+00  9.000E+00
       5     1     1     2   501     0 -1.926170563E+02  1.557117192E+02 -2.409242266E+02  3.455640539E+02  4.750000000E+00  0.00000E+00  9.000E+00
      -5     1     1     2     0   503  8.559008327E+01 -2.844026248E+02 -9.538940779E+02  9.990730653E+02  4.750000000E+00  0.00000E+00  9.000E+00
      21     1     1     2   512   502 -5.860987191E+01  8.757029905E+01  7.803035975E+02  7.873864227E+02  1.078959322E-05  0.00000E+00  9.000E+00
#rwgt            1           9   7.3141993079407706E-007           9     1570209           0
</event>
<event>
      6   9999  3.45752E-01  1.37345E+01 -1.00000E+00  1.73757E-01
      21    -1     0     0   511   502  0.000000000E+00  0.000000000E+00  4.594690214E+01  4.594690214E+01  0.000000000E+00  0.00000E+00  9.000E+00
      21    -1     0     0   502   503  0.000000000E+00  0.000000000E+00 -1.046390776E+03  1.046390776E+03  0.000000000E+00  0.00000E+00  9.000E+00
      25     1     1     2     0     0 -9.413235971E-01  2.956700668E+01 -6.043802399E+02  6.178801541E+02  1.250012658E+02  0.00000E+00  9.000E+00
       5     1     1     2   501     0  5.746320568E+00  5.783873324E+00  1.550996846E+01  1.815475179E+01  4.750000000E+00  0.00000E+00  9.000E+00
      -5     1     1     2     0   503 -4.645057608E+00 -2.161733767E+01 -4.315051364E+02  4.320973630E+02  4.750000000E+00  0.00000E+00  9.000E+00
      21     1     1     2   511   501 -1.599393629E-01 -1.373354234E+01  1.993153427E+01  2.420540899E+01  5.840038640E-07  0.00000E+00  9.000E+00
#rwgt            1           9   6.4849564564676505E-005           9     1571079           0
</event>
<event>
      6   9999  3.45752E-01  3.60205E+01 -1.00000E+00  1.42877E-01
      21    -1     0     0   501   502  0.000000000E+00  0.000000000E+00  2.816234617E+01  2.816234617E+01  0.000000000E+00  0.00000E+00  9.000E+00
      21    -1     0     0   512   503  0.000000000E+00  0.000000000E+00 -1.156519903E+03  1.156519903E+03  0.000000000E+00  0.00000E+00  9.000E+00
      25     1     1     2     0     0 -4.779340498E+01 -8.319164395E+01 -8.332107384E+02  8.479719443E+02  1.249448864E+02  0.00000E+00  9.000E+00
       5     1     1     2   501     0 -4.693191816E+00 -1.018077300E+01  7.846034472E+00  1.448436900E+01  4.750000000E+00  0.00000E+00  9.000E+00
      -5     1     1     2     0   503  4.306366147E+01  5.860625923E+01 -1.842850018E+02  1.981734012E+02  4.750000000E+00  0.00000E+00  9.000E+00
      21     1     1     2   512   502  9.422935322E+00  3.476615772E+01 -1.187078515E+02  1.240525350E+02  0.000000000E+00  0.00000E+00  9.000E+00
#rwgt            1           9   2.0980112571636605E-005           9     1573372           0
</event>
<event>
      6   9999  3.45752E-01  6.41756E+00 -1.00000E+00  2.10067E-01
      21    -1     0     0   501   502  0.000000000E+00  0.000000000E+00  7.868729626E+00  7.868729626E+00  0.000000000E+00  0.00000E+00  9.000E+00
      21    -1     0     0   511   503  0.000000000E+00  0.000000000E+00 -8.873073581E+02  8.873073581E+02  0.000000000E+00  0.00000E+00  9.000E+00
      25     1     1     2     0     0 -4.824178796E+00 -8.336045680E+00 -7.752979069E+02  7.853689976E+02  1.249994226E+02  0.00000E+00  9.000E+00
       5     1     1     2   501     0  1.729164077E-01 -6.756779393E-01 -7.028442249E-01  4.852105807E+00  4.750000000E+00  0.00000E+00  9.000E+00
      -5     1     1     2     0   503 -1.377168452E+00  6.811031563E+00 -2.782508085E+01  2.907033485E+01  4.750000000E+00  0.00000E+00  9.000E+00
      21     1     1     2   511   502  6.028430840E+00  2.200692056E+00 -7.561279658E+01  7.588464950E+01  9.536743164E-07  0.00000E+00  9.000E+00
#rwgt            1           9   3.2010232711038047E-002           9     1574563           0
</event>
<event>
      6   9999  3.45752E-01  6.69634E+00 -1.00000E+00  2.07624E-01
      21    -1     0     0   501   512  0.000000000E+00  0.000000000E+00  1.347065237E+02  1.347065237E+02  0.000000000E+00  0.00000E+00  9.000E+00
      21    -1     0     0   502   503  0.000000000E+00  0.000000000E+00 -1.979156704E+02  1.979156704E+02  0.000000000E+00  0.00000E+00  9.000E+00
      25     1     1     2     0     0 -2.193217107E+01  8.067321787E+00 -1.679545363E+02  2.106700001E+02  1.250080832E+02  0.00000E+00  9.000E+00
       5     1     1     2   501     0 -3.189885084E+00  2.468334810E+00  3.577632316E+01  3.631495342E+01  4.750000000E+00  0.00000E+00  9.000E+00
      -5     1     1     2     0   503  2.087495203E+01 -5.358482838E+00  6.777533254E+00  2.308623871E+01  4.750000000E+00  0.00000E+00  9.000E+00
      21     1     1     2   502   512  4.247104119E+00 -5.177173759E+00  6.219153330E+01  6.255100188E+01  6.743495762E-07  0.00000E+00  9.000E+00
#rwgt            1           9   4.6698902102438949E-004           9     1578228           0
</event>
<event>
      6   9999  3.45752E-01  3.24960E+00 -1.00000E+00  2.68138E-01
      21    -1     0     0   501   502  0.000000000E+00  0.000000000E+00  1.366899071E+01  1.366899071E+01  0.000000000E+00  0.00000E+00  9.000E+00
      21    -1     0     0   511   503  0.000000000E+00  0.000000000E+00 -9.447291861E+02  9.447291861E+02  0.000000000E+00  0.00000E+00  9.000E+00
      25     1     1     2     0     0 -1.625048068E+00 -7.252618153E+00 -7.692512614E+02  7.793765946E+02  1.250005266E+02  0.00000E+00  9.000E+00
       5     1     1     2   501     0 -1.690900994E+00  2.605715295E+00  7.527711869E+00  9.427504673E+00  4.750000000E+00  0.00000E+00  9.000E+00
      -5     1     1     2     0   503  2.379876380E-01  3.604771546E+00 -9.582888167E+01  9.601452014E+01  4.750000000E+00  0.00000E+00  9.000E+00
      21     1     1     2   511   502  3.077961424E+00  1.042131312E+00 -7.350776412E+01  7.357955742E+01  9.536743164E-07  0.00000E+00  9.000E+00
#rwgt            1           9   1.1847141316935832E-003           9     1582091           0
</event>
<event>
      6   9999 -3.45752E-01  1.80380E+01 -1.00000E+00  1.63710E-01
      21    -1     0     0   501   502  0.000000000E+00  0.000000000E+00  6.750826546E+01  6.750826546E+01  0.000000000E+00  0.00000E+00  9.000E+00
      21    -1     0     0   502   512  0.000000000E+00  0.000000000E+00 -1.450708835E+03  1.450708835E+03  0.000000000E+00  0.00000E+00  9.000E+00
      25     1     1     2     0     0  1.259540816E+00  1.602259764E+02 -5.622786616E+02  5.978770137E+02  1.250027212E+02  0.00000E+00  9.000E+00
       5     1     1     2   501     0 -1.481449651E+01 -6.337472604E-01  3.861858507E+01  4.163926699E+01  4.750000000E+00  0.00000E+00  9.000E+00
      -5     1     1     2     0   503 -3.662183703E+00 -1.542125407E+02 -6.369189613E+02  6.553497120E+02  4.750000000E+00  0.00000E+00  9.000E+00
      21     1     1     2   503   512  1.721713940E+01 -5.379688343E+00 -2.226215318E+02  2.233511078E+02  2.697398305E-06  0.00000E+00  9.000E+00
#rwgt            1           9  -1.5742168480236912E-004           9     1587634           0
</event>
<event>
      6   9999  3.45752E-01  1.93090E+01 -1.00000E+00  1.61385E-01
      21    -1     0     0   501   502  0.000000000E+00  0.000000000E+00  2.163773869E+03  2.163773869E+03  0.000000000E+00  0.00000E+00  9.000E+00
      21    -1     0     0   502   511  0.000000000E+00  0.000000000E+00 -2.582681341E+01  2.582681341E+01  0.000000000E+00  0.00000E+00  9.000E+00
      25     1     1     2     0     0 -7.228767368E+01  4.989698068E+00  1.921607486E+03  1.927031556E+03  1.249995289E+02  0.00000E+00  9.000E+00
       5     1     1     2   501     0 -7.867073708E-01 -9.561439247E-01  1.797397041E+02  1.798067208E+02  4.750000000E+00  0.00000E+00  9.000E+00
      -5     1     1     2     0   503  5.397071897E+01 -6.842001513E+00  3.029580078E+01  6.245037659E+01  4.750000000E+00  0.00000E+00  9.000E+00
      21     1     1     2   503   511  1.910366207E+01  2.808447370E+00  6.304064205E+00  2.031202862E+01  7.251217997E-07  0.00000E+00  9.000E+00
#rwgt            1           9   2.1731672849023881E-004           9     1590938           0
</event>
<event>
      6   9999  3.45752E-01  4.30905E+00 -1.00000E+00  2.41345E-01
      21    -1     0     0   512   502  0.000000000E+00  0.000000000E+00  1.254844042E+01  1.254844042E+01  0.000000000E+00  0.00000E+00  9.000E+00
      21    -1     0     0   502   503  0.000000000E+00  0.000000000E+00 -4.739066131E+03  4.739066131E+03  0.000000000E+00  0.00000E+00  9.000E+00
      25     1     1     2     0     0 -2.149631099E+00  6.133727291E+00 -4.241503823E+03  4.243350311E+03  1.249997375E+02  0.00000E+00  9.000E+00
       5     1     1     2   501     0  4.534661186E+00 -7.335041373E+00  2.249679580E+00  1.009898719E+01  4.750000000E+00  0.00000E+00  9.000E+00
      -5     1     1     2     0   503  1.804095925E+00  2.210834829E+00 -4.918447540E+02  4.918759672E+02  4.750000000E+00  0.00000E+00  9.000E+00
      21     1     1     2   512   501 -4.189126011E+00 -1.009520747E+00  4.581207338E+00  6.289305967E+00  6.664001875E-07  0.00000E+00  9.000E+00
#rwgt            1           9   7.1012279338440003E-003           9     1593284           0
</event>
<event>
      6   9999  3.45752E-01  1.22087E+01 -1.00000E+00  1.78504E-01
      -4    -1     0     0     0   503  0.000000000E+00  0.000000000E+00  1.841645011E+01  1.841645011E+01  0.000000000E+00  0.00000E+00  9.000E+00
      21    -1     0     0   501   502  0.000000000E+00  0.000000000E+00 -7.982057972E+02  7.982057972E+02  0.000000000E+00  0.00000E+00  9.000E+00
      25     1     1     2     0     0 -6.463998092E+00  1.205159864E+01 -4.369918735E+02  4.547236418E+02  1.249986743E+02  0.00000E+00  9.000E+00
       5     1     1     2   501     0  1.797111325E-01 -2.453700967E+00 -3.345145902E+02  3.345573590E+02  4.750000000E+00  0.00000E+00  9.000E+00
      -5     1     1     2     0   503  5.488237384E-01  1.179656983E+00 -1.326911487E+01  1.415361111E+01  4.750000000E+00  0.00000E+00  9.000E+00
      -4     1     1     2     0   502  5.735463221E+00 -1.077755465E+01  4.986231461E+00  1.318763538E+01  5.990192664E-07  0.00000E+00  9.000E+00
#rwgt            1           9   2.0657981562138498E-002           9     1598690           0
</event>
<event>
      6   9999 -3.45752E-01  1.84182E+01 -1.00000E+00  1.62991E-01
      21    -1     0     0   501   502  0.000000000E+00  0.000000000E+00  4.082547100E+01  4.082547100E+01  0.000000000E+00  0.00000E+00  9.000E+00
       2    -1     0     0   502     0  0.000000000E+00  0.000000000E+00 -2.425708989E+03  2.425708989E+03  0.000000000E+00  0.00000E+00  9.000E+00
      25     1     1     2     0     0  1.298001373E+02 -1.057492296E+02 -4.781234116E+02  5.217837200E+02  1.250011141E+02  0.00000E+00  9.000E+00
       5     1     1     2   501     0  7.645176415E-01  4.419498818E+00  8.810639658E+00  1.096842414E+01  4.750000000E+00  0.00000E+00  9.000E+00
      -5     1     1     2     0   503 -1.184612757E+02  1.152126889E+02 -7.473325968E+02  7.653989877E+02  4.750000000E+00  0.00000E+00  9.000E+00
       2     1     1     2   503     0 -1.210337924E+01 -1.388295810E+01 -1.168238149E+03  1.168383328E+03  2.642899792E-05  0.00000E+00  9.000E+00
#rwgt            1           9  -1.4124473774298154E-002           9     1601394           0
</event>
<event>
      6   9999  3.45752E-01  3.31891E+01 -1.00000E+00  1.45055E-01
      21    -1     0     0   501   502  0.000000000E+00  0.000000000E+00  2.168484589E+02  2.168484589E+02  0.000000000E+00  0.00000E+00  9.000E+00
      21    -1     0     0   511   503  0.000000000E+00  0.000000000E+00 -5.520517994E+02  5.520517994E+02  0.000000000E+00  0.00000E+00  9.000E+00
      25     1     1     2     0     0  1.385231561E+02  5.305876301E+01 -1.142700869E+02  2.251365798E+02  1.249997188E+02  0.00000E+00  9.000E+00
       5     1     1     2   501     0  5.353564884E-02  2.102275818E+00  1.362899250E+02  1.363888873E+02  4.750000000E+00  0.00000E+00  9.000E+00
      -5     1     1     2     0   503 -1.203448628E+02 -2.742810649E+01 -1.361854359E+02  1.838592464E+02  4.750000000E+00  0.00000E+00  9.000E+00
      21     1     1     2   511   502 -1.823182889E+01 -2.773293233E+01 -2.210377426E+02  2.235155448E+02  0.000000000E+00  0.00000E+00  9.000E+00
#rwgt            1           9   9.5843819232861699E-002           9     1603761           0
</event>
<event>
      6   9999  3.45752E-01  1.03405E+01 -1.00000E+00  1.85675E-01
       3    -1     0     0   501     0  0.000000000E+00  0.000000000E+00  8.189082711E+02  8.189082711E+02  0.000000000E+00  0.00000E+00  9.000E+00
      21    -1     0     0   502   503  0.000000000E+00  0.000000000E+00 -1.697763778E+02  1.697763778E+02  0.000000000E+00  0.00000E+00  9.000E+00
      25     1     1     2     0     0  2.304144325E+01 -5.104217797E+00 -7.347686454E+01  1.469028472E+02  1.249985430E+02  0.00000E+00  9.000E+00
       5     1     1     2   501     0 -2.675988860E+00  1.078461839E+00  5.720377538E+01  5.747311036E+01  4.750000000E+00  0.00000E+00  9.000E+00
      -5     1     1     2     0   503 -2.539854763E+01 -5.007190759E+00 -5.650006364E+01  6.232959066E+01  4.750000000E+00  0.00000E+00  9.000E+00
       3     1     1     2   502     0  5.033093235E+00  9.032946717E+00  7.219050461E+02  7.219791006E+02  1.321449896E-05  0.00000E+00  9.000E+00
#rwgt            1           9   1.3007205053364684E-003           9     1605830           0
</event>
<event>
      6   9999  3.45752E-01  1.17864E+01 -1.00000E+00  1.79976E-01
      21    -1     0     0   501   502  0.000000000E+00  0.000000000E+00  2.924539365E+02  2.924539365E+02  0.000000000E+00  0.00000E+00  9.000E+00
      21    -1     0     0   511   503  0.000000000E+00  0.000000000E+00 -3.325694079E+02  3.325694079E+02  0.000000000E+00  0.00000E+00  9.000E+00
      25     1     1     2     0     0  2.606445569E+02  1.000867724E+02  3.366291527E+01  3.077083715E+02  1.248931663E+02  0.00000E+00  9.000E+00
       5     1     1     2   501     0  1.631262379E-01 -1.055763579E+00  2.170829996E+01  2.224756243E+01  4.750000000E+00  0.00000E+00  9.000E+00
      -5     1     1     2     0   503 -2.493192448E+02 -9.639757341E+01 -9.025555713E+01  2.821722986E+02  4.750000000E+00  0.00000E+00  9.000E+00
      21     1     1     2   511   502 -1.148843832E+01 -2.633435379E+00 -5.231129447E+00  1.289511195E+01  8.429369702E-08  0.00000E+00  9.000E+00
#rwgt            1           9   3.2734760462325096E-003           9     1608735           0
</event>
<event>
      6   9999  3.45752E-01  3.00938E+00 -1.00000E+00  2.76557E-01
      21    -1     0     0   501   502  0.000000000E+00  0.000000000E+00  2.579223938E+01  2.579223938E+01  0.000000000E+00  0.00000E+00  9.000E+00
      21    -1     0     0   512   503  0.000000000E+00  0.000000000E+00 -1.016255899E+03  1.016255899E+03  0.000000000E+00  0.00000E+00  9.000E+00
      25     1     1     2     0     0  8.523613561E+01 -4.816979019E+01 -5.199416615E+02  5.436454478E+02  1.250020560E+02  0.00000E+00  9.000E+00
       5     1     1     2   501     0 -2.001035910E+00 -1.949408512E+00  7.437242491E+00  9.256317525E+00  4.750000000E+00  0.00000E+00  9.000E+00
      -5     1     1     2     0   503 -8.611506833E+01  5.099221425E+01 -4.496393158E+02  4.606670031E+02  4.750000000E+00  0.00000E+00  9.000E+00
      21     1     1     2   512   502  2.879968635E+00 -8.730155523E-01 -2.831992441E+01  2.847936962E+01  0.000000000E+00  0.00000E+00  9.000E+00
#rwgt            1           9   1.7357726083681200E-003           9     1612464           0
</event>
<event>
      6   9999  3.45752E-01  3.28002E+01 -1.00000E+00  1.45374E-01
      21    -1     0     0   511   502  0.000000000E+00  0.000000000E+00  1.120723655E+02  1.120723655E+02  0.000000000E+00  0.00000E+00  9.000E+00
      21    -1     0     0   502   503  0.000000000E+00  0.000000000E+00 -1.703881465E+03  1.703881465E+03  0.000000000E+00  0.00000E+00  9.000E+00
      25     1     1     2     0     0  9.492207411E+01  1.169175194E+02 -3.927584274E+02  4.388209329E+02  1.249988894E+02  0.00000E+00  9.000E+00
       5     1     1     2   501     0 -6.875460781E+00 -1.606660679E+01  7.258469818E+01  7.480981703E+01  4.750000000E+00  0.00000E+00  9.000E+00
      -5     1     1     2     0   503 -8.624160312E+01 -1.336013632E+02 -1.255913688E+03  1.265949720E+03  4.750000000E+00  0.00000E+00  9.000E+00
      21     1     1     2   511   501 -1.805010215E+00  3.275045063E+01 -1.572168174E+01  3.637336052E+01  7.539457465E-07  0.00000E+00  9.000E+00
#rwgt            1           9   8.7667220013368241E-005           9     1620131           0
</event>
<event>
      6   9999  3.45752E-01  1.85472E+00 -1.00000E+00  3.46095E-01
      21    -1     0     0   501   502  0.000000000E+00  0.000000000E+00  4.459863987E+01  4.459863987E+01  0.000000000E+00  0.00000E+00  9.000E+00
      21    -1     0     0   502   512  0.000000000E+00  0.000000000E+00 -1.287552264E+03  1.287552264E+03  0.000000000E+00  0.00000E+00  9.000E+00
      25     1     1     2     0     0  7.161908082E+00  4.533295463E+00 -3.343061368E+02  3.570111638E+02  1.249981373E+02  0.00000E+00  9.000E+00
       5     1     1     2   501     0 -1.353008252E+00  8.584270535E-01  3.292387628E+01  3.330332802E+01  4.750000000E+00  0.00000E+00  9.000E+00
      -5     1     1     2     0   503 -7.618388375E+00 -4.984635435E+00 -9.334289071E+02  9.334853901E+02  4.750000000E+00  0.00000E+00  9.000E+00
      21     1     1     2   503   512  1.809488545E+00 -4.070870812E-01 -8.142456938E+00  8.351022313E+00  1.192092896E-07  0.00000E+00  9.000E+00
#rwgt            1           9   1.2483462896284858E-002           9     1622990           0
</event>
<event>
      6   9999  3.45752E-01  7.65184E+00 -1.00000E+00  2.00331E-01
      21    -1     0     0   501   502  0.000000000E+00  0.000000000E+00  7.828976099E+00  7.828976099E+00  0.000000000E+00  0.00000E+00  9.000E+00
      21    -1     0     0   511   503  0.000000000E+00  0.000000000E+00 -1.339379100E+03  1.339379100E+03  0.000000000E+00  0.00000E+00  9.000E+00
      25     1     1     2     0     0 -1.240172136E+01  5.768697175E+00 -7.167247693E+02  7.276693137E+02  1.249846174E+02  0.00000E+00  9.000E+00
       5     1     1     2   501     0 -5.637537681E-01  3.870783783E-01 -2.146203946E+00  5.257027616E+00  4.750000000E+00  0.00000E+00  9.000E+00
      -5     1     1     2     0   503  1.445093675E+01  1.350489671E+00 -7.454501826E+01  7.609320365E+01  4.750000000E+00  0.00000E+00  9.000E+00
      21     1     1     2   511   502 -1.485461618E+00 -7.506265225E+00 -5.381341324E+02  5.381885312E+02  7.629394531E-06  0.00000E+00  9.000E+00
#rwgt            1           9   9.4121475293144144E-003           9     1633973           0
</event>
<event>
      6   9999  3.45752E-01  4.07191E+01 -1.00000E+00  1.39739E-01
      21    -1     0     0   501   502  0.000000000E+00  0.000000000E+00  6.650433420E+01  6.650433420E+01  0.000000000E+00  0.00000E+00  9.000E+00
      21    -1     0     0   512   503  0.000000000E+00  0.000000000E+00 -2.552649261E+02  2.552649261E+02  0.000000000E+00  0.00000E+00  9.000E+00
      25     1     1     2     0     0  3.270916308E+00 -2.575009519E+01 -5.455423203E+01  1.388256672E+02  1.249905410E+02  0.00000E+00  9.000E+00
       5     1     1     2   501     0  7.350135862E-01 -4.415579864E+00  1.281182489E+01  1.437855861E+01  4.750000000E+00  0.00000E+00  9.000E+00
      -5     1     1     2     0   503  7.290489289E+00 -8.955093875E+00  3.229690782E+00  1.289722230E+01  4.750000000E+00  0.00000E+00  9.000E+00
      21     1     1     2   512   502 -1.129641918E+01  3.912076893E+01 -1.502478755E+02  1.556678122E+02  0.000000000E+00  0.00000E+00  9.000E+00
#rwgt            1           9   6.0211155665191160E-003           9     1637186           0
</event>
<event>
      6   9999  3.45752E-01  2.98591E+01 -1.00000E+00  1.47970E-01
      21    -1     0     0   501   502  0.000000000E+00  0.000000000E+00  2.151330542E+02  2.151330542E+02  0.000000000E+00  0.00000E+00  9.000E+00
      21    -1     0     0   502   511  0.000000000E+00  0.000000000E+00 -5.005281838E+02  5.005281838E+02  0.000000000E+00  0.00000E+00  9.000E+00
      25     1     1     2     0     0  1.761904075E+01  1.196125941E+02 -3.389049379E+02  3.809186067E+02  1.249992987E+02  0.00000E+00  9.000E+00
       5     1     1     2   501     0 -1.980564909E+00  3.207491801E+00  1.543478585E+02  1.544669368E+02  4.750000000E+00  0.00000E+00  9.000E+00
      -5     1     1     2     0   503  8.432556328E+00 -1.051522184E+02 -4.076676572E+01  1.131927062E+02  4.750000000E+00  0.00000E+00  9.000E+00
      21     1     1     2   503   511 -2.407103217E+01 -1.766786751E+01 -6.007128441E+01  6.708298848E+01  6.743495762E-07  0.00000E+00  9.000E+00
#rwgt            1           9   1.0432467753141370E-004           9     1638055           0
</event>
<event>
      6   9999  3.45752E-01  1.25896E+01 -1.00000E+00  1.77240E-01
      21    -1     0     0   501   512  0.000000000E+00  0.000000000E+00  1.030140829E+03  1.030140829E+03  0.000000000E+00  0.00000E+00  9.000E+00
      21    -1     0     0   502   503  0.000000000E+00  0.000000000E+00 -1.060824616E+01  1.060824616E+01  0.000000000E+00  0.00000E+00  9.000E+00
      25     1     1     2     0     0 -4.166324270E+00 -2.983698554E+01  4.400600801E+02  4.584580434E+02  1.249931977E+02  0.00000E+00  9.000E+00
       5     1     1     2   501     0 -1.363775532E-02 -1.569978659E+00  9.411359860E+01  9.424646922E+01  4.750000000E+00  0.00000E+00  9.000E+00
      -5     1     1     2     0   503  5.711441034E+00  1.891084452E+01  8.166764691E+01  8.415704160E+01  4.750000000E+00  0.00000E+00  9.000E+00
      21     1     1     2   502   512 -1.531479009E+00  1.249611968E+01  4.036912574E+02  4.038875211E+02  5.394796609E-06  0.00000E+00  9.000E+00
#rwgt            1           9   3.6010452685712006E-003           9     1640102           0
</event>
<event>
      6   9999  3.45752E-01  2.31919E+01 -1.00000E+00  1.55452E-01
      21    -1     0     0   501   502  0.000000000E+00  0.000000000E+00  5.906404272E+02  5.906404272E+02  0.000000000E+00  0.00000E+00  9.000E+00
      21    -1     0     0   511   503  0.000000000E+00  0.000000000E+00 -2.277087300E+02  2.277087300E+02  0.000000000E+00  0.00000E+00  9.000E+00
      25     1     1     2     0     0  1.277515680E+02  2.505068576E+02 -3.244114924E+00  3.077516526E+02  1.250056262E+02  0.00000E+00  9.000E+00
       5     1     1     2   501     0 -2.847847884E-01 -3.376430549E-01  1.206510120E+02  1.207452869E+02  4.750000000E+00  0.00000E+00  9.000E+00
      -5     1     1     2     0   503 -1.053993119E+02 -2.573030579E+02  2.361646088E+02  3.648426558E+02  4.750000000E+00  0.00000E+00  9.000E+00
      21     1     1     2   511   502 -2.206747131E+01  7.133843324E+00  9.360191335E+00  2.500956202E+01  6.848052319E-07  0.00000E+00  9.000E+00
#rwgt            1           9   4.0494672341641910E-004           9     1642182           0
</event>
<event>
      6   9999  3.45752E-01  4.31589E+01 -1.00000E+00  1.38298E-01
      21    -1     0     0   512   502  0.000000000E+00  0.000000000E+00  1.425193243E+01  1.425193243E+01  0.000000000E+00  0.00000E+00  9.000E+00
      21    -1     0     0   502   503  0.000000000E+00  0.000000000E+00 -8.352695114E+02  8.352695114E+02  0.000000000E+00  0.00000E+00  9.000E+00
      25     1     1     2     0     0 -3.963963079E+01  1.947803026E+01 -6.540756660E+02  6.673750657E+02  1.249952299E+02  0.00000E+00  9.000E+00
       5     1     1     2   501     0 -4.590007050E+00 -8.615106722E+00 -4.787679036E+01  4.909213566E+01  4.750000000E+00  0.00000E+00  9.000E+00
      -5     1     1     2     0   503  1.156775174E+00 -8.139467095E+00 -5.496252800E+01  5.577661730E+01  4.750000000E+00  0.00000E+00  9.000E+00
      21     1     1     2   512   501  4.307286267E+01 -2.723456446E+00 -6.410259460E+01  7.727762514E+01  0.000000000E+00  0.00000E+00  9.000E+00
#rwgt            1           9   6.4647429412277590E-004           9     1645407           0
</event>
<event>
      6   9999  3.45752E-01  1.19816E+01 -1.00000E+00  1.79286E-01
      21    -1     0     0   511   502  0.000000000E+00  0.000000000E+00  8.496129321E+00  8.496129321E+00  0.000000000E+00  0.00000E+00  9.000E+00
      21    -1     0     0   502   503  0.000000000E+00  0.000000000E+00 -7.610740370E+02  7.610740370E+02  0.000000000E+00  0.00000E+00  9.000E+00
      25     1     1     2     0     0  1.640615513E+01  1.181084457E+01 -6.705375641E+02  6.823887400E+02  1.250004386E+02  0.00000E+00  9.000E+00
       5     1     1     2   501     0 -4.681306616E+00 -2.641093576E+00 -1.100470987E+01  1.313606282E+01  4.750000000E+00  0.00000E+00  9.000E+00
      -5     1     1     2     0   503  1.445793722E-01 -7.533743521E+00 -3.126183733E+01  3.250604817E+01  4.750000000E+00  0.00000E+00  9.000E+00
      21     1     1     2   511   501 -1.186942788E+01 -1.636007473E+00 -3.977379641E+01  4.153931535E+01  4.768371582E-07  0.00000E+00  9.000E+00
#rwgt            1           9   7.2915016196418081E-004           9     1645933           0
</event>
<event>
      6   9999  3.45752E-01  1.28946E+01 -1.00000E+00  1.76268E-01
      21    -1     0     0   501   512  0.000000000E+00  0.000000000E+00  6.570502197E+01  6.570502197E+01  0.000000000E+00  0.00000E+00  9.000E+00
      21    -1     0     0   502   503  0.000000000E+00  0.000000000E+00 -1.058604960E+02  1.058604960E+02  0.000000000E+00  0.00000E+00  9.000E+00
      25     1     1     2     0     0 -6.754839119E+00 -1.413139488E+01 -5.423787520E+01  1.371541936E+02  1.249968061E+02  0.00000E+00  9.000E+00
       5     1     1     2   501     0 -4.942343883E-03 -5.441471757E-01  3.862440341E+00  6.146305066E+00  4.750000000E+00  0.00000E+00  9.000E+00
      -5     1     1     2     0   503  1.170149033E+00  3.055462790E+00 -5.474897752E+00  7.952490617E+00  4.750000000E+00  0.00000E+00  9.000E+00
      21     1     1     2   502   512  5.589632429E+00  1.162007927E+01  1.569485863E+01  2.031252865E+01  2.384185791E-07  0.00000E+00  9.000E+00
#rwgt            1           9   2.2417582519192935E-003           9     1647754           0
</event>
<event>
      6   9999  3.45752E-01  3.99361E+00 -1.00000E+00  2.47994E-01
      21    -1     0     0   501   502  0.000000000E+00  0.000000000E+00  6.988016212E+01  6.988016212E+01  0.000000000E+00  0.00000E+00  9.000E+00
      21    -1     0     0   511   503  0.000000000E+00  0.000000000E+00 -2.886806037E+02  2.886806037E+02  0.000000000E+00  0.00000E+00  9.000E+00
      25     1     1     2     0     0 -5.080143939E-01 -8.722991321E+00 -2.393783617E+02  2.701910178E+02  1.249993496E+02  0.00000E+00  9.000E+00
       5     1     1     2   501     0 -5.832917045E-01  4.636382634E+00  5.298130058E+01  5.339866088E+01  4.750000000E+00  0.00000E+00  9.000E+00
      -5     1     1     2     0   503  2.226245363E+00  2.576587665E-01 -4.912039039E+00  7.191187939E+00  4.750000000E+00  0.00000E+00  9.000E+00
      21     1     1     2   511   502 -1.134939265E+00  3.828949921E+00 -2.749134142E+01  2.777989916E+01  0.000000000E+00  0.00000E+00  9.000E+00
#rwgt            1           9   9.0639735209399275E-002           9     1649920           0
</event>
<event>
      6   9999  3.45752E-01  1.00099E+01 -1.00000E+00  1.87148E-01
      21    -1     0     0   501   512  0.000000000E+00  0.000000000E+00  6.251360983E+00  6.251360983E+00  0.000000000E+00  0.00000E+00  9.000E+00
      21    -1     0     0   502   503  0.000000000E+00  0.000000000E+00 -3.350851111E+03  3.350851111E+03  0.000000000E+00  0.00000E+00  9.000E+00
      25     1     1     2     0     0  3.177454581E+01  2.908546265E+01 -2.330607821E+03  2.334355203E+03  1.250032497E+02  0.00000E+00  9.000E+00
       5     1     1     2   501     0 -9.678798043E-01 -3.755330994E+00 -5.063855552E-01  6.152904072E+00  4.750000000E+00  0.00000E+00  9.000E+00
      -5     1     1     2     0   503 -3.945477061E+01 -3.037081450E+01 -9.872178664E+02  9.884840633E+02  4.750000000E+00  0.00000E+00  9.000E+00
      21     1     1     2   502   512  8.648104605E+00  5.040682844E+00 -2.626767728E+01  2.811030178E+01  1.215700987E-06  0.00000E+00  9.000E+00
#rwgt            1           9  0.31953785562809556                9     1655407           0
</event>
<event>
      6   9999  3.45752E-01  1.06534E+01 -1.00000E+00  1.84344E-01
      21    -1     0     0   501   511  0.000000000E+00  0.000000000E+00  2.771280438E+01  2.771280438E+01  0.000000000E+00  0.00000E+00  9.000E+00
      21    -1     0     0   502   503  0.000000000E+00  0.000000000E+00 -7.230551683E+02  7.230551683E+02  0.000000000E+00  0.00000E+00  9.000E+00
      25     1     1     2     0     0 -9.377539375E+00 -1.888518389E+01 -4.885194275E+02  5.046970066E+02  1.249929956E+02  0.00000E+00  9.000E+00
       5     1     1     2   501     0  2.121825492E+01  2.225585135E+01 -1.358274366E+02  1.393455859E+02  4.750000000E+00  0.00000E+00  9.000E+00
      -5     1     1     2     0   503 -1.228676360E+00 -4.309043875E+00 -8.713909326E+01  8.738341707E+01  4.750000000E+00  0.00000E+00  9.000E+00
      21     1     1     2   502   511 -1.061203919E+01  9.383764217E-01  1.614359352E+01  1.934196313E+01  5.331201500E-07  0.00000E+00  9.000E+00
#rwgt            1           9   2.3561938420157733                9     1658147           0
</event>
<event>
      6   9999  3.45752E-01  7.83968E+00 -1.00000E+00  1.99062E-01
      21    -1     0     0   501   502  0.000000000E+00  0.000000000E+00  3.567831364E+01  3.567831364E+01  0.000000000E+00  0.00000E+00  9.000E+00
      21    -1     0     0   512   503  0.000000000E+00  0.000000000E+00 -1.165885366E+03  1.165885366E+03  0.000000000E+00  0.00000E+00  9.000E+00
      25     1     1     2     0     0  9.004270927E+00 -7.319438801E+00 -1.080489446E+03  1.087757960E+03  1.250011441E+02  0.00000E+00  9.000E+00
       5     1     1     2   501     0 -3.802461615E-01  8.212167570E+00  3.064647406E+01  3.208353403E+01  4.750000000E+00  0.00000E+00  9.000E+00
      -5     1     1     2     0   503 -2.281446925E+00  3.715129677E+00 -2.558097337E+01  2.638097585E+01  4.750000000E+00  0.00000E+00  9.000E+00
      21     1     1     2   512   502 -6.342577840E+00 -4.607858447E+00 -5.478310722E+01  5.534120969E+01  6.743495762E-07  0.00000E+00  9.000E+00
#rwgt            1           9   5.4760485708394277E-003           9     1660541           0
</event>
<event>
      6   9999  3.45752E-01  7.54174E+00 -1.00000E+00  2.01097E-01
      21    -1     0     0   511   502  0.000000000E+00  0.000000000E+00  4.945748392E+01  4.945748392E+01  0.000000000E+00  0.00000E+00  9.000E+00
      21    -1     0     0   502   503  0.000000000E+00  0.000000000E+00 -1.120557472E+03  1.120557472E+03  0.000000000E+00  0.00000E+00  9.000E+00
      25     1     1     2     0     0 -2.951233431E+01  3.390850252E+01 -3.929583900E+02  4.148042562E+02  1.250020412E+02  0.00000E+00  9.000E+00
       5     1     1     2   501     0 -3.845406649E+00 -6.294652682E+00  1.660891892E+01  1.878372946E+01  4.750000000E+00  0.00000E+00  9.000E+00
      -5     1     1     2     0   503  2.952133383E+01 -3.410690532E+01 -7.141624949E+02  7.156014406E+02  4.750000000E+00  0.00000E+00  9.000E+00
      21     1     1     2   511   501  3.836407124E+00  6.493055483E+00  1.941197803E+01  2.082552953E+01  8.259061849E-07  0.00000E+00  9.000E+00
#rwgt            1           9   1.3721053439680419E-002           9     1664647           0
</event>
<event>
      6   9999  3.45752E-01  3.50772E+00 -1.00000E+00  2.60279E-01
      21    -1     0     0   501   502  0.000000000E+00  0.000000000E+00  4.269310299E+00  4.269310299E+00  0.000000000E+00  0.00000E+00  9.000E+00
      21    -1     0     0   502   512  0.000000000E+00  0.000000000E+00 -1.648716118E+03  1.648716118E+03  0.000000000E+00  0.00000E+00  9.000E+00
      25     1     1     2     0     0 -4.009571281E+00 -6.570767450E+00 -1.164864282E+03  1.171575833E+03  1.249875439E+02  0.00000E+00  9.000E+00
       5     1     1     2   501     0  1.131694476E+01 -4.350892574E+00 -5.881680786E+01  6.024103993E+01  4.750000000E+00  0.00000E+00  9.000E+00
      -5     1     1     2     0   503 -4.076673100E+00  1.228791629E+01 -2.607660760E+02  2.611304674E+02  4.750000000E+00  0.00000E+00  9.000E+00
      21     1     1     2   503   512 -3.230700375E+00 -1.366256271E+00 -1.599996417E+02  1.600380874E+02  0.000000000E+00  0.00000E+00  9.000E+00
#rwgt            1           9   241.60805854601350                9     1668879           0
</event>
<event>
      6   9999  3.45752E-01  2.02464E+01 -1.00000E+00  1.59805E-01
      21    -1     0     0   501   502  0.000000000E+00  0.000000000E+00  9.790698479E+00  9.790698479E+00  0.000000000E+00  0.00000E+00  9.000E+00
      21    -1     0     0   502   511  0.000000000E+00  0.000000000E+00 -1.137798854E+03  1.137798854E+03  0.000000000E+00  0.00000E+00  9.000E+00
      25     1     1     2     0     0 -6.384833289E+00 -1.156698715E+01 -8.381319383E+02  8.475049966E+02  1.250000478E+02  0.00000E+00  9.000E+00
       5     1     1     2   501     0 -1.016868290E+00 -6.364450283E+00  7.959733279E-01  8.045888519E+00  4.750000000E+00  0.00000E+00  9.000E+00
      -5     1     1     2     0   503 -8.153248372E-01 -5.725910615E-01 -1.889448068E+01  1.950785778E+01  4.750000000E+00  0.00000E+00  9.000E+00
      21     1     1     2   503   511  8.217026416E+00  1.850402850E+01 -2.717777095E+02  2.725308092E+02  3.814697266E-06  0.00000E+00  9.000E+00
#rwgt            1           9   3.0063197044129832E-003           9     1673857           0
</event>
<event>
      6   9999  3.45752E-01  7.82820E+01 -1.00000E+00  1.25134E-01
       4    -1     0     0   502     0  0.000000000E+00  0.000000000E+00  9.135547560E+02  9.135547560E+02  0.000000000E+00  0.00000E+00  9.000E+00
      21    -1     0     0   501   502  0.000000000E+00  0.000000000E+00 -1.537947806E+02  1.537947806E+02  0.000000000E+00  0.00000E+00  9.000E+00
      25     1     1     2     0     0 -1.360105736E+01 -3.965541339E+01 -2.591515796E+01  1.343886261E+02  1.250246649E+02  0.00000E+00  9.000E+00
       5     1     1     2   501     0  2.921346050E+01  3.763591129E+01 -7.953226366E+00  4.853559934E+01  4.750000000E+00  0.00000E+00  9.000E+00
      -5     1     1     2     0   503  4.857850882E+01  4.682567574E+01 -1.722806924E+01  6.979888464E+01  4.750000000E+00  0.00000E+00  9.000E+00
       4     1     1     2   503     0 -6.419091197E+01 -4.480617363E+01  8.108564290E+02  8.146264265E+02  1.078959322E-05  0.00000E+00  9.000E+00
#rwgt            1           9   453.57023212930812                9     1675112           0
</event>
<event>
      6   9999  3.45752E-01  6.57718E+00 -1.00000E+00  2.08649E-01
      21    -1     0     0   501   502  0.000000000E+00  0.000000000E+00  2.395092590E+01  2.395092590E+01  0.000000000E+00  0.00000E+00  9.000E+00
      21    -1     0     0   502   511  0.000000000E+00  0.000000000E+00 -1.575415036E+03  1.575415036E+03  0.000000000E+00  0.00000E+00  9.000E+00
      25     1     1     2     0     0 -2.348549024E+01  1.105189267E+01 -2.058903597E+02  2.422706744E+02  1.250221055E+02  0.00000E+00  9.000E+00
       5     1     1     2   501     0 -2.321079985E+00 -6.561828662E-02  4.329177757E+00  6.833447016E+00  4.750000000E+00  0.00000E+00  9.000E+00
      -5     1     1     2     0   503  2.087589541E+01 -6.633380799E+00 -7.829156663E+02  7.832364316E+02  4.750000000E+00  0.00000E+00  9.000E+00
      21     1     1     2   503   511  4.930674816E+00 -4.352893583E+00 -5.669872620E+02  5.670254090E+02  1.078959322E-05  0.00000E+00  9.000E+00
#rwgt            1           9  0.55395177519668348                9     1675829           0
</event>
<event>
      6   9999  3.45752E-01  2.15529E+01 -1.00000E+00  1.57770E-01
      21    -1     0     0   501   512  0.000000000E+00  0.000000000E+00  5.489943506E+01  5.489943506E+01  0.000000000E+00  0.00000E+00  9.000E+00
      21    -1     0     0   502   503  0.000000000E+00  0.000000000E+00 -1.354241096E+03  1.354241096E+03  0.000000000E+00  0.00000E+00  9.000E+00
      25     1     1     2     0     0 -1.476473766E+01  4.553141498E+01 -9.606381801E+02  9.699218051E+02  1.250259478E+02  0.00000E+00  9.000E+00
       5     1     1     2   501     0 -5.782491540E-02  7.878901033E-01 -1.396386167E+01  1.477078357E+01  4.750000000E+00  0.00000E+00  9.000E+00
      -5     1     1     2     0   503  1.003003381E+01 -2.530598487E+01 -3.717273244E+02  3.727529486E+02  4.750000000E+00  0.00000E+00  9.000E+00
      21     1     1     2   502   512  4.792528764E+00 -2.101332021E+01  4.698770519E+01  5.169499392E+01  2.780414531E-06  0.00000E+00  9.000E+00
#rwgt            1           9   6.6576537912184002E-003           9     1680472           0
</event>
<event>
      6   9999  3.45752E-01  9.13665E+00 -1.00000E+00  1.91421E-01
      21    -1     0     0   501   502  0.000000000E+00  0.000000000E+00  1.047374876E+01  1.047374876E+01  0.000000000E+00  0.00000E+00  9.000E+00
      21    -1     0     0   502   511  0.000000000E+00  0.000000000E+00 -9.995378074E+02  9.995378074E+02  0.000000000E+00  0.00000E+00  9.000E+00
      25     1     1     2     0     0  9.058703420E+00  1.411051129E+01 -5.839338657E+02  5.973921907E+02  1.249700100E+02  0.00000E+00  9.000E+00
       5     1     1     2   501     0  6.247878533E-01  2.259822842E+00  1.406096050E+00  5.480580739E+00  4.750000000E+00  0.00000E+00  9.000E+00
      -5     1     1     2     0   503 -9.314031170E+00 -7.241157706E+00 -2.035035719E+02  2.039005930E+02  4.750000000E+00  0.00000E+00  9.000E+00
      21     1     1     2   503   511 -3.694601031E-01 -9.129176425E+00 -2.030327171E+02  2.032381917E+02  3.814697266E-06  0.00000E+00  9.000E+00
#rwgt            1           9   3.8272366147558407E-004           9     1681986           0
</event>
<event>
      6   9999  3.45752E-01  1.10146E+01 -1.00000E+00  1.82879E-01
      21    -1     0     0   501   512  0.000000000E+00  0.000000000E+00  1.865418254E+01  1.865418254E+01  0.000000000E+00  0.00000E+00  9.000E+00
      21    -1     0     0   502   503  0.000000000E+00  0.000000000E+00 -8.083535433E+02  8.083535433E+02  0.000000000E+00  0.00000E+00  9.000E+00
      25     1     1     2     0     0 -8.350200622E+00  1.346946395E+01 -6.454683840E+02  6.576513382E+02  1.249987826E+02  0.00000E+00  9.000E+00
       5     1     1     2   501     0 -1.722384351E+00  7.762831456E-01  2.884126604E+00  5.869404539E+00  4.750000000E+00  0.00000E+00  9.000E+00
      -5     1     1     2     0   503  5.653753437E+00 -4.156405322E+00 -1.514230252E+02  1.516599344E+02  4.750000000E+00  0.00000E+00  9.000E+00
      21     1     1     2   502   512  4.418831536E+00 -1.008934177E+01  4.307921848E+00  1.182704867E+01  4.500051996E-07  0.00000E+00  9.000E+00
#rwgt            1           9   1.2112729973401143E-005           9     1684230           0
</event>
<event>
      6   9999  3.45752E-01  2.13507E+01 -1.00000E+00  1.58074E-01
      21    -1     0     0   501   502  0.000000000E+00  0.000000000E+00  2.263844687E+02  2.263844687E+02  0.000000000E+00  0.00000E+00  9.000E+00
      21    -1     0     0   511   503  0.000000000E+00  0.000000000E+00 -5.819915720E+02  5.819915720E+02  0.000000000E+00  0.00000E+00  9.000E+00
      25     1     1     2     0     0  2.002626147E+02  1.442223150E+02 -3.573638440E+01  2.789431719E+02  1.250080518E+02  0.00000E+00  9.000E+00
       5     1     1     2   501     0  4.270779331E-01  3.764025655E+00  6.799643273E+01  6.826732490E+01  4.750000000E+00  0.00000E+00  9.000E+00
      -5     1     1     2     0   503 -1.827612044E+02 -1.363923369E+02 -3.530201372E+02  4.202978791E+02  4.750000000E+00  0.00000E+00  9.000E+00
      21     1     1     2   511   502 -1.792848821E+01 -1.159400381E+01 -3.484701436E+01  4.086766477E+01  4.768371582E-07  0.00000E+00  9.000E+00
#rwgt            1           9   9.8880936391328542E-002           9     1686688           0
</event>
<event>
      6   9999  3.45752E-01  1.02525E+01 -1.00000E+00  1.86060E-01
      21    -1     0     0   512   502  0.000000000E+00  0.000000000E+00  2.543787116E+01  2.543787116E+01  0.000000000E+00  0.00000E+00  9.000E+00
      21    -1     0     0   502   503  0.000000000E+00  0.000000000E+00 -1.044429922E+03  1.044429922E+03  0.000000000E+00  0.00000E+00  9.000E+00
      25     1     1     2     0     0  1.375450973E+01 -7.133807068E+00 -8.541258440E+02  8.633630980E+02  1.249992152E+02  0.00000E+00  9.000E+00
       5     1     1     2   501     0 -7.831997786E+00  6.223626294E+00  1.629312217E+01  1.970030567E+01  4.750000000E+00  0.00000E+00  9.000E+00
      -5     1     1     2     0   503 -1.520251144E+01  5.268645120E+00 -1.726988228E+02  1.735117313E+02  4.750000000E+00  0.00000E+00  9.000E+00
      21     1     1     2   512   501  9.279999494E+00 -4.358464346E+00 -8.460506519E+00  1.329265860E+01  1.685873940E-07  0.00000E+00  9.000E+00
#rwgt            1           9   1.1494115492250195E-004           9     1689209           0
</event>
<event>
      6   9999  3.45752E-01  5.69995E+00 -1.00000E+00  2.17209E-01
      21    -1     0     0   501   511  0.000000000E+00  0.000000000E+00  2.344201882E+01  2.344201882E+01  0.000000000E+00  0.00000E+00  9.000E+00
      21    -1     0     0   502   503  0.000000000E+00  0.000000000E+00 -4.226383932E+03  4.226383932E+03  0.000000000E+00  0.00000E+00  9.000E+00
      25     1     1     2     0     0 -1.259543886E+01  5.960334904E+00 -3.710226193E+03  3.712357458E+03  1.250012879E+02  0.00000E+00  9.000E+00
       5     1     1     2   501     0  2.678849391E+00  5.019190455E+00  1.566678696E+01  1.733145177E+01  4.750000000E+00  0.00000E+00  9.000E+00
      -5     1     1     2     0   503  1.139945311E+01 -5.475841141E+00 -5.127675784E+02  5.129454984E+02  4.750000000E+00  0.00000E+00  9.000E+00
      21     1     1     2   502   511 -1.482863643E+00 -5.503684218E+00  4.385071748E+00  7.191542171E+00  3.674277069E-07  0.00000E+00  9.000E+00
#rwgt            1           9   4.0575873169363272E-002           9     1692186           0
</event>
<event>
      6   9999  3.45752E-01  5.83186E+00 -1.00000E+00  2.15792E-01
      21    -1     0     0   501   502  0.000000000E+00  0.000000000E+00  3.522162575E+03  3.522162575E+03  0.000000000E+00  0.00000E+00  9.000E+00
      -3    -1     0     0     0   503  0.000000000E+00  0.000000000E+00 -4.969790509E+01  4.969790509E+01  0.000000000E+00  0.00000E+00  9.000E+00
      25     1     1     2     0     0 -6.686211903E+00 -9.149845613E+00  2.331497864E+03  2.334873791E+03  1.249996185E+02  0.00000E+00  9.000E+00
       5     1     1     2   501     0 -3.720368439E-01  4.791215151E-01  1.164553849E+03  1.164563694E+03  4.750000000E+00  0.00000E+00  9.000E+00
      -5     1     1     2     0   503  2.176079909E+00  1.186054655E+01  2.250144306E+01  2.596700460E+01  4.750000000E+00  0.00000E+00  9.000E+00
      -3     1     1     2     0   502  4.882168838E+00 -3.189822452E+00 -4.608848588E+01  4.645599069E+01  3.504023184E-06  0.00000E+00  9.000E+00
#rwgt            1           9   1.0342594195976362                9     1697859           0
</event>
<event>
      6   9999  3.45752E-01  1.68472E+01 -1.00000E+00  1.66113E-01
      21    -1     0     0   511   502  0.000000000E+00  0.000000000E+00  4.899423884E+01  4.899423884E+01  0.000000000E+00  0.00000E+00  9.000E+00
      21    -1     0     0   502   503  0.000000000E+00  0.000000000E+00 -3.752357415E+02  3.752357415E+02  0.000000000E+00  0.00000E+00  9.000E+00
      25     1     1     2     0     0  8.854219899E-01  5.757940842E-01 -3.466493126E+02  3.686302160E+02  1.253849065E+02  0.00000E+00  9.000E+00
       5     1     1     2   501     0  1.813240864E+00  4.317175552E+00  1.091274632E+01  1.278969817E+01  4.750000000E+00  0.00000E+00  9.000E+00
      -5     1     1     2     0   503 -5.245087009E-01  1.181336710E+01 -1.060817119E+01  1.658090913E+01  4.750000000E+00  0.00000E+00  9.000E+00
      21     1     1     2   511   501 -2.174154153E+00 -1.670633674E+01  2.010323471E+01  2.622915705E+01  3.371747881E-07  0.00000E+00  9.000E+00
#rwgt            1           9   2.1545764435984438E-004           9     1701394           0
</event>
<event>
      6   9999  3.45752E-01  2.72076E+02 -1.00000E+00  1.04462E-01
       3    -1     0     0   501     0  0.000000000E+00  0.000000000E+00  2.998721670E+02  2.998721670E+02  0.000000000E+00  0.00000E+00  9.000E+00
      21    -1     0     0   512   502  0.000000000E+00  0.000000000E+00 -8.936542080E+02  8.936542080E+02  0.000000000E+00  0.00000E+00  9.000E+00
      25     1     1     2     0     0  2.146850008E+01  4.689927743E+01 -1.379242663E+02  1.931557006E+02  1.250023308E+02  0.00000E+00  9.000E+00
       5     1     1     2   501     0 -3.620599823E+01  2.968813901E+01 -9.658645801E+00  4.804281262E+01  4.750000000E+00  0.00000E+00  9.000E+00
      -5     1     1     2     0   502 -1.897834733E+02  1.028464866E+02 -6.014801285E+02  6.390587407E+02  4.750000000E+00  0.00000E+00  9.000E+00
       3     1     1     2   512     0  2.045209715E+02 -1.794339030E+02  1.552809997E+02  3.132691210E+02  5.394796609E-06  0.00000E+00  9.000E+00
#rwgt            1           8   4.2043674779691877E-005           9     1703480           0
</event>
<event>
      6   9999  3.45752E-01  6.03028E+00 -1.00000E+00  2.13754E-01
      21    -1     0     0   501   511  0.000000000E+00  0.000000000E+00  1.264890354E+02  1.264890354E+02  0.000000000E+00  0.00000E+00  9.000E+00
      21    -1     0     0   502   503  0.000000000E+00  0.000000000E+00 -7.577633796E+02  7.577633796E+02  0.000000000E+00  0.00000E+00  9.000E+00
      25     1     1     2     0     0  2.721332641E-01 -6.768115894E+00 -7.272298574E+02  7.379231175E+02  1.249855211E+02  0.00000E+00  9.000E+00
       5     1     1     2   501     0 -1.717534301E+00 -4.387119723E-01  1.346044185E+00  5.245638876E+00  4.750000000E+00  0.00000E+00  9.000E+00
      -5     1     1     2     0   503  4.260140370E-01  1.263332268E+00 -2.289703918E+01  2.342251907E+01  4.750000000E+00  0.00000E+00  9.000E+00
      21     1     1     2   502   511  1.019387000E+00  5.943495599E+00  1.175065081E+02  1.176611395E+02  4.862803949E-06  0.00000E+00  9.000E+00
#rwgt            1           9   2.1504637607648323E-004           9     1703571           0
</event>
<event>
      6   9999 -3.45752E-01  1.03856E+01 -1.00000E+00  1.85479E-01
      21    -1     0     0   501   502  0.000000000E+00  0.000000000E+00  1.454233406E+01  1.454233406E+01  0.000000000E+00  0.00000E+00  9.000E+00
      21    -1     0     0   512   503  0.000000000E+00  0.000000000E+00 -9.639271264E+02  9.639271264E+02  0.000000000E+00  0.00000E+00  9.000E+00
      25     1     1     2     0     0  3.201083991E+01 -3.279305171E+00 -8.410196620E+02  8.508671398E+02  1.250014798E+02  0.00000E+00  9.000E+00
       5     1     1     2   501     0  2.579748053E+00  2.563709251E+00  3.500489209E+00  6.931351228E+00  4.750000000E+00  0.00000E+00  9.000E+00
      -5     1     1     2     0   503 -2.471953973E+01  3.944035890E+00 -3.603634446E+01  4.413379301E+01  4.750000000E+00  0.00000E+00  9.000E+00
      21     1     1     2   512   502 -9.871048230E+00 -3.228439970E+00 -7.582927507E+01  7.653717642E+01  0.000000000E+00  0.00000E+00  9.000E+00
#rwgt            1           9  -8.9195681459479926E-006           9     1706744           0
</event>
<event>
      6   9999  3.45752E-01  8.17076E+00 -1.00000E+00  1.96936E-01
      21    -1     0     0   501   502  0.000000000E+00  0.000000000E+00  3.896816655E+02  3.896816655E+02  0.000000000E+00  0.00000E+00  9.000E+00
      21    -1     0     0   502   511  0.000000000E+00  0.000000000E+00 -8.583755923E+01  8.583755923E+01  0.000000000E+00  0.00000E+00  9.000E+00
      25     1     1     2     0     0  1.206389711E+02  2.626117988E+01  6.680646337E+01  1.879742829E+02  1.250112658E+02  0.00000E+00  9.000E+00
       5     1     1     2   501     0  2.046115504E+00  3.533034787E-01  7.705493215E+01  7.722911680E+01  4.750000000E+00  0.00000E+00  9.000E+00
      -5     1     1     2     0   503 -1.156416286E+02 -2.247311049E+01  1.633702595E+02  2.014706707E+02  4.750000000E+00  0.00000E+00  9.000E+00
      21     1     1     2   503   511 -7.043457937E+00 -4.141372870E+00 -3.387548725E+00  8.845154341E+00  1.632340424E-07  0.00000E+00  9.000E+00
#rwgt            1           9   2.0484051148186660E-003           9     1709292           0
</event>
<event>
      6   9999  3.45752E-01  3.01495E+01 -1.00000E+00  1.47699E-01
      21    -1     0     0   501   502  0.000000000E+00  0.000000000E+00  2.999039447E+01  2.999039447E+01  0.000000000E+00  0.00000E+00  9.000E+00
      21    -1     0     0   502   512  0.000000000E+00  0.000000000E+00 -1.340558166E+03  1.340558166E+03  0.000000000E+00  0.00000E+00  9.000E+00
      25     1     1     2     0     0  4.069093265E+01 -1.100024337E+02 -5.122328920E+02  5.401515371E+02  1.249994397E+02  0.00000E+00  9.000E+00
       5     1     1     2   501     0  2.622131947E+00 -2.580072590E+00  1.071765777E+01  1.228670170E+01  4.750000000E+00  0.00000E+00  9.000E+00
      -5     1     1     2     0   503 -3.669330629E+01  8.316872659E+01 -5.854542899E+02  5.924885854E+02  4.750000000E+00  0.00000E+00  9.000E+00
      21     1     1     2   503   512 -6.619758302E+00  2.941377973E+01 -2.235982474E+02  2.256217362E+02  0.000000000E+00  0.00000E+00  9.000E+00
#rwgt            1           9   3.2695058311648967E-004           9     1713117           0
</event>
<event>
      6   9999  3.45752E-01  9.07460E+00 -1.00000E+00  1.91748E-01
      21    -1     0     0   501   511  0.000000000E+00  0.000000000E+00  1.806369569E+01  1.806369569E+01  0.000000000E+00  0.00000E+00  9.000E+00
      21    -1     0     0   502   503  0.000000000E+00  0.000000000E+00 -9.903537297E+02  9.903537297E+02  0.000000000E+00  0.00000E+00  9.000E+00
      25     1     1     2     0     0  5.830183125E+01  4.277503049E+00 -8.467999119E+02  8.579701695E+02  1.250012818E+02  0.00000E+00  9.000E+00
       5     1     1     2   501     0  1.413441060E-01  2.338316513E+00  4.860295479E+00  7.188370776E+00  4.750000000E+00  0.00000E+00  9.000E+00
      -5     1     1     2     0   503 -4.966716041E+01 -4.307159149E+00 -1.049477648E+02  1.162840242E+02  4.750000000E+00  0.00000E+00  9.000E+00
      21     1     1     2   502   511 -8.776014940E+00 -2.308660413E+00 -2.540265278E+01  2.697486087E+01  3.371747881E-07  0.00000E+00  9.000E+00
#rwgt            1           9   5.4323783839573314E-005           9     1714762           0
</event>
<event>
      6   9999  3.45752E-01  7.77776E+00 -1.00000E+00  1.99475E-01
      21    -1     0     0   501   512  0.000000000E+00  0.000000000E+00  1.553045059E+01  1.553045059E+01  0.000000000E+00  0.00000E+00  9.000E+00
      21    -1     0     0   502   503  0.000000000E+00  0.000000000E+00 -9.238876118E+02  9.238876118E+02  0.000000000E+00  0.00000E+00  9.000E+00
      25     1     1     2     0     0 -7.794586005E+00 -1.506987726E+00 -6.536561050E+02  6.655470716E+02  1.249942973E+02  0.00000E+00  9.000E+00
       5     1     1     2   501     0  8.656197834E-01 -2.105687243E+00  7.926990368E+00  9.517504540E+00  4.750000000E+00  0.00000E+00  9.000E+00
      -5     1     1     2     0   503  1.131833135E+01  1.003350507E+01 -2.379783228E+02  2.385058080E+02  4.750000000E+00  0.00000E+00  9.000E+00
      21     1     1     2   502   512 -4.389365127E+00 -6.420830097E+00 -2.464972383E+01  2.584767824E+01  3.371747881E-07  0.00000E+00  9.000E+00
#rwgt            1           9  0.21659106018328128                9     1718001           0
</event>
<event>
      6   9999  3.45752E-01  5.68887E+01 -1.00000E+00  1.31855E-01
      21    -1     0     0   501   502  0.000000000E+00  0.000000000E+00  3.210438670E+03  3.210438670E+03  0.000000000E+00  0.00000E+00  9.000E+00
       2    -1     0     0   502     0  0.000000000E+00  0.000000000E+00 -3.876325824E+02  3.876325824E+02  0.000000000E+00  0.00000E+00  9.000E+00
      25     1     1     2     0     0 -1.726090316E+02 -1.760480339E+02  1.565636162E+03  1.589851642E+03  1.249994500E+02  0.00000E+00  9.000E+00
       5     1     1     2   501     0  2.872350590E-01  2.230925680E+00  1.423395023E+03  1.423404726E+03  4.750000000E+00  0.00000E+00  9.000E+00
      -5     1     1     2     0   503  1.273322497E+02  2.086347198E+02  1.343166792E+02  2.789363385E+02  4.750000000E+00  0.00000E+00  9.000E+00
       2     1     1     2   503     0  4.498954676E+01 -3.481761153E+01 -3.005417769E+02  3.058785462E+02  9.344061824E-06  0.00000E+00  9.000E+00
#rwgt            1           9   3.7963411789727272E-002           9     1721555           0
</event>
<event>
      6   9999  3.45752E-01  7.34875E+00 -1.00000E+00  2.02484E-01
      21    -1     0     0   501   511  0.000000000E+00  0.000000000E+00  4.165212580E+01  4.165212580E+01  0.000000000E+00  0.00000E+00  9.000E+00
      21    -1     0     0   502   503  0.000000000E+00  0.000000000E+00 -6.641539669E+02  6.641539669E+02  0.000000000E+00  0.00000E+00  9.000E+00
      25     1     1     2     0     0 -1.593391688E+01  1.085395403E+00 -6.347008868E+02  6.470901236E+02  1.250013779E+02  0.00000E+00  9.000E+00
       5     1     1     2   501     0  7.760514614E+00 -6.658037732E+00 -2.908143007E+00  1.164366133E+01  4.750000000E+00  0.00000E+00  9.000E+00
      -5     1     1     2     0   503  2.184083087E+00  1.314455152E+00 -1.507420947E+01  1.600913184E+01  4.750000000E+00  0.00000E+00  9.000E+00
      21     1     1     2   502   511  5.989319183E+00  4.258187177E+00  3.018139822E+01  3.106317596E+01  1.348699152E-06  0.00000E+00  9.000E+00
#rwgt            1           9   1.5022945356562185E-003           9     1723563           0
</event>
<event>
      6   9999  3.45752E-01  1.45000E+02 -1.00000E+00  1.13955E-01
      21    -1     0     0   501   512  0.000000000E+00  0.000000000E+00  1.574035562E+02  1.574035562E+02  0.000000000E+00  0.00000E+00  9.000E+00
      -2    -1     0     0     0   502  0.000000000E+00  0.000000000E+00 -6.413292142E+02  6.413292142E+02  0.000000000E+00  0.00000E+00  9.000E+00
      25     1     1     2     0     0 -1.964723971E+02  2.703217226E+00  3.342711416E+01  2.352501844E+02  1.249662638E+02  0.00000E+00  9.000E+00
       5     1     1     2   501     0  5.012289005E+01 -1.174160982E+01 -1.923050641E+02  1.991330451E+02  4.750000000E+00  0.00000E+00  9.000E+00
      -5     1     1     2     0   502  1.374881785E+00  6.308440414E+00  4.370465806E-01  8.027467228E+00  4.750000000E+00  0.00000E+00  9.000E+00
      -2     1     1     2     0   512  1.449746252E+02  2.729952177E+00 -3.254847547E+02  3.563220736E+02  6.607249480E-06  0.00000E+00  9.000E+00
#rwgt            1           4   1.9547323091152185E-003           9     1726764           0
</event>
<event>
      6   9999  3.45752E-01  2.67461E+01 -1.00000E+00  1.51137E-01
      21    -1     0     0   501   511  0.000000000E+00  0.000000000E+00  8.537657552E+01  8.537657552E+01  0.000000000E+00  0.00000E+00  9.000E+00
      21    -1     0     0   502   503  0.000000000E+00  0.000000000E+00 -7.877042267E+02  7.877042267E+02  0.000000000E+00  0.00000E+00  9.000E+00
      25     1     1     2     0     0 -7.086398557E+01  7.534171430E+01 -6.922467078E+02  7.110050023E+02  1.249981219E+02  0.00000E+00  9.000E+00
       5     1     1     2   501     0  1.017038576E+00  1.588907560E+00  4.406833813E+01  4.436372302E+01  4.750000000E+00  0.00000E+00  9.000E+00
      -5     1     1     2     0   503  5.426279604E+01 -5.519378398E+01 -3.682598183E+01  8.584590998E+01  4.750000000E+00  0.00000E+00  9.000E+00
      21     1     1     2   502   511  1.558415096E+01 -2.173683788E+01 -1.732329970E+01  3.186616693E+01  4.768371582E-07  0.00000E+00  9.000E+00
#rwgt            1           9   1.9004883930886573E-002           9     1727523           0
</event>
<event>
      6   9999  3.45752E-01  7.95397E+00 -1.00000E+00  1.98312E-01
       2    -1     0     0   502     0  0.000000000E+00  0.000000000E+00  6.353580500E+00  6.353580500E+00  0.000000000E+00  0.00000E+00  9.000E+00
      21    -1     0     0   501   502  0.000000000E+00  0.000000000E+00 -1.221361781E+03  1.221361781E+03  0.000000000E+00  0.00000E+00  9.000E+00
      25     1     1     2     0     0 -4.065566082E+00 -7.184147871E+00 -1.086213421E+03  1.093413786E+03  1.250038784E+02  0.00000E+00  9.000E+00
       5     1     1     2   501     0  4.235009236E+00 -2.781597199E+00 -5.975834600E+01  6.016057682E+01  4.750000000E+00  0.00000E+00  9.000E+00
      -5     1     1     2     0   503  3.071196959E+00  2.701873513E+00 -6.485058506E+01  6.515284533E+01  4.750000000E+00  0.00000E+00  9.000E+00
       2     1     1     2   503     0 -3.240640113E+00  7.263871557E+00 -4.185848046E+00  8.988153437E+00  3.097148194E-07  0.00000E+00  9.000E+00
#rwgt            1           9  0.15581486452154741                9     1730059           0
</event>
<event>
      6   9999  3.45752E-01  1.40608E+01 -1.00000E+00  1.72842E-01
      21    -1     0     0   501   511  0.000000000E+00  0.000000000E+00  2.925505067E+02  2.925505067E+02  0.000000000E+00  0.00000E+00  9.000E+00
      21    -1     0     0   502   503  0.000000000E+00  0.000000000E+00 -7.326978397E+02  7.326978397E+02  0.000000000E+00  0.00000E+00  9.000E+00
      25     1     1     2     0     0 -1.927471925E-01 -9.632880851E+00 -6.907117918E+02  7.019971877E+02  1.249977707E+02  0.00000E+00  9.000E+00
       5     1     1     2   501     0  8.644567437E+00 -1.712093618E+00 -1.218030051E+01  1.576648443E+01  4.750000000E+00  0.00000E+00  9.000E+00
      -5     1     1     2     0   503  3.151289601E+00  3.403128486E+00 -2.169988317E+01  2.269271556E+01  4.750000000E+00  0.00000E+00  9.000E+00
      21     1     1     2   502   511 -1.160310984E+01  7.941845984E+00  2.844446425E+02  2.847919586E+02  3.814697266E-06  0.00000E+00  9.000E+00
#rwgt            1           9   9.3441811690407660E-004           9     1732322           0
</event>
<event>
      6   9999  3.45752E-01  2.86895E+01 -1.00000E+00  1.49104E-01
      21    -1     0     0   501   512  0.000000000E+00  0.000000000E+00  1.820482302E+02  1.820482302E+02  0.000000000E+00  0.00000E+00  9.000E+00
      21    -1     0     0   502   503  0.000000000E+00  0.000000000E+00 -1.260486721E+03  1.260486721E+03  0.000000000E+00  0.00000E+00  9.000E+00
      25     1     1     2     0     0 -1.731918409E+01  5.220846275E+00 -1.141647437E+03  1.148610094E+03  1.249762612E+02  0.00000E+00  9.000E+00
       5     1     1     2   501     0 -8.470372823E+00  1.805708131E+01  3.395212198E+01  3.966250733E+01  4.750000000E+00  0.00000E+00  9.000E+00
      -5     1     1     2     0   503  5.097901492E+00 -3.404727263E+00 -1.109144200E+02  1.111852141E+02  4.750000000E+00  0.00000E+00  9.000E+00
      21     1     1     2   502   512  2.069165542E+01 -1.987320032E+01  1.401712450E+02  1.430771352E+02  4.672030912E-06  0.00000E+00  9.000E+00
#rwgt            1           9   1.6837263844435960E-002           9     1734138           0
</event>
<event>
      6   9999  3.45752E-01  4.99682E+00 -1.00000E+00  2.29411E-01
      21    -1     0     0   501   502  0.000000000E+00  0.000000000E+00  1.119519444E+02  1.119519444E+02  0.000000000E+00  0.00000E+00  9.000E+00
      21    -1     0     0   511   503  0.000000000E+00  0.000000000E+00 -1.811008091E+02  1.811008091E+02  0.000000000E+00  0.00000E+00  9.000E+00
      25     1     1     2     0     0 -3.053346791E+00  3.313073167E+00 -1.184320604E+02  1.722536582E+02  1.249994818E+02  0.00000E+00  9.000E+00
       5     1     1     2   501     0  2.314924609E+00 -4.377699555E+00  8.083154417E+01  8.112227908E+01  4.750000000E+00  0.00000E+00  9.000E+00
      -5     1     1     2     0   503  5.357764683E+00 -8.406005594E-01  5.137945575E-01  7.227636996E+00  4.750000000E+00  0.00000E+00  9.000E+00
      21     1     1     2   511   502 -4.619342500E+00  1.905226947E+00 -3.206214304E+01  3.244917921E+01  4.768371582E-07  0.00000E+00  9.000E+00
#rwgt            1           9   1.1996011303982979E-003           9     1735924           0
</event>
<event>
      6   9999  3.45752E-01  3.56419E+01 -1.00000E+00  1.43155E-01
      21    -1     0     0   512   502  0.000000000E+00  0.000000000E+00  6.907571568E+01  6.907571568E+01  0.000000000E+00  0.00000E+00  9.000E+00
      21    -1     0     0   502   503  0.000000000E+00  0.000000000E+00 -8.977857999E+02  8.977857999E+02  0.000000000E+00  0.00000E+00  9.000E+00
      25     1     1     2     0     0  1.285678133E+01 -2.125965035E+01 -8.007818603E+02  8.108597506E+02  1.249987111E+02  0.00000E+00  9.000E+00
       5     1     1     2   501     0  1.211320039E-01 -1.455815591E+01  2.127511210E+00  1.546102780E+01  4.750000000E+00  0.00000E+00  9.000E+00
      -5     1     1     2     0   503 -1.027343062E+01  2.786305442E-01 -7.910396765E+01  7.991008203E+01  4.750000000E+00  0.00000E+00  9.000E+00
      21     1     1     2   512   501 -2.704482708E+00  3.553917572E+01  4.904823249E+01  6.063065519E+01  3.504023184E-06  0.00000E+00  9.000E+00
#rwgt            1           9   2.1618337677130505E-005           9     1740750           0
</event>
<event>
      6   9999  3.45752E-01  3.03522E+01 -1.00000E+00  1.47511E-01
      21    -1     0     0   501   511  0.000000000E+00  0.000000000E+00  1.603918684E+02  1.603918684E+02  0.000000000E+00  0.00000E+00  9.000E+00
      21    -1     0     0   502   503  0.000000000E+00  0.000000000E+00 -1.565156940E+03  1.565156940E+03  0.000000000E+00  0.00000E+00  9.000E+00
      25     1     1     2     0     0 -4.992388129E+01  7.557087659E+01 -3.708854620E+02  4.017267899E+02  1.250001459E+02  0.00000E+00  9.000E+00
       5     1     1     2   501     0 -1.918760855E+00  8.744136108E-01  4.283465858E+01  4.314877423E+01  4.750000000E+00  0.00000E+00  9.000E+00
      -5     1     1     2     0   503  6.926508066E+01 -5.159144868E+01 -1.174809557E+03  1.177989553E+03  4.750000000E+00  0.00000E+00  9.000E+00
      21     1     1     2   502   511 -1.742243852E+01 -2.485384152E+01  9.809528882E+01  1.026836915E+02  4.473129043E-06  0.00000E+00  9.000E+00
#rwgt            1           9   1.9871805968337486E-002           9     1741969           0
</event>
<event>
      6   9999  3.45752E-01  3.98236E+00 -1.00000E+00  2.48248E-01
      21    -1     0     0   512   502  0.000000000E+00  0.000000000E+00  5.705617572E+01  5.705617572E+01  0.000000000E+00  0.00000E+00  9.000E+00
      21    -1     0     0   502   503  0.000000000E+00  0.000000000E+00 -9.892991796E+02  9.892991796E+02  0.000000000E+00  0.00000E+00  9.000E+00
      25     1     1     2     0     0  1.982656191E+01 -6.748839853E+01 -3.139222728E+02  3.451376530E+02  1.250001186E+02  0.00000E+00  9.000E+00
       5     1     1     2   501     0 -2.642181029E+00 -1.285146310E+00  7.137065338E+00  9.062721626E+00  4.750000000E+00  0.00000E+00  9.000E+00
      -5     1     1     2     0   503 -1.802425275E+01  6.488075123E+01 -6.569514222E+02  6.604105687E+02  4.750000000E+00  0.00000E+00  9.000E+00
      21     1     1     2   512   501  8.398718767E-01  3.892793609E+00  3.149362582E+01  3.174441202E+01  8.259061849E-07  0.00000E+00  9.000E+00
#rwgt            1           9   1.5940597279083302E-004           9     1744110           0
</event>
<event>
      6   9999  3.45752E-01  7.00832E+00 -1.00000E+00  2.05073E-01
      21    -1     0     0   501   502  0.000000000E+00  0.000000000E+00  1.173524240E+01  1.173524240E+01  0.000000000E+00  0.00000E+00  9.000E+00
      21    -1     0     0   502   511  0.000000000E+00  0.000000000E+00 -8.671855281E+02  8.671855281E+02  0.000000000E+00  0.00000E+00  9.000E+00
      25     1     1     2     0     0 -5.281611327E+00  3.570728197E+01 -6.837404687E+02  6.959846203E+02  1.248625556E+02  0.00000E+00  9.000E+00
       5     1     1     2   501     0  5.992637697E-02  1.005672888E+00  1.903065885E+00  5.215278410E+00  4.750000000E+00  0.00000E+00  9.000E+00
      -5     1     1     2     0   503  5.791084282E+00 -2.972779937E+01 -1.312979588E+02  1.348295042E+02  4.750000000E+00  0.00000E+00  9.000E+00
      21     1     1     2   503   511 -5.693993322E-01 -6.985155493E+00 -4.231492407E+01  4.289136757E+01  4.768371582E-07  0.00000E+00  9.000E+00
#rwgt            1           9   3.8429492196082605E-005           9     1749703           0
</event>
<event>
      6   9999  3.45752E-01  2.83415E+01 -1.00000E+00  1.49454E-01
      21    -1     0     0   501   502  0.000000000E+00  0.000000000E+00  4.567251826E+01  4.567251826E+01  0.000000000E+00  0.00000E+00  9.000E+00
      21    -1     0     0   512   503  0.000000000E+00  0.000000000E+00 -1.475940170E+03  1.475940170E+03  0.000000000E+00  0.00000E+00  9.000E+00
      25     1     1     2     0     0 -1.453218817E+01  2.941741708E+01 -1.202795146E+03  1.209717791E+03  1.249976096E+02  0.00000E+00  9.000E+00
       5     1     1     2   501     0 -5.884806479E+00  1.209262325E+00  4.017214981E+01  4.089568905E+01  4.750000000E+00  0.00000E+00  9.000E+00
      -5     1     1     2     0   503  9.355755982E+00 -4.532867625E+00 -4.012559738E+01  4.172173443E+01  4.750000000E+00  0.00000E+00  9.000E+00
      21     1     1     2   512   502  1.106123867E+01 -2.609381178E+01 -2.275190586E+02  2.292774739E+02  2.697398305E-06  0.00000E+00  9.000E+00
#rwgt            1           9   2.4282474240223462E-004           9     1753600           0
</event>
<event>
      6   9999  3.45752E-01  6.97300E+00 -1.00000E+00  2.05353E-01
      21    -1     0     0   502   503  0.000000000E+00  0.000000000E+00  9.851707247E+00  9.851707247E+00  0.000000000E+00  0.00000E+00  9.000E+00
      21    -1     0     0   501   511  0.000000000E+00  0.000000000E+00 -8.060529809E+02  8.060529809E+02  0.000000000E+00  0.00000E+00  9.000E+00
      25     1     1     2     0     0  2.583912692E+01 -1.248053783E+01 -5.706271363E+02  5.848350895E+02  1.248732517E+02  0.00000E+00  9.000E+00
       5     1     1     2   501     0 -1.104548723E+01  1.927297753E+01 -7.899280435E+01  8.219413660E+01  4.750000000E+00  0.00000E+00  9.000E+00
      -5     1     1     2     0   503 -1.246523212E+01 -1.336520418E+01 -1.143319053E+02  1.158807912E+02  4.750000000E+00  0.00000E+00  9.000E+00
      21     1     1     2   502   511 -2.328407565E+00  6.572764479E+00 -3.224942769E+01  3.299467080E+01  6.743495762E-07  0.00000E+00  9.000E+00
#rwgt            1           9   1.3163386728863498E-004           9     1755361           0
</event>
<event>
      6   9999 -3.45752E-01  8.11921E+00 -1.00000E+00  1.97258E-01
      21    -1     0     0   512   503  0.000000000E+00  0.000000000E+00  1.155400586E+02  1.155400586E+02  0.000000000E+00  0.00000E+00  9.000E+00
      21    -1     0     0   501   502  0.000000000E+00  0.000000000E+00 -7.060721432E+02  7.060721432E+02  0.000000000E+00  0.00000E+00  9.000E+00
      25     1     1     2     0     0 -7.268445478E+00 -9.280712936E+00 -6.684959196E+02  6.801844358E+02  1.250004407E+02  0.00000E+00  9.000E+00
       5     1     1     2   501     0  1.032032163E+01  6.284162855E+00 -1.139898389E+01  1.727712578E+01  4.750000000E+00  0.00000E+00  9.000E+00
      -5     1     1     2     0   503  3.291226703E+00 -2.071639762E+00 -1.669220731E+01  1.778527901E+01  4.750000000E+00  0.00000E+00  9.000E+00
      21     1     1     2   512   502 -6.343102858E+00  5.068189844E+00  1.060550261E+02  1.063653612E+02  2.697398305E-06  0.00000E+00  9.000E+00
#rwgt            1           9  -5.2918211852197089E-004           9     1758367           0
</event>
<event>
      6   9999  3.45752E-01  5.26981E+00 -1.00000E+00  2.22221E-01
      21    -1     0     0   511   502  0.000000000E+00  0.000000000E+00  9.303597686E+01  9.303597686E+01  0.000000000E+00  0.00000E+00  9.000E+00
      21    -1     0     0   502   503  0.000000000E+00  0.000000000E+00 -1.112221667E+03  1.112221667E+03  0.000000000E+00  0.00000E+00  9.000E+00
      25     1     1     2     0     0  9.083544320E-01  4.299188677E+00 -8.434708694E+02  8.526970217E+02  1.250191793E+02  0.00000E+00  9.000E+00
       5     1     1     2   501     0  1.014700406E+00 -8.025958416E+00  2.313499271E+01  2.496469534E+01  4.750000000E+00  0.00000E+00  9.000E+00
      -5     1     1     2     0   503  2.518763896E+00  8.910778751E-01 -2.630867514E+02  2.631431920E+02  4.750000000E+00  0.00000E+00  9.000E+00
      21     1     1     2   511   501 -4.441818734E+00  2.835691865E+00  6.423693770E+01  6.445273514E+01  0.000000000E+00  0.00000E+00  9.000E+00
#rwgt            1           9   2.5609451705507649E-005           9     1761045           0
</event>
<event>
      6   9999 -3.45752E-01  2.84645E+01 -1.00000E+00  1.49329E-01
      21    -1     0     0   512   503  0.000000000E+00  0.000000000E+00  1.830697202E+01  1.830697202E+01  0.000000000E+00  0.00000E+00  9.000E+00
      21    -1     0     0   501   502  0.000000000E+00  0.000000000E+00 -8.086402127E+02  8.086402127E+02  0.000000000E+00  0.00000E+00  9.000E+00
      25     1     1     2     0     0  3.770145959E-01 -9.012455865E+00 -5.107980971E+02  5.259476261E+02  1.249993715E+02  0.00000E+00  9.000E+00
       5     1     1     2   501     0  1.666852348E+01  6.868724988E+00 -2.254459319E+02  2.262154941E+02  4.750000000E+00  0.00000E+00  9.000E+00
      -5     1     1     2     0   503 -2.739329628E+00 -2.246440891E+01 -2.253947653E+01  3.229154838E+01  4.750000000E+00  0.00000E+00  9.000E+00
      21     1     1     2   512   502 -1.430620845E+01  2.460813979E+01 -3.154973525E+01  4.249251626E+01  9.536743164E-07  0.00000E+00  9.000E+00
#rwgt            1           9  -487.45137022131149                9     1766252           0
</event>
<event>
      6   9999  3.45752E-01  4.00582E+00 -1.00000E+00  2.47719E-01
      21    -1     0     0   501   502  0.000000000E+00  0.000000000E+00  9.124387890E+00  9.124387890E+00  0.000000000E+00  0.00000E+00  9.000E+00
      21    -1     0     0   511   503  0.000000000E+00  0.000000000E+00 -9.041938839E+02  9.041938839E+02  0.000000000E+00  0.00000E+00  9.000E+00
      25     1     1     2     0     0  1.643078603E+01  1.624771179E+01 -6.054475775E+02  6.186482712E+02  1.249998218E+02  0.00000E+00  9.000E+00
       5     1     1     2   501     0 -4.591206990E-01  8.010671657E-01 -9.313865513E-01  4.927725776E+00  4.750000000E+00  0.00000E+00  9.000E+00
      -5     1     1     2     0   503 -1.345529196E+01 -1.393197026E+01 -2.084426563E+02  2.093944797E+02  4.750000000E+00  0.00000E+00  9.000E+00
      21     1     1     2   511   502 -2.516373370E+00 -3.116808701E+00 -8.024787571E+01  8.034779516E+01  1.651812370E-06  0.00000E+00  9.000E+00
#rwgt            1           9   3.4453409678565923E-005           9     1767808           0
</event>
<event>
      6   9999 -3.45752E-01  6.04132E+00 -1.00000E+00  2.13644E-01
      21    -1     0     0   501   512  0.000000000E+00  0.000000000E+00  8.049817900E+01  8.049817900E+01  0.000000000E+00  0.00000E+00  9.000E+00
      21    -1     0     0   502   503  0.000000000E+00  0.000000000E+00 -9.975345625E+02  9.975345625E+02  0.000000000E+00  0.00000E+00  9.000E+00
      25     1     1     2     0     0  6.531167969E-01  3.000902809E-01 -9.504727724E+02  9.586573284E+02  1.249994630E+02  0.00000E+00  9.000E+00
       5     1     1     2   501     0 -3.510980883E+00  4.685142058E+00  1.848834569E+01  1.996644609E+01  4.750000000E+00  0.00000E+00  9.000E+00
      -5     1     1     2     0   503  7.736334402E+00 -1.421801767E+00 -4.156771345E+01  4.257123079E+01  4.750000000E+00  0.00000E+00  9.000E+00
      21     1     1     2   502   512 -4.878470316E+00 -3.563430572E+00  5.651575661E+01  5.683773619E+01  1.651812370E-06  0.00000E+00  9.000E+00
#rwgt            1           9  -3.6362852218913629E-004           9     1772833           0
</event>
<event>
      6   9999  3.45752E-01  2.47796E+01 -1.00000E+00  1.53417E-01
      21    -1     0     0   511   502  0.000000000E+00  0.000000000E+00  3.913288703E+02  3.913288703E+02  0.000000000E+00  0.00000E+00  9.000E+00
      21    -1     0     0   502   503  0.000000000E+00  0.000000000E+00 -1.108497993E+03  1.108497993E+03  0.000000000E+00  0.00000E+00  9.000E+00
      25     1     1     2     0     0 -1.181394148E+01 -2.548303921E+01 -8.087718841E+02  8.188547460E+02  1.249887195E+02  0.00000E+00  9.000E+00
       5     1     1     2   501     0  2.012575581E+01 -5.491212543E+00  3.714640193E+01  4.286743681E+01  4.750000000E+00  0.00000E+00  9.000E+00
      -5     1     1     2     0   503  1.584127250E+01  2.543752242E+01 -2.905900039E+02  2.921696876E+02  4.750000000E+00  0.00000E+00  9.000E+00
      21     1     1     2   511   501 -2.415308684E+01  5.536729336E+00  3.450463631E+02  3.459349934E+02  0.000000000E+00  0.00000E+00  9.000E+00
#rwgt            1           9   3.0589316909301048E-003           9     1778924           0
</event>
<event>
      6   9999  3.45752E-01  4.00964E+01 -1.00000E+00  1.40125E-01
      21    -1     0     0   501   512  0.000000000E+00  0.000000000E+00  4.857430649E+01  4.857430649E+01  0.000000000E+00  0.00000E+00  9.000E+00
      21    -1     0     0   502   503  0.000000000E+00  0.000000000E+00 -8.437011950E+02  8.437011950E+02  0.000000000E+00  0.00000E+00  9.000E+00
      25     1     1     2     0     0  1.526252137E+01 -2.936074707E+01 -3.225405775E+02  3.474944444E+02  1.249998669E+02  0.00000E+00  9.000E+00
       5     1     1     2   501     0  2.957750604E+00 -3.144038423E+00  3.946834301E-01  6.430516406E+00  4.750000000E+00  0.00000E+00  9.000E+00
      -5     1     1     2     0   503  3.824013660E+00 -9.880551310E-01 -4.933419797E+02  4.933806550E+02  4.750000000E+00  0.00000E+00  9.000E+00
      21     1     1     2   502   512 -2.204428563E+01  3.349284062E+01  2.036098520E+01  4.496988571E+01  9.830249847E-07  0.00000E+00  9.000E+00
#rwgt            1           9  0.20564957114094490                9     1780768           0
</event>
<event>
      6   9999  3.45752E-01  5.77601E+00 -1.00000E+00  2.16386E-01
      21    -1     0     0   511   502  0.000000000E+00  0.000000000E+00  1.746479712E+02  1.746479712E+02  0.000000000E+00  0.00000E+00  9.000E+00
      21    -1     0     0   502   503  0.000000000E+00  0.000000000E+00 -4.393626828E+02  4.393626828E+02  0.000000000E+00  0.00000E+00  9.000E+00
      25     1     1     2     0     0 -4.067118410E+01 -4.816918052E+01  9.072757745E+01  1.668266533E+02  1.250008951E+02  0.00000E+00  9.000E+00
       5     1     1     2   501     0  1.663074616E+00 -4.635945531E-01  3.670279494E+01  3.704913485E+01  4.750000000E+00  0.00000E+00  9.000E+00
      -5     1     1     2     0   503  3.705924321E+01  5.407007380E+01 -3.971138469E+02  4.025157516E+02  4.750000000E+00  0.00000E+00  9.000E+00
      21     1     1     2   511   501  1.948866277E+00 -5.437298722E+00  4.968762902E+00  7.619114249E+00  0.000000000E+00  0.00000E+00  9.000E+00
#rwgt            1           9   8.8911023493289457E-004           9     1782020           0
</event>
<event>
      6   9999  3.45752E-01  9.07581E+00 -1.00000E+00  1.91742E-01
      21    -1     0     0   512   502  0.000000000E+00  0.000000000E+00  4.316574530E+01  4.316574530E+01  0.000000000E+00  0.00000E+00  9.000E+00
      21    -1     0     0   502   503  0.000000000E+00  0.000000000E+00 -4.759902289E+02  4.759902289E+02  0.000000000E+00  0.00000E+00  9.000E+00
      25     1     1     2     0     0  2.088064422E-01  4.422922902E-01 -4.533804628E+02  4.702978995E+02  1.250041238E+02  0.00000E+00  9.000E+00
       5     1     1     2   501     0  4.396991601E+00 -5.989697935E+00  1.989300502E+01  2.176015086E+01  4.750000000E+00  0.00000E+00  9.000E+00
      -5     1     1     2     0   503 -4.377586500E-01 -2.514717352E+00 -1.104093036E+01  1.228739513E+01  4.750000000E+00  0.00000E+00  9.000E+00
      21     1     1     2   512   501 -4.168039393E+00  8.062122996E+00  1.170390455E+01  1.481052873E+01  7.152557373E-07  0.00000E+00  9.000E+00
#rwgt            1           9   3.4891053794886377E-002           9     1787831           0
</event>
<event>
      6   9999  3.45752E-01  3.59061E+00 -1.00000E+00  2.57973E-01
      21    -1     0     0   501   511  0.000000000E+00  0.000000000E+00  1.266802539E+02  1.266802539E+02  0.000000000E+00  0.00000E+00  9.000E+00
      21    -1     0     0   502   503  0.000000000E+00  0.000000000E+00 -4.665151985E+02  4.665151985E+02  0.000000000E+00  0.00000E+00  9.000E+00
      25     1     1     2     0     0 -7.114133972E+01 -9.457576578E+01 -2.871241143E+01  1.745127227E+02  1.249984885E+02  0.00000E+00  9.000E+00
       5     1     1     2   501     0  2.695582699E+00 -1.079010496E+00  4.236985564E+01  4.273403323E+01  4.750000000E+00  0.00000E+00  9.000E+00
      -5     1     1     2     0   503  7.195112336E+01  9.487705032E+01 -3.526774196E+02  3.722667641E+02  4.750000000E+00  0.00000E+00  9.000E+00
      21     1     1     2   502   511 -3.505366338E+00  7.777259542E-01 -8.149691046E-01  3.681932300E+00  6.909384203E-08  0.00000E+00  9.000E+00
#rwgt            1           9  0.37578052667457590                9     1790637           0
</event>
<event>
      6   9999  3.45752E-01  3.10245E+01 -1.00000E+00  1.46901E-01
      21    -1     0     0   512   502  0.000000000E+00  0.000000000E+00  1.541921910E+03  1.541921910E+03  0.000000000E+00  0.00000E+00  9.000E+00
      21    -1     0     0   502   503  0.000000000E+00  0.000000000E+00 -8.311369801E+00  8.311369801E+00  0.000000000E+00  0.00000E+00  9.000E+00
      25     1     1     2     0     0  8.721448318E+00 -6.759108247E-01  5.465979722E+02  5.607938743E+02  1.250755997E+02  0.00000E+00  9.000E+00
       5     1     1     2   501     0 -9.990526203E-01 -3.393438489E+00  2.381059498E+02  2.381795948E+02  4.750000000E+00  0.00000E+00  9.000E+00
      -5     1     1     2     0   503 -6.470121004E+00 -2.692985151E+01  3.931558439E+02  3.941587998E+02  4.750000000E+00  0.00000E+00  9.000E+00
      21     1     1     2   512   501 -1.252274693E+00  3.099920083E+01  3.557507744E+02  3.571010111E+02  5.394796609E-06  0.00000E+00  9.000E+00
#rwgt            1           9  0.14185918004532719                9     1798074           0
</event>
<event>
      6   9999  3.45752E-01  3.44247E+01 -1.00000E+00  1.44074E-01
      21    -1     0     0   511   502  0.000000000E+00  0.000000000E+00  7.391249223E+01  7.391249223E+01  0.000000000E+00  0.00000E+00  9.000E+00
      21    -1     0     0   502   503  0.000000000E+00  0.000000000E+00 -1.287963805E+03  1.287963805E+03  0.000000000E+00  0.00000E+00  9.000E+00
      25     1     1     2     0     0 -4.772405689E+01 -1.794224505E+01 -1.344845752E+02  1.905514984E+02  1.249970512E+02  0.00000E+00  9.000E+00
       5     1     1     2   501     0  2.285738557E+00 -7.200762984E+00  1.092648093E+01  1.410766011E+01  4.750000000E+00  0.00000E+00  9.000E+00
      -5     1     1     2     0   503  5.642590717E+01 -7.481097366E+00 -1.114044117E+03  1.115507377E+03  4.750000000E+00  0.00000E+00  9.000E+00
      21     1     1     2   511   501 -1.098758883E+01  3.262410540E+01  2.355089919E+01  4.170976162E+01  1.066240300E-06  0.00000E+00  9.000E+00
#rwgt            1           9   1.5078751689997705E-004           9     1799006           0
</event>
<event>
      6   9999  3.45752E-01  5.64253E+00 -1.00000E+00  2.17843E-01
      21    -1     0     0   501   502  0.000000000E+00  0.000000000E+00  4.333850694E+01  4.333850694E+01  0.000000000E+00  0.00000E+00  9.000E+00
      21    -1     0     0   512   503  0.000000000E+00  0.000000000E+00 -1.391566249E+03  1.391566249E+03  0.000000000E+00  0.00000E+00  9.000E+00
      25     1     1     2     0     0 -3.774010618E+01 -4.347360434E+01 -5.679804102E+02  5.844144581E+02  1.249969702E+02  0.00000E+00  9.000E+00
       5     1     1     2   501     0 -2.842252309E+00  5.089219407E+00  3.352366502E+01  3.435661754E+01  4.750000000E+00  0.00000E+00  9.000E+00
      -5     1     1     2     0   503  3.501294462E+01  3.928979566E+01 -6.099401907E+02  6.122247897E+02  4.750000000E+00  0.00000E+00  9.000E+00
      21     1     1     2   512   502  5.569413862E+00 -9.054107197E-01 -2.038308061E+02  2.039088906E+02  0.000000000E+00  0.00000E+00  9.000E+00
#rwgt            1           9   1.2783178507483759E-002           9     1800579           0
</event>
<event>
      6   9999  3.45752E-01  1.51946E+01 -1.00000E+00  1.69888E-01
      21    -1     0     0   501   511  0.000000000E+00  0.000000000E+00  2.105164258E+01  2.105164258E+01  0.000000000E+00  0.00000E+00  9.000E+00
      21    -1     0     0   502   503  0.000000000E+00  0.000000000E+00 -8.239086856E+02  8.239086856E+02  0.000000000E+00  0.00000E+00  9.000E+00
      25     1     1     2     0     0 -2.552386699E+01  3.456116068E+01 -6.692854479E+02  6.821946149E+02  1.249021229E+02  0.00000E+00  9.000E+00
       5     1     1     2   501     0  3.337135144E+01 -2.603100261E+01 -9.893322410E+01  1.077107493E+02  4.750000000E+00  0.00000E+00  9.000E+00
      -5     1     1     2     0   503  4.635125235E-01  4.190005179E+00 -3.878756807E+01  3.930405735E+01  4.750000000E+00  0.00000E+00  9.000E+00
      21     1     1     2   502   511 -8.310996977E+00 -1.272016325E+01  4.149196958E+00  1.575090662E+01  6.873942968E-07  0.00000E+00  9.000E+00
#rwgt            1           9   4.2004881699824322E-004           9     1805874           0
</event>
<event>
      6   9999 -3.45752E-01  1.20747E+01 -1.00000E+00  1.78963E-01
      21    -1     0     0   502   512  0.000000000E+00  0.000000000E+00  1.017111329E+01  1.017111329E+01  0.000000000E+00  0.00000E+00  9.000E+00
      21    -1     0     0   501   502  0.000000000E+00  0.000000000E+00 -8.158401802E+02  8.158401802E+02  0.000000000E+00  0.00000E+00  9.000E+00
      25     1     1     2     0     0 -3.614941187E+00 -9.838896397E+00 -4.781109306E+02  4.942924961E+02  1.250005520E+02  0.00000E+00  9.000E+00
       5     1     1     2   501     0  5.514817794E+00  2.464004522E+01 -2.716107488E+02  2.728232145E+02  4.750000000E+00  0.00000E+00  9.000E+00
      -5     1     1     2     0   503  1.211064732E+00 -3.134099217E+00 -1.226468471E+01  1.357476507E+01  4.750000000E+00  0.00000E+00  9.000E+00
      21     1     1     2   503   512 -3.110941340E+00 -1.166704961E+01 -4.368270283E+01  4.532081784E+01  4.768371582E-07  0.00000E+00  9.000E+00
#rwgt            1           9 -0.77325431277073697                9     1807591           0
</event>
<event>
      6   9999  3.45752E-01  3.34346E+01 -1.00000E+00  1.44856E-01
      21    -1     0     0   511   502  0.000000000E+00  0.000000000E+00  1.059232554E+02  1.059232554E+02  0.000000000E+00  0.00000E+00  9.000E+00
      21    -1     0     0   502   503  0.000000000E+00  0.000000000E+00 -1.497253252E+03  1.497253252E+03  0.000000000E+00  0.00000E+00  9.000E+00
      25     1     1     2     0     0  5.474866254E+01  1.410252723E+02 -3.089740973E+02  3.660298462E+02  1.250092477E+02  0.00000E+00  9.000E+00
       5     1     1     2   501     0  2.399129508E+00 -4.150353649E+00  3.307871689E+01  3.376011358E+01  4.750000000E+00  0.00000E+00  9.000E+00
      -5     1     1     2     0   503 -2.538342579E+01 -1.473101690E+02 -1.147414440E+03  1.157120160E+03  4.750000000E+00  0.00000E+00  9.000E+00
      21     1     1     2   511   501 -3.176436626E+01  1.043525038E+01  3.197982462E+01  4.626638734E+01  1.469710828E-06  0.00000E+00  9.000E+00
#rwgt            1           9   1.0225999229086032E-003           9     1809662           0
</event>
<event>
      6   9999 -3.45752E-01  2.09037E+01 -1.00000E+00  1.58759E-01
      21    -1     0     0   501   502  0.000000000E+00  0.000000000E+00  1.813206712E+01  1.813206712E+01  0.000000000E+00  0.00000E+00  9.000E+00
      21    -1     0     0   502   512  0.000000000E+00  0.000000000E+00 -1.191135941E+03  1.191135941E+03  0.000000000E+00  0.00000E+00  9.000E+00
      25     1     1     2     0     0 -1.201348298E+01  2.221175554E+01 -8.036195388E+02  8.136749395E+02  1.249994322E+02  0.00000E+00  9.000E+00
       5     1     1     2   501     0 -3.590109604E+00  7.494508985E+00  1.033486687E+01  1.408646603E+01  4.750000000E+00  0.00000E+00  9.000E+00
      -5     1     1     2     0   503  8.543396775E-01 -1.489325847E+01 -1.379984451E+02  1.388836650E+02  4.750000000E+00  0.00000E+00  9.000E+00
      21     1     1     2   503   512  1.474925291E+01 -1.481300605E+01 -2.417207565E+02  2.426229373E+02  2.697398305E-06  0.00000E+00  9.000E+00
#rwgt            1           9  -2.9654336832120879E-004           9     1811774           0
</event>
<event>
      6   9999  3.45752E-01  1.27838E+01 -1.00000E+00  1.76617E-01
      21    -1     0     0   501   502  0.000000000E+00  0.000000000E+00  3.273058296E+01  3.273058296E+01  0.000000000E+00  0.00000E+00  9.000E+00
       1    -1     0     0   502     0  0.000000000E+00  0.000000000E+00 -3.185557706E+03  3.185557706E+03  0.000000000E+00  0.00000E+00  9.000E+00
      25     1     1     2     0     0 -4.040717289E+01 -6.348118592E+00 -1.742342418E+03  1.747299736E+03  1.250049029E+02  0.00000E+00  9.000E+00
       5     1     1     2   501     0  3.611787029E+01  6.367448183E+00  1.795348243E+01  4.110881878E+01  4.750000000E+00  0.00000E+00  9.000E+00
      -5     1     1     2     0   503 -4.721185531E+00 -9.087759835E+00 -4.540010843E+01  4.678257493E+01  4.750000000E+00  0.00000E+00  9.000E+00
       1     1     1     2   503     0  9.010488136E+00  9.068430244E+00 -1.383038079E+03  1.383097160E+03  0.000000000E+00  0.00000E+00  9.000E+00
#rwgt            1           9   1.8362635915785248E-002           9     1814506           0
</event>
<event>
      6   9999  3.45752E-01  6.62701E+00 -1.00000E+00  2.08217E-01
      21    -1     0     0   501   502  0.000000000E+00  0.000000000E+00  6.448945491E+01  6.448945491E+01  0.000000000E+00  0.00000E+00  9.000E+00
      21    -1     0     0   511   503  0.000000000E+00  0.000000000E+00 -1.496983136E+03  1.496983136E+03  0.000000000E+00  0.00000E+00  9.000E+00
      25     1     1     2     0     0  1.876754961E+01  1.939436589E+00 -8.498079411E+02  8.591585892E+02  1.249958487E+02  0.00000E+00  9.000E+00
       5     1     1     2   501     0 -7.705677261E+00  7.945735201E+00  5.889532479E+01  6.011434065E+01  4.750000000E+00  0.00000E+00  9.000E+00
      -5     1     1     2     0   503 -1.758212028E+01 -8.700407753E+00 -5.543054911E+02  5.546728477E+02  4.750000000E+00  0.00000E+00  9.000E+00
      21     1     1     2   511   502  6.520247931E+00 -1.184764036E+00 -8.727557340E+01  8.752681310E+01  1.907348633E-06  0.00000E+00  9.000E+00
#rwgt            1           9   1.0936891449337030E-002           9     1817761           0
</event>
<event>
      6   9999  3.45752E-01  1.85191E+01 -1.00000E+00  1.62803E-01
       3    -1     0     0   501     0  0.000000000E+00  0.000000000E+00  4.655862171E+02  4.655862171E+02  0.000000000E+00  0.00000E+00  9.000E+00
      21    -1     0     0   502   503  0.000000000E+00  0.000000000E+00 -8.070116364E+02  8.070116364E+02  0.000000000E+00  0.00000E+00  9.000E+00
      25     1     1     2     0     0  5.169962241E-01  2.499016163E+01 -7.801726328E+02  7.905161951E+02  1.249869687E+02  0.00000E+00  9.000E+00
       5     1     1     2   501     0 -1.940837948E+00  5.358133200E-01 -3.585125328E+00  6.282481315E+00  4.750000000E+00  0.00000E+00  9.000E+00
      -5     1     1     2     0   503 -1.073321268E+01 -1.155586917E+01 -1.244549557E+01  2.064443815E+01  4.750000000E+00  0.00000E+00  9.000E+00
       3     1     1     2   502     0  1.215705441E+01 -1.397010578E+01  4.547778343E+02  4.551547390E+02  7.629394531E-06  0.00000E+00  9.000E+00
#rwgt            1           9  0.11459669722002444                9     1824024           0
</event>
<event>
      6   9999 -3.45752E-01  6.02928E+00 -1.00000E+00  2.13764E-01
      21    -1     0     0   501   502  0.000000000E+00  0.000000000E+00  3.317134112E+03  3.317134112E+03  0.000000000E+00  0.00000E+00  9.000E+00
      21    -1     0     0   502   511  0.000000000E+00  0.000000000E+00 -2.285649188E+00  2.285649188E+00  0.000000000E+00  0.00000E+00  9.000E+00
      25     1     1     2     0     0  1.583694367E+00 -1.015071265E+01  2.360368024E+03  2.363697819E+03  1.249985157E+02  0.00000E+00  9.000E+00
       5     1     1     2   501     0  1.604220001E+00 -4.647480777E-01  8.674625778E+02  8.674771904E+02  4.750000000E+00  0.00000E+00  9.000E+00
      -5     1     1     2     0   503  1.619711809E+00  6.976926436E+00  5.431220711E+01  5.498799242E+01  4.750000000E+00  0.00000E+00  9.000E+00
      21     1     1     2   503   511 -4.807626176E+00  3.638534294E+00  3.270565428E+01  3.325675906E+01  1.348699152E-06  0.00000E+00  9.000E+00
#rwgt            1           9  -8.7962578672589817E-003           9     1825447           0
</event>
<event>
      6   9999  3.45752E-01  1.39329E+01 -1.00000E+00  1.73196E-01
      21    -1     0     0   512   502  0.000000000E+00  0.000000000E+00  1.019412294E+02  1.019412294E+02  0.000000000E+00  0.00000E+00  9.000E+00
      21    -1     0     0   502   503  0.000000000E+00  0.000000000E+00 -9.813800561E+02  9.813800561E+02  0.000000000E+00  0.00000E+00  9.000E+00
      25     1     1     2     0     0  1.206918183E+01 -1.745157691E+01 -3.791397869E+02  3.997796893E+02  1.250063969E+02  0.00000E+00  9.000E+00
       5     1     1     2   501     0  4.847823229E+00  1.180543587E-02  7.905502924E+00  1.041926129E+01  4.750000000E+00  0.00000E+00  9.000E+00
      -5     1     1     2     0   503 -7.499647303E+00  7.171361884E+00 -5.900193106E+02  5.901296659E+02  4.750000000E+00  0.00000E+00  9.000E+00
      21     1     1     2   512   501 -9.417357754E+00  1.026840959E+01  8.181476789E+01  8.299266900E+01  1.651812370E-06  0.00000E+00  9.000E+00
#rwgt            1           9   1.3512513659734741E-003           9     1828552           0
</event>
<event>
      6   9999  3.45752E-01  3.15946E+01 -1.00000E+00  1.46398E-01
      21    -1     0     0   501   502  0.000000000E+00  0.000000000E+00  6.858668956E+02  6.858668956E+02  0.000000000E+00  0.00000E+00  9.000E+00
      21    -1     0     0   511   503  0.000000000E+00  0.000000000E+00 -4.506216536E+02  4.506216536E+02  0.000000000E+00  0.00000E+00  9.000E+00
      25     1     1     2     0     0 -1.706492679E+01 -1.187604883E+01  9.784203307E+01  1.600940855E+02  1.249992021E+02  0.00000E+00  9.000E+00
       5     1     1     2   501     0  1.962047888E+00 -1.033090265E+01  5.467677434E+02  5.468894815E+02  4.750000000E+00  0.00000E+00  9.000E+00
      -5     1     1     2     0   503  4.783105206E+00 -7.654748792E+00  6.725251581E+00  1.221739675E+01  4.750000000E+00  0.00000E+00  9.000E+00
      21     1     1     2   511   502  1.031977370E+01  2.986170027E+01 -4.160897861E+02  4.172875855E+02  7.629394531E-06  0.00000E+00  9.000E+00
#rwgt            1           9   6.1419991485177690E-002           9     1830873           0
</event>
<event>
      6   9999  3.45752E-01  2.34585E+00 -1.00000E+00  3.08203E-01
      21    -1     0     0   512   502  0.000000000E+00  0.000000000E+00  1.048904043E+01  1.048904043E+01  0.000000000E+00  0.00000E+00  9.000E+00
      21    -1     0     0   502   503  0.000000000E+00  0.000000000E+00 -8.026588979E+02  8.026588979E+02  0.000000000E+00  0.00000E+00  9.000E+00
      25     1     1     2     0     0 -8.576187877E+00 -7.168766667E+00 -6.358458176E+02  6.481119630E+02  1.249970825E+02  0.00000E+00  9.000E+00
       5     1     1     2   501     0  1.385569977E+00  7.247853435E-02  2.559023679E+00  5.571010634E+00  4.750000000E+00  0.00000E+00  9.000E+00
      -5     1     1     2     0   503  5.117012091E+00  5.999392631E+00 -1.498429288E+02  1.501254220E+02  4.750000000E+00  0.00000E+00  9.000E+00
      21     1     1     2   512   501  2.073605810E+00  1.096895501E+00 -9.040134784E+00  9.339542693E+00  1.192092896E-07  0.00000E+00  9.000E+00
#rwgt            1           9   1.0054441879262653E-002           9     1832348           0
</event>
<event>
      6   9999  3.45752E-01  8.98722E+00 -1.00000E+00  1.92215E-01
      21    -1     0     0   511   503  0.000000000E+00  0.000000000E+00  3.690991114E+01  3.690991114E+01  0.000000000E+00  0.00000E+00  9.000E+00
      21    -1     0     0   501   502  0.000000000E+00  0.000000000E+00 -8.256115730E+02  8.256115730E+02  0.000000000E+00  0.00000E+00  9.000E+00
      25     1     1     2     0     0 -3.631607422E+00  2.296554456E+01 -7.696319279E+02  7.800632673E+02  1.249991675E+02  0.00000E+00  9.000E+00
       5     1     1     2   501     0  5.878579225E-01  3.268782255E-01 -3.328600379E+00  5.839050162E+00  4.750000000E+00  0.00000E+00  9.000E+00
      -5     1     1     2     0   503  1.067692861E+01 -2.803632970E+01 -4.030163466E+01  5.046599691E+01  4.750000000E+00  0.00000E+00  9.000E+00
      21     1     1     2   511   502 -7.633179108E+00  4.743906921E+00  2.456050103E+01  2.615316974E+01  4.768371582E-07  0.00000E+00  9.000E+00
#rwgt            1           9   3.7324758632184433E-005           9     1839245           0
</event>
<event>
      6   9999  3.45752E-01  8.28842E+00 -1.00000E+00  1.96211E-01
      21    -1     0     0   512   502  0.000000000E+00  0.000000000E+00  5.865619181E+02  5.865619181E+02  0.000000000E+00  0.00000E+00  9.000E+00
      21    -1     0     0   502   503  0.000000000E+00  0.000000000E+00 -1.744679096E+01  1.744679096E+01  0.000000000E+00  0.00000E+00  9.000E+00
      25     1     1     2     0     0 -1.770621121E+00 -7.236848248E+00  2.236048289E+02  2.562812798E+02  1.250018711E+02  0.00000E+00  9.000E+00
       5     1     1     2   501     0  3.107166487E-02  7.410575668E-01  3.058860935E+02  3.059238709E+02  4.750000000E+00  0.00000E+00  9.000E+00
      -5     1     1     2     0   503 -6.202709210E-02 -1.594466530E+00  1.377840801E+01  1.466128228E+01  4.750000000E+00  0.00000E+00  9.000E+00
      21     1     1     2   512   501  1.801576548E+00  8.090257211E+00  2.584579668E+01  2.714227599E+01  3.371747881E-07  0.00000E+00  9.000E+00
#rwgt            1           9   1.7519158807509643E-003           9     1841906           0
</event>
<event>
      6   9999  3.45752E-01  8.14310E+00 -1.00000E+00  1.97108E-01
      21    -1     0     0   501   502  0.000000000E+00  0.000000000E+00  2.649060490E+03  2.649060490E+03  0.000000000E+00  0.00000E+00  9.000E+00
       3    -1     0     0   502     0  0.000000000E+00  0.000000000E+00 -3.266175659E+01  3.266175659E+01  0.000000000E+00  0.00000E+00  9.000E+00
      25     1     1     2     0     0  5.194344785E+00  3.689327591E-01  2.410580963E+03  2.413825262E+03  1.249987963E+02  0.00000E+00  9.000E+00
       5     1     1     2   501     0 -2.894537397E-01 -1.437694657E-01  1.691943018E+02  1.692612735E+02  4.750000000E+00  0.00000E+00  9.000E+00
      -5     1     1     2     0   503 -1.139295438E+01 -5.146043865E+00  6.641669286E+01  6.774969201E+01  4.750000000E+00  0.00000E+00  9.000E+00
       3     1     1     2   503     0  6.488063338E+00  4.920880572E+00 -2.979322366E+01  3.088601962E+01  2.360223517E-06  0.00000E+00  9.000E+00
#rwgt            1           9   1.5442266406789389E-004           9     1844813           0
</event>
<event>
      6   9999 -3.45752E-01  1.80499E+01 -1.00000E+00  1.63687E-01
      21    -1     0     0   501   502  0.000000000E+00  0.000000000E+00  4.328253898E+01  4.328253898E+01  0.000000000E+00  0.00000E+00  9.000E+00
      21    -1     0     0   502   511  0.000000000E+00  0.000000000E+00 -1.422869619E+03  1.422869619E+03  0.000000000E+00  0.00000E+00  9.000E+00
      25     1     1     2     0     0 -2.611834506E+01  4.428319424E+01 -1.265657487E+03  1.272852690E+03  1.249877099E+02  0.00000E+00  9.000E+00
       5     1     1     2   501     0 -1.296540617E+00 -2.215524075E+00  2.828724681E+01  2.879792348E+01  4.750000000E+00  0.00000E+00  9.000E+00
      -5     1     1     2     0   503  2.282425977E+01 -2.461131123E+01 -1.687747630E+01  3.786918511E+01  4.750000000E+00  0.00000E+00  9.000E+00
      21     1     1     2   503   511  4.590625905E+00 -1.745635893E+01 -1.253393634E+02  1.266323589E+02  2.336015456E-06  0.00000E+00  9.000E+00
#rwgt            1           9  -3.7641753623222338E-004           9     1847367           0
</event>
<event>
      6   9999  3.45752E-01  1.57696E+01 -1.00000E+00  1.68510E-01
      21    -1     0     0   501   502  0.000000000E+00  0.000000000E+00  1.018589859E+02  1.018589859E+02  0.000000000E+00  0.00000E+00  9.000E+00
      21    -1     0     0   512   503  0.000000000E+00  0.000000000E+00 -1.878441372E+02  1.878441372E+02  0.000000000E+00  0.00000E+00  9.000E+00
      25     1     1     2     0     0 -1.495813300E+00 -1.232127535E+01  4.584512945E+01  1.337187814E+02  1.249995413E+02  0.00000E+00  9.000E+00
       5     1     1     2   501     0 -2.643759321E-01 -5.727595988E-01  7.310304890E+00  8.740766887E+00  4.750000000E+00  0.00000E+00  9.000E+00
      -5     1     1     2     0   503 -4.882922648E-01 -2.714441214E+00  1.522138799E+00  5.699651478E+00  4.750000000E+00  0.00000E+00  9.000E+00
      21     1     1     2   512   502  2.248481497E+00  1.560847616E+01 -1.406627244E+02  1.415439234E+02  0.000000000E+00  0.00000E+00  9.000E+00
#rwgt            1           9   2.4391701270092612E-003           9     1849449           0
</event>
<event>
      6   9999 -3.45752E-01  1.91281E+01 -1.00000E+00  1.61702E-01
      21    -1     0     0   501   511  0.000000000E+00  0.000000000E+00  1.987759163E+01  1.987759163E+01  0.000000000E+00  0.00000E+00  9.000E+00
      21    -1     0     0   502   503  0.000000000E+00  0.000000000E+00 -8.428044774E+02  8.428044774E+02  0.000000000E+00  0.00000E+00  9.000E+00
      25     1     1     2     0     0 -5.586469294E+00  7.530780614E-01 -7.290691825E+02  7.397291036E+02  1.250019921E+02  0.00000E+00  9.000E+00
       5     1     1     2   501     0  3.349373221E+00 -4.973117978E+00  2.934617212E+00  8.192965371E+00  4.750000000E+00  0.00000E+00  9.000E+00
      -5     1     1     2     0   503  9.517543568E+00 -1.346840796E+01 -9.385066554E+01  9.540697863E+01  4.750000000E+00  0.00000E+00  9.000E+00
      21     1     1     2   502   511 -7.280447495E+00  1.768844788E+01 -2.941654879E+00  1.935302140E+01  7.275674114E-07  0.00000E+00  9.000E+00
#rwgt            1           9  -3.6169055663293529E-003           9     1850828           0
</event>
<event>
      6   9999  3.45752E-01  3.94221E+01 -1.00000E+00  1.40553E-01
      21    -1     0     0   512   502  0.000000000E+00  0.000000000E+00  4.080332310E+01  4.080332310E+01  0.000000000E+00  0.00000E+00  9.000E+00
      21    -1     0     0   502   503  0.000000000E+00  0.000000000E+00 -1.397876885E+03  1.397876885E+03  0.000000000E+00  0.00000E+00  9.000E+00
      25     1     1     2     0     0  2.531860583E-01  3.365986192E+01 -1.281436374E+03  1.287958628E+03  1.250007811E+02  0.00000E+00  9.000E+00
       5     1     1     2   501     0  6.221807773E+00  1.367017584E+01 -5.116230123E+00  1.656269634E+01  4.750000000E+00  0.00000E+00  9.000E+00
      -5     1     1     2     0   503  1.133929065E+01 -1.216253960E+01 -8.896874656E+01  9.063391885E+01  4.750000000E+00  0.00000E+00  9.000E+00
      21     1     1     2   512   501 -1.781428448E+01 -3.516749816E+01  1.844778910E+01  4.352496503E+01  2.372234910E-06  0.00000E+00  9.000E+00
#rwgt            1           9   3.5940331717529334E-002           9     1852494           0
</event>
<event>
      6   9999  3.45752E-01  1.14450E+02 -1.00000E+00  1.17996E-01
       2    -1     0     0   502     0  0.000000000E+00  0.000000000E+00  6.868968825E+02  6.868968825E+02  0.000000000E+00  0.00000E+00  9.000E+00
      21    -1     0     0   501   502  0.000000000E+00  0.000000000E+00 -1.499401825E+03  1.499401825E+03  0.000000000E+00  0.00000E+00  9.000E+00
      25     1     1     2     0     0 -8.916441795E+01  2.220397323E+01 -1.028934732E+02  1.861593529E+02  1.249997120E+02  0.00000E+00  9.000E+00
       5     1     1     2   501     0 -2.879305061E+00 -4.197243163E+00 -1.295671097E+03  1.295689802E+03  4.750000000E+00  0.00000E+00  9.000E+00
      -5     1     1     2     0   503 -6.267576963E+00 -7.660468411E+01 -2.638558876E+01  8.140222320E+01  4.750000000E+00  0.00000E+00  9.000E+00
       2     1     1     2   503     0  9.831129997E+01  5.859795404E+01  6.124452166E+02  6.230473299E+02  7.629394531E-06  0.00000E+00  9.000E+00
#rwgt            1           9  0.17575088849141871                9     1854159           0
</event>
<event>
      6   9999  3.45752E-01  1.27190E+01 -1.00000E+00  1.76823E-01
      21    -1     0     0   501   502  0.000000000E+00  0.000000000E+00  2.347511334E+01  2.347511334E+01  0.000000000E+00  0.00000E+00  9.000E+00
      21    -1     0     0   511   503  0.000000000E+00  0.000000000E+00 -1.162678449E+03  1.162678449E+03  0.000000000E+00  0.00000E+00  9.000E+00
      25     1     1     2     0     0 -2.097121760E+01 -3.013375243E+01 -8.151869636E+02  8.255319466E+02  1.250014968E+02  0.00000E+00  9.000E+00
       5     1     1     2   501     0 -2.789455142E-01 -4.633666023E+00  1.557916768E+01  1.693580931E+01  4.750000000E+00  0.00000E+00  9.000E+00
      -5     1     1     2     0   503  2.917158458E+01  2.481631918E+01 -2.143876308E+02  2.178335369E+02  4.750000000E+00  0.00000E+00  9.000E+00
      21     1     1     2   511   502 -7.921421470E+00  9.951099280E+00 -1.252079090E+02  1.258522696E+02  1.907348633E-06  0.00000E+00  9.000E+00
#rwgt            1           9   9.3652164068275484E-004           9     1854884           0
</event>
<event>
      6   9999  3.45752E-01  5.90030E+01 -1.00000E+00  1.31050E-01
      21    -1     0     0   512   502  0.000000000E+00  0.000000000E+00  2.944475632E+01  2.944475632E+01  0.000000000E+00  0.00000E+00  9.000E+00
      21    -1     0     0   502   503  0.000000000E+00  0.000000000E+00 -1.194848387E+03  1.194848387E+03  0.000000000E+00  0.00000E+00  9.000E+00
      25     1     1     2     0     0  4.109672415E+01 -7.253133001E+01 -3.704477382E+02  3.997532534E+02  1.249856083E+02  0.00000E+00  9.000E+00
       5     1     1     2   501     0 -1.349940013E+00  6.260208207E-01 -3.088295184E+00  5.857841518E+00  4.750000000E+00  0.00000E+00  9.000E+00
      -5     1     1     2     0   503 -9.060547864E+01  1.018176862E+02 -6.639627714E+02  6.778239582E+02  4.750000000E+00  0.00000E+00  9.000E+00
      21     1     1     2   512   501  5.085869451E+01 -2.991237703E+01 -1.279048261E+02  1.408580904E+02  1.348699152E-06  0.00000E+00  9.000E+00
#rwgt            1           9   3.5002623025834296E-004           9     1857438           0
</event>
<event>
      6   9999 -3.45752E-01  4.49385E+01 -1.00000E+00  1.37315E-01
      21    -1     0     0   501   511  0.000000000E+00  0.000000000E+00  2.323939441E+03  2.323939441E+03  0.000000000E+00  0.00000E+00  9.000E+00
      21    -1     0     0   502   503  0.000000000E+00  0.000000000E+00 -1.644615435E+03  1.644615435E+03  0.000000000E+00  0.00000E+00  9.000E+00
      25     1     1     2     0     0  6.332759670E+00  1.226233421E-01 -1.635863000E+03  1.640644102E+03  1.250007864E+02  0.00000E+00  9.000E+00
       5     1     1     2   501     0  3.670765286E+01  1.626523881E+00  8.643994369E+01  9.404532802E+01  4.750000000E+00  0.00000E+00  9.000E+00
      -5     1     1     2     0   503  1.897259696E+00 -1.478643383E+00  7.056500742E-01  5.370886578E+00  4.750000000E+00  0.00000E+00  9.000E+00
      21     1     1     2   502   511 -4.493767222E+01 -2.705038402E-01  2.228041412E+03  2.228494559E+03  4.315837288E-05  0.00000E+00  9.000E+00
#rwgt            1           9  -1.9557445617361151E-004           9     1858280           0
</event>
<event>
      6   9999 -3.45752E-01  2.47727E+01 -1.00000E+00  1.53426E-01
      21    -1     0     0   501   512  0.000000000E+00  0.000000000E+00  8.019524877E+01  8.019524877E+01  0.000000000E+00  0.00000E+00  9.000E+00
      21    -1     0     0   502   503  0.000000000E+00  0.000000000E+00 -1.558931730E+03  1.558931730E+03  0.000000000E+00  0.00000E+00  9.000E+00
      25     1     1     2     0     0  2.475967435E+01 -6.397983207E+01 -3.662820718E+01  1.472156546E+02  1.249974520E+02  0.00000E+00  9.000E+00
       5     1     1     2   501     0  2.212047130E-01  1.939848753E+00  1.999277445E+01  2.064183797E+01  4.750000000E+00  0.00000E+00  9.000E+00
      -5     1     1     2     0   503 -1.555847375E+01  3.912920695E+01 -1.430445205E+03  1.431072747E+03  4.750000000E+00  0.00000E+00  9.000E+00
      21     1     1     2   502   512 -9.422405311E+00  2.291077636E+01 -3.165584343E+01  4.019673890E+01  8.259061849E-07  0.00000E+00  9.000E+00
#rwgt            1           9  -1.0042963276511980E-002           9     1860033           0
</event>
<event>
      6   9999  3.45752E-01  7.95941E+00 -1.00000E+00  1.98277E-01
      21    -1     0     0   501   502  0.000000000E+00  0.000000000E+00  1.262375691E+01  1.262375691E+01  0.000000000E+00  0.00000E+00  9.000E+00
      21    -1     0     0   502   511  0.000000000E+00  0.000000000E+00 -1.074733658E+03  1.074733658E+03  0.000000000E+00  0.00000E+00  9.000E+00
      25     1     1     2     0     0 -1.530928899E+01 -2.169362704E+00 -4.876240203E+02  5.036304111E+02  1.250093010E+02  0.00000E+00  9.000E+00
       5     1     1     2   501     0 -2.957980591E+00 -1.186204744E-02  2.677352848E+00  6.203265926E+00  4.750000000E+00  0.00000E+00  9.000E+00
      -5     1     1     2     0   503  1.136248398E+01 -1.778087290E+00 -3.507552290E+02  3.509758693E+02  4.750000000E+00  0.00000E+00  9.000E+00
      21     1     1     2   503   511  6.904785602E+00  3.959312041E+00 -2.264080044E+02  2.265478684E+02  4.672030912E-06  0.00000E+00  9.000E+00
#rwgt            1           9   3.4012933287171646E-004           9     1862469           0
</event>
<event>
      6   9999  3.45752E-01  9.55692E+00 -1.00000E+00  1.89291E-01
      21    -1     0     0   501   502  0.000000000E+00  0.000000000E+00  1.695003245E+01  1.695003245E+01  0.000000000E+00  0.00000E+00  9.000E+00
      21    -1     0     0   512   503  0.000000000E+00  0.000000000E+00 -1.350894735E+03  1.350894735E+03  0.000000000E+00  0.00000E+00  9.000E+00
      25     1     1     2     0     0  1.468229521E+01  3.128242397E+01 -6.633028644E+02  6.758625420E+02  1.250013038E+02  0.00000E+00  9.000E+00
       5     1     1     2   501     0 -5.381540321E+00 -4.091978620E-01  8.390952410E+00  1.104984169E+01  4.750000000E+00  0.00000E+00  9.000E+00
      -5     1     1     2     0   503 -1.696393386E+01 -2.516267645E+01 -2.626625261E+02  2.644524541E+02  4.750000000E+00  0.00000E+00  9.000E+00
      21     1     1     2   512   502  7.663178968E+00 -5.710549656E+00 -4.163702648E+02  4.164799300E+02  5.394796609E-06  0.00000E+00  9.000E+00
#rwgt            1           9   3.3049534025293025E-004           9     1865337           0
</event>
<event>
      6   9999  3.45752E-01  1.47295E+01 -1.00000E+00  1.71059E-01
      21    -1     0     0   501   511  0.000000000E+00  0.000000000E+00  1.067466878E+01  1.067466878E+01  0.000000000E+00  0.00000E+00  9.000E+00
      21    -1     0     0   502   503  0.000000000E+00  0.000000000E+00 -7.511340913E+02  7.511340913E+02  0.000000000E+00  0.00000E+00  9.000E+00
      25     1     1     2     0     0 -1.421329507E+01  1.894737985E+01 -6.804125621E+02  6.922055734E+02  1.250051204E+02  0.00000E+00  9.000E+00
       5     1     1     2   501     0  1.761713955E+00  1.356813021E+00 -1.248162664E+00  5.391195384E+00  4.750000000E+00  0.00000E+00  9.000E+00
      -5     1     1     2     0   503  4.039977271E+00 -8.212804832E+00 -1.687715418E+01  1.977807910E+01  4.750000000E+00  0.00000E+00  9.000E+00
      21     1     1     2   502   511  8.411603845E+00 -1.209138804E+01 -4.192154348E+01  4.443391218E+01  6.743495762E-07  0.00000E+00  9.000E+00
#rwgt            1           9   7.1283084571887407E-004           9     1868493           0
</event>
<event>
      6   9999  3.45752E-01  9.42949E+00 -1.00000E+00  1.89922E-01
      21    -1     0     0   501   512  0.000000000E+00  0.000000000E+00  2.562092297E+02  2.562092297E+02  0.000000000E+00  0.00000E+00  9.000E+00
      21    -1     0     0   502   503  0.000000000E+00  0.000000000E+00 -1.275243648E+03  1.275243648E+03  0.000000000E+00  0.00000E+00  9.000E+00
      25     1     1     2     0     0 -6.958614103E+01  1.028148136E+02 -2.309809919E+02  2.905008725E+02  1.250016856E+02  0.00000E+00  9.000E+00
       5     1     1     2   501     0  6.131119070E+00 -1.345636172E+01  5.214122955E+00  1.638334123E+01  4.750000000E+00  0.00000E+00  9.000E+00
      -5     1     1     2     0   503  7.271389198E+01 -9.114413631E+01 -1.005438849E+03  1.012187930E+03  4.750000000E+00  0.00000E+00  9.000E+00
      21     1     1     2   502   512 -9.258870015E+00  1.785684447E+00  2.121713003E+02  2.123807336E+02  2.697398305E-06  0.00000E+00  9.000E+00
#rwgt            1           9  0.15398862947699585                9     1870250           0
</event>
<event>
      6   9999  3.45752E-01  1.05375E+01 -1.00000E+00  1.84830E-01
      21    -1     0     0   501   502  0.000000000E+00  0.000000000E+00  4.090196242E+01  4.090196242E+01  0.000000000E+00  0.00000E+00  9.000E+00
       2    -1     0     0   502     0  0.000000000E+00  0.000000000E+00 -2.378606499E+03  2.378606499E+03  0.000000000E+00  0.00000E+00  9.000E+00
      25     1     1     2     0     0  1.797376963E+01  5.457855651E+01 -6.678183535E+02  6.818396210E+02  1.249881604E+02  0.00000E+00  9.000E+00
       5     1     1     2   501     0 -4.271232917E+00  2.627936413E+00  3.237387850E+01  3.310256772E+01  4.750000000E+00  0.00000E+00  9.000E+00
      -5     1     1     2     0   503 -5.856725232E+00 -5.017219017E+01 -5.690670001E+02  5.713242188E+02  4.750000000E+00  0.00000E+00  9.000E+00
       2     1     1     2   503     0 -7.845811485E+00 -7.034302759E+00 -1.133193061E+03  1.133242054E+03  1.525878906E-05  0.00000E+00  9.000E+00
#rwgt            1           9   1.1523594536096174E-005           9     1874024           0
</event>
<event>
      6   9999  3.45752E-01  1.73653E+01 -1.00000E+00  1.65039E-01
      21    -1     0     0   511   502  0.000000000E+00  0.000000000E+00  3.309115167E+01  3.309115167E+01  0.000000000E+00  0.00000E+00  9.000E+00
      21    -1     0     0   502   503  0.000000000E+00  0.000000000E+00 -8.605088575E+02  8.605088575E+02  0.000000000E+00  0.00000E+00  9.000E+00
      25     1     1     2     0     0 -5.146877061E+00 -2.250104502E+01 -4.724818460E+02  4.892837585E+02  1.250068564E+02  0.00000E+00  9.000E+00
       5     1     1     2   501     0  1.178853868E+00 -1.384518899E+00  2.680737992E+00  5.749386507E+00  4.750000000E+00  0.00000E+00  9.000E+00
      -5     1     1     2     0   503  1.300383297E+01  9.056224260E+00 -3.741938470E+02  3.745593578E+02  4.750000000E+00  0.00000E+00  9.000E+00
      21     1     1     2   511   501 -9.035809780E+00  1.482933966E+01  1.657724918E+01  2.400750640E+01  1.469710828E-06  0.00000E+00  9.000E+00
#rwgt            1           9   1.0350672580227572E-003           9     1877734           0
</event>
<event>
      6   9999  3.45752E-01  1.93075E+01 -1.00000E+00  1.61387E-01
      21    -1     0     0   501   512  0.000000000E+00  0.000000000E+00  3.165805963E+02  3.165805963E+02  0.000000000E+00  0.00000E+00  9.000E+00
      21    -1     0     0   502   503  0.000000000E+00  0.000000000E+00 -2.167895497E+03  2.167895497E+03  0.000000000E+00  0.00000E+00  9.000E+00
      25     1     1     2     0     0 -1.069746821E+02  3.681866996E+01  1.789284231E+02  2.458475175E+02  1.250056966E+02  0.00000E+00  9.000E+00
       5     1     1     2   501     0  1.114375127E+00  3.266105655E-01  7.506677571E+00  8.958862347E+00  4.750000000E+00  0.00000E+00  9.000E+00
      -5     1     1     2     0   503  1.249065146E+02 -3.397961434E+01 -2.130751515E+03  2.134685184E+03  4.750000000E+00  0.00000E+00  9.000E+00
      21     1     1     2   502   512 -1.904620764E+01 -3.165666183E+00  9.300151339E+01  9.498453011E+01  2.697398305E-06  0.00000E+00  9.000E+00
#rwgt            1           9   2.4458637914213097E-004           9     1879474           0
</event>
<event>
      6   9999  3.45752E-01  1.07542E+01 -1.00000E+00  1.83928E-01
      21    -1     0     0   511   502  0.000000000E+00  0.000000000E+00  7.821357257E+00  7.821357257E+00  0.000000000E+00  0.00000E+00  9.000E+00
      21    -1     0     0   502   503  0.000000000E+00  0.000000000E+00 -7.973016897E+02  7.973016897E+02  0.000000000E+00  0.00000E+00  9.000E+00
      25     1     1     2     0     0 -5.075134076E+00 -6.168734903E+00 -6.946361114E+02  7.058246758E+02  1.249213167E+02  0.00000E+00  9.000E+00
       5     1     1     2   501     0 -5.417637480E-01 -8.768230356E-01 -4.051986962E+00  6.327987432E+00  4.750000000E+00  0.00000E+00  9.000E+00
      -5     1     1     2     0   503 -2.442213272E+00 -7.505713800E-02 -6.209423899E+01  6.232356741E+01  4.750000000E+00  0.00000E+00  9.000E+00
      21     1     1     2   511   501  8.059111097E+00  7.120615076E+00 -2.869799507E+01  3.064681634E+01  0.000000000E+00  0.00000E+00  9.000E+00
#rwgt            1           9   1.3260620740780430E-003           9     1883448           0
</event>
<event>
      6   9999 -3.45752E-01  1.00135E+01 -1.00000E+00  1.87132E-01
      21    -1     0     0   501   502  0.000000000E+00  0.000000000E+00  5.281384864E+01  5.281384864E+01  0.000000000E+00  0.00000E+00  9.000E+00
      21    -1     0     0   502   512  0.000000000E+00  0.000000000E+00 -3.660176236E+02  3.660176236E+02  0.000000000E+00  0.00000E+00  9.000E+00
      25     1     1     2     0     0  2.909168115E+01 -8.541238924E-01 -9.649368770E+01  1.605684760E+02  1.249965931E+02  0.00000E+00  9.000E+00
       5     1     1     2   501     0  2.724043576E-01  1.047799100E-01  1.332852949E+01  1.415264574E+01  4.750000000E+00  0.00000E+00  9.000E+00
      -5     1     1     2     0   503 -2.970473879E+01  1.075703792E+01 -3.001251933E+01  4.383376767E+01  4.750000000E+00  0.00000E+00  9.000E+00
      21     1     1     2   503   512  3.406532809E-01 -1.000769394E+01 -2.000260974E+02  2.002765828E+02  0.000000000E+00  0.00000E+00  9.000E+00
#rwgt            1           9  -1.6866688369340955E-002           9     1885795           0
</event>
<event>
      6   9999  3.45752E-01  5.71248E+00 -1.00000E+00  2.17072E-01
      21    -1     0     0   501   511  0.000000000E+00  0.000000000E+00  7.651286157E+01  7.651286157E+01  0.000000000E+00  0.00000E+00  9.000E+00
      21    -1     0     0   502   503  0.000000000E+00  0.000000000E+00 -9.033882440E+02  9.033882440E+02  0.000000000E+00  0.00000E+00  9.000E+00
      25     1     1     2     0     0  7.099026611E+00  1.468606859E+01 -7.934697999E+02  8.034211871E+02  1.250008150E+02  0.00000E+00  9.000E+00
       5     1     1     2   501     0 -3.551527621E+00  6.800150198E-01  9.122381833E+00  1.090211535E+01  4.750000000E+00  0.00000E+00  9.000E+00
      -5     1     1     2     0   503 -3.346739241E+00 -9.657137309E+00 -1.036140427E+02  1.042252048E+02  4.750000000E+00  0.00000E+00  9.000E+00
      21     1     1     2   502   511 -2.007597482E-01 -5.708946297E+00  6.108607827E+01  6.135259840E+01  0.000000000E+00  0.00000E+00  9.000E+00
#rwgt            1           9   5.8273512547509594E-004           9     1889006           0
</event>
<event>
      6   9999 -3.45752E-01  3.26506E+00 -1.00000E+00  2.67635E-01
      21    -1     0     0   501   502  0.000000000E+00  0.000000000E+00  3.604244739E+01  3.604244739E+01  0.000000000E+00  0.00000E+00  9.000E+00
      21    -1     0     0   502   512  0.000000000E+00  0.000000000E+00 -7.565718096E+02  7.565718096E+02  0.000000000E+00  0.00000E+00  9.000E+00
      25     1     1     2     0     0  2.542240738E+00 -4.326438403E+00 -3.962317733E+02  4.154951375E+02  1.249456285E+02  0.00000E+00  9.000E+00
       5     1     1     2   501     0 -4.421422599E-01  1.328108136E+00  2.428149463E+01  2.478130026E+01  4.750000000E+00  0.00000E+00  9.000E+00
      -5     1     1     2     0   503 -8.488938123E-01 -1.748249840E-02 -1.238243736E+00  4.981633657E+00  4.750000000E+00  0.00000E+00  9.000E+00
      21     1     1     2   503   512 -1.251204666E+00  3.015812765E+00 -3.473408398E+02  3.473561855E+02  6.607249480E-06  0.00000E+00  9.000E+00
#rwgt            1           9  -3.3769063770881722E-003           9     1893102           0
</event>
<event>
      6   9999  3.45752E-01  3.98537E+00 -1.00000E+00  2.48180E-01
      21    -1     0     0   501   502  0.000000000E+00  0.000000000E+00  4.206667478E+00  4.206667478E+00  0.000000000E+00  0.00000E+00  9.000E+00
      21    -1     0     0   511   503  0.000000000E+00  0.000000000E+00 -1.935391896E+03  1.935391896E+03  0.000000000E+00  0.00000E+00  9.000E+00
      25     1     1     2     0     0  9.401779962E-01  1.066683639E+01 -1.264927800E+03  1.271134894E+03  1.250076521E+02  0.00000E+00  9.000E+00
       5     1     1     2   501     0 -1.082114515E+00 -5.847724166E-01 -5.261057012E+00  7.194035827E+00  4.750000000E+00  0.00000E+00  9.000E+00
      -5     1     1     2     0   503 -6.519842193E-01 -1.398755459E+01 -5.587619746E+02  5.589575866E+02  4.750000000E+00  0.00000E+00  9.000E+00
      21     1     1     2   511   502  7.939207378E-01  3.905490618E+00 -1.022343965E+02  1.023120471E+02  0.000000000E+00  0.00000E+00  9.000E+00
#rwgt            1           9   3.6383014965465747E-004           9     1899684           0
</event>
<event>
      6   9999  3.45752E-01  4.91841E+00 -1.00000E+00  2.30626E-01
      21    -1     0     0   501   512  0.000000000E+00  0.000000000E+00  1.281839637E+01  1.281839637E+01  0.000000000E+00  0.00000E+00  9.000E+00
      21    -1     0     0   502   503  0.000000000E+00  0.000000000E+00 -7.732483857E+02  7.732483857E+02  0.000000000E+00  0.00000E+00  9.000E+00
      25     1     1     2     0     0  9.727193962E+00  5.069672547E+00 -7.178664135E+02  7.287204742E+02  1.248239643E+02  0.00000E+00  9.000E+00
       5     1     1     2   501     0 -6.708303088E-01  2.093661787E+00  3.049967016E+00  6.057906551E+00  4.750000000E+00  0.00000E+00  9.000E+00
      -5     1     1     2     0   503 -5.416898201E+00 -3.854998503E+00 -4.564428256E+01  4.636989142E+01  4.750000000E+00  0.00000E+00  9.000E+00
      21     1     1     2   502   512 -3.639465452E+00 -3.308335832E+00  3.073967343E-02  4.918509904E+00  2.613561051E-07  0.00000E+00  9.000E+00
#rwgt            1           9   2.0875511298787760E-004           9     1904511           0
</event>
<event>
      6   9999  3.45752E-01  1.26428E+01 -1.00000E+00  1.77068E-01
      21    -1     0     0   511   502  0.000000000E+00  0.000000000E+00  8.289589904E+00  8.289589904E+00  0.000000000E+00  0.00000E+00  9.000E+00
      21    -1     0     0   502   503  0.000000000E+00  0.000000000E+00 -2.455022541E+03  2.455022541E+03  0.000000000E+00  0.00000E+00  9.000E+00
      25     1     1     2     0     0  6.568074889E+01  3.998691794E+01 -1.047669088E+03  1.057900095E+03  1.250167128E+02  0.00000E+00  9.000E+00
       5     1     1     2   501     0 -2.029780498E+00  1.216628049E+00 -2.575517755E+00  5.898812117E+00  4.750000000E+00  0.00000E+00  9.000E+00
      -5     1     1     2     0   503 -6.884857573E+01 -2.967856618E+01 -1.304347531E+03  1.306509084E+03  4.750000000E+00  0.00000E+00  9.000E+00
      21     1     1     2   511   501  5.197607340E+00 -1.152497981E+01 -9.214081438E+01  9.300413946E+01  0.000000000E+00  0.00000E+00  9.000E+00
#rwgt            1           9   3.1663562773598539E-002           9     1908644           0
</event>
<event>
      6   9999  3.45752E-01  5.57307E+00 -1.00000E+00  2.18623E-01
      21    -1     0     0   512   502  0.000000000E+00  0.000000000E+00  8.845461940E+01  8.845461940E+01  0.000000000E+00  0.00000E+00  9.000E+00
      21    -1     0     0   502   503  0.000000000E+00  0.000000000E+00 -2.109838235E+02  2.109838235E+02  0.000000000E+00  0.00000E+00  9.000E+00
      25     1     1     2     0     0  5.713975881E+01  1.978680459E+01 -4.764601181E+01  1.468047175E+02  1.250000518E+02  0.00000E+00  9.000E+00
       5     1     1     2   501     0 -1.517923358E-01  1.387674121E+00  2.032040626E+01  2.091482945E+01  4.750000000E+00  0.00000E+00  9.000E+00
      -5     1     1     2     0   503 -5.503724542E+01 -1.595396147E+01 -1.054198791E+02  1.200813919E+02  4.750000000E+00  0.00000E+00  9.000E+00
      21     1     1     2   512   501 -1.950721057E+00 -5.220517248E+00  1.021628055E+01  1.163750408E+01  1.685873940E-07  0.00000E+00  9.000E+00
#rwgt            1           9   1.4966937931864708E-002           9     1911021           0
</event>
<event>
      6   9999  3.45752E-01  1.05569E+01 -1.00000E+00  1.84748E-01
      21    -1     0     0   501   502  0.000000000E+00  0.000000000E+00  2.085462804E+03  2.085462804E+03  0.000000000E+00  0.00000E+00  9.000E+00
      21    -1     0     0   502   511  0.000000000E+00  0.000000000E+00 -5.286834689E+00  5.286834689E+00  0.000000000E+00  0.00000E+00  9.000E+00
      25     1     1     2     0     0 -5.352986699E+00 -5.105699767E+00  1.128462138E+03  1.135388252E+03  1.249998512E+02  0.00000E+00  9.000E+00
       5     1     1     2   501     0 -8.786772644E-01 -9.721069359E-01  8.824565046E+02  8.824702613E+02  4.750000000E+00  0.00000E+00  9.000E+00
      -5     1     1     2     0   503  1.058816098E+01 -3.538306550E+00  3.913536958E+01  4.097277656E+01  4.750000000E+00  0.00000E+00  9.000E+00
      21     1     1     2   503   511 -4.356497014E+00  9.616113253E+00  3.012195623E+01  3.191834813E+01  8.920806376E-07  0.00000E+00  9.000E+00
#rwgt            1           9  0.50860281014229625                9     1915415           0
</event>
<event>
      6   9999  3.45752E-01  1.38111E+01 -1.00000E+00  1.73539E-01
      21    -1     0     0   501   502  0.000000000E+00  0.000000000E+00  6.967408124E+00  6.967408124E+00  0.000000000E+00  0.00000E+00  9.000E+00
       2    -1     0     0   502     0  0.000000000E+00  0.000000000E+00 -2.285527730E+03  2.285527730E+03  0.000000000E+00  0.00000E+00  9.000E+00
      25     1     1     2     0     0 -4.045095268E+00 -1.308993068E+01 -1.087916236E+03  1.095159532E+03  1.249998182E+02  0.00000E+00  9.000E+00
       5     1     1     2   501     0 -6.727108670E-01 -1.673476876E+00  9.519002314E-01  5.169301579E+00  4.750000000E+00  0.00000E+00  9.000E+00
      -5     1     1     2     0   503  4.196183584E-01  1.638169563E+00 -2.577566731E+01  2.626418102E+01  4.750000000E+00  0.00000E+00  9.000E+00
       2     1     1     2   503     0  4.298187776E+00  1.312523799E+01 -1.165820318E+03  1.165902123E+03  2.642899792E-05  0.00000E+00  9.000E+00
#rwgt            1           9   9.6593850886826860E-005           9     1917804           0
</event>
<event>
      6   9999  3.45752E-01  4.75700E+01 -1.00000E+00  1.35956E-01
       4    -1     0     0   501     0  0.000000000E+00  0.000000000E+00  1.487133383E+02  1.487133383E+02  0.000000000E+00  0.00000E+00  9.000E+00
      21    -1     0     0   502   503  0.000000000E+00  0.000000000E+00 -9.655463668E+02  9.655463668E+02  0.000000000E+00  0.00000E+00  9.000E+00
      25     1     1     2     0     0 -2.277385451E+01  2.594183357E+01 -8.241720194E+02  8.343186510E+02  1.250458585E+02  0.00000E+00  9.000E+00
       5     1     1     2   501     0 -1.439414631E+01  7.546406518E+00  1.350353565E+01  2.165750850E+01  4.750000000E+00  0.00000E+00  9.000E+00
      -5     1     1     2     0   503  3.607103018E+00  2.248010281E-01 -1.276640704E+02  1.278035175E+02  4.750000000E+00  0.00000E+00  9.000E+00
       4     1     1     2   502     0  3.356089780E+01 -3.371304112E+01  1.214995256E+02  1.304800281E+02  4.046097457E-06  0.00000E+00  9.000E+00
#rwgt            1           9   1.3161233413949438E-003           9     1919519           0
</event>
<event>
      6   9999  3.45752E-01  2.10550E+01 -1.00000E+00  1.58525E-01
      21    -1     0     0   502   503  0.000000000E+00  0.000000000E+00  1.406962176E+02  1.406962176E+02  0.000000000E+00  0.00000E+00  9.000E+00
      21    -1     0     0   501   511  0.000000000E+00  0.000000000E+00 -1.273356953E+03  1.273356953E+03  0.000000000E+00  0.00000E+00  9.000E+00
      25     1     1     2     0     0  3.201920279E+00 -1.437435406E+02  6.248227715E+01  2.005094438E+02  1.250101768E+02  0.00000E+00  9.000E+00
       5     1     1     2   501     0 -1.538398195E+01  1.709583115E+02 -1.074306305E+03  1.087943018E+03  4.750000000E+00  0.00000E+00  9.000E+00
      -5     1     1     2     0   503 -5.883764524E-01 -1.047467357E+01 -2.570584253E+01  2.816767320E+01  4.750000000E+00  0.00000E+00  9.000E+00
      21     1     1     2   502   511  1.277043812E+01 -1.674009728E+01 -9.513086541E+01  9.743303598E+01  1.348699152E-06  0.00000E+00  9.000E+00
#rwgt            1           9   22.566694659449276                9     1920285           0
</event>
<event>
      6   9999  3.45752E-01  8.93919E+00 -1.00000E+00  1.92474E-01
      21    -1     0     0   512   502  0.000000000E+00  0.000000000E+00  1.225671441E+01  1.225671441E+01  0.000000000E+00  0.00000E+00  9.000E+00
      21    -1     0     0   502   503  0.000000000E+00  0.000000000E+00 -8.539383313E+02  8.539383313E+02  0.000000000E+00  0.00000E+00  9.000E+00
      25     1     1     2     0     0 -1.175379748E+01  1.436583741E+01 -7.629424681E+02  7.733368188E+02  1.249963866E+02  0.00000E+00  9.000E+00
       5     1     1     2   501     0  1.732472595E+00 -1.601150590E+00  1.176037406E+00  5.432375952E+00  4.750000000E+00  0.00000E+00  9.000E+00
      -5     1     1     2     0   503  1.732234564E+01 -1.792261983E+01 -4.814888416E+01  5.442574304E+01  4.750000000E+00  0.00000E+00  9.000E+00
      21     1     1     2   512   501 -7.301020752E+00  5.157933009E+00 -3.176630201E+01  3.300010789E+01  8.259061849E-07  0.00000E+00  9.000E+00
#rwgt            1           9   1.3598872010456204E-003           9     1923289           0
</event>
<event>
      6   9999  3.45752E-01  1.22990E+01 -1.00000E+00  1.78199E-01
      21    -1     0     0   501   502  0.000000000E+00  0.000000000E+00  6.468030094E+01  6.468030094E+01  0.000000000E+00  0.00000E+00  9.000E+00
      21    -1     0     0   502   511  0.000000000E+00  0.000000000E+00 -5.288421012E+02  5.288421012E+02  0.000000000E+00  0.00000E+00  9.000E+00
      25     1     1     2     0     0 -9.614610984E+00  1.410588379E+01 -1.069790244E+02  1.654043570E+02  1.249906914E+02  0.00000E+00  9.000E+00
       5     1     1     2   501     0 -2.697488976E-02 -3.916949533E+00  2.630797176E+01  2.701879160E+01  4.750000000E+00  0.00000E+00  9.000E+00
      -5     1     1     2     0   503  1.585191367E+01 -2.080485630E+01 -1.159847093E+01  2.900365908E+01  4.750000000E+00  0.00000E+00  9.000E+00
      21     1     1     2   503   511 -6.210327795E+00  1.061592203E+01 -3.718922766E+02  3.720955944E+02  0.000000000E+00  0.00000E+00  9.000E+00
#rwgt            1           9   1.5210718462436146E-005           9     1926046           0
</event>
<event>
      6   9999  3.45752E-01  7.83133E+00 -1.00000E+00  1.99117E-01
      21    -1     0     0   501   502  0.000000000E+00  0.000000000E+00  8.085247262E+02  8.085247262E+02  0.000000000E+00  0.00000E+00  9.000E+00
      21    -1     0     0   502   512  0.000000000E+00  0.000000000E+00 -1.761849236E+01  1.761849236E+01  0.000000000E+00  0.00000E+00  9.000E+00
      25     1     1     2     0     0 -7.193471718E+00 -1.757405184E+00  6.039565614E+02  6.167989275E+02  1.249902172E+02  0.00000E+00  9.000E+00
       5     1     1     2   501     0 -1.607747653E+00 -4.490633573E-01  1.748158525E+02  1.748883395E+02  4.750000000E+00  0.00000E+00  9.000E+00
      -5     1     1     2     0   503  1.178510137E+00  4.109295725E-01  2.161085825E+01  2.216189170E+01  4.750000000E+00  0.00000E+00  9.000E+00
      21     1     1     2   503   512  7.622709235E+00  1.795538969E+00 -9.477038220E+00  1.229405994E+01  1.227334755E-06  0.00000E+00  9.000E+00
#rwgt            1           9   3.2360949608428149E-004           9     1928446           0
</event>
<event>
      6   9999  3.45752E-01  5.10574E+00 -1.00000E+00  2.24311E-01
      21    -1     0     0   501   502  0.000000000E+00  0.000000000E+00  3.569015147E+01  3.569015147E+01  0.000000000E+00  0.00000E+00  9.000E+00
      21    -1     0     0   511   503  0.000000000E+00  0.000000000E+00 -1.286105555E+03  1.286105555E+03  0.000000000E+00  0.00000E+00  9.000E+00
      25     1     1     2     0     0  1.129008759E+01 -6.516636022E+01 -2.450165718E+02  2.831160219E+02  1.254888076E+02  0.00000E+00  9.000E+00
       5     1     1     2   501     0 -8.649897416E-01 -5.592880035E+00  1.447549208E+01  1.625210402E+01  4.750000000E+00  0.00000E+00  9.000E+00
      -5     1     1     2     0   503 -1.146987588E+01  6.576153835E+01 -9.265779741E+02  9.289916267E+02  4.750000000E+00  0.00000E+00  9.000E+00
      21     1     1     2   511   502  1.044778037E+00  4.997701907E+00 -9.329634988E+01  9.343595392E+01  1.348699152E-06  0.00000E+00  9.000E+00
#rwgt            1           9   2.2689048883195773E-005           9     1931102           0
</event>
<event>
      6   9999  3.45752E-01  1.27377E+01 -1.00000E+00  1.76763E-01
      21    -1     0     0   501   502  0.000000000E+00  0.000000000E+00  1.366639445E+01  1.366639445E+01  0.000000000E+00  0.00000E+00  9.000E+00
      21    -1     0     0   502   512  0.000000000E+00  0.000000000E+00 -9.388396045E+02  9.388396045E+02  0.000000000E+00  0.00000E+00  9.000E+00
      25     1     1     2     0     0 -1.553588046E+01  4.307633271E+00 -7.836241851E+02  7.936953543E+02  1.250021309E+02  0.00000E+00  9.000E+00
       5     1     1     2   501     0 -1.050766203E-01  2.510693297E-01  7.025516914E+00  8.484955204E+00  4.750000000E+00  0.00000E+00  9.000E+00
      -5     1     1     2     0   503  3.431009047E+00 -8.187189865E+00 -7.159085816E+01  7.229533438E+01  4.750000000E+00  0.00000E+00  9.000E+00
      21     1     1     2   503   512  1.220994803E+01  3.628487264E+00 -7.698368372E+01  7.803035505E+01  9.536743164E-07  0.00000E+00  9.000E+00
#rwgt            1           9   1.2453746808500345E-002           9     1937024           0
</event>
<event>
      6   9999  3.45752E-01  3.96988E+01 -1.00000E+00  1.40376E-01
      21    -1     0     0   501   502  0.000000000E+00  0.000000000E+00  8.154068938E+00  8.154068938E+00  0.000000000E+00  0.00000E+00  9.000E+00
      21    -1     0     0   511   503  0.000000000E+00  0.000000000E+00 -1.809774022E+03  1.809774022E+03  0.000000000E+00  0.00000E+00  9.000E+00
      25     1     1     2     0     0 -1.892578302E+00 -4.697697199E+01 -1.270307209E+03  1.277307729E+03  1.249968512E+02  0.00000E+00  9.000E+00
       5     1     1     2   501     0 -2.567159862E+01  2.317926018E+01 -8.389666572E+01  9.087090897E+01  4.750000000E+00  0.00000E+00  9.000E+00
      -5     1     1     2     0   503 -1.423002742E+00 -3.326839181E+00 -6.830108496E+01  6.856160371E+01  4.750000000E+00  0.00000E+00  9.000E+00
      21     1     1     2   511   502  2.898717967E+01  2.712455099E+01 -3.791149940E+02  3.811878494E+02  5.394796609E-06  0.00000E+00  9.000E+00
#rwgt            1           9   1.1855668605775721E-002           9     1939213           0
</event>
<event>
      6   9999  3.45752E-01  7.37963E+00 -1.00000E+00  2.02258E-01
      21    -1     0     0   501   512  0.000000000E+00  0.000000000E+00  7.182184051E+01  7.182184051E+01  0.000000000E+00  0.00000E+00  9.000E+00
      21    -1     0     0   502   503  0.000000000E+00  0.000000000E+00 -9.556257052E+02  9.556257052E+02  0.000000000E+00  0.00000E+00  9.000E+00
      25     1     1     2     0     0 -5.705249054E+00  5.017845899E+00 -8.905086850E+02  8.992708360E+02  1.249983588E+02  0.00000E+00  9.000E+00
       5     1     1     2   501     0 -1.508831517E+00 -2.425288615E-01  1.172875487E+01  1.274604188E+01  4.750000000E+00  0.00000E+00  9.000E+00
      -5     1     1     2     0   503  1.839862382E+00  2.820267323E-01 -5.987170457E+01  6.008866899E+01  4.750000000E+00  0.00000E+00  9.000E+00
      21     1     1     2   502   512  5.374218188E+00 -5.057343770E+00  5.484777010E+01  5.534199881E+01  6.743495762E-07  0.00000E+00  9.000E+00
#rwgt            1           9   5.0328488144440867E-004           9     1940447           0
</event>
<event>
      6   9999  3.45752E-01  1.09088E+01 -1.00000E+00  1.83300E-01
      21    -1     0     0   511   502  0.000000000E+00  0.000000000E+00  5.881976694E+02  5.881976694E+02  0.000000000E+00  0.00000E+00  9.000E+00
      21    -1     0     0   502   503  0.000000000E+00  0.000000000E+00 -9.017634780E+01  9.017634780E+01  0.000000000E+00  0.00000E+00  9.000E+00
      25     1     1     2     0     0 -4.226385271E+00 -1.051331582E+01 -3.091438485E+01  1.292444404E+02  1.249801346E+02  0.00000E+00  9.000E+00
       5     1     1     2   501     0 -8.803833393E+00  1.636215673E+00  1.915778085E+02  1.918457816E+02  4.750000000E+00  0.00000E+00  9.000E+00
      -5     1     1     2     0   503  3.114953432E+00  4.328416941E+00 -8.586073797E+00  1.116786870E+01  4.750000000E+00  0.00000E+00  9.000E+00
      21     1     1     2   511   501  9.915265232E+00  4.548683210E+00  3.459439717E+02  3.461159265E+02  3.814697266E-06  0.00000E+00  9.000E+00
#rwgt            1           9   2.0343857682327653E-003           9     1943767           0
</event>
<event>
      6   9999 -3.45752E-01  4.70178E+00 -1.00000E+00  2.34162E-01
      21    -1     0     0   501   502  0.000000000E+00  0.000000000E+00  1.708620049E+01  1.708620049E+01  0.000000000E+00  0.00000E+00  9.000E+00
      21    -1     0     0   502   512  0.000000000E+00  0.000000000E+00 -9.466214658E+02  9.466214658E+02  0.000000000E+00  0.00000E+00  9.000E+00
      25     1     1     2     0     0 -1.431349675E+01  7.401691983E-01 -8.741876889E+02  8.832005153E+02  1.250344385E+02  0.00000E+00  9.000E+00
       5     1     1     2   501     0  3.117671133E+00 -2.741576812E+00  8.943417401E+00  1.094455716E+01  4.750000000E+00  0.00000E+00  9.000E+00
      -5     1     1     2     0   503  1.566082176E+01  3.474676868E+00 -2.556797319E+01  3.055517093E+01  4.750000000E+00  0.00000E+00  9.000E+00
      21     1     1     2   503   512 -4.464996143E+00 -1.473269255E+00 -3.872302063E+01  3.900742288E+01  0.000000000E+00  0.00000E+00  9.000E+00
#rwgt            1           9  -8.7100572667863443E-006           9     1948273           0
</event>
<event>
      6   9999  3.45752E-01  1.48618E+01 -1.00000E+00  1.70721E-01
      21    -1     0     0   501   511  0.000000000E+00  0.000000000E+00  2.044104005E+01  2.044104005E+01  0.000000000E+00  0.00000E+00  9.000E+00
      21    -1     0     0   502   503  0.000000000E+00  0.000000000E+00 -9.046309860E+02  9.046309860E+02  0.000000000E+00  0.00000E+00  9.000E+00
      25     1     1     2     0     0 -1.884508331E-01 -2.223498269E+00 -6.362167758E+02  6.483851054E+02  1.250059182E+02  0.00000E+00  9.000E+00
       5     1     1     2   501     0 -8.097807110E-01  1.175505876E+00  6.463085864E+00  8.146872881E+00  4.750000000E+00  0.00000E+00  9.000E+00
      -5     1     1     2     0   503  2.892574150E+00  1.578856496E+01 -2.530617974E+02  2.536148292E+02  4.750000000E+00  0.00000E+00  9.000E+00
      21     1     1     2   502   511 -1.894342606E+00 -1.474057257E+01 -1.374458553E+00  1.492521859E+01  4.126841552E-07  0.00000E+00  9.000E+00
#rwgt            1           9   1.3199899664687450E-003           9     1952870           0
</event>
<event>
      6   9999 -3.45752E-01  2.36886E+00 -1.00000E+00  3.06819E-01
      21    -1     0     0   501   502  0.000000000E+00  0.000000000E+00  1.367088237E+01  1.367088237E+01  0.000000000E+00  0.00000E+00  9.000E+00
      21    -1     0     0   512   503  0.000000000E+00  0.000000000E+00 -1.138226041E+03  1.138226041E+03  0.000000000E+00  0.00000E+00  9.000E+00
      25     1     1     2     0     0  5.763886867E+00  5.658195790E+01 -6.405037608E+02  6.550614699E+02  1.250028860E+02  0.00000E+00  9.000E+00
       5     1     1     2   501     0  7.201246292E-01  1.121685076E+00  8.068785816E-01  4.999030900E+00  4.750000000E+00  0.00000E+00  9.000E+00
      -5     1     1     2     0   503 -6.712711817E+00 -5.534584776E+01 -2.211867552E+02  2.281542604E+02  4.750000000E+00  0.00000E+00  9.000E+00
      21     1     1     2   512   502  2.287003211E-01 -2.357795214E+00 -2.636715218E+02  2.636821627E+02  3.814697266E-06  0.00000E+00  9.000E+00
#rwgt            1           9  -4.4767596019450896E-003           9     1954829           0
</event>
<event>
      6   9999  3.45752E-01  5.87000E+00 -1.00000E+00  2.15392E-01
       2    -1     0     0   501     0  0.000000000E+00  0.000000000E+00  1.461311011E+03  1.461311011E+03  0.000000000E+00  0.00000E+00  9.000E+00
      21    -1     0     0   502   503  0.000000000E+00  0.000000000E+00 -3.514494565E+03  3.514494565E+03  0.000000000E+00  0.00000E+00  9.000E+00
      25     1     1     2     0     0  4.381079878E+01 -8.030858954E+00 -1.413844705E+03  1.420143743E+03  1.259663445E+02  0.00000E+00  9.000E+00
       5     1     1     2   501     0  3.134637460E+00 -2.394452347E+00 -1.623715137E+00  6.384223124E+00  4.750000000E+00  0.00000E+00  9.000E+00
      -5     1     1     2     0   503 -4.107955882E+01  1.020538395E+01 -2.093273801E+03  2.093707106E+03  4.750000000E+00  0.00000E+00  9.000E+00
       2     1     1     2   502     0 -5.865877429E+00  2.199273468E-01  1.455558667E+03  1.455570503E+03  3.051757812E-05  0.00000E+00  9.000E+00
#rwgt            1           9   3.8749919127547589E-003           9     1962256           0
</event>
<event>
      6   9999  3.45752E-01  1.53389E+01 -1.00000E+00  1.69535E-01
      21    -1     0     0   501   511  0.000000000E+00  0.000000000E+00  7.498488747E+01  7.498488747E+01  0.000000000E+00  0.00000E+00  9.000E+00
      21    -1     0     0   502   503  0.000000000E+00  0.000000000E+00 -1.537772698E+03  1.537772698E+03  0.000000000E+00  0.00000E+00  9.000E+00
      25     1     1     2     0     0 -1.018056747E+02 -1.188891364E+02 -7.978189269E+02  8.225796953E+02  1.249931707E+02  0.00000E+00  9.000E+00
       5     1     1     2   501     0 -1.489047860E+02  8.316799199E+01 -2.238092399E+02  2.814297222E+02  4.750000000E+00  0.00000E+00  9.000E+00
      -5     1     1     2     0   503  2.356032301E+02  3.306527653E+01 -4.111807183E+02  4.750729840E+02  4.750000000E+00  0.00000E+00  9.000E+00
      21     1     1     2   502   511  1.510723064E+01  2.655867837E+00 -2.997892585E+01  3.367518444E+01  5.840038640E-07  0.00000E+00  9.000E+00
#rwgt            1           9   7.0495376449606871E-003           9     1966146           0
</event>
<event>
      6   9999  3.45752E-01  3.22098E+01 -1.00000E+00  1.45869E-01
      21    -1     0     0   502   503  0.000000000E+00  0.000000000E+00  6.474052767E+02  6.474052767E+02  0.000000000E+00  0.00000E+00  9.000E+00
      21    -1     0     0   501   512  0.000000000E+00  0.000000000E+00 -3.745254002E+01  3.745254002E+01  0.000000000E+00  0.00000E+00  9.000E+00
      25     1     1     2     0     0  1.130961788E+01  4.198165395E+00  5.033238753E+02  5.187533272E+02  1.249982359E+02  0.00000E+00  9.000E+00
       5     1     1     2   501     0  1.055745633E+00 -3.044131303E-01  2.669218685E+01  2.713379084E+01  4.750000000E+00  0.00000E+00  9.000E+00
      -5     1     1     2     0   503  1.905385051E+01 -1.098616022E+01  9.901176197E+01  1.015363799E+02  4.750000000E+00  0.00000E+00  9.000E+00
      21     1     1     2   502   512 -3.141921402E+01  7.092407954E+00 -1.907508746E+01  3.743431877E+01  1.192092896E-06  0.00000E+00  9.000E+00
#rwgt            1           9   1.6676953883458291E-003           9     1969545           0
</event>
<event>
      6   9999  3.45752E-01  1.29817E+02 -1.00000E+00  1.15808E-01
      21    -1     0     0   511   502  0.000000000E+00  0.000000000E+00  2.011675846E+02  2.011675846E+02  0.000000000E+00  0.00000E+00  9.000E+00
      21    -1     0     0   502   503  0.000000000E+00  0.000000000E+00 -2.162653083E+03  2.162653083E+03  0.000000000E+00  0.00000E+00  9.000E+00
      25     1     1     2     0     0 -1.562712680E+02 -1.739129792E+02 -1.788549381E+03  1.808093315E+03  1.250044508E+02  0.00000E+00  9.000E+00
       5     1     1     2   501     0 -2.853575784E+01 -2.356434204E+01  1.314349138E+02  1.366282063E+02  4.750000000E+00  0.00000E+00  9.000E+00
      -5     1     1     2     0   503  1.299948610E+02  7.979952254E+01 -2.052496430E+02  2.557667026E+02  4.750000000E+00  0.00000E+00  9.000E+00
      21     1     1     2   511   501  5.481216488E+01  1.176777987E+02 -9.912138814E+01  1.633324441E+02  1.348699152E-06  0.00000E+00  9.000E+00
#rwgt            1           9   1.0916366170422699E-004           9     1970310           0
</event>
<event>
      6   9999  3.45752E-01  1.78382E+01 -1.00000E+00  1.64097E-01
      21    -1     0     0   501   502  0.000000000E+00  0.000000000E+00  7.226307321E+01  7.226307321E+01  0.000000000E+00  0.00000E+00  9.000E+00
      21    -1     0     0   512   503  0.000000000E+00  0.000000000E+00 -1.054829496E+02  1.054829496E+02  0.000000000E+00  0.00000E+00  9.000E+00
      25     1     1     2     0     0  1.500207148E+01 -1.317164371E+01 -3.631660538E+01  1.316961796E+02  1.250057341E+02  0.00000E+00  9.000E+00
       5     1     1     2   501     0  6.575036828E-01 -1.205514498E+00  1.448218390E+01  1.530299731E+01  4.750000000E+00  0.00000E+00  9.000E+00
      -5     1     1     2     0   503 -7.979395625E+00 -1.723071794E+00  2.522290559E-01  9.448060671E+00  4.750000000E+00  0.00000E+00  9.000E+00
      21     1     1     2   512   502 -7.680179535E+00  1.610023001E+01 -1.163768398E+01  2.129878523E+01  0.000000000E+00  0.00000E+00  9.000E+00
#rwgt            1           9   1.4198854467279452E-002           9     1971472           0
</event>
<event>
      6   9999  3.45752E-01  4.03034E+01 -1.00000E+00  1.39996E-01
      21    -1     0     0   501   502  0.000000000E+00  0.000000000E+00  3.434287989E+02  3.434287989E+02  0.000000000E+00  0.00000E+00  9.000E+00
      21    -1     0     0   511   503  0.000000000E+00  0.000000000E+00 -9.551976682E+01  9.551976682E+01  0.000000000E+00  0.00000E+00  9.000E+00
      25     1     1     2     0     0  2.075429059E+01 -7.268603828E+01  2.354950140E+02  2.771229014E+02  1.250008005E+02  0.00000E+00  9.000E+00
       5     1     1     2   501     0 -1.179957649E+00 -1.675059792E+00  4.925690450E+01  4.952780296E+01  4.750000000E+00  0.00000E+00  9.000E+00
      -5     1     1     2     0   503 -4.465357056E+01  4.281123965E+01 -7.607145671E+00  6.250739772E+01  4.750000000E+00  0.00000E+00  9.000E+00
      21     1     1     2   511   502  2.507923763E+01  3.154985842E+01 -2.923574079E+01  4.979046360E+01  3.371747881E-07  0.00000E+00  9.000E+00
#rwgt            1           9   3.2098638013295456E-003           9     1973181           0
</event>
<event>
      6   9999  3.45752E-01  3.87233E+01 -1.00000E+00  1.41008E-01
      21    -1     0     0   502   512  0.000000000E+00  0.000000000E+00  3.606057125E+01  3.606057125E+01  0.000000000E+00  0.00000E+00  9.000E+00
      21    -1     0     0   501   502  0.000000000E+00  0.000000000E+00 -1.204165449E+03  1.204165449E+03  0.000000000E+00  0.00000E+00  9.000E+00
      25     1     1     2     0     0 -1.815650181E+02  9.410087377E+00 -5.781825916E+02  6.188468943E+02  1.249878543E+02  0.00000E+00  9.000E+00
       5     1     1     2   501     0  1.467044901E+02 -1.518141783E+01 -4.936287303E+02  5.152131295E+02  4.750000000E+00  0.00000E+00  9.000E+00
      -5     1     1     2     0   503 -3.097311725E+00 -1.889887948E+00 -1.224407542E+01  1.362515685E+01  4.750000000E+00  0.00000E+00  9.000E+00
      21     1     1     2   503   512  3.795783969E+01  7.661218399E+00 -8.404948048E+01  9.254083980E+01  9.536743164E-07  0.00000E+00  9.000E+00
#rwgt            1           9   4.3114303023497597E-004           9     1974424           0
</event>
<event>
      6   9999  3.45752E-01  1.39807E+01 -1.00000E+00  1.73063E-01
      21    -1     0     0   501   511  0.000000000E+00  0.000000000E+00  4.626743181E+01  4.626743181E+01  0.000000000E+00  0.00000E+00  9.000E+00
      21    -1     0     0   502   503  0.000000000E+00  0.000000000E+00 -6.566308665E+02  6.566308665E+02  0.000000000E+00  0.00000E+00  9.000E+00
      25     1     1     2     0     0 -1.173489467E+00 -2.362203873E+00 -5.819906780E+02  5.952690135E+02  1.250003685E+02  0.00000E+00  9.000E+00
       5     1     1     2   501     0 -2.432558310E+00 -3.014098002E+00  7.847441119E+00  9.957256591E+00  4.750000000E+00  0.00000E+00  9.000E+00
      -5     1     1     2     0   503 -1.026309969E+01  3.613644522E+00 -6.478793455E+01  6.586674886E+01  4.750000000E+00  0.00000E+00  9.000E+00
      21     1     1     2   502   511  1.386914747E+01  1.762657354E+00  2.856773672E+01  3.180527933E+01  4.768371582E-07  0.00000E+00  9.000E+00
#rwgt            1           9  0.46355431118897938                9     1975679           0
</event>
<event>
      6   9999  3.45752E-01  8.50749E+00 -1.00000E+00  1.94905E-01
      21    -1     0     0   501   502  0.000000000E+00  0.000000000E+00  8.366230491E+00  8.366230491E+00  0.000000000E+00  0.00000E+00  9.000E+00
      21    -1     0     0   502   512  0.000000000E+00  0.000000000E+00 -8.372736092E+02  8.372736092E+02  0.000000000E+00  0.00000E+00  9.000E+00
      25     1     1     2     0     0 -2.694467685E+00 -4.617619337E+00 -6.288470040E+02  6.411720478E+02  1.249978311E+02  0.00000E+00  9.000E+00
       5     1     1     2   501     0 -1.592503943E+00  2.314404610E-01 -1.720227976E+00  5.302010730E+00  4.750000000E+00  0.00000E+00  9.000E+00
      -5     1     1     2     0   503 -3.981771074E+00  2.384857882E+00 -3.630294607E+01  3.690539854E+01  4.750000000E+00  0.00000E+00  9.000E+00
      21     1     1     2   503   512  8.268742701E+00  2.001320993E+00 -1.620372007E+02  1.622603827E+02  0.000000000E+00  0.00000E+00  9.000E+00
#rwgt            1           9   1.6940156591197205E-004           9     1977814           0
</event>
<event>
      6   9999  3.45752E-01  7.69420E+00 -1.00000E+00  2.00041E-01
      21    -1     0     0   501   511  0.000000000E+00  0.000000000E+00  1.030451446E+01  1.030451446E+01  0.000000000E+00  0.00000E+00  9.000E+00
      21    -1     0     0   502   503  0.000000000E+00  0.000000000E+00 -7.248327801E+02  7.248327801E+02  0.000000000E+00  0.00000E+00  9.000E+00
      25     1     1     2     0     0 -1.189746207E+00 -3.585542324E-01 -5.437738110E+02  5.579572192E+02  1.249990273E+02  0.00000E+00  9.000E+00
       5     1     1     2   501     0  8.899908010E+00 -2.684097755E+00 -1.447180463E+02  1.450940666E+02  4.750000000E+00  0.00000E+00  9.000E+00
      -5     1     1     2     0   503 -9.316238831E-01 -5.976960187E-01 -2.347553389E+01  2.397682954E+01  4.750000000E+00  0.00000E+00  9.000E+00
      21     1     1     2   502   511 -6.778537921E+00  3.640348007E+00 -2.560874447E+00  8.109179236E+00  3.908537939E-07  0.00000E+00  9.000E+00
#rwgt            1           9   4.3102784142249858E-003           9     1980366           0
</event>
<event>
      6   9999  3.45752E-01  1.99858E+01 -1.00000E+00  1.60234E-01
      21    -1     0     0   502   503  0.000000000E+00  0.000000000E+00  5.913563653E+01  5.913563653E+01  0.000000000E+00  0.00000E+00  9.000E+00
      21    -1     0     0   512   502  0.000000000E+00  0.000000000E+00 -1.048429579E+03  1.048429579E+03  0.000000000E+00  0.00000E+00  9.000E+00
      25     1     1     2     0     0 -1.891088984E+01 -4.356477374E+01 -2.162689094E+01  1.354507925E+02  1.249947340E+02  0.00000E+00  9.000E+00
       5     1     1     2   501     0  2.606309773E+01  2.624418671E+01 -6.867610544E+02  6.877727464E+02  4.750000000E+00  0.00000E+00  9.000E+00
      -5     1     1     2     0   503  3.889381045E+00  6.617384577E-01 -5.676547052E+00  8.387542497E+00  4.750000000E+00  0.00000E+00  9.000E+00
      21     1     1     2   512   501 -1.104158893E+01  1.665884857E+01 -2.752294499E+02  2.759541339E+02  3.814697266E-06  0.00000E+00  9.000E+00
#rwgt            1           9   6.7279477082149543E-003           9     1982674           0
</event>
<event>
      6   9999  3.45752E-01  1.92650E+01 -1.00000E+00  1.61462E-01
      21    -1     0     0   501   502  0.000000000E+00  0.000000000E+00  4.556022356E+01  4.556022356E+01  0.000000000E+00  0.00000E+00  9.000E+00
      21    -1     0     0   511   503  0.000000000E+00  0.000000000E+00 -1.368848647E+03  1.368848647E+03  0.000000000E+00  0.00000E+00  9.000E+00
      25     1     1     2     0     0  8.762086312E+00  1.559864457E+01 -9.186400877E+02  9.272783694E+02  1.250018866E+02  0.00000E+00  9.000E+00
       5     1     1     2   501     0 -3.049172391E+00  7.107625351E-01  3.986097866E+01  4.026490725E+01  4.750000000E+00  0.00000E+00  9.000E+00
      -5     1     1     2     0   503  1.105421359E+01 -6.822386933E+00 -3.566879981E+02  3.569560632E+02  4.750000000E+00  0.00000E+00  9.000E+00
      21     1     1     2   511   502 -1.676712751E+01 -9.487020173E+00 -8.782131610E+01  8.990953052E+01  0.000000000E+00  0.00000E+00  9.000E+00
#rwgt            1           9   3.1661446411920585E-004           9     1984870           0
</event>
<event>
      6   9999  3.45752E-01  1.15027E+01 -1.00000E+00  1.81009E-01
      21    -1     0     0   501   502  0.000000000E+00  0.000000000E+00  7.716455141E+00  7.716455141E+00  0.000000000E+00  0.00000E+00  9.000E+00
      21    -1     0     0   502   512  0.000000000E+00  0.000000000E+00 -1.295206779E+03  1.295206779E+03  0.000000000E+00  0.00000E+00  9.000E+00
      25     1     1     2     0     0 -9.468507086E+00 -9.360202897E+00 -6.086225320E+02  6.214691272E+02  1.250008946E+02  0.00000E+00  9.000E+00
       5     1     1     2   501     0 -8.113863662E-01 -4.172880028E-01 -4.476032749E+00  6.590132494E+00  4.750000000E+00  0.00000E+00  9.000E+00
      -5     1     1     2     0   503  2.022197241E+00  1.769786095E+00 -4.029521667E+01  4.066310873E+01  4.750000000E+00  0.00000E+00  9.000E+00
      21     1     1     2   503   512  8.257696211E+00  8.007704804E+00 -6.340965421E+02  6.342008654E+02  1.321449896E-05  0.00000E+00  9.000E+00
#rwgt            1           9   9.0033467424334109E-004           9     1987398           0
</event>
<event>
      6   9999 -3.45752E-01  3.36961E+01 -1.00000E+00  1.44646E-01
      21    -1     0     0   511   503  0.000000000E+00  0.000000000E+00  1.587648318E+02  1.587648318E+02  0.000000000E+00  0.00000E+00  9.000E+00
      21    -1     0     0   501   502  0.000000000E+00  0.000000000E+00 -1.662832179E+03  1.662832179E+03  0.000000000E+00  0.00000E+00  9.000E+00
      25     1     1     2     0     0  1.242834022E+01  4.194575046E+01 -1.594616892E+03  1.600106897E+03  1.250005656E+02  0.00000E+00  9.000E+00
       5     1     1     2   501     0  4.507762269E+00  2.363777247E+01 -5.120488634E+01  5.677646601E+01  4.750000000E+00  0.00000E+00  9.000E+00
      -5     1     1     2     0   503  1.208670485E+01 -4.846320533E+01  8.623561773E+01  9.976930876E+01  4.750000000E+00  0.00000E+00  9.000E+00
      21     1     1     2   511   502 -2.902280734E+01 -1.712031760E+01  5.551881277E+01  6.494433918E+01  1.784161275E-06  0.00000E+00  9.000E+00
#rwgt            1           9  -7.9984210131757195E-003           9     1989282           0
</event>
<event>
      6   9999  3.45752E-01  6.21963E+00 -1.00000E+00  2.11906E-01
      21    -1     0     0   501   502  0.000000000E+00  0.000000000E+00  2.033206495E+01  2.033206495E+01  0.000000000E+00  0.00000E+00  9.000E+00
       2    -1     0     0   502     0  0.000000000E+00  0.000000000E+00 -1.194705755E+03  1.194705755E+03  0.000000000E+00  0.00000E+00  9.000E+00
      25     1     1     2     0     0 -1.012218474E+01 -2.188150459E+00 -9.373873169E+02  9.457409940E+02  1.249951970E+02  0.00000E+00  9.000E+00
       5     1     1     2   501     0  9.658224100E-01 -2.065067663E+00  1.531173612E+01  1.619287128E+01  4.750000000E+00  0.00000E+00  9.000E+00
      -5     1     1     2     0   503  3.279741383E+00  6.290156831E+00 -5.098808457E+01  5.169787272E+01  4.750000000E+00  0.00000E+00  9.000E+00
       2     1     1     2   503     0  5.876620947E+00 -2.036938709E+00 -2.013100244E+02  2.014060816E+02  4.672030912E-06  0.00000E+00  9.000E+00
#rwgt            1           9   1.4357125197677456E-003           9     1991575           0
</event>
<event>
      6   9999  3.45752E-01  2.49872E+01 -1.00000E+00  1.53165E-01
      21    -1     0     0   501   502  0.000000000E+00  0.000000000E+00  1.473763825E+02  1.473763825E+02  0.000000000E+00  0.00000E+00  9.000E+00
      21    -1     0     0   511   503  0.000000000E+00  0.000000000E+00 -1.000658139E+03  1.000658139E+03  0.000000000E+00  0.00000E+00  9.000E+00
      25     1     1     2     0     0  2.391643863E+01  9.323908478E+00 -7.237648411E+02  7.349277445E+02  1.249972523E+02  0.00000E+00  9.000E+00
       5     1     1     2   501     0 -1.722714028E+01 -5.968273655E+00  1.382999714E+02  1.395773593E+02  4.750000000E+00  0.00000E+00  9.000E+00
      -5     1     1     2     0   503 -7.197642775E+00 -2.833765249E+01 -1.706191692E+02  1.731712794E+02  4.750000000E+00  0.00000E+00  9.000E+00
      21     1     1     2   511   502  5.083444275E-01  2.498201767E+01 -9.719771736E+01  1.003581381E+02  0.000000000E+00  0.00000E+00  9.000E+00
#rwgt            1           9   2.1462178011591835                9     1995800           0
</event>
<event>
      6   9999  3.45752E-01  5.63229E+01 -1.00000E+00  1.32077E-01
      21    -1     0     0   501   502  0.000000000E+00  0.000000000E+00  2.116559988E+02  2.116559988E+02  0.000000000E+00  0.00000E+00  9.000E+00
      21    -1     0     0   512   503  0.000000000E+00  0.000000000E+00 -2.973192161E+02  2.973192161E+02  0.000000000E+00  0.00000E+00  9.000E+00
      25     1     1     2     0     0 -1.439812204E+02  1.340133741E+02  2.152406969E+01  2.340501340E+02  1.250040136E+02  0.00000E+00  9.000E+00
       5     1     1     2   501     0 -3.073168937E+01 -4.786403020E+01 -1.519215011E+01  5.906577726E+01  4.750000000E+00  0.00000E+00  9.000E+00
      -5     1     1     2     0   503  1.227095174E+02 -6.451794376E+01 -6.060065406E+01  1.513776486E+02  4.750000000E+00  0.00000E+00  9.000E+00
      21     1     1     2   512   502  5.200339233E+01 -2.163140010E+01 -3.139448278E+01  6.448165501E+01  1.215700987E-06  0.00000E+00  9.000E+00
#rwgt            1           9   1.9919461370086485E-002           9     1998734           0
</event>
<event>
      6   9999  3.45752E-01  9.76157E+01 -1.00000E+00  1.20882E-01
      21    -1     0     0   501   502  0.000000000E+00  0.000000000E+00  6.954834747E+01  6.954834747E+01  0.000000000E+00  0.00000E+00  9.000E+00
      21    -1     0     0   502   511  0.000000000E+00  0.000000000E+00 -1.924881889E+03  1.924881889E+03  0.000000000E+00  0.00000E+00  9.000E+00
      25     1     1     2     0     0 -2.705739015E+02 -1.933149253E+01 -7.632179481E+02  8.195797242E+02  1.250013815E+02  0.00000E+00  9.000E+00
       5     1     1     2   501     0  2.004565528E+02 -1.211599371E+02 -4.037452081E+02  4.667925829E+02  4.750000000E+00  0.00000E+00  9.000E+00
      -5     1     1     2     0   503  4.801493752E+01  4.541091125E+01 -2.269105489E+02  2.363864310E+02  4.750000000E+00  0.00000E+00  9.000E+00
      21     1     1     2   503   511  2.210241115E+01  9.508051842E+01 -4.614598363E+02  4.716714980E+02  0.000000000E+00  0.00000E+00  9.000E+00
#rwgt            1           9   1.1244310557142706E-003           9     1999876           0
</event>
<event>
      6   9999  3.45752E-01  1.27243E+01 -1.00000E+00  1.76806E-01
      21    -1     0     0   501   502  0.000000000E+00  0.000000000E+00  1.634149927E+03  1.634149927E+03  0.000000000E+00  0.00000E+00  9.000E+00
       4    -1     0     0   502     0  0.000000000E+00  0.000000000E+00 -4.616610351E+01  4.616610351E+01  0.000000000E+00  0.00000E+00  9.000E+00
      25     1     1     2     0     0  9.191781214E+00 -3.339731267E+01  4.051154522E+02  4.253723504E+02  1.249929501E+02  0.00000E+00  9.000E+00
       5     1     1     2   501     0  1.479029585E+00 -3.314799479E-01  9.469980771E+02  9.470112026E+02  4.750000000E+00  0.00000E+00  9.000E+00
      -5     1     1     2     0   503 -7.886162679E+00  2.131290891E+01  2.702645949E+02  2.712599223E+02  4.750000000E+00  0.00000E+00  9.000E+00
       4     1     1     2   503     0 -2.784648120E+00  1.241588371E+01 -3.439430036E+01  3.667255555E+01  2.477718555E-06  0.00000E+00  9.000E+00
#rwgt            1           9   1.1757691384620586E-003           9     2000635           0
</event>
<event>
      6   9999  3.45752E-01  1.41794E+01 -1.00000E+00  1.72516E-01
      21    -1     0     0   501   502  0.000000000E+00  0.000000000E+00  5.407127101E+01  5.407127101E+01  0.000000000E+00  0.00000E+00  9.000E+00
      21    -1     0     0   502   511  0.000000000E+00  0.000000000E+00 -1.481465017E+03  1.481465017E+03  0.000000000E+00  0.00000E+00  9.000E+00
      25     1     1     2     0     0 -1.832265814E+02  7.901046059E+01 -3.066463946E+02  3.866163072E+02  1.250020987E+02  0.00000E+00  9.000E+00
       5     1     1     2   501     0 -7.407616826E-02 -2.827114596E-01  1.936071579E+00  5.137731621E+00  4.750000000E+00  0.00000E+00  9.000E+00
      -5     1     1     2     0   503  1.849416987E+02 -6.464362090E+01 -9.219128423E+02  9.425115813E+02  4.750000000E+00  0.00000E+00  9.000E+00
      21     1     1     2   503   511 -1.641041111E+00 -1.408412823E+01 -2.007705808E+02  2.012706680E+02  2.697398305E-06  0.00000E+00  9.000E+00
#rwgt            1           9   2.9944992121141946E-004           9     2002961           0
</event>
<event>
      6   9999  3.45752E-01  1.08290E+01 -1.00000E+00  1.83622E-01
      21    -1     0     0   501   502  0.000000000E+00  0.000000000E+00  2.786572555E+02  2.786572555E+02  0.000000000E+00  0.00000E+00  9.000E+00
      21    -1     0     0   512   503  0.000000000E+00  0.000000000E+00 -7.502305426E+01  7.502305426E+01  0.000000000E+00  0.00000E+00  9.000E+00
      25     1     1     2     0     0  4.401234439E+01  4.360965169E+01  3.652439438E+01  1.442035322E+02  1.249869559E+02  0.00000E+00  9.000E+00
       5     1     1     2   501     0  2.773280632E-01  6.640377165E-02  4.953279673E+01  4.976084578E+01  4.750000000E+00  0.00000E+00  9.000E+00
      -5     1     1     2     0   503 -5.137276665E+01 -5.186734799E+01  1.262013396E+02  1.458722851E+02  4.750000000E+00  0.00000E+00  9.000E+00
      21     1     1     2   512   502  7.083094194E+00  8.191292527E+00 -8.624329411E+00  1.384364672E+01  1.685873940E-07  0.00000E+00  9.000E+00
#rwgt            1           9   4.4647279473726494E-002           9     2006154           0
</event>
<event>
      6   9999  3.45752E-01  1.97836E+01 -1.00000E+00  1.60572E-01
      21    -1     0     0   501   502  0.000000000E+00  0.000000000E+00  9.980890186E+00  9.980890186E+00  0.000000000E+00  0.00000E+00  9.000E+00
       2    -1     0     0   502     0  0.000000000E+00  0.000000000E+00 -1.315681877E+03  1.315681877E+03  0.000000000E+00  0.00000E+00  9.000E+00
      25     1     1     2     0     0  1.774967161E+01 -1.154350520E+01 -5.566014005E+02  5.708595820E+02  1.250089593E+02  0.00000E+00  9.000E+00
       5     1     1     2   501     0  2.900720199E+00 -1.475926704E+00 -7.746680647E-01  5.809918065E+00  4.750000000E+00  0.00000E+00  9.000E+00
      -5     1     1     2     0   503 -1.142770645E+00  9.726564668E+00 -1.839844251E+02  1.843061127E+02  4.750000000E+00  0.00000E+00  9.000E+00
       2     1     1     2   503     0 -1.950762117E+01  3.292867238E+00 -5.643404934E+02  5.646871548E+02  7.629394531E-06  0.00000E+00  9.000E+00
#rwgt            1           9   9.0539062070776385E-003           9     2009163           0
</event>
<event>
      6   9999  3.45752E-01  8.60375E+00 -1.00000E+00  1.94346E-01
      21    -1     0     0   501   502  0.000000000E+00  0.000000000E+00  4.936599201E+03  4.936599201E+03  0.000000000E+00  0.00000E+00  9.000E+00
      21    -1     0     0   502   511  0.000000000E+00  0.000000000E+00 -7.595397701E+00  7.595397701E+00  0.000000000E+00  0.00000E+00  9.000E+00
      25     1     1     2     0     0 -7.024826207E+00 -1.824774362E+00  3.307439315E+03  3.309807994E+03  1.249858356E+02  0.00000E+00  9.000E+00
       5     1     1     2   501     0 -7.230031554E-01  1.043437650E-02  1.518949097E+03  1.518956696E+03  4.750000000E+00  0.00000E+00  9.000E+00
      -5     1     1     2     0   503  6.153830247E+00  1.026914456E+01  1.055549611E+02  1.063378450E+02  4.750000000E+00  0.00000E+00  9.000E+00
      21     1     1     2   503   511  1.593999115E+00 -8.454804576E+00 -2.939569418E+00  9.092063680E+00  6.364034565E-07  0.00000E+00  9.000E+00
#rwgt            1           9   1.7458380564569704E-003           9     2010767           0
</event>
<event>
      6   9999  3.45752E-01  9.00004E+00 -1.00000E+00  1.92146E-01
      21    -1     0     0   501   512  0.000000000E+00  0.000000000E+00  4.614788846E+01  4.614788846E+01  0.000000000E+00  0.00000E+00  9.000E+00
      21    -1     0     0   502   503  0.000000000E+00  0.000000000E+00 -8.286141872E+02  8.286141872E+02  0.000000000E+00  0.00000E+00  9.000E+00
      25     1     1     2     0     0 -1.315788356E+01 -3.807109300E-01 -6.845618276E+02  6.960053912E+02  1.250013354E+02  0.00000E+00  9.000E+00
       5     1     1     2   501     0  2.681942221E+00 -3.110013676E+00  2.269157495E+00  6.676569095E+00  4.750000000E+00  0.00000E+00  9.000E+00
      -5     1     1     2     0   503  1.470979686E+01 -4.451267869E+00 -1.350788494E+02  1.360332679E+02  4.750000000E+00  0.00000E+00  9.000E+00
      21     1     1     2   502   512 -4.233855517E+00  7.941992474E+00  3.490522081E+01  3.604684753E+01  1.784161275E-06  0.00000E+00  9.000E+00
#rwgt            1           9   1.4444926249002408E-002           9     2012847           0
</event>
<event>
      6   9999  3.45752E-01  1.36522E+01 -1.00000E+00  1.73993E-01
      21    -1     0     0   511   502  0.000000000E+00  0.000000000E+00  1.396799955E+01  1.396799955E+01  0.000000000E+00  0.00000E+00  9.000E+00
      21    -1     0     0   502   503  0.000000000E+00  0.000000000E+00 -7.994608484E+02  7.994608484E+02  0.000000000E+00  0.00000E+00  9.000E+00
      25     1     1     2     0     0  3.014599342E+01  1.748386074E+01 -6.422223008E+02  6.552018624E+02  1.250021221E+02  0.00000E+00  9.000E+00
       5     1     1     2   501     0  6.200699919E-01  7.268570791E-01 -1.862262841E-01  4.848709956E+00  4.750000000E+00  0.00000E+00  9.000E+00
      -5     1     1     2     0   503 -1.711907530E+01 -1.783424059E+01 -1.353834904E+02  1.377039391E+02  4.750000000E+00  0.00000E+00  9.000E+00
      21     1     1     2   511   501 -1.364698811E+01 -3.764772288E-01 -7.700831346E+00  1.567433645E+01  4.915124924E-07  0.00000E+00  9.000E+00
#rwgt            1           9   2.3396769282557227E-004           9     2015456           0
</event>
<event>
      6   9999  3.45752E-01  2.28641E+01 -1.00000E+00  1.55897E-01
      21    -1     0     0   501   502  0.000000000E+00  0.000000000E+00  2.740128213E+03  2.740128213E+03  0.000000000E+00  0.00000E+00  9.000E+00
      21    -1     0     0   512   503  0.000000000E+00  0.000000000E+00 -2.392864485E+01  2.392864485E+01  0.000000000E+00  0.00000E+00  9.000E+00
      25     1     1     2     0     0 -1.073906821E+02  5.629373505E+01  1.536836014E+03  1.546671507E+03  1.250042881E+02  0.00000E+00  9.000E+00
       5     1     1     2   501     0 -3.919058047E+00  3.112751344E-01  9.912084147E+02  9.912275924E+02  4.750000000E+00  0.00000E+00  9.000E+00
      -5     1     1     2     0   503  9.302154411E+01 -4.288236088E+01  1.567939230E+02  1.873467409E+02  4.750000000E+00  0.00000E+00  9.000E+00
      21     1     1     2   512   502  1.828819604E+01 -1.372264931E+01  3.136121589E+01  3.881101752E+01  1.011524364E-06  0.00000E+00  9.000E+00
#rwgt            1           9   2.0746070624597511E-002           9     2017524           0
</event>
<event>
      6   9999  3.45752E-01  8.38340E+00 -1.00000E+00  1.95638E-01
      21    -1     0     0   501   502  0.000000000E+00  0.000000000E+00  4.454634659E+01  4.454634659E+01  0.000000000E+00  0.00000E+00  9.000E+00
       2    -1     0     0   502     0  0.000000000E+00  0.000000000E+00 -1.343003121E+03  1.343003121E+03  0.000000000E+00  0.00000E+00  9.000E+00
      25     1     1     2     0     0  6.465374482E+01  2.970624811E+01 -5.347316362E+02  5.537360653E+02  1.249925573E+02  0.00000E+00  9.000E+00
       5     1     1     2   501     0 -5.592090329E+00  5.479826000E+00  3.292877724E+01  3.417845576E+01  4.750000000E+00  0.00000E+00  9.000E+00
      -5     1     1     2     0   503 -5.169117757E+01 -3.119138876E+01 -6.905637554E+02  6.932140674E+02  4.750000000E+00  0.00000E+00  9.000E+00
       2     1     1     2   503     0 -7.370476921E+00 -3.994685343E+00 -1.060901605E+02  1.064208795E+02  1.348699152E-06  0.00000E+00  9.000E+00
#rwgt            1           9   9.2099563273665840E-004           9     2019741           0
</event>
<event>
      6   9999  3.45752E-01  2.05107E+00 -1.00000E+00  3.28707E-01
      21    -1     0     0   501   502  0.000000000E+00  0.000000000E+00  1.305701079E+01  1.305701079E+01  0.000000000E+00  0.00000E+00  9.000E+00
      21    -1     0     0   502   511  0.000000000E+00  0.000000000E+00 -9.823246097E+02  9.823246097E+02  0.000000000E+00  0.00000E+00  9.000E+00
      25     1     1     2     0     0 -7.276683278E+00 -1.530006016E+01 -7.231428311E+02  7.340630900E+02  1.250040954E+02  0.00000E+00  9.000E+00
       5     1     1     2   501     0  1.966246851E+00  8.591685253E-01  5.993432628E+00  7.942797486E+00  4.750000000E+00  0.00000E+00  9.000E+00
      -5     1     1     2     0   503  5.470432430E+00  1.648570798E+01 -1.301014598E+02  1.313417548E+02  4.750000000E+00  0.00000E+00  9.000E+00
      21     1     1     2   503   511 -1.599960027E-01 -2.044816343E+00 -1.220167406E+02  1.220339783E+02  1.348699152E-06  0.00000E+00  9.000E+00
#rwgt            1           9   2.8409844122970146E-003           9     2023702           0
</event>
<event>
      6   9999  3.45752E-01  3.86127E+00 -1.00000E+00  2.51066E-01
      21    -1     0     0   501   502  0.000000000E+00  0.000000000E+00  1.949954592E+01  1.949954592E+01  0.000000000E+00  0.00000E+00  9.000E+00
      21    -1     0     0   502   512  0.000000000E+00  0.000000000E+00 -1.136696069E+03  1.136696069E+03  0.000000000E+00  0.00000E+00  9.000E+00
      25     1     1     2     0     0  2.465559071E+00  7.717528419E+00 -8.613275899E+02  8.703894356E+02  1.250076527E+02  0.00000E+00  9.000E+00
       5     1     1     2   501     0 -2.309037510E+00 -1.113845308E-01  1.438879458E+01  1.532788212E+01  4.750000000E+00  0.00000E+00  9.000E+00
      -5     1     1     2     0   503  1.501925264E+00 -4.119171373E+00 -1.227970416E+02  1.229670658E+02  4.750000000E+00  0.00000E+00  9.000E+00
      21     1     1     2   503   512 -1.658446825E+00 -3.486972515E+00 -1.474606860E+02  1.475112312E+02  1.907348633E-06  0.00000E+00  9.000E+00
#rwgt            1           9   2.0957344001664000E-005           9     2031687           0
</event>
<event>
      6   9999  3.45752E-01  5.62128E+00 -1.00000E+00  2.18080E-01
      21    -1     0     0   501   502  0.000000000E+00  0.000000000E+00  7.487289375E+00  7.487289375E+00  0.000000000E+00  0.00000E+00  9.000E+00
      21    -1     0     0   511   503  0.000000000E+00  0.000000000E+00 -8.042027632E+02  8.042027632E+02  0.000000000E+00  0.00000E+00  9.000E+00
      25     1     1     2     0     0 -1.043528530E+00 -4.675059149E-01 -6.810033523E+02  6.923800548E+02  1.249930679E+02  0.00000E+00  9.000E+00
       5     1     1     2   501     0  5.830808880E-01 -1.040502770E-01 -4.220513572E+00  6.381696059E+00  4.750000000E+00  0.00000E+00  9.000E+00
      -5     1     1     2     0   503  6.043211573E+00 -8.532965037E-02 -2.284440983E+01  2.410305474E+01  4.750000000E+00  0.00000E+00  9.000E+00
      21     1     1     2   511   502 -5.582763931E+00  6.568858423E-01 -8.864719817E+01  8.882524695E+01  0.000000000E+00  0.00000E+00  9.000E+00
#rwgt            1           9   8.4092198911879989E-005           9     2036905           0
</event>
<event>
      6   9999  3.45752E-01  1.17542E+01 -1.00000E+00  1.80091E-01
      21    -1     0     0   501   502  0.000000000E+00  0.000000000E+00  7.529905685E+01  7.529905685E+01  0.000000000E+00  0.00000E+00  9.000E+00
      21    -1     0     0   502   512  0.000000000E+00  0.000000000E+00 -1.754444860E+02  1.754444860E+02  0.000000000E+00  0.00000E+00  9.000E+00
      25     1     1     2     0     0 -4.988094744E+01  7.225273915E-01 -7.112410681E+01  1.522659973E+02  1.250506473E+02  0.00000E+00  9.000E+00
       5     1     1     2   501     0 -2.746424716E+00  2.145353649E+00  2.194820957E+01  2.272513574E+01  4.750000000E+00  0.00000E+00  9.000E+00
      -5     1     1     2     0   503  4.343330712E+01  4.455356020E+00 -3.646992227E+01  5.708695205E+01  4.750000000E+00  0.00000E+00  9.000E+00
      21     1     1     2   503   512  9.194065044E+00 -7.323237061E+00 -1.449960961E+01  1.866545772E+01  1.685873940E-07  0.00000E+00  9.000E+00
#rwgt            1           9  0.15517817787191651                9     2040149           0
</event>
<event>
      6   9999  3.45752E-01  8.08395E+00 -1.00000E+00  1.97480E-01
      21    -1     0     0   501   502  0.000000000E+00  0.000000000E+00  8.642597262E+00  8.642597262E+00  0.000000000E+00  0.00000E+00  9.000E+00
      21    -1     0     0   511   503  0.000000000E+00  0.000000000E+00 -1.152769067E+03  1.152769067E+03  0.000000000E+00  0.00000E+00  9.000E+00
      25     1     1     2     0     0 -4.881150962E+01 -1.295320144E-01 -7.215855204E+02  7.339565827E+02  1.249960869E+02  0.00000E+00  9.000E+00
       5     1     1     2   501     0 -4.106031176E-01 -3.526321185E-01 -4.947558350E+00  6.879954793E+00  4.750000000E+00  0.00000E+00  9.000E+00
      -5     1     1     2     0   503  4.122893963E+01 -7.258865697E-01 -3.275362204E+02  3.301558580E+02  4.750000000E+00  0.00000E+00  9.000E+00
      21     1     1     2   511   502  7.993173100E+00  1.208050703E+00 -9.005717069E+01  9.041926893E+01  9.536743164E-07  0.00000E+00  9.000E+00
#rwgt            1           9   4.1712667561836139E-003           9     2043146           0
</event>
<event>
      6   9999  3.45752E-01  2.04956E+00 -1.00000E+00  3.28827E-01
      21    -1     0     0   501   512  0.000000000E+00  0.000000000E+00  2.376948641E+03  2.376948641E+03  0.000000000E+00  0.00000E+00  9.000E+00
      21    -1     0     0   502   503  0.000000000E+00  0.000000000E+00 -2.507543447E+01  2.507543447E+01  0.000000000E+00  0.00000E+00  9.000E+00
      25     1     1     2     0     0 -1.437029219E+01  1.950924069E-02  1.498133377E+02  1.956391060E+02  1.249964718E+02  0.00000E+00  9.000E+00
       5     1     1     2   501     0 -6.295723288E-01 -1.118009091E+00  1.783865768E+03  1.783872554E+03  4.750000000E+00  0.00000E+00  9.000E+00
      -5     1     1     2     0   503  1.319986523E+01  1.183564971E-01  2.065956361E+01  2.497259536E+01  4.750000000E+00  0.00000E+00  9.000E+00
      21     1     1     2   502   512  1.799999279E+00  9.801433536E-01  3.975345370E+02  3.975398204E+02  5.394796609E-06  0.00000E+00  9.000E+00
#rwgt            1           9   7.9329866413848232E-003           9     2045947           0
</event>
<event>
      6   9999 -3.45752E-01  1.37167E+01 -1.00000E+00  1.73808E-01
      21    -1     0     0   501   502  0.000000000E+00  0.000000000E+00  1.480436275E+02  1.480436275E+02  0.000000000E+00  0.00000E+00  9.000E+00
      21    -1     0     0   502   511  0.000000000E+00  0.000000000E+00 -1.880499413E+02  1.880499413E+02  0.000000000E+00  0.00000E+00  9.000E+00
      25     1     1     2     0     0  1.045383029E+01 -6.913462037E+01 -8.631765233E+01  1.672254817E+02  1.249989853E+02  0.00000E+00  9.000E+00
       5     1     1     2   501     0  5.702533380E+00 -1.795357602E+00  8.333454093E+01  8.368363285E+01  4.750000000E+00  0.00000E+00  9.000E+00
      -5     1     1     2     0   503 -1.120967546E+01  5.813633003E+01 -1.865137788E+01  6.225693608E+01  4.750000000E+00  0.00000E+00  9.000E+00
      21     1     1     2   503   511 -4.946688200E+00  1.279364795E+01 -1.837182454E+01  2.292751816E+01  3.371747881E-07  0.00000E+00  9.000E+00
#rwgt            1           9  -5.6700374382276878E-003           9     2056863           0
</event>
<event>
      6   9999  3.45752E-01  1.39360E+01 -1.00000E+00  1.73188E-01
      21    -1     0     0   501   502  0.000000000E+00  0.000000000E+00  5.213566090E+01  5.213566090E+01  0.000000000E+00  0.00000E+00  9.000E+00
      21    -1     0     0   512   503  0.000000000E+00  0.000000000E+00 -2.468534008E+03  2.468534008E+03  0.000000000E+00  0.00000E+00  9.000E+00
      25     1     1     2     0     0  2.588210300E+01  4.166309462E+01 -9.108331162E+01  1.622542400E+02  1.249982881E+02  0.00000E+00  9.000E+00
       5     1     1     2   501     0 -3.623794944E+00  1.962796722E+00  1.563884565E+01  1.685587299E+01  4.750000000E+00  0.00000E+00  9.000E+00
      -5     1     1     2     0   503 -1.786029572E+01 -3.040207724E+01 -1.218925731E+03  1.219444864E+03  4.750000000E+00  0.00000E+00  9.000E+00
      21     1     1     2   512   502 -4.398012335E+00 -1.322381410E+01 -1.122028151E+03  1.122114692E+03  0.000000000E+00  0.00000E+00  9.000E+00
#rwgt            1           9   7.6189256497116188E-005           9     2059277           0
</event>
<event>
      6   9999  3.45752E-01  4.17359E+00 -1.00000E+00  2.44092E-01
      21    -1     0     0   511   502  0.000000000E+00  0.000000000E+00  9.584337907E+01  9.584337907E+01  0.000000000E+00  0.00000E+00  9.000E+00
      21    -1     0     0   502   503  0.000000000E+00  0.000000000E+00 -8.617182576E+02  8.617182576E+02  0.000000000E+00  0.00000E+00  9.000E+00
      25     1     1     2     0     0 -5.585412176E+00 -1.283269830E+00 -7.351822618E+02  7.457548592E+02  1.249980333E+02  0.00000E+00  9.000E+00
       5     1     1     2   501     0  5.967752491E-01  1.910481937E+00  6.982594421E+00  8.679009551E+00  4.750000000E+00  0.00000E+00  9.000E+00
      -5     1     1     2     0   503  9.772965767E-01  5.251766017E-01 -1.202993922E+02  1.203982441E+02  4.750000000E+00  0.00000E+00  9.000E+00
      21     1     1     2   511   501  4.011340350E+00 -1.152388708E+00  8.262418096E+01  8.272952393E+01  3.568322551E-06  0.00000E+00  9.000E+00
#rwgt            1           9   3.6594033071798468E-002           9     2062617           0
</event>
<event>
      6   9999  3.45752E-01  7.01718E+01 -1.00000E+00  1.27356E-01
      21    -1     0     0   502   503  0.000000000E+00  0.000000000E+00  1.825956087E+02  1.825956087E+02  0.000000000E+00  0.00000E+00  9.000E+00
       2    -1     0     0   501     0  0.000000000E+00  0.000000000E+00 -1.449752542E+03  1.449752542E+03  0.000000000E+00  0.00000E+00  9.000E+00
      25     1     1     2     0     0 -1.248467481E+02  2.710629895E+01  2.795570984E+01  1.809091571E+02  1.250005578E+02  0.00000E+00  9.000E+00
       5     1     1     2   501     0  2.921083467E+02 -1.743238211E+01 -7.133840011E+02  7.710839576E+02  4.750000000E+00  0.00000E+00  9.000E+00
      -5     1     1     2     0   503 -9.740623179E+01 -1.633006367E+01 -4.611278431E+00  9.898722827E+01  4.750000000E+00  0.00000E+00  9.000E+00
       2     1     1     2   502     0 -6.985536679E+01  6.656146833E+00 -5.771173631E+02  5.813678073E+02  7.629394531E-06  0.00000E+00  9.000E+00
#rwgt            1           9   4.6060594604647289E-003           9     2067446           0
</event>
<event>
      6   9999  3.45752E-01  4.22601E+00 -1.00000E+00  2.43011E-01
      -4    -1     0     0     0   502  0.000000000E+00  0.000000000E+00  2.082911354E+02  2.082911354E+02  0.000000000E+00  0.00000E+00  9.000E+00
      21    -1     0     0   502   503  0.000000000E+00  0.000000000E+00 -8.048213193E+02  8.048213193E+02  0.000000000E+00  0.00000E+00  9.000E+00
      25     1     1     2     0     0  9.535571848E+00 -4.240242791E+01 -5.692811482E+02  5.844614407E+02  1.250010277E+02  0.00000E+00  9.000E+00
       5     1     1     2   501     0  1.286557823E+00  6.360211435E-01  3.912499596E-01  4.977482341E+00  4.750000000E+00  0.00000E+00  9.000E+00
      -5     1     1     2     0   503 -6.771454011E+00  4.297105173E+01 -2.235124005E+02  2.277558332E+02  4.750000000E+00  0.00000E+00  9.000E+00
      -4     1     1     2     0   501 -4.050675660E+00 -1.204644959E+00  1.958721150E+02  1.959176984E+02  2.697398305E-06  0.00000E+00  9.000E+00
#rwgt            1           9   2.5286802466120657E-002           9     2068779           0
</event>
<event>
      6   9999  3.45752E-01  1.12897E+01 -1.00000E+00  1.81810E-01
      21    -1     0     0   501   502  0.000000000E+00  0.000000000E+00  1.785787304E+01  1.785787304E+01  0.000000000E+00  0.00000E+00  9.000E+00
      21    -1     0     0   502   511  0.000000000E+00  0.000000000E+00 -1.149940045E+03  1.149940045E+03  0.000000000E+00  0.00000E+00  9.000E+00
      25     1     1     2     0     0  3.344568778E+01 -4.298007417E+01 -7.817204644E+02  7.935226628E+02  1.250017242E+02  0.00000E+00  9.000E+00
       5     1     1     2   501     0  8.179041551E-01  4.199863755E-01  8.578930338E+00  9.849157401E+00  4.750000000E+00  0.00000E+00  9.000E+00
      -5     1     1     2     0   503 -3.781871904E+01  3.184471393E+01 -2.488577024E+02  2.537657578E+02  4.750000000E+00  0.00000E+00  9.000E+00
      21     1     1     2   503   511  3.555127109E+00  1.071537386E+01 -1.100829356E+02  1.106603401E+02  2.336015456E-06  0.00000E+00  9.000E+00
#rwgt            1           9   3.8505956877647937E-005           9     2073140           0
</event>
<event>
      6   9999 -3.45752E-01  9.34349E+00 -1.00000E+00  1.90355E-01
      21    -1     0     0   501   502  0.000000000E+00  0.000000000E+00  2.866736685E+03  2.866736685E+03  0.000000000E+00  0.00000E+00  9.000E+00
      21    -1     0     0   502   512  0.000000000E+00  0.000000000E+00 -6.305292837E+01  6.305292837E+01  0.000000000E+00  0.00000E+00  9.000E+00
      25     1     1     2     0     0 -7.912562005E-02  1.129135659E+01  4.519247550E+02  4.690234386E+02  1.249780012E+02  0.00000E+00  9.000E+00
       5     1     1     2   501     0 -1.650078307E+00 -1.768261221E+00  2.367132957E+03  2.367138958E+03  4.750000000E+00  0.00000E+00  9.000E+00
      -5     1     1     2     0   503  7.661511354E-01 -2.293745389E-01  3.857528163E+01  3.887485631E+01  4.750000000E+00  0.00000E+00  9.000E+00
      21     1     1     2   503   512  9.630527912E-01 -9.293720827E+00 -5.394923722E+01  5.475235990E+01  2.132480600E-06  0.00000E+00  9.000E+00
#rwgt            1           9  -1.9556985024219478E-004           9     2076267           0
</event>
<event>
      6   9999  3.45752E-01  1.36307E+01 -1.00000E+00  1.74055E-01
      21    -1     0     0   511   502  0.000000000E+00  0.000000000E+00  1.615246875E+02  1.615246875E+02  0.000000000E+00  0.00000E+00  9.000E+00
      21    -1     0     0   502   503  0.000000000E+00  0.000000000E+00 -7.327227170E+02  7.327227170E+02  0.000000000E+00  0.00000E+00  9.000E+00
      25     1     1     2     0     0  4.789866807E+01 -1.248468615E+02 -2.634260025E+02  3.207819222E+02  1.250070461E+02  0.00000E+00  9.000E+00
       5     1     1     2   501     0  1.026425006E+01  2.931416651E+00  1.200092225E+02  1.205766313E+02  4.750000000E+00  0.00000E+00  9.000E+00
      -5     1     1     2     0   503 -5.850360623E+01  1.082890219E+02 -4.188671528E+02  4.366021512E+02  4.750000000E+00  0.00000E+00  9.000E+00
      21     1     1     2   511   501  3.406880905E-01  1.362642296E+01 -8.914096650E+00  1.628669979E+01  2.064765462E-07  0.00000E+00  9.000E+00
#rwgt            1           9   2.5859996943227630E-004           9     2079385           0
</event>
<event>
      6   9999  3.45752E-01  3.40903E+01 -1.00000E+00  1.44335E-01
      21    -1     0     0   501   502  0.000000000E+00  0.000000000E+00  9.439085134E+02  9.439085134E+02  0.000000000E+00  0.00000E+00  9.000E+00
      21    -1     0     0   502   512  0.000000000E+00  0.000000000E+00 -2.041907725E+01  2.041907725E+01  0.000000000E+00  0.00000E+00  9.000E+00
      25     1     1     2     0     0 -3.132385650E+01  8.034914532E+01  4.787240084E+02  5.022352660E+02  1.250056678E+02  0.00000E+00  9.000E+00
       5     1     1     2   501     0 -1.100062389E+00  3.054909896E+00  2.150449554E+02  2.151219142E+02  4.750000000E+00  0.00000E+00  9.000E+00
      -5     1     1     2     0   503  2.375180815E+01 -5.043521323E+01  1.565632057E+02  1.662602147E+02  4.750000000E+00  0.00000E+00  9.000E+00
      21     1     1     2   503   512  8.672110746E+00 -3.296884199E+01  7.315726661E+01  8.071019579E+01  9.536743164E-07  0.00000E+00  9.000E+00
#rwgt            1           9  0.18603769271589793                9     2083698           0
</event>
<event>
      6   9999  3.45752E-01  1.01153E+01 -1.00000E+00  1.86671E-01
      21    -1     0     0   502   511  0.000000000E+00  0.000000000E+00  4.214640328E+02  4.214640328E+02  0.000000000E+00  0.00000E+00  9.000E+00
      21    -1     0     0   501   502  0.000000000E+00  0.000000000E+00 -7.178350449E+02  7.178350449E+02  0.000000000E+00  0.00000E+00  9.000E+00
      25     1     1     2     0     0 -1.049132081E+01 -7.254602751E+00 -6.366653159E+02  6.489485962E+02  1.250154349E+02  0.00000E+00  9.000E+00
       5     1     1     2   501     0  1.314314891E+01 -2.718793642E+00 -4.346185732E+01  4.573433878E+01  4.750000000E+00  0.00000E+00  9.000E+00
      -5     1     1     2     0   503 -1.723920302E+00 -9.926857535E-02 -3.015791207E+01  3.057848780E+01  4.750000000E+00  0.00000E+00  9.000E+00
      21     1     1     2   503   511 -9.279077922E-01  1.007266497E+01  4.139140733E+02  4.140376549E+02  5.394796609E-06  0.00000E+00  9.000E+00
#rwgt            1           9   5.8512647080084953E-004           9     2084778           0
</event>
<event>
      6   9999  3.45752E-01  8.01078E+00 -1.00000E+00  1.97946E-01
      21    -1     0     0   501   512  0.000000000E+00  0.000000000E+00  1.932318842E+01  1.932318842E+01  0.000000000E+00  0.00000E+00  9.000E+00
      21    -1     0     0   502   503  0.000000000E+00  0.000000000E+00 -7.473564600E+02  7.473564600E+02  0.000000000E+00  0.00000E+00  9.000E+00
      25     1     1     2     0     0  1.458404539E+00  3.359546101E+00 -6.955651427E+02  7.067174554E+02  1.250011223E+02  0.00000E+00  9.000E+00
       5     1     1     2   501     0  2.602533822E+00  9.629449380E-01  3.891055177E+00  6.738193796E+00  4.750000000E+00  0.00000E+00  9.000E+00
      -5     1     1     2     0   503  3.751931282E+00 -6.092124505E+00 -4.235562997E+01  4.321750640E+01  4.750000000E+00  0.00000E+00  9.000E+00
      21     1     1     2   502   512 -7.812869643E+00  1.769633467E+00  5.996445907E+00  1.000649280E+01  1.192092896E-07  0.00000E+00  9.000E+00
#rwgt            1           9   3.1591882163433976E-002           9     2086977           0
</event>
<event>
      6   9999  3.45752E-01  1.57517E+01 -1.00000E+00  1.68551E-01
      21    -1     0     0   501   502  0.000000000E+00  0.000000000E+00  4.958588530E+00  4.958588530E+00  0.000000000E+00  0.00000E+00  9.000E+00
      21    -1     0     0   502   511  0.000000000E+00  0.000000000E+00 -1.229624650E+03  1.229624650E+03  0.000000000E+00  0.00000E+00  9.000E+00
      25     1     1     2     0     0 -1.492983429E+00 -1.433634693E+01 -9.792159199E+02  9.872670625E+02  1.249987000E+02  0.00000E+00  9.000E+00
       5     1     1     2   501     0  6.158630024E+00 -1.175779241E+00 -3.760890940E+01  3.842269833E+01  4.750000000E+00  0.00000E+00  9.000E+00
      -5     1     1     2     0   503 -1.992667586E+00 -1.110012412E-02 -4.599640514E+01  4.628393493E+01  4.750000000E+00  0.00000E+00  9.000E+00
      21     1     1     2   503   511 -2.672979009E+00  1.552322630E+01 -1.618448272E+02  1.626095429E+02  1.907348633E-06  0.00000E+00  9.000E+00
#rwgt            1           9   397.31181701901221                9     2089958           0
</event>
<event>
      6   9999  3.45752E-01  1.76210E+01 -1.00000E+00  1.64525E-01
      21    -1     0     0   501   502  0.000000000E+00  0.000000000E+00  1.252905184E+02  1.252905184E+02  0.000000000E+00  0.00000E+00  9.000E+00
       2    -1     0     0   502     0  0.000000000E+00  0.000000000E+00 -3.340221671E+02  3.340221671E+02  0.000000000E+00  0.00000E+00  9.000E+00
      25     1     1     2     0     0 -6.117545176E+01  4.391843156E+01  2.727282956E+01  1.484511668E+02  1.249907083E+02  0.00000E+00  9.000E+00
       5     1     1     2   501     0  1.189879519E+00 -4.565165315E-01  1.764079345E+01  1.831350087E+01  4.750000000E+00  0.00000E+00  9.000E+00
      -5     1     1     2     0   503  7.730851016E+01 -4.668906739E+01 -8.873903622E+01  1.267030142E+02  4.750000000E+00  0.00000E+00  9.000E+00
       2     1     1     2   503     0 -1.732293793E+01  3.227152356E+00 -1.649062355E+02  1.658450035E+02  1.907348633E-06  0.00000E+00  9.000E+00
#rwgt            1           9   1.4622310359630224E-002           9     2091272           0
</event>
<event>
      6   9999  3.45752E-01  1.22872E+01 -1.00000E+00  1.78239E-01
      21    -1     0     0   501   502  0.000000000E+00  0.000000000E+00  1.666492279E+01  1.666492279E+01  0.000000000E+00  0.00000E+00  9.000E+00
      21    -1     0     0   502   511  0.000000000E+00  0.000000000E+00 -9.100359074E+02  9.100359074E+02  0.000000000E+00  0.00000E+00  9.000E+00
      25     1     1     2     0     0  2.224487614E+01 -2.403219007E+01 -5.895538239E+02  6.035485147E+02  1.249988708E+02  0.00000E+00  9.000E+00
       5     1     1     2   501     0 -1.220484237E+01 -2.888305769E+00 -2.436426968E+00  1.363081670E+01  4.750000000E+00  0.00000E+00  9.000E+00
      -5     1     1     2     0   503 -1.969672394E-02  3.403165561E+01 -7.166070731E+01  7.947309887E+01  4.750000000E+00  0.00000E+00  9.000E+00
      21     1     1     2   503   511 -1.002033705E+01 -7.111159770E+00 -2.297200264E+02  2.300483999E+02  0.000000000E+00  0.00000E+00  9.000E+00
#rwgt            1           9   1583.1341561387480                9     2093359           0
</event>
<event>
      6   9999  3.45752E-01  4.48102E+00 -1.00000E+00  2.38066E-01
      21    -1     0     0   501   502  0.000000000E+00  0.000000000E+00  8.937209920E+00  8.937209920E+00  0.000000000E+00  0.00000E+00  9.000E+00
      21    -1     0     0   512   503  0.000000000E+00  0.000000000E+00 -8.842021055E+02  8.842021055E+02  0.000000000E+00  0.00000E+00  9.000E+00
      25     1     1     2     0     0  5.802849953E+00 -2.183936924E+00 -6.740787932E+02  6.856014267E+02  1.250146161E+02  0.00000E+00  9.000E+00
       5     1     1     2   501     0 -1.140350173E+00 -6.025901083E-02  6.674257046E-01  4.930718683E+00  4.750000000E+00  0.00000E+00  9.000E+00
      -5     1     1     2     0   503 -8.959936368E+00  9.747254274E-01 -7.672611145E+01  7.739954281E+01  4.750000000E+00  0.00000E+00  9.000E+00
      21     1     1     2   512   502  4.297436587E+00  1.269470508E+00 -1.251274166E+02  1.252076272E+02  1.348699152E-06  0.00000E+00  9.000E+00
#rwgt            1           9   3.1180641912741400E-003           9     2095623           0
</event>
<event>
      6   9999  3.45752E-01  2.91935E+01 -1.00000E+00  1.48608E-01
       2    -1     0     0   501     0  0.000000000E+00  0.000000000E+00  2.654725219E+03  2.654725219E+03  0.000000000E+00  0.00000E+00  9.000E+00
      21    -1     0     0   502   503  0.000000000E+00  0.000000000E+00 -9.150751556E+00  9.150751556E+00  0.000000000E+00  0.00000E+00  9.000E+00
      25     1     1     2     0     0  7.929188415E+00 -7.359087822E-01  4.544170045E+02  4.713624770E+02  1.249974284E+02  0.00000E+00  9.000E+00
       5     1     1     2   501     0  1.181084033E+00  6.082817646E-01  8.080949656E+01  8.095988019E+01  4.750000000E+00  0.00000E+00  9.000E+00
      -5     1     1     2     0   503  1.294619073E+01  1.925278343E+01  2.880639077E+02  2.890357260E+02  4.750000000E+00  0.00000E+00  9.000E+00
       2     1     1     2   502     0 -2.205646317E+01 -1.912515641E+01  1.822284058E+03  1.822517887E+03  3.051757812E-05  0.00000E+00  9.000E+00
#rwgt            1           9   1.7714964032553217E-003           9     2100006           0
</event>
<event>
      6   9999  3.45752E-01  1.12468E+01 -1.00000E+00  1.81974E-01
      21    -1     0     0   511   502  0.000000000E+00  0.000000000E+00  2.898368602E+01  2.898368602E+01  0.000000000E+00  0.00000E+00  9.000E+00
      21    -1     0     0   502   503  0.000000000E+00  0.000000000E+00 -1.130484892E+03  1.130484892E+03  0.000000000E+00  0.00000E+00  9.000E+00
      25     1     1     2     0     0  2.794924868E+01  5.183298827E+01 -6.331385055E+02  6.480407141E+02  1.249983236E+02  0.00000E+00  9.000E+00
       5     1     1     2   501     0  3.745310150E+00  6.443783617E+00  1.777588303E+01  1.985180629E+01  4.750000000E+00  0.00000E+00  9.000E+00
      -5     1     1     2     0   503 -2.560749052E+01 -4.881961362E+01 -4.570792423E+02  4.604162188E+02  4.750000000E+00  0.00000E+00  9.000E+00
      21     1     1     2   511   501 -6.087068311E+00 -9.457158269E+00 -2.905934114E+01  3.115983875E+01  4.768371582E-07  0.00000E+00  9.000E+00
#rwgt            1           9   2.4956531023065165E-004           9     2100924           0
</event>
<event>
      6   9999  3.45752E-01  4.55500E+01 -1.00000E+00  1.36990E-01
      21    -1     0     0   501   502  0.000000000E+00  0.000000000E+00  8.773957744E+01  8.773957744E+01  0.000000000E+00  0.00000E+00  9.000E+00
      21    -1     0     0   502   512  0.000000000E+00  0.000000000E+00 -1.643368878E+03  1.643368878E+03  0.000000000E+00  0.00000E+00  9.000E+00
      25     1     1     2     0     0 -1.165027155E+02 -1.660881778E+01 -2.838358555E+02  3.317197991E+02  1.250059866E+02  0.00000E+00  9.000E+00
       5     1     1     2   501     0 -2.152875894E+00 -2.635447776E+00  5.824727530E+01  5.853962794E+01  4.750000000E+00  0.00000E+00  9.000E+00
      -5     1     1     2     0   503  9.541840177E+01 -1.993267169E+01 -1.180441864E+03  1.184469307E+03  4.750000000E+00  0.00000E+00  9.000E+00
      21     1     1     2   503   512  2.323718961E+01  3.917693724E+01 -1.495988561E+02  1.563797210E+02  0.000000000E+00  0.00000E+00  9.000E+00
#rwgt            1           9   2.1212256212098631E-003           9     2104460           0
</event>
<event>
      6   9999  3.45752E-01  2.60288E+00 -1.00000E+00  2.94102E-01
      21    -1     0     0   501   502  0.000000000E+00  0.000000000E+00  2.685963036E+01  2.685963036E+01  0.000000000E+00  0.00000E+00  9.000E+00
      21    -1     0     0   511   503  0.000000000E+00  0.000000000E+00 -2.559946868E+02  2.559946868E+02  0.000000000E+00  0.00000E+00  9.000E+00
      25     1     1     2     0     0 -2.823419048E+00 -7.152741285E-01 -2.060721630E+02  2.410359440E+02  1.249964265E+02  0.00000E+00  9.000E+00
       5     1     1     2   501     0 -1.052874682E+00  1.290211069E+00  8.055070940E+00  9.498413423E+00  4.750000000E+00  0.00000E+00  9.000E+00
      -5     1     1     2     0   503  1.346906346E+00  3.922110386E-02 -1.129730875E+01  1.232912730E+01  4.750000000E+00  0.00000E+00  9.000E+00
      21     1     1     2   511   502  2.529387384E+00 -6.141580440E-01 -1.982065572E+01  1.999083249E+01  2.384185791E-07  0.00000E+00  9.000E+00
#rwgt            1           9   5.9131774203039205E-004           9     2106324           0
</event>
<event>
      6   9999  3.45752E-01  1.05536E+01 -1.00000E+00  1.84762E-01
      21    -1     0     0   502   503  0.000000000E+00  0.000000000E+00  8.429619149E+00  8.429619149E+00  0.000000000E+00  0.00000E+00  9.000E+00
      21    -1     0     0   512   502  0.000000000E+00  0.000000000E+00 -8.126532114E+02  8.126532114E+02  0.000000000E+00  0.00000E+00  9.000E+00
      25     1     1     2     0     0 -9.723534143E+00  2.347337867E+01 -5.647815113E+02  5.790063907E+02  1.249987930E+02  0.00000E+00  9.000E+00
       5     1     1     2   501     0 -1.943747321E+00 -5.626225028E+00 -2.830896698E+01  2.931539993E+01  4.750000000E+00  0.00000E+00  9.000E+00
      -5     1     1     2     0   503  3.522901528E+00 -1.113540896E+01 -6.281290002E+01  6.406583393E+01  4.750000000E+00  0.00000E+00  9.000E+00
      21     1     1     2   512   501  8.144379936E+00 -6.711744675E+00 -1.483202139E+02  1.486952060E+02  2.697398305E-06  0.00000E+00  9.000E+00
#rwgt            1           9   2.8360571675147006E-004           9     2112180           0
</event>
<event>
      6   9999  3.45752E-01  1.43889E+01 -1.00000E+00  1.71952E-01
      21    -1     0     0   501   502  0.000000000E+00  0.000000000E+00  1.484944921E+03  1.484944921E+03  0.000000000E+00  0.00000E+00  9.000E+00
      21    -1     0     0   511   503  0.000000000E+00  0.000000000E+00 -2.133237619E+01  2.133237619E+01  0.000000000E+00  0.00000E+00  9.000E+00
      25     1     1     2     0     0 -1.182832004E+01 -8.809056099E+00  2.083495217E+02  2.434193437E+02  1.250037803E+02  0.00000E+00  9.000E+00
       5     1     1     2   501     0  1.940095058E+00 -7.747973326E-01  1.210832053E+03  1.210843172E+03  4.750000000E+00  0.00000E+00  9.000E+00
      -5     1     1     2     0   503 -2.124609795E+00  1.663559144E+00  1.612093574E-01  5.465334780E+00  4.750000000E+00  0.00000E+00  9.000E+00
      21     1     1     2   511   502  1.201283478E+01  7.920294288E+00  4.426976118E+01  4.654944700E+01  4.768371582E-07  0.00000E+00  9.000E+00
#rwgt            1           9   8.6179430567949944E-004           9     2114347           0
</event>
<event>
      6   9999  3.45752E-01  4.02005E+00 -1.00000E+00  2.47401E-01
      21    -1     0     0   512   502  0.000000000E+00  0.000000000E+00  7.083776960E+00  7.083776960E+00  0.000000000E+00  0.00000E+00  9.000E+00
      21    -1     0     0   502   503  0.000000000E+00  0.000000000E+00 -3.861861818E+03  3.861861818E+03  0.000000000E+00  0.00000E+00  9.000E+00
      25     1     1     2     0     0 -1.035209500E+00 -1.018363501E+00 -2.790025616E+03  2.792824975E+03  1.250051850E+02  0.00000E+00  9.000E+00
       5     1     1     2   501     0 -3.663297014E+00 -3.218451244E+00  1.449388493E+00  6.959985663E+00  4.750000000E+00  0.00000E+00  9.000E+00
      -5     1     1     2     0   503  3.584930819E+00  8.099553040E+00 -1.064882066E+03  1.064929496E+03  4.750000000E+00  0.00000E+00  9.000E+00
      21     1     1     2   512   501  1.113575694E+00 -3.862738294E+00 -1.319748094E+00  4.231138498E+00  6.878786616E-07  0.00000E+00  9.000E+00
#rwgt            1           9   6.0544661414122770E-002           9     2116914           0
</event>
<event>
      6   9999  3.45752E-01  5.47759E+00 -1.00000E+00  2.19721E-01
      21    -1     0     0   501   502  0.000000000E+00  0.000000000E+00  1.790863089E+01  1.790863089E+01  0.000000000E+00  0.00000E+00  9.000E+00
       2    -1     0     0   502     0  0.000000000E+00  0.000000000E+00 -3.196396067E+03  3.196396067E+03  0.000000000E+00  0.00000E+00  9.000E+00
      25     1     1     2     0     0  1.749491129E+01 -9.776690415E+00 -6.607575825E+02  6.727780051E+02  1.250120222E+02  0.00000E+00  9.000E+00
       5     1     1     2   501     0 -2.726298319E-01  2.513907016E+00  1.097887209E+01  1.222669980E+01  4.750000000E+00  0.00000E+00  9.000E+00
      -5     1     1     2     0   503 -1.748664690E+01  1.791576060E+00 -2.832887202E+02  2.838733064E+02  4.750000000E+00  0.00000E+00  9.000E+00
       2     1     1     2   503     0  2.643654394E-01  5.471207339E+00 -2.245420005E+03  2.245426686E+03  5.285799584E-05  0.00000E+00  9.000E+00
#rwgt            1           9   1.4794349000418223E-003           9     2122211           0
</event>
<event>
      6   9999  3.45752E-01  3.18335E+00 -1.00000E+00  2.70343E-01
      21    -1     0     0   511   502  0.000000000E+00  0.000000000E+00  1.909954578E+01  1.909954578E+01  0.000000000E+00  0.00000E+00  9.000E+00
      21    -1     0     0   502   503  0.000000000E+00  0.000000000E+00 -9.684504204E+02  9.684504204E+02  0.000000000E+00  0.00000E+00  9.000E+00
      25     1     1     2     0     0 -3.559696477E+00 -3.021009862E+00 -8.836017823E+02  8.924117342E+02  1.249991831E+02  0.00000E+00  9.000E+00
       5     1     1     2   501     0  3.311183437E+00  2.605074371E+00  1.334113827E+01  1.477493887E+01  4.750000000E+00  0.00000E+00  9.000E+00
      -5     1     1     2     0   503  3.046794462E+00 -1.101729363E+00 -7.480191760E+01  7.502257087E+01  4.750000000E+00  0.00000E+00  9.000E+00
      21     1     1     2   511   501 -2.798281422E+00  1.517664855E+00 -4.288313024E+00  5.340722247E+00  8.429369702E-08  0.00000E+00  9.000E+00
#rwgt            1           9   1.4163962479453834E-004           9     2126314           0
</event>
<event>
      6   9999  3.45752E-01  3.44548E+00 -1.00000E+00  2.62076E-01
       1    -1     0     0   512     0  0.000000000E+00  0.000000000E+00  8.043774452E+01  8.043774452E+01  0.000000000E+00  0.00000E+00  9.000E+00
      -1    -1     0     0     0   502  0.000000000E+00  0.000000000E+00 -1.439013071E+03  1.439013071E+03  0.000000000E+00  0.00000E+00  9.000E+00
      25     1     1     2     0     0  1.244081309E+02 -1.418731542E+02 -3.158987243E+02  3.886160992E+02  1.250003745E+02  0.00000E+00  9.000E+00
       5     1     1     2   501     0  1.342909789E+02  6.358674217E+01 -4.606371543E+02  4.840314981E+02  4.750000000E+00  0.00000E+00  9.000E+00
      -5     1     1     2     0   502 -2.621311765E+02  7.798271330E+01 -5.823052387E+02  6.433475039E+02  4.750000000E+00  0.00000E+00  9.000E+00
      21     1     1     2   512   501  3.432066717E+00  3.036987471E-01  2.657910044E-01  3.455714071E+00  2.660389404E-08  0.00000E+00  9.000E+00
#rwgt            1           2   6.8969131645062135E-003           9     2132634           0
</event>
<event>
      6   9999  3.45752E-01  7.13572E+00 -1.00000E+00  2.04081E-01
      21    -1     0     0   511   503  0.000000000E+00  0.000000000E+00  1.325237709E+01  1.325237709E+01  0.000000000E+00  0.00000E+00  9.000E+00
      21    -1     0     0   501   502  0.000000000E+00  0.000000000E+00 -8.145459291E+02  8.145459291E+02  0.000000000E+00  0.00000E+00  9.000E+00
      25     1     1     2     0     0  6.795922671E+00 -3.019415956E+01 -4.245782334E+02  4.436770416E+02  1.249990763E+02  0.00000E+00  9.000E+00
       5     1     1     2   501     0  6.199456264E+00  1.988611696E+01 -2.323257525E+02  2.333060408E+02  4.750000000E+00  0.00000E+00  9.000E+00
      -5     1     1     2     0   503 -1.974376017E+01  7.989025517E+00 -1.414076050E+02  1.430814937E+02  4.750000000E+00  0.00000E+00  9.000E+00
      21     1     1     2   511   502  6.748381232E+00  2.319017083E+00 -2.981961093E+00  7.733730112E+00  1.397852826E-07  0.00000E+00  9.000E+00
#rwgt            1           9   7.4887905967589634E-005           9     2134462           0
</event>
<event>
      6   9999  3.45752E-01  2.58192E+01 -1.00000E+00  1.52182E-01
      21    -1     0     0   501   502  0.000000000E+00  0.000000000E+00  1.309735146E+02  1.309735146E+02  0.000000000E+00  0.00000E+00  9.000E+00
      21    -1     0     0   512   503  0.000000000E+00  0.000000000E+00 -4.997555022E+02  4.997555022E+02  0.000000000E+00  0.00000E+00  9.000E+00
      25     1     1     2     0     0 -1.349380362E+02 -9.821474662E+01 -3.019431311E+02  3.669435619E+02  1.249940525E+02  0.00000E+00  9.000E+00
       5     1     1     2   501     0 -4.896553668E+00  6.496151565E+00  4.351757640E+01  4.452547786E+01  4.750000000E+00  0.00000E+00  9.000E+00
      -5     1     1     2     0   503  1.175917355E+02  1.048291709E+02 -7.260873823E+01  1.735268357E+02  4.750000000E+00  0.00000E+00  9.000E+00
      21     1     1     2   512   502  2.224285428E+01 -1.311057585E+01 -3.774769457E+01  4.573314128E+01  4.768371582E-07  0.00000E+00  9.000E+00
#rwgt            1           9   4.3931622799376442E-003           9     2137267           0
</event>
<event>
      6   9999  3.45752E-01  1.15808E+01 -1.00000E+00  1.80721E-01
      21    -1     0     0   511   503  0.000000000E+00  0.000000000E+00  6.382952274E+01  6.382952274E+01  0.000000000E+00  0.00000E+00  9.000E+00
      21    -1     0     0   501   502  0.000000000E+00  0.000000000E+00 -9.503399531E+02  9.503399531E+02  0.000000000E+00  0.00000E+00  9.000E+00
      25     1     1     2     0     0 -1.241186828E+01  2.103271928E+01 -9.114151500E+02  9.202707234E+02  1.249967956E+02  0.00000E+00  9.000E+00
       5     1     1     2   501     0 -1.148893459E+00  1.581558532E+00 -1.811251241E+00  5.446504808E+00  4.750000000E+00  0.00000E+00  9.000E+00
      -5     1     1     2     0   503  3.690801616E+00 -1.655626445E+01 -2.769507311E+01  3.282242349E+01  4.750000000E+00  0.00000E+00  9.000E+00
      21     1     1     2   511   502  9.869960120E+00 -6.058013367E+00  5.441104395E+01  5.562982421E+01  1.507891493E-06  0.00000E+00  9.000E+00
#rwgt            1           9   3.5270513793264060E-003           9     2139231           0
</event>
<event>
      6   9999  3.45752E-01  2.68431E+01 -1.00000E+00  1.51031E-01
      21    -1     0     0   512   503  0.000000000E+00  0.000000000E+00  4.603745738E+01  4.603745738E+01  0.000000000E+00  0.00000E+00  9.000E+00
      21    -1     0     0   501   502  0.000000000E+00  0.000000000E+00 -6.798464692E+02  6.798464692E+02  0.000000000E+00  0.00000E+00  9.000E+00
      25     1     1     2     0     0 -1.760743739E+01 -3.960906978E+00 -6.207813023E+02  6.334981217E+02  1.249989370E+02  0.00000E+00  9.000E+00
       5     1     1     2   501     0 -4.011299223E+00 -1.056257678E+00 -2.360712744E+01  2.443491697E+01  4.750000000E+00  0.00000E+00  9.000E+00
      -5     1     1     2     0   503 -3.666776151E+00 -3.993772296E+00 -2.349349615E+01  2.457442423E+01  4.750000000E+00  0.00000E+00  9.000E+00
      21     1     1     2   512   502  2.528551276E+01  9.010936952E+00  3.407291400E+01  4.337646377E+01  1.066240300E-06  0.00000E+00  9.000E+00
#rwgt            1           9   9.7330668948050383E-002           9     2141077           0
</event>
<event>
      6   9999  3.45752E-01  9.74868E+00 -1.00000E+00  1.88366E-01
      21    -1     0     0   502   511  0.000000000E+00  0.000000000E+00  1.112308459E+01  1.112308459E+01  0.000000000E+00  0.00000E+00  9.000E+00
      21    -1     0     0   501   502  0.000000000E+00  0.000000000E+00 -7.676753554E+02  7.676753554E+02  0.000000000E+00  0.00000E+00  9.000E+00
      25     1     1     2     0     0 -1.626880749E+01 -3.298604154E+01 -6.418775332E+02  6.549693975E+02  1.250015639E+02  0.00000E+00  9.000E+00
       5     1     1     2   501     0  1.895495290E+01  2.380527875E+01 -7.338752778E+01  7.958814779E+01  4.750000000E+00  0.00000E+00  9.000E+00
      -5     1     1     2     0   503 -4.640425578E-01 -3.112912280E-01 -2.325947400E+01  2.374611270E+01  4.750000000E+00  0.00000E+00  9.000E+00
      21     1     1     2   503   511 -2.222102850E+00  9.492054017E+00 -1.802773585E+01  2.049478203E+01  3.371747881E-07  0.00000E+00  9.000E+00
#rwgt            1           9   8.4650712952860484E-003           9     2141933           0
</event>
<event>
      6   9999  3.45752E-01  3.95860E+01 -1.00000E+00  1.40448E-01
       2    -1     0     0   501     0  0.000000000E+00  0.000000000E+00  7.134050053E+02  7.134050053E+02  0.000000000E+00  0.00000E+00  9.000E+00
      21    -1     0     0   502   503  0.000000000E+00  0.000000000E+00 -3.504348209E+01  3.504348209E+01  0.000000000E+00  0.00000E+00  9.000E+00
      25     1     1     2     0     0 -7.665894617E+01 -7.369451472E+01  3.038214183E+02  3.453113544E+02  1.250000070E+02  0.00000E+00  9.000E+00
       5     1     1     2   501     0  4.397077929E+01  4.684231473E+01  1.534840460E+02  1.664558402E+02  4.750000000E+00  0.00000E+00  9.000E+00
      -5     1     1     2     0   503 -4.862110325E+00  3.938313249E+01  7.083133274E+01  8.132841717E+01  4.750000000E+00  0.00000E+00  9.000E+00
       2     1     1     2   502     0  3.755027720E+01 -1.253093249E+01  1.502247263E+02  1.553528756E+02  1.907348633E-06  0.00000E+00  9.000E+00
#rwgt            1           9   9.5274683122707933E-003           9     2144408           0
</event>
<event>
      6   9999  3.45752E-01  5.81293E+00 -1.00000E+00  2.15992E-01
      21    -1     0     0   501   511  0.000000000E+00  0.000000000E+00  2.539660073E+02  2.539660073E+02  0.000000000E+00  0.00000E+00  9.000E+00
      21    -1     0     0   502   503  0.000000000E+00  0.000000000E+00 -3.086448772E+02  3.086448772E+02  0.000000000E+00  0.00000E+00  9.000E+00
      25     1     1     2     0     0  8.129368529E-01  1.630428699E+01 -2.706881463E+02  2.986016987E+02  1.249976450E+02  0.00000E+00  9.000E+00
       5     1     1     2   501     0  2.905161458E-01 -1.993349677E-01 -2.228302292E+00  5.258513589E+00  4.750000000E+00  0.00000E+00  9.000E+00
      -5     1     1     2     0   503  4.492774631E+00 -1.453257664E+01 -1.708100140E+01  2.336030643E+01  4.750000000E+00  0.00000E+00  9.000E+00
      21     1     1     2   502   511 -5.596227629E+00 -1.572375385E+00  2.353185801E+02  2.353903657E+02  0.000000000E+00  0.00000E+00  9.000E+00
#rwgt            1           9   1.4475288443785712E-003           9     2145742           0
</event>
<event>
      6   9999  3.45752E-01  8.65165E+00 -1.00000E+00  1.94072E-01
       2    -1     0     0   501     0  0.000000000E+00  0.000000000E+00  1.028791732E+03  1.028791732E+03  0.000000000E+00  0.00000E+00  9.000E+00
      21    -1     0     0   502   503  0.000000000E+00  0.000000000E+00 -2.521618865E+03  2.521618865E+03  0.000000000E+00  0.00000E+00  9.000E+00
      25     1     1     2     0     0 -4.720115295E+01 -1.795557939E+02 -5.808089067E+02  6.224426704E+02  1.250106392E+02  0.00000E+00  9.000E+00
       5     1     1     2   501     0  2.176129739E+00  1.234699950E+00  2.729736466E+01  2.782029191E+01  4.750000000E+00  0.00000E+00  9.000E+00
      -5     1     1     2     0   503  5.222780739E+01  1.831138956E+02 -1.914987637E+03  1.924437231E+03  4.750000000E+00  0.00000E+00  9.000E+00
       2     1     1     2   502     0 -7.202784172E+00 -4.792801636E+00  9.756720461E+02  9.757104041E+02  0.000000000E+00  0.00000E+00  9.000E+00
#rwgt            1           9   6.5993939669274117E-004           9     2148848           0
</event>
<event>
      6   9999  3.45752E-01  2.56612E+01 -1.00000E+00  1.52365E-01
      21    -1     0     0   501   502  0.000000000E+00  0.000000000E+00  5.722176938E+01  5.722176938E+01  0.000000000E+00  0.00000E+00  9.000E+00
      21    -1     0     0   502   511  0.000000000E+00  0.000000000E+00 -1.692634207E+03  1.692634207E+03  0.000000000E+00  0.00000E+00  9.000E+00
      25     1     1     2     0     0  9.202133103E+01 -7.865976293E+01 -4.947455496E+02  5.244544090E+02  1.249959385E+02  0.00000E+00  9.000E+00
       5     1     1     2   501     0 -1.364320511E+00 -1.019542065E+00  3.889197102E+01  3.921796459E+01  4.750000000E+00  0.00000E+00  9.000E+00
      -5     1     1     2     0   503 -6.578008572E+01  7.338376117E+01 -8.748400248E+02  8.803861809E+02  4.750000000E+00  0.00000E+00  9.000E+00
      21     1     1     2   503   511 -2.487692480E+01  6.295543823E+00 -3.047188346E+02  3.057974222E+02  3.814697266E-06  0.00000E+00  9.000E+00
#rwgt            1           9   7.3258029827242075E-006           9     2153884           0
</event>
<event>
      6   9999  3.45752E-01  2.52298E+01 -1.00000E+00  1.52873E-01
      21    -1     0     0   501   502  0.000000000E+00  0.000000000E+00  3.952801085E+01  3.952801085E+01  0.000000000E+00  0.00000E+00  9.000E+00
       2    -1     0     0   502     0  0.000000000E+00  0.000000000E+00 -2.876424915E+03  2.876424915E+03  0.000000000E+00  0.00000E+00  9.000E+00
      25     1     1     2     0     0  3.938767548E+01 -8.916860411E+01 -4.102770810E+02  4.398350371E+02  1.250005907E+02  0.00000E+00  9.000E+00
       5     1     1     2   501     0 -1.077155620E+01 -1.379541542E+00  1.939079327E+01  2.272652462E+01  4.750000000E+00  0.00000E+00  9.000E+00
      -5     1     1     2     0   503 -5.372548883E+01  9.301081187E+01 -8.005995373E+02  8.077868660E+02  4.750000000E+00  0.00000E+00  9.000E+00
       2     1     1     2   503     0  2.510936955E+01 -2.462666222E+00 -1.645411079E+03  1.645604498E+03  2.157918644E-05  0.00000E+00  9.000E+00
#rwgt            1           9   2.9155906154717417E-003           9     2155940           0
</event>
<event>
      6   9999  3.45752E-01  2.30549E+01 -1.00000E+00  1.55637E-01
      21    -1     0     0   501   511  0.000000000E+00  0.000000000E+00  5.582088022E+02  5.582088022E+02  0.000000000E+00  0.00000E+00  9.000E+00
      21    -1     0     0   502   503  0.000000000E+00  0.000000000E+00 -2.370101170E+03  2.370101170E+03  0.000000000E+00  0.00000E+00  9.000E+00
      25     1     1     2     0     0 -1.011151216E+01  5.448308459E+01 -1.206235570E+03  1.213960011E+03  1.249960369E+02  0.00000E+00  9.000E+00
       5     1     1     2   501     0 -2.044049523E+01 -5.229308150E+00  2.013696286E+01  2.955028396E+01  4.750000000E+00  0.00000E+00  9.000E+00
      -5     1     1     2     0   503  7.560558105E+00 -5.096261930E+01 -1.154466092E+03  1.155624884E+03  4.750000000E+00  0.00000E+00  9.000E+00
      21     1     1     2   502   511  2.299144929E+01  1.708842856E+00  5.286723322E+02  5.291747931E+02  7.629394531E-06  0.00000E+00  9.000E+00
#rwgt            1           9   5.7029461669391300E-004           9     2157967           0
</event>
<event>
      6   9999  3.45752E-01  1.51141E+01 -1.00000E+00  1.70087E-01
      21    -1     0     0   501   502  0.000000000E+00  0.000000000E+00  5.364718706E+01  5.364718706E+01  0.000000000E+00  0.00000E+00  9.000E+00
      21    -1     0     0   512   503  0.000000000E+00  0.000000000E+00 -3.083124283E+03  3.083124283E+03  0.000000000E+00  0.00000E+00  9.000E+00
      25     1     1     2     0     0 -2.248592749E+02 -2.000301978E+02 -7.636157979E+02  8.302466710E+02  1.250066974E+02  0.00000E+00  9.000E+00
       5     1     1     2   501     0  1.795141365E+00 -3.252247718E-01  9.289618777E+00  1.059187522E+01  4.750000000E+00  0.00000E+00  9.000E+00
      -5     1     1     2     0   503  2.079644905E+02  2.010160211E+02 -2.054493235E+03  2.074758223E+03  4.750000000E+00  0.00000E+00  9.000E+00
      21     1     1     2   512   502  1.509964299E+01 -6.605985298E-01 -2.206576820E+02  2.211747007E+02  2.697398305E-06  0.00000E+00  9.000E+00
#rwgt            1           9   2.4342275905481305E-002           9     2160512           0
</event>
<event>
      6   9999  3.45752E-01  5.14890E+01 -1.00000E+00  1.34109E-01
      21    -1     0     0   501   502  0.000000000E+00  0.000000000E+00  6.500287054E+01  6.500287054E+01  0.000000000E+00  0.00000E+00  9.000E+00
      21    -1     0     0   511   503  0.000000000E+00  0.000000000E+00 -4.663281538E+02  4.663281538E+02  0.000000000E+00  0.00000E+00  9.000E+00
      25     1     1     2     0     0 -1.081288802E+02  8.118542308E+01 -1.870753184E+02  2.625007790E+02  1.250062260E+02  0.00000E+00  9.000E+00
       5     1     1     2   501     0 -1.914172990E+00  1.561035094E+00  4.857245431E+00  7.228846518E+00  4.750000000E+00  0.00000E+00  9.000E+00
      -5     1     1     2     0   503  8.015999503E+01 -4.081656220E+01 -1.561630212E+02  1.802805265E+02  4.750000000E+00  0.00000E+00  9.000E+00
      21     1     1     2   511   502  2.988305814E+01 -4.192989597E+01 -6.294418911E+01  8.132087237E+01  1.348699152E-06  0.00000E+00  9.000E+00
#rwgt            1           9   2.2939773803225678E-004           9     2164027           0
</event>
<event>
      6   9999  3.45752E-01  7.03922E+00 -1.00000E+00  2.04830E-01
      21    -1     0     0   501   512  0.000000000E+00  0.000000000E+00  4.128197633E+01  4.128197633E+01  0.000000000E+00  0.00000E+00  9.000E+00
      21    -1     0     0   502   503  0.000000000E+00  0.000000000E+00 -1.176921674E+03  1.176921674E+03  0.000000000E+00  0.00000E+00  9.000E+00
      25     1     1     2     0     0  8.808586500E+00 -6.157714964E+00 -1.044675053E+03  1.052183087E+03  1.250110905E+02  0.00000E+00  9.000E+00
       5     1     1     2   501     0 -7.695908839E+00  4.243014152E+00  3.599847228E+01  3.735883681E+01  4.750000000E+00  0.00000E+00  9.000E+00
      -5     1     1     2     0   503 -3.338836540E+00 -4.763235455E+00 -1.105247665E+02  1.107796134E+02  4.750000000E+00  0.00000E+00  9.000E+00
      21     1     1     2   502   512  2.226158879E+00  6.677936267E+00 -1.643835028E+01  1.788211330E+01  0.000000000E+00  0.00000E+00  9.000E+00
#rwgt            1           9   1.0045528627563124E-002           9     2165055           0
</event>
<event>
      6   9999  3.45752E-01  3.31363E+00 -1.00000E+00  2.66084E-01
      21    -1     0     0   511   502  0.000000000E+00  0.000000000E+00  3.230730484E+03  3.230730484E+03  0.000000000E+00  0.00000E+00  9.000E+00
      21    -1     0     0   502   503  0.000000000E+00  0.000000000E+00 -9.193816508E+02  9.193816508E+02  0.000000000E+00  0.00000E+00  9.000E+00
      25     1     1     2     0     0 -4.350977711E+00  2.488623589E+01 -3.222277496E+02  3.465455686E+02  1.249994108E+02  0.00000E+00  9.000E+00
       5     1     1     2   501     0 -2.116262130E+00  9.648976082E-01  5.644661633E+00  7.735263263E+00  4.750000000E+00  0.00000E+00  9.000E+00
      -5     1     1     2     0   503  3.994731703E+00 -2.364504060E+01 -5.836929883E+02  5.842046841E+02  4.750000000E+00  0.00000E+00  9.000E+00
      21     1     1     2   511   501  2.472508138E+00 -2.206092898E+00  3.211624910E+03  3.211626619E+03  6.103515625E-05  0.00000E+00  9.000E+00
#rwgt            1           9   5.4416850247687725                9     2169597           0
</event>
<event>
      6   9999  3.45752E-01  3.85964E+00 -1.00000E+00  2.51105E-01
      21    -1     0     0   501   512  0.000000000E+00  0.000000000E+00  1.838716950E+01  1.838716950E+01  0.000000000E+00  0.00000E+00  9.000E+00
      21    -1     0     0   502   503  0.000000000E+00  0.000000000E+00 -1.094306931E+03  1.094306931E+03  0.000000000E+00  0.00000E+00  9.000E+00
      25     1     1     2     0     0 -5.184887431E+00 -5.664884562E+00 -8.419628531E+02  8.512204456E+02  1.249633028E+02  0.00000E+00  9.000E+00
       5     1     1     2   501     0  1.189221888E+00 -1.623221130E+00  1.270063287E+00  5.312688236E+00  4.750000000E+00  0.00000E+00  9.000E+00
      -5     1     1     2     0   503  5.181759490E+00  3.615233524E+00 -2.452723161E+02  2.453996579E+02  4.750000000E+00  0.00000E+00  9.000E+00
      21     1     1     2   502   512 -1.186093948E+00  3.672872167E+00  1.004534473E+01  1.076130845E+01  8.760057960E-07  0.00000E+00  9.000E+00
#rwgt            1           9   5.4674887985458878E-003           9     2176333           0
</event>
<event>
      6   9999  3.45752E-01  4.05621E+01 -1.00000E+00  1.39835E-01
      21    -1     0     0   511   502  0.000000000E+00  0.000000000E+00  3.379371608E+03  3.379371608E+03  0.000000000E+00  0.00000E+00  9.000E+00
      21    -1     0     0   502   503  0.000000000E+00  0.000000000E+00 -3.363872028E+01  3.363872028E+01  0.000000000E+00  0.00000E+00  9.000E+00
      25     1     1     2     0     0  1.457218848E+01 -1.426088733E+02  2.707812028E+02  3.308722025E+02  1.249172333E+02  0.00000E+00  9.000E+00
       5     1     1     2   501     0  6.748721798E+00 -7.471727800E+00  1.467570698E+03  1.467612921E+03  4.750000000E+00  0.00000E+00  9.000E+00
      -5     1     1     2     0   503 -1.438107075E+01  1.101165391E+02  1.174445722E+03  1.179693936E+03  4.750000000E+00  0.00000E+00  9.000E+00
      21     1     1     2   511   501 -6.939839527E+00  3.996406194E+01  4.329352648E+02  4.348312674E+02  9.344061824E-06  0.00000E+00  9.000E+00
#rwgt            1           9   2.2545467122679871E-004           9     2180918           0
</event>
<event>
      6   9999  3.45752E-01  8.48399E+01 -1.00000E+00  1.23549E-01
      21    -1     0     0   502   503  0.000000000E+00  0.000000000E+00  4.977908514E+01  4.977908514E+01  0.000000000E+00  0.00000E+00  9.000E+00
      21    -1     0     0   501   512  0.000000000E+00  0.000000000E+00 -1.905174951E+03  1.905174951E+03  0.000000000E+00  0.00000E+00  9.000E+00
      25     1     1     2     0     0  8.917712714E+01 -1.763217426E+02 -5.647420764E+02  6.112575442E+02  1.251409430E+02  0.00000E+00  9.000E+00
       5     1     1     2   501     0 -1.745337859E+02  1.724261251E+02 -6.549167535E+02  6.993792444E+02  4.750000000E+00  0.00000E+00  9.000E+00
      -5     1     1     2     0   503  2.205611433E+00 -1.294822610E+01 -3.609402564E+01  3.870222820E+01  4.750000000E+00  0.00000E+00  9.000E+00
      21     1     1     2   502   512  8.315104731E+01  1.684384358E+01 -5.996430107E+02  6.056150197E+02  0.000000000E+00  0.00000E+00  9.000E+00
#rwgt            1           9   1.8044554877573504E-002           9     2182482           0
</event>
<event>
      6   9999 -3.45752E-01  2.64403E+00 -1.00000E+00  2.92092E-01
      21    -1     0     0   501   502  0.000000000E+00  0.000000000E+00  1.891714900E+01  1.891714900E+01  0.000000000E+00  0.00000E+00  9.000E+00
      -2    -1     0     0     0   503  0.000000000E+00  0.000000000E+00 -1.078148896E+03  1.078148896E+03  0.000000000E+00  0.00000E+00  9.000E+00
      25     1     1     2     0     0  3.810150879E+01  1.639807718E+01 -4.177209752E+02  4.379921653E+02  1.250028074E+02  0.00000E+00  9.000E+00
       5     1     1     2   501     0  1.468776724E+00 -5.829209928E-01  7.215007833E+00  8.781568196E+00  4.750000000E+00  0.00000E+00  9.000E+00
      -5     1     1     2     0   503 -3.812301599E+01 -1.360240014E+01 -5.405312936E+02  5.420655232E+02  4.750000000E+00  0.00000E+00  9.000E+00
      -2     1     1     2     0   502 -1.447269515E+00 -2.212756041E+00 -1.081944857E+02  1.082267879E+02  1.348699152E-06  0.00000E+00  9.000E+00
#rwgt            1           9  -2.4762950857472161E-003           9     2183149           0
</event>
<event>
      6   9999 -3.45752E-01  7.97260E+00 -1.00000E+00  1.98192E-01
      21    -1     0     0   501   511  0.000000000E+00  0.000000000E+00  1.150845428E+01  1.150845428E+01  0.000000000E+00  0.00000E+00  9.000E+00
      21    -1     0     0   502   503  0.000000000E+00  0.000000000E+00 -7.203378727E+02  7.203378727E+02  0.000000000E+00  0.00000E+00  9.000E+00
      25     1     1     2     0     0 -1.497795351E+01 -9.857904506E+00 -6.383730770E+02  6.507430703E+02  1.249993628E+02  0.00000E+00  9.000E+00
       5     1     1     2   501     0 -7.536734484E-01 -2.387732826E-01 -9.203261886E+00  1.038689394E+01  4.750000000E+00  0.00000E+00  9.000E+00
      -5     1     1     2     0   503  1.144231210E+01  3.376251337E+00 -6.141406769E+01  6.274213728E+01  4.750000000E+00  0.00000E+00  9.000E+00
      21     1     1     2   502   511  4.289314851E+00  6.720426452E+00  1.609882490E-01  7.974225404E+00  2.784452029E-07  0.00000E+00  9.000E+00
#rwgt            1           9  -3.0170727332079371E-003           9     2190686           0
</event>
<event>
      6   9999  3.45752E-01  7.55044E+00 -1.00000E+00  2.01036E-01
      21    -1     0     0   501   512  0.000000000E+00  0.000000000E+00  2.820739410E+01  2.820739410E+01  0.000000000E+00  0.00000E+00  9.000E+00
      21    -1     0     0   502   503  0.000000000E+00  0.000000000E+00 -1.037539892E+03  1.037539892E+03  0.000000000E+00  0.00000E+00  9.000E+00
      25     1     1     2     0     0 -8.613137490E+00 -3.969065292E+00 -9.031606094E+02  9.118199392E+02  1.250063023E+02  0.00000E+00  9.000E+00
       5     1     1     2   501     0  1.017733211E-02  7.294660557E+00  1.768249505E+01  1.970901589E+01  4.750000000E+00  0.00000E+00  9.000E+00
      -5     1     1     2     0   503  1.961978413E+00  2.669647527E-01 -1.262054443E+02  1.263103214E+02  4.750000000E+00  0.00000E+00  9.000E+00
      21     1     1     2   502   512  6.640981745E+00 -3.592560018E+00  2.351060849E+00  7.908009430E+00  2.230201594E-07  0.00000E+00  9.000E+00
#rwgt            1           9   4.3199017938192982E-004           9     2193569           0
</event>
<event>
      6   9999 -3.45752E-01  1.06600E+01 -1.00000E+00  1.84316E-01
      21    -1     0     0   501   502  0.000000000E+00  0.000000000E+00  1.747468442E+01  1.747468442E+01  0.000000000E+00  0.00000E+00  9.000E+00
      21    -1     0     0   502   511  0.000000000E+00  0.000000000E+00 -2.718994089E+03  2.718994089E+03  0.000000000E+00  0.00000E+00  9.000E+00
      25     1     1     2     0     0  7.555723725E+00  1.164365036E+01 -8.356030717E+02  8.450148982E+02  1.250000853E+02  0.00000E+00  9.000E+00
       5     1     1     2   501     0 -1.735544094E+00  1.135532637E-01  1.198531411E+01  1.300904539E+01  4.750000000E+00  0.00000E+00  9.000E+00
      -5     1     1     2     0   503 -2.309270503E+00 -1.691907896E+00 -2.975490954E+01  3.026734914E+01  4.750000000E+00  0.00000E+00  9.000E+00
      21     1     1     2   503   511 -3.510909128E+00 -1.006529573E+01 -1.848146737E+03  1.848177480E+03  2.157918644E-05  0.00000E+00  9.000E+00
#rwgt            1           9  -1.9948471987728917E-004           9     2197628           0
</event>
<event>
      6   9999  3.45752E-01  8.95576E+00 -1.00000E+00  1.92384E-01
      21    -1     0     0   501   512  0.000000000E+00  0.000000000E+00  4.795841170E+02  4.795841170E+02  0.000000000E+00  0.00000E+00  9.000E+00
      21    -1     0     0   502   503  0.000000000E+00  0.000000000E+00 -1.176062537E+02  1.176062537E+02  0.000000000E+00  0.00000E+00  9.000E+00
      25     1     1     2     0     0 -4.254904448E+00 -4.056342939E+00 -6.227299128E+01  1.397110726E+02  1.249267794E+02  0.00000E+00  9.000E+00
       5     1     1     2   501     0 -1.103975372E+00 -7.812062989E-01  6.988980114E+00  8.557884548E+00  4.750000000E+00  0.00000E+00  9.000E+00
      -5     1     1     2     0   503 -2.653767261E+00  8.371565291E-01 -1.530339381E+01  1.626344594E+01  4.750000000E+00  0.00000E+00  9.000E+00
      21     1     1     2   502   512  8.012647082E+00  4.000392708E+00  4.325652683E+02  4.326579677E+02  5.394796609E-06  0.00000E+00  9.000E+00
#rwgt            1           9   1.1523832446789079E-003           9     2200597           0
</event>
<event>
      6   9999 -3.45752E-01  4.24386E+00 -1.00000E+00  2.42648E-01
      21    -1     0     0   501   502  0.000000000E+00  0.000000000E+00  9.618417668E+00  9.618417668E+00  0.000000000E+00  0.00000E+00  9.000E+00
      21    -1     0     0   502   511  0.000000000E+00  0.000000000E+00 -1.887070091E+03  1.887070091E+03  0.000000000E+00  0.00000E+00  9.000E+00
      25     1     1     2     0     0 -4.348484903E-01 -2.868143401E+01 -7.343564246E+02  7.454685467E+02  1.249847275E+02  0.00000E+00  9.000E+00
       5     1     1     2   501     0  1.868607514E+00  1.341688504E-01  2.150175292E+00  5.540347382E+00  4.750000000E+00  0.00000E+00  9.000E+00
      -5     1     1     2     0   503 -4.703489711E+00  2.584186342E+01 -8.941423580E+02  8.945406886E+02  4.750000000E+00  0.00000E+00  9.000E+00
      21     1     1     2   503   511  3.269730687E+00  2.705401737E+00 -2.511030660E+02  2.511389259E+02  3.814697266E-06  0.00000E+00  9.000E+00
#rwgt            1           9  -4.1329720274848457E-002           9     2203150           0
</event>
<event>
      6   9999 -3.45752E-01  8.97690E+00 -1.00000E+00  1.92270E-01
      21    -1     0     0   501   502  0.000000000E+00  0.000000000E+00  4.261455459E+01  4.261455459E+01  0.000000000E+00  0.00000E+00  9.000E+00
      21    -1     0     0   502   512  0.000000000E+00  0.000000000E+00 -1.384155941E+03  1.384155941E+03  0.000000000E+00  0.00000E+00  9.000E+00
      25     1     1     2     0     0  4.799833319E-01 -9.567475083E+00 -1.099739464E+03  1.106862401E+03  1.250028781E+02  0.00000E+00  9.000E+00
       5     1     1     2   501     0 -5.161627314E+00  9.420739462E+00  3.793980414E+01  3.971629347E+01  4.750000000E+00  0.00000E+00  9.000E+00
      -5     1     1     2     0   503 -4.157489588E+00  1.713408721E+00 -1.480882367E+02  1.482326173E+02  4.750000000E+00  0.00000E+00  9.000E+00
      21     1     1     2   503   512  8.839133570E+00 -1.566673099E+00 -1.316534902E+02  1.319591839E+02  1.907348633E-06  0.00000E+00  9.000E+00
#rwgt            1           9  -7.3568654869690673E-003           9     2207980           0
</event>
<event>
      6   9999 -3.45752E-01  1.12606E+01 -1.00000E+00  1.81921E-01
      21    -1     0     0   501   502  0.000000000E+00  0.000000000E+00  1.171996455E+01  1.171996455E+01  0.000000000E+00  0.00000E+00  9.000E+00
      -2    -1     0     0     0   503  0.000000000E+00  0.000000000E+00 -1.261031741E+03  1.261031741E+03  0.000000000E+00  0.00000E+00  9.000E+00
      25     1     1     2     0     0  1.776103665E+01  2.490352895E+01 -8.953857532E+02  9.045857241E+02  1.249961799E+02  0.00000E+00  9.000E+00
       5     1     1     2   501     0 -1.082502936E+00 -4.639038267E-01 -3.137489779E+00  5.813205784E+00  4.750000000E+00  0.00000E+00  9.000E+00
      -5     1     1     2     0   503 -2.492805501E+01 -3.210432479E+01 -6.816855621E+01  7.950855396E+01  4.750000000E+00  0.00000E+00  9.000E+00
      -2     1     1     2     0   502  8.249521300E+00  7.664699669E+00 -2.826199768E+02  2.828442213E+02  0.000000000E+00  0.00000E+00  9.000E+00
#rwgt            1           9  -8.8161003457002058E-005           9     2212348           0
</event>
<event>
      6   9999  3.45752E-01  5.06552E+01 -1.00000E+00  1.34486E-01
      21    -1     0     0   501   502  0.000000000E+00  0.000000000E+00  5.753413526E+01  5.753413526E+01  0.000000000E+00  0.00000E+00  9.000E+00
       2    -1     0     0   502     0  0.000000000E+00  0.000000000E+00 -3.051936137E+03  3.051936137E+03  0.000000000E+00  0.00000E+00  9.000E+00
      25     1     1     2     0     0  1.104238165E+02 -5.123664185E+01 -2.432335314E+02  2.993426377E+02  1.249994049E+02  0.00000E+00  9.000E+00
       5     1     1     2   501     0 -5.278726373E+00  5.257226764E+00  2.221564199E+01  2.390817087E+01  4.750000000E+00  0.00000E+00  9.000E+00
      -5     1     1     2     0   503 -1.371309996E+02  8.525858672E+01 -1.074065993E+03  1.086146517E+03  4.750000000E+00  0.00000E+00  9.000E+00
       2     1     1     2   503     0  3.198590947E+01 -3.927917164E+01 -1.699318119E+03  1.700072946E+03  3.051757812E-05  0.00000E+00  9.000E+00
#rwgt            1           9   2.4543335087383608E-003           9     2214834           0
</event>
<event>
      6   9999  3.45752E-01  2.11196E+00 -1.00000E+00  3.23995E-01
      21    -1     0     0   501   511  0.000000000E+00  0.000000000E+00  1.903105117E+01  1.903105117E+01  0.000000000E+00  0.00000E+00  9.000E+00
      21    -1     0     0   502   503  0.000000000E+00  0.000000000E+00 -8.082064302E+02  8.082064302E+02  0.000000000E+00  0.00000E+00  9.000E+00
      25     1     1     2     0     0  2.690050288E+01 -1.522130292E-02 -6.602596444E+02  6.725336892E+02  1.250405043E+02  0.00000E+00  9.000E+00
       5     1     1     2   501     0  3.180474388E-01 -5.943057624E-01  1.803219764E+00  5.125276093E+00  4.750000000E+00  0.00000E+00  9.000E+00
      -5     1     1     2     0   503 -2.653185058E+01  2.606727441E+00 -1.387020645E+02  1.413207675E+02  4.750000000E+00  0.00000E+00  9.000E+00
      21     1     1     2   502   511 -6.866997388E-01 -1.997200376E+00  7.983110105E+00  8.257748653E+00  5.462855929E-07  0.00000E+00  9.000E+00
#rwgt            1           9  0.10276091067170255                9     2216163           0
</event>
<event>
      6   9999  3.45752E-01  1.28374E+01 -1.00000E+00  1.76447E-01
      21    -1     0     0   501   512  0.000000000E+00  0.000000000E+00  6.649031074E+01  6.649031074E+01  0.000000000E+00  0.00000E+00  9.000E+00
      21    -1     0     0   502   503  0.000000000E+00  0.000000000E+00 -3.460327952E+02  3.460327952E+02  0.000000000E+00  0.00000E+00  9.000E+00
      25     1     1     2     0     0  2.348754829E+01  1.768780358E+01 -2.663698028E+02  2.957095036E+02  1.250068612E+02  0.00000E+00  9.000E+00
       5     1     1     2   501     0  1.326981961E+00  6.702932433E-01  2.267177299E+01  2.321167734E+01  4.750000000E+00  0.00000E+00  9.000E+00
      -5     1     1     2     0   503 -2.631057445E+01 -5.608141821E+00 -6.017884509E+01  6.608898153E+01  4.750000000E+00  0.00000E+00  9.000E+00
      21     1     1     2   502   512  1.496044201E+00 -1.274995501E+01  2.433439044E+01  2.751294348E+01  6.743495762E-07  0.00000E+00  9.000E+00
#rwgt            1           9  0.55737147033096479                9     2223949           0
</event>
<event>
      6   9999 -3.45752E-01  2.53684E+00 -1.00000E+00  2.97458E-01
      21    -1     0     0   501   502  0.000000000E+00  0.000000000E+00  2.745269250E+01  2.745269250E+01  0.000000000E+00  0.00000E+00  9.000E+00
      21    -1     0     0   511   503  0.000000000E+00  0.000000000E+00 -1.230372046E+03  1.230372046E+03  0.000000000E+00  0.00000E+00  9.000E+00
      25     1     1     2     0     0  4.129442058E+01 -3.630485343E+00 -1.677651983E+02  2.132803138E+02  1.249996835E+02  0.00000E+00  9.000E+00
       5     1     1     2   501     0  1.461119944E+00  2.141231403E-01  2.714303924E+00  5.666627392E+00  4.750000000E+00  0.00000E+00  9.000E+00
      -5     1     1     2     0   503 -4.155860534E+01  5.653080040E+00 -9.035373066E+02  9.045226928E+02  4.750000000E+00  0.00000E+00  9.000E+00
      21     1     1     2   511   502 -1.196935175E+00 -2.236717837E+00 -1.343311524E+02  1.343551044E+02  1.907348633E-06  0.00000E+00  9.000E+00
#rwgt            1           9  -1.2821236839463416E-003           9     2226478           0
</event>
<event>
      6   9999  3.45752E-01  9.55301E+01 -1.00000E+00  1.21285E-01
      21    -1     0     0   502   503  0.000000000E+00  0.000000000E+00  1.477786260E+03  1.477786260E+03  0.000000000E+00  0.00000E+00  9.000E+00
      21    -1     0     0   512   502  0.000000000E+00  0.000000000E+00 -4.418506745E+01  4.418506745E+01  0.000000000E+00  0.00000E+00  9.000E+00
      25     1     1     2     0     0 -3.683368810E+01  7.777681007E+01  2.228264247E+02  2.695089761E+02  1.248099352E+02  0.00000E+00  9.000E+00
       5     1     1     2   501     0  9.540797914E+00 -2.148565030E+01  3.812822282E+02  3.820358099E+02  4.750000000E+00  0.00000E+00  9.000E+00
      -5     1     1     2     0   503 -6.711341135E+01 -4.168112101E+01  7.231827528E+02  7.275007782E+02  4.750000000E+00  0.00000E+00  9.000E+00
      21     1     1     2   512   501  9.440630154E+01 -1.461003876E+01  1.063097867E+02  1.429257631E+02  3.015782986E-06  0.00000E+00  9.000E+00
#rwgt            1           9   55.414345513028891                9     2234484           0
</event>
<event>
      6   9999  3.45752E-01  9.18151E+00 -1.00000E+00  1.91187E-01
      21    -1     0     0   501   511  0.000000000E+00  0.000000000E+00  3.230529652E+01  3.230529652E+01  0.000000000E+00  0.00000E+00  9.000E+00
      21    -1     0     0   502   503  0.000000000E+00  0.000000000E+00 -9.266238264E+02  9.266238264E+02  0.000000000E+00  0.00000E+00  9.000E+00
      25     1     1     2     0     0 -7.592345337E+01 -1.562096385E+01 -7.223262106E+02  7.371486528E+02  1.249983864E+02  0.00000E+00  9.000E+00
       5     1     1     2   501     0 -1.203052609E+00  2.344598823E+00  7.384817221E+00  9.167469913E+00  4.750000000E+00  0.00000E+00  9.000E+00
      -5     1     1     2     0   503  6.821243381E+01  1.107650266E+01 -1.877911885E+02  2.001592317E+02  4.750000000E+00  0.00000E+00  9.000E+00
      21     1     1     2   502   511  8.914072168E+00  2.199862374E+00  8.414052041E+00  1.245376846E+01  6.307962682E-07  0.00000E+00  9.000E+00
#rwgt            1           9   2.3096443093875403E-004           9     2235194           0
</event>
<event>
      6   9999 -3.45752E-01  3.85023E+01 -1.00000E+00  1.41154E-01
      21    -1     0     0   501   502  0.000000000E+00  0.000000000E+00  5.375835998E+01  5.375835998E+01  0.000000000E+00  0.00000E+00  9.000E+00
      21    -1     0     0   502   512  0.000000000E+00  0.000000000E+00 -5.067317724E+02  5.067317724E+02  0.000000000E+00  0.00000E+00  9.000E+00
      25     1     1     2     0     0  1.914521450E+01  3.296134884E+00 -2.084039011E+02  2.437870456E+02  1.249901352E+02  0.00000E+00  9.000E+00
       5     1     1     2   501     0 -9.246309822E+00  1.085899647E+01  2.745015633E+01  3.129673517E+01  4.750000000E+00  0.00000E+00  9.000E+00
      -5     1     1     2     0   503 -4.095261657E+01  8.606531730E+00 -9.010577276E+01  9.946256571E+01  4.750000000E+00  0.00000E+00  9.000E+00
      21     1     1     2   503   512  3.105371190E+01 -2.276166308E+01 -1.819138949E+02  1.859437858E+02  0.000000000E+00  0.00000E+00  9.000E+00
#rwgt            1           9  -2.7836043107729580E-003           9     2238758           0
</event>
<event>
      6   9999  3.45752E-01  6.84718E+00 -1.00000E+00  2.06368E-01
      21    -1     0     0   501   502  0.000000000E+00  0.000000000E+00  1.375417367E+01  1.375417367E+01  0.000000000E+00  0.00000E+00  9.000E+00
       1    -1     0     0   502     0  0.000000000E+00  0.000000000E+00 -1.580242401E+03  1.580242401E+03  0.000000000E+00  0.00000E+00  9.000E+00
      25     1     1     2     0     0  1.356726665E+01  7.118044805E+00 -4.524484804E+02  4.696481799E+02  1.250001926E+02  0.00000E+00  9.000E+00
       5     1     1     2   501     0 -1.658127574E+00  1.616292054E-01  3.791029143E+00  6.301580200E+00  4.750000000E+00  0.00000E+00  9.000E+00
      -5     1     1     2     0   503 -1.127409232E+01 -4.620067255E-01 -4.095486805E+02  4.097316229E+02  4.750000000E+00  0.00000E+00  9.000E+00
       1     1     1     2   503     0 -6.350467569E-01 -6.817667285E+00 -7.082820951E+02  7.083151912E+02  7.629394531E-06  0.00000E+00  9.000E+00
#rwgt            1           9   1.0197533114200330E-003           9     2240178           0
</event>
<event>
      6   9999 -3.45752E-01  7.93437E+00 -1.00000E+00  1.98440E-01
      21    -1     0     0   501   502  0.000000000E+00  0.000000000E+00  1.246984589E+01  1.246984589E+01  0.000000000E+00  0.00000E+00  9.000E+00
      21    -1     0     0   511   503  0.000000000E+00  0.000000000E+00 -9.492779122E+02  9.492779122E+02  0.000000000E+00  0.00000E+00  9.000E+00
      25     1     1     2     0     0  1.200085912E+01  3.974689570E+00 -3.616932228E+02  3.828926063E+02  1.249997670E+02  0.00000E+00  9.000E+00
       5     1     1     2   501     0 -3.246769669E-01 -9.718776210E-01 -1.966142505E+00  5.241963143E+00  4.750000000E+00  0.00000E+00  9.000E+00
      -5     1     1     2     0   503 -9.596241098E+00 -1.065970753E+01 -3.907535582E+02  3.910455510E+02  4.750000000E+00  0.00000E+00  9.000E+00
      21     1     1     2   511   502 -2.079941057E+00  7.656895582E+00 -1.823951427E+02  1.825676376E+02  3.814697266E-06  0.00000E+00  9.000E+00
#rwgt            1           9  -4.9817350662159973E-003           9     2243780           0
</event>
<event>
      6   9999  3.45752E-01  6.88974E+00 -1.00000E+00  2.06021E-01
      21    -1     0     0   501   512  0.000000000E+00  0.000000000E+00  1.101545800E+03  1.101545800E+03  0.000000000E+00  0.00000E+00  9.000E+00
      21    -1     0     0   502   503  0.000000000E+00  0.000000000E+00 -5.490624790E+00  5.490624790E+00  0.000000000E+00  0.00000E+00  9.000E+00
      25     1     1     2     0     0  1.741201623E+00  1.123378640E+01  8.789134370E+02  8.878307154E+02  1.250012788E+02  0.00000E+00  9.000E+00
       5     1     1     2   501     0 -4.498665333E+00 -2.804780626E+00  1.249702234E+02  1.251727766E+02  4.750000000E+00  0.00000E+00  9.000E+00
      -5     1     1     2     0   503  7.579267936E+00 -3.507757691E+00  3.049410416E+01  3.197190259E+01  4.750000000E+00  0.00000E+00  9.000E+00
      21     1     1     2   502   512 -4.821804226E+00 -4.921248084E+00  6.167741098E+01  6.206103048E+01  6.743495762E-07  0.00000E+00  9.000E+00
#rwgt            1           9   5.1209535751952853                9     2246608           0
</event>
<event>
      6   9999 -3.45752E-01  4.18972E+00 -1.00000E+00  2.43757E-01
      21    -1     0     0   511   502  0.000000000E+00  0.000000000E+00  8.301438923E+01  8.301438923E+01  0.000000000E+00  0.00000E+00  9.000E+00
      21    -1     0     0   502   503  0.000000000E+00  0.000000000E+00 -9.864951928E+02  9.864951928E+02  0.000000000E+00  0.00000E+00  9.000E+00
      25     1     1     2     0     0 -7.445066773E+00 -2.131332657E+01 -6.880582051E+02  6.996838198E+02  1.249946683E+02  0.00000E+00  9.000E+00
       5     1     1     2   501     0  1.289410998E+00 -2.357846811E+00  1.326898990E+01  1.434749508E+01  4.750000000E+00  0.00000E+00  9.000E+00
      -5     1     1     2     0   503  2.306435423E+00  2.201670874E+01 -2.915763576E+02  2.924540818E+02  4.750000000E+00  0.00000E+00  9.000E+00
      21     1     1     2   511   501  3.849220352E+00  1.654464647E+00  6.288476924E+01  6.302418546E+01  2.023048729E-06  0.00000E+00  9.000E+00
#rwgt            1           9 -0.12026888898468921                9     2249156           0
</event>
<event>
      6   9999  3.45752E-01  2.19867E+01 -1.00000E+00  1.57133E-01
      21    -1     0     0   501   512  0.000000000E+00  0.000000000E+00  1.308427115E+02  1.308427115E+02  0.000000000E+00  0.00000E+00  9.000E+00
      21    -1     0     0   502   503  0.000000000E+00  0.000000000E+00 -1.579568184E+03  1.579568184E+03  0.000000000E+00  0.00000E+00  9.000E+00
      25     1     1     2     0     0 -1.642320333E+02 -8.783850262E+01 -1.468735871E+03  1.485747468E+03  1.247906903E+02  0.00000E+00  9.000E+00
       5     1     1     2   501     0 -1.682794038E+00 -8.861102389E-01  2.286991749E+01  2.343528564E+01  4.750000000E+00  0.00000E+00  9.000E+00
      -5     1     1     2     0   503  1.501488881E+02  7.339978297E+01 -2.611554141E+01  1.692241140E+02  4.750000000E+00  0.00000E+00  9.000E+00
      21     1     1     2   502   512  1.576593916E+01  1.532482989E+01  2.325602227E+01  3.200402819E+01  9.536743164E-07  0.00000E+00  9.000E+00
#rwgt            1           9   2.1271924561535045E-004           9     2255077           0
</event>
<event>
      6   9999  3.45752E-01  8.92052E+00 -1.00000E+00  1.92575E-01
      21    -1     0     0   511   502  0.000000000E+00  0.000000000E+00  5.805571352E+01  5.805571352E+01  0.000000000E+00  0.00000E+00  9.000E+00
      21    -1     0     0   502   503  0.000000000E+00  0.000000000E+00 -9.690339579E+02  9.690339579E+02  0.000000000E+00  0.00000E+00  9.000E+00
      25     1     1     2     0     0 -2.634488914E+00  4.371144189E+01 -6.784804336E+02  6.912877237E+02  1.250015496E+02  0.00000E+00  9.000E+00
       5     1     1     2   501     0 -2.836173714E+00  4.128477389E-01  1.049817418E+01  1.187385724E+01  4.750000000E+00  0.00000E+00  9.000E+00
      -5     1     1     2     0   503  8.589859153E+00 -3.576687559E+01 -2.817397919E+02  2.841705964E+02  4.750000000E+00  0.00000E+00  9.000E+00
      21     1     1     2   511   501 -3.119196525E+00 -8.357414038E+00  3.874380694E+01  3.975749404E+01  2.023048729E-06  0.00000E+00  9.000E+00
#rwgt            1           9   2.0564721427787100E-003           9     2258091           0
</event>
<event>
      6   9999  3.45752E-01  7.28730E+00 -1.00000E+00  2.02937E-01
      -4    -1     0     0     0   502  0.000000000E+00  0.000000000E+00  8.067424764E+01  8.067424764E+01  0.000000000E+00  0.00000E+00  9.000E+00
      21    -1     0     0   502   503  0.000000000E+00  0.000000000E+00 -9.578970471E+02  9.578970471E+02  0.000000000E+00  0.00000E+00  9.000E+00
      25     1     1     2     0     0 -3.117920329E+01 -1.270256447E+01 -5.320090259E+02  5.475336045E+02  1.250037862E+02  0.00000E+00  9.000E+00
       5     1     1     2   501     0 -3.453104647E+00  2.974773623E+00  8.853761457E+00  1.103289634E+01  4.750000000E+00  0.00000E+00  9.000E+00
      -5     1     1     2     0   503  2.751828756E+01  8.148088231E+00 -4.163160784E+02  4.173311480E+02  4.750000000E+00  0.00000E+00  9.000E+00
      -4     1     1     2     0   501  7.114020377E+00  1.579702616E+00  6.224854331E+01  6.267364590E+01  1.651812370E-06  0.00000E+00  9.000E+00
#rwgt            1           9   3.0004060122890803E-004           9     2260767           0
</event>
<event>
      6   9999  3.45752E-01  8.81566E+00 -1.00000E+00  1.93151E-01
      21    -1     0     0   501   511  0.000000000E+00  0.000000000E+00  3.716865806E+01  3.716865806E+01  0.000000000E+00  0.00000E+00  9.000E+00
      21    -1     0     0   502   503  0.000000000E+00  0.000000000E+00 -1.512023229E+03  1.512023229E+03  0.000000000E+00  0.00000E+00  9.000E+00
      25     1     1     2     0     0 -1.399616107E+01  6.773198063E+00 -1.366360794E+03  1.372162607E+03  1.250864980E+02  0.00000E+00  9.000E+00
       5     1     1     2   501     0 -3.902397305E-01 -3.103926638E-01 -2.646071673E+01  2.688829970E+01  4.750000000E+00  0.00000E+00  9.000E+00
      -5     1     1     2     0   503  7.478872995E+00 -1.194020138E+01 -1.150298965E+02  1.159868163E+02  4.750000000E+00  0.00000E+00  9.000E+00
      21     1     1     2   502   511  6.907527803E+00  5.477395985E+00  3.299683565E+01  3.415416475E+01  2.900487199E-06  0.00000E+00  9.000E+00
#rwgt            1           9   3.8081961025493482E-004           9     2264470           0
</event>
<event>
      6   9999  3.45752E-01  4.69984E+01 -1.00000E+00  1.36242E-01
      21    -1     0     0   512   502  0.000000000E+00  0.000000000E+00  2.327188412E+01  2.327188412E+01  0.000000000E+00  0.00000E+00  9.000E+00
      21    -1     0     0   502   503  0.000000000E+00  0.000000000E+00 -8.750486739E+02  8.750486739E+02  0.000000000E+00  0.00000E+00  9.000E+00
      25     1     1     2     0     0 -2.449482155E+00  1.792347930E+01 -5.535979902E+02  5.678191557E+02  1.249824296E+02  0.00000E+00  9.000E+00
       5     1     1     2   501     0 -1.461720363E+00  5.887292377E+00 -8.351449726E-01  7.749632577E+00  4.750000000E+00  0.00000E+00  9.000E+00
      -5     1     1     2     0   503 -3.628196121E+00  2.257891292E+01 -2.642281299E+02  2.652584367E+02  4.750000000E+00  0.00000E+00  9.000E+00
      21     1     1     2   512   501  7.539398639E+00 -4.638968460E+01 -3.311552468E+01  5.749333304E+01  1.430511475E-06  0.00000E+00  9.000E+00
#rwgt            1           9   4.1610730249226196E-004           9     2266722           0
</event>
<event>
      6   9999  3.45752E-01  1.35007E+01 -1.00000E+00  1.74433E-01
      21    -1     0     0   501   502  0.000000000E+00  0.000000000E+00  3.309642624E+01  3.309642624E+01  0.000000000E+00  0.00000E+00  9.000E+00
       2    -1     0     0   502     0  0.000000000E+00  0.000000000E+00 -6.558685459E+02  6.558685459E+02  0.000000000E+00  0.00000E+00  9.000E+00
      25     1     1     2     0     0 -1.080775638E+01 -9.162617149E+00 -1.476383992E+02  1.939666499E+02  1.250008129E+02  0.00000E+00  9.000E+00
       5     1     1     2   501     0  4.281589862E-01 -2.390985527E+00  7.349272492E+00  9.081543815E+00  4.750000000E+00  0.00000E+00  9.000E+00
      -5     1     1     2     0   503  1.266490131E+01 -1.752221303E+00 -2.714796318E+01  3.038164593E+01  4.750000000E+00  0.00000E+00  9.000E+00
       2     1     1     2   503     0 -2.285303915E+00  1.330582398E+01 -4.553350298E+02  4.555351325E+02  7.629394531E-06  0.00000E+00  9.000E+00
#rwgt            1           9   5.8788925313821606E-003           9     2267275           0
</event>
<event>
      6   9999  3.45752E-01  9.44315E+00 -1.00000E+00  1.89853E-01
      21    -1     0     0   501   502  0.000000000E+00  0.000000000E+00  4.224845481E+00  4.224845481E+00  0.000000000E+00  0.00000E+00  9.000E+00
      21    -1     0     0   511   503  0.000000000E+00  0.000000000E+00 -3.056984943E+03  3.056984943E+03  0.000000000E+00  0.00000E+00  9.000E+00
      25     1     1     2     0     0 -1.637800820E+01 -5.361174856E+00 -2.123320251E+03  2.127066465E+03  1.250035099E+02  0.00000E+00  9.000E+00
       5     1     1     2   501     0 -2.212704821E+00  2.495079502E+00 -2.682331991E+00  6.393660083E+00  4.750000000E+00  0.00000E+00  9.000E+00
      -5     1     1     2     0   503  9.249079070E+00  4.247005670E+00 -6.660580616E+01  6.754612080E+01  4.750000000E+00  0.00000E+00  9.000E+00
      21     1     1     2   511   502  9.341633950E+00 -1.380910317E+00 -8.601517078E+02  8.602035419E+02  0.000000000E+00  0.00000E+00  9.000E+00
#rwgt            1           9   1.8179077083549685E-003           9     2268973           0
</event>
<event>
      6   9999  3.45752E-01  1.99412E+01 -1.00000E+00  1.60308E-01
      21    -1     0     0   501   502  0.000000000E+00  0.000000000E+00  1.468663328E+03  1.468663328E+03  0.000000000E+00  0.00000E+00  9.000E+00
      21    -1     0     0   512   503  0.000000000E+00  0.000000000E+00 -1.944184443E+02  1.944184443E+02  0.000000000E+00  0.00000E+00  9.000E+00
      25     1     1     2     0     0 -3.202976581E+00 -1.282194248E+01  1.017174532E+03  1.024911542E+03  1.249999189E+02  0.00000E+00  9.000E+00
       5     1     1     2   501     0 -1.287258595E+00  2.772535519E+00  3.560413827E+02  3.560861871E+02  4.750000000E+00  0.00000E+00  9.000E+00
      -5     1     1     2     0   503 -1.249124737E+00  2.914682115E+01  8.862865001E+01  9.342749915E+01  4.750000000E+00  0.00000E+00  9.000E+00
      21     1     1     2   512   502  5.739359914E+00 -1.909741418E+01 -1.875996806E+02  1.886565442E+02  7.136645101E-06  0.00000E+00  9.000E+00
#rwgt            1           9  0.11199783868519167                9     2271563           0
</event>
<event>
      6   9999  3.45752E-01  1.45582E+01 -1.00000E+00  1.71504E-01
      21    -1     0     0   501   502  0.000000000E+00  0.000000000E+00  1.342853022E+02  1.342853022E+02  0.000000000E+00  0.00000E+00  9.000E+00
      21    -1     0     0   502   511  0.000000000E+00  0.000000000E+00 -4.026469727E+02  4.026469727E+02  0.000000000E+00  0.00000E+00  9.000E+00
      25     1     1     2     0     0 -7.178289134E+01 -8.851208883E+00 -7.353190396E+01  1.620655432E+02  1.250086878E+02  0.00000E+00  9.000E+00
       5     1     1     2   501     0 -5.060087092E-01 -2.022659309E+00  8.103061721E+01  8.119649389E+01  4.750000000E+00  0.00000E+00  9.000E+00
      -5     1     1     2     0   503  8.448211738E+01  2.919892029E+00 -2.505886569E+02  2.645051821E+02  4.750000000E+00  0.00000E+00  9.000E+00
      21     1     1     2   503   511 -1.219321733E+01  7.953976162E+00 -2.527172694E+01  2.916505560E+01  3.371747881E-07  0.00000E+00  9.000E+00
#rwgt            1           9   4.7714954313576655E-003           9     2272962           0
</event>
<event>
      6   9999  3.45752E-01  1.18205E+01 -1.00000E+00  1.79854E-01
      21    -1     0     0   501   512  0.000000000E+00  0.000000000E+00  3.117324097E+01  3.117324097E+01  0.000000000E+00  0.00000E+00  9.000E+00
      21    -1     0     0   502   503  0.000000000E+00  0.000000000E+00 -3.696083516E+02  3.696083516E+02  0.000000000E+00  0.00000E+00  9.000E+00
      25     1     1     2     0     0 -2.965040371E+01 -3.565196909E+01 -3.086528077E+02  3.362164107E+02  1.249988391E+02  0.00000E+00  9.000E+00
       5     1     1     2   501     0  3.452245678E-01 -8.516745768E-01  4.119957814E+00  6.354611080E+00  4.750000000E+00  0.00000E+00  9.000E+00
      -5     1     1     2     0   503  2.321902856E+01  2.637042269E+01 -2.433108311E+01  4.300100680E+01  4.750000000E+00  0.00000E+00  9.000E+00
      21     1     1     2   502   512  6.086150576E+00  1.013322098E+01 -9.571177676E+00  1.520956404E+01  1.192092896E-07  0.00000E+00  9.000E+00
#rwgt            1           9  0.12308142519614475                9     2276393           0
</event>
<event>
      6   9999 -3.45752E-01  3.96877E+00 -1.00000E+00  2.48557E-01
      21    -1     0     0   511   502  0.000000000E+00  0.000000000E+00  4.993513433E+01  4.993513433E+01  0.000000000E+00  0.00000E+00  9.000E+00
      21    -1     0     0   502   503  0.000000000E+00  0.000000000E+00 -1.076144259E+03  1.076144259E+03  0.000000000E+00  0.00000E+00  9.000E+00
      25     1     1     2     0     0 -1.267048681E+01 -1.417238249E+01 -9.592856769E+02  9.675725542E+02  1.249249377E+02  0.00000E+00  9.000E+00
       5     1     1     2   501     0 -4.029185675E+00  7.533427792E+00  2.017543239E+01  2.241868515E+01  4.750000000E+00  0.00000E+00  9.000E+00
      -5     1     1     2     0   503  1.348858605E+01  8.971346649E+00 -1.107890468E+02  1.120678473E+02  4.750000000E+00  0.00000E+00  9.000E+00
      21     1     1     2   511   501  3.211086438E+00 -2.332391953E+00  2.369016672E+01  2.402030657E+01  5.840038640E-07  0.00000E+00  9.000E+00
#rwgt            1           9  -5.0218091260653127E-005           9     2278579           0
</event>
<event>
      6   9999  3.45752E-01  1.28810E+01 -1.00000E+00  1.76310E-01
      21    -1     0     0   502   503  0.000000000E+00  0.000000000E+00  9.011406238E+00  9.011406238E+00  0.000000000E+00  0.00000E+00  9.000E+00
      21    -1     0     0   501   512  0.000000000E+00  0.000000000E+00 -9.984714282E+02  9.984714282E+02  0.000000000E+00  0.00000E+00  9.000E+00
      25     1     1     2     0     0  1.360457237E+01 -1.670034713E+01 -5.148283255E+02  5.302234833E+02  1.249990057E+02  0.00000E+00  9.000E+00
       5     1     1     2   501     0  4.958350128E+00  2.113491928E+00 -8.091542593E+01  8.123374138E+01  4.750000000E+00  0.00000E+00  9.000E+00
      -5     1     1     2     0   503 -8.511698531E+00  2.264240736E+01 -1.537332843E+02  1.556971831E+02  4.750000000E+00  0.00000E+00  9.000E+00
      21     1     1     2   502   512 -1.005122397E+01 -8.055552161E+00 -2.399829862E+02  2.403284267E+02  2.697398305E-06  0.00000E+00  9.000E+00
#rwgt            1           9   7.2571815680570173E-005           9     2284633           0
</event>
<event>
      6   9999 -3.45752E-01  1.02656E+01 -1.00000E+00  1.86003E-01
      21    -1     0     0   501   502  0.000000000E+00  0.000000000E+00  2.814705096E+01  2.814705096E+01  0.000000000E+00  0.00000E+00  9.000E+00
      21    -1     0     0   502   511  0.000000000E+00  0.000000000E+00 -1.178853896E+03  1.178853896E+03  0.000000000E+00  0.00000E+00  9.000E+00
      25     1     1     2     0     0 -9.985627015E+00  1.069757207E+01 -1.120498398E+03  1.127544894E+03  1.250067089E+02  0.00000E+00  9.000E+00
       5     1     1     2   501     0  8.225274404E+00 -5.108591652E-01  1.970996024E+01  2.188518103E+01  4.750000000E+00  0.00000E+00  9.000E+00
      -5     1     1     2     0   503  7.919292777E+00 -1.973954293E+00 -3.564010847E+00  1.009338233E+01  4.750000000E+00  0.00000E+00  9.000E+00
      21     1     1     2   503   511 -6.158940165E+00 -8.212758610E+00 -4.635439573E+01  4.747748889E+01  9.536743164E-07  0.00000E+00  9.000E+00
#rwgt            1           9  -4.4057897005472836E-003           9     2286563           0
</event>
<event>
      6   9999  3.45752E-01  8.50214E+00 -1.00000E+00  1.94936E-01
      21    -1     0     0   501   502  0.000000000E+00  0.000000000E+00  1.657186990E+01  1.657186990E+01  0.000000000E+00  0.00000E+00  9.000E+00
      21    -1     0     0   512   503  0.000000000E+00  0.000000000E+00 -1.526694133E+03  1.526694133E+03  0.000000000E+00  0.00000E+00  9.000E+00
      25     1     1     2     0     0 -7.109924103E+01  3.340734101E+01 -6.340161108E+02  6.509771675E+02  1.249947653E+02  0.00000E+00  9.000E+00
       5     1     1     2   501     0  2.812814410E-01  1.783255250E-01  5.672719017E-01  4.795332799E+00  4.750000000E+00  0.00000E+00  9.000E+00
      -5     1     1     2     0   503  6.260140950E+01 -3.577077718E+01 -2.371515932E+02  2.479151582E+02  4.750000000E+00  0.00000E+00  9.000E+00
      21     1     1     2   512   502  8.216550088E+00  2.185110641E+00 -6.395218313E+02  6.395783448E+02  7.629394531E-06  0.00000E+00  9.000E+00
#rwgt            1           9   4.6546030733342673E-004           9     2290017           0
</event>
<event>
      6   9999  3.45752E-01  1.55968E+01 -1.00000E+00  1.68916E-01
      21    -1     0     0   502   503  0.000000000E+00  0.000000000E+00  1.083232129E+01  1.083232129E+01  0.000000000E+00  0.00000E+00  9.000E+00
      21    -1     0     0   511   502  0.000000000E+00  0.000000000E+00 -9.343789919E+02  9.343789919E+02  0.000000000E+00  0.00000E+00  9.000E+00
      25     1     1     2     0     0 -3.371292978E+01  3.059989665E+01 -4.610183093E+02  4.798289057E+02  1.249999275E+02  0.00000E+00  9.000E+00
       5     1     1     2   501     0  1.763329381E+01 -1.492143831E+01 -2.474610061E+02  2.485821683E+02  4.750000000E+00  0.00000E+00  9.000E+00
      -5     1     1     2     0   503  4.393396459E+00 -5.349262939E+00 -3.246136248E+01  3.352937668E+01  4.750000000E+00  0.00000E+00  9.000E+00
      21     1     1     2   511   501  1.168623951E+01 -1.032919540E+01 -1.826059927E+02  1.832708625E+02  3.814697266E-06  0.00000E+00  9.000E+00
#rwgt            1           9   2.3775931721426238E-003           9     2293825           0
</event>
<event>
      6   9999  3.45752E-01  9.97038E+00 -1.00000E+00  1.87329E-01
      21    -1     0     0   501   502  0.000000000E+00  0.000000000E+00  1.836068484E+02  1.836068484E+02  0.000000000E+00  0.00000E+00  9.000E+00
       2    -1     0     0   502     0  0.000000000E+00  0.000000000E+00 -2.136894285E+02  2.136894285E+02  0.000000000E+00  0.00000E+00  9.000E+00
      25     1     1     2     0     0  3.736924513E+00  9.624856068E+00  6.294274404E+01  1.403310426E+02  1.249976401E+02  0.00000E+00  9.000E+00
       5     1     1     2   501     0  1.412076177E+00 -1.098669970E-02  7.833892337E+01  7.849549984E+01  4.750000000E+00  0.00000E+00  9.000E+00
      -5     1     1     2     0   503 -2.586518011E-01 -9.252059199E-01  1.687069217E+00  5.131433454E+00  4.750000000E+00  0.00000E+00  9.000E+00
       2     1     1     2   503     0 -4.890348889E+00 -8.688663448E+00 -1.730513167E+02  1.733383010E+02  2.697398305E-06  0.00000E+00  9.000E+00
#rwgt            1           9  0.68511227059246749                9     2295830           0
</event>
<event>
      6   9999  3.45752E-01  2.20280E+01 -1.00000E+00  1.57073E-01
      21    -1     0     0   501   502  0.000000000E+00  0.000000000E+00  2.166088615E+02  2.166088615E+02  0.000000000E+00  0.00000E+00  9.000E+00
      21    -1     0     0   511   503  0.000000000E+00  0.000000000E+00 -3.269918889E+02  3.269918889E+02  0.000000000E+00  0.00000E+00  9.000E+00
      25     1     1     2     0     0 -3.834653586E+01 -7.176654419E+01 -7.746867408E+01  1.680726500E+02  1.250045060E+02  0.00000E+00  9.000E+00
       5     1     1     2   501     0  2.354015730E+00 -1.534415427E+00  1.037076371E+02  1.038543803E+02  4.750000000E+00  0.00000E+00  9.000E+00
      -5     1     1     2     0   503  3.744271048E+01  5.132076836E+01  5.171461536E+01  8.205328619E+01  4.750000000E+00  0.00000E+00  9.000E+00
      21     1     1     2   511   502 -1.450190343E+00  2.198019126E+01 -1.883366058E+02  1.896204339E+02  3.814697266E-06  0.00000E+00  9.000E+00
#rwgt            1           9   1.8990518491965257E-004           9     2298347           0
</event>
<event>
      6   9999  3.45752E-01  3.36635E+01 -1.00000E+00  1.44672E-01
      21    -1     0     0   501   502  0.000000000E+00  0.000000000E+00  8.401904496E+01  8.401904496E+01  0.000000000E+00  0.00000E+00  9.000E+00
      21    -1     0     0   502   512  0.000000000E+00  0.000000000E+00 -1.745978399E+03  1.745978399E+03  0.000000000E+00  0.00000E+00  9.000E+00
      25     1     1     2     0     0  6.585671225E+01  2.414580351E+02 -5.429295858E+02  6.107674826E+02  1.250011737E+02  0.00000E+00  9.000E+00
       5     1     1     2   501     0  6.044080415E+00 -5.539411919E-01  3.573448133E+01  3.655616794E+01  4.750000000E+00  0.00000E+00  9.000E+00
      -5     1     1     2     0   503 -5.896429394E+01 -2.098254803E+02 -9.181344143E+02  9.436614252E+02  4.750000000E+00  0.00000E+00  9.000E+00
      21     1     1     2   503   512 -1.293649872E+01 -3.107861354E+01 -2.366298350E+02  2.390123679E+02  3.814697266E-06  0.00000E+00  9.000E+00
#rwgt            1           9   9.7575760124909197E-005           9     2301052           0
</event>
<event>
      6   9999  3.45752E-01  1.08579E+01 -1.00000E+00  1.83505E-01
      21    -1     0     0   501   502  0.000000000E+00  0.000000000E+00  6.901013394E+01  6.901013394E+01  0.000000000E+00  0.00000E+00  9.000E+00
      21    -1     0     0   511   503  0.000000000E+00  0.000000000E+00 -1.501176721E+03  1.501176721E+03  0.000000000E+00  0.00000E+00  9.000E+00
      25     1     1     2     0     0  1.672323678E+02  9.218826969E+01 -4.584757450E+02  5.121436562E+02  1.250030956E+02  0.00000E+00  9.000E+00
       5     1     1     2   501     0 -8.299281348E+01 -2.189690823E+02 -6.615069260E+02  7.017472777E+02  4.750000000E+00  0.00000E+00  9.000E+00
      -5     1     1     2     0   503 -8.178701772E+01  1.373581346E+02 -2.816848086E+02  3.239216994E+02  4.750000000E+00  0.00000E+00  9.000E+00
      21     1     1     2   511   502 -2.452536622E+00 -1.057732202E+01 -3.049910759E+01  3.237422186E+01  0.000000000E+00  0.00000E+00  9.000E+00
#rwgt            1           9   2.5167887307860283E-003           9     2302977           0
</event>
<event>
      6   9999  3.45752E-01  5.84884E+00 -1.00000E+00  2.15613E-01
      21    -1     0     0   501   502  0.000000000E+00  0.000000000E+00  1.228994718E+01  1.228994718E+01  0.000000000E+00  0.00000E+00  9.000E+00
      21    -1     0     0   502   512  0.000000000E+00  0.000000000E+00 -1.538927721E+03  1.538927721E+03  0.000000000E+00  0.00000E+00  9.000E+00
      25     1     1     2     0     0  4.328470378E+01  2.718286299E+01 -6.942614016E+02  7.072719641E+02  1.249890545E+02  0.00000E+00  9.000E+00
       5     1     1     2   501     0 -1.066658164E+00 -5.191097504E-01  3.330690881E+00  5.921421816E+00  4.750000000E+00  0.00000E+00  9.000E+00
      -5     1     1     2     0   503 -4.656737110E+01 -3.057429011E+01 -7.188485964E+02  7.210195381E+02  4.750000000E+00  0.00000E+00  9.000E+00
      21     1     1     2   503   512  4.349325486E+00  3.910536873E+00 -1.168584668E+02  1.170047444E+02  1.348699152E-06  0.00000E+00  9.000E+00
#rwgt            1           9   4.9651509110804322E-003           9     2307062           0
</event>
<event>
      6   9999  3.45752E-01  6.45392E+01 -1.00000E+00  1.29112E-01
      21    -1     0     0   511   502  0.000000000E+00  0.000000000E+00  1.332939210E+02  1.332939210E+02  0.000000000E+00  0.00000E+00  9.000E+00
      21    -1     0     0   502   503  0.000000000E+00  0.000000000E+00 -1.172430233E+03  1.172430233E+03  0.000000000E+00  0.00000E+00  9.000E+00
      25     1     1     2     0     0 -2.103742991E+02  1.936171472E+02 -8.405941341E+02  8.966435501E+02  1.250048489E+02  0.00000E+00  9.000E+00
       5     1     1     2   501     0  1.281016436E+02 -1.017984301E+02 -2.560412421E+01  1.656836901E+02  4.750000000E+00  0.00000E+00  9.000E+00
      -5     1     1     2     0   503  2.548285466E+01 -6.115561725E+01 -1.656213185E+02  1.784443023E+02  4.750000000E+00  0.00000E+00  9.000E+00
      21     1     1     2   511   501  5.678980086E+01 -3.066309983E+01 -7.316735648E+00  6.495261191E+01  1.452691270E-06  0.00000E+00  9.000E+00
#rwgt            1           9   5.3530528169234469E-003           9     2311361           0
</event>
<event>
      6   9999  3.45752E-01  6.78579E+00 -1.00000E+00  2.06874E-01
      21    -1     0     0   501   512  0.000000000E+00  0.000000000E+00  5.206893639E+00  5.206893639E+00  0.000000000E+00  0.00000E+00  9.000E+00
      21    -1     0     0   502   503  0.000000000E+00  0.000000000E+00 -1.294513871E+03  1.294513871E+03  0.000000000E+00  0.00000E+00  9.000E+00
      25     1     1     2     0     0  9.941574824E+00  1.949173044E+00 -1.223468137E+03  1.229879054E+03  1.250022849E+02  0.00000E+00  9.000E+00
       5     1     1     2   501     0 -2.226855066E-01  1.270040725E+00 -3.956774339E+00  6.315152844E+00  4.750000000E+00  0.00000E+00  9.000E+00
      -5     1     1     2     0   503 -5.338367654E+00  1.963252558E+00 -3.706190905E+01  3.779550412E+01  4.750000000E+00  0.00000E+00  9.000E+00
      21     1     1     2   502   512 -4.380521664E+00 -5.182466327E+00 -2.482015741E+01  2.573105402E+01  8.259061849E-07  0.00000E+00  9.000E+00
#rwgt            1           9   1.1385232157245268E-003           9     2312636           0
</event>
<event>
      6   9999  3.45752E-01  4.23685E+00 -1.00000E+00  2.42790E-01
      21    -1     0     0   511   502  0.000000000E+00  0.000000000E+00  2.348678216E+01  2.348678216E+01  0.000000000E+00  0.00000E+00  9.000E+00
      21    -1     0     0   502   503  0.000000000E+00  0.000000000E+00 -1.159529638E+03  1.159529638E+03  0.000000000E+00  0.00000E+00  9.000E+00
      25     1     1     2     0     0  5.498810525E+00  3.842312766E-01 -1.117849972E+03  1.124830605E+03  1.249997788E+02  0.00000E+00  9.000E+00
       5     1     1     2   501     0 -9.742095878E-01 -2.941721052E+00  3.806148761E+00  6.830232460E+00  4.750000000E+00  0.00000E+00  9.000E+00
      -5     1     1     2     0   503 -3.982515594E+00 -1.644539145E+00 -3.608282792E+01  3.664830024E+01  4.750000000E+00  0.00000E+00  9.000E+00
      21     1     1     2   511   501 -5.420853429E-01  4.202028920E+00  1.408379486E+01  1.470728327E+01  1.460009660E-06  0.00000E+00  9.000E+00
#rwgt            1           9   3.4288078984316588                9     2315394           0
</event>
<event>
      6   9999  3.45752E-01  7.38591E+00 -1.00000E+00  2.02213E-01
      21    -1     0     0   501   502  0.000000000E+00  0.000000000E+00  4.524523826E+01  4.524523826E+01  0.000000000E+00  0.00000E+00  9.000E+00
      21    -1     0     0   502   512  0.000000000E+00  0.000000000E+00 -1.557360567E+03  1.557360567E+03  0.000000000E+00  0.00000E+00  9.000E+00
      25     1     1     2     0     0  3.357924300E+00 -1.420305731E+01 -1.014647113E+03  1.022422409E+03  1.250032635E+02  0.00000E+00  9.000E+00
       5     1     1     2   501     0  9.844828955E+00  6.228326351E+00  4.021541105E+01  4.213732896E+01  4.750000000E+00  0.00000E+00  9.000E+00
      -5     1     1     2     0   503 -5.888601878E+00  9.001792969E+00 -2.623450903E+02  2.626084858E+02  4.750000000E+00  0.00000E+00  9.000E+00
      21     1     1     2   503   512 -7.314151377E+00 -1.027062014E+00 -2.753385368E+02  2.754375819E+02  3.814697266E-06  0.00000E+00  9.000E+00
#rwgt            1           9   7.4790456407169996E-003           9     2319764           0
</event>
<event>
      6   9999  3.45752E-01  8.98682E+00 -1.00000E+00  1.92217E-01
      -2    -1     0     0     0   502  0.000000000E+00  0.000000000E+00  2.026358235E+03  2.026358235E+03  0.000000000E+00  0.00000E+00  9.000E+00
      21    -1     0     0   502   503  0.000000000E+00  0.000000000E+00 -3.896439702E+01  3.896439702E+01  0.000000000E+00  0.00000E+00  9.000E+00
      25     1     1     2     0     0 -4.026837404E+00 -9.920615196E+00  9.306914688E+01  1.562094964E+02  1.249996266E+02  0.00000E+00  9.000E+00
       5     1     1     2   501     0 -6.263426495E-01  4.440620585E+00  2.235020196E+02  2.235974657E+02  4.750000000E+00  0.00000E+00  9.000E+00
      -5     1     1     2     0   503  1.145663270E+01  1.135161193E+01  2.300885145E+00  1.696968175E+01  4.750000000E+00  0.00000E+00  9.000E+00
      -2     1     1     2     0   501 -6.803452645E+00 -5.871617316E+00  1.668521787E+03  1.668545988E+03  2.157918644E-05  0.00000E+00  9.000E+00
#rwgt            1           9   4.0361693171280112E-002           9     2324292           0
</event>
<event>
      6   9999  3.45752E-01  1.41446E+02 -1.00000E+00  1.14365E-01
       2    -1     0     0   501     0  0.000000000E+00  0.000000000E+00  3.232343580E+03  3.232343580E+03  0.000000000E+00  0.00000E+00  9.000E+00
      21    -1     0     0   511   502  0.000000000E+00  0.000000000E+00 -1.301582374E+01  1.301582374E+01  0.000000000E+00  0.00000E+00  9.000E+00
      25     1     1     2     0     0  9.784170558E+01 -3.502206525E+01  7.400163438E+02  7.576612899E+02  1.250075869E+02  0.00000E+00  9.000E+00
       5     1     1     2   501     0  1.955752914E+01 -2.649304601E+01  9.819167368E+02  9.824802384E+02  4.750000000E+00  0.00000E+00  9.000E+00
      -5     1     1     2     0   502  4.856646993E+00 -9.622403118E+00  1.063229159E+02  1.069733733E+02  4.750000000E+00  0.00000E+00  9.000E+00
       2     1     1     2   511     0 -1.222558817E+02  7.113751438E+01  1.391071760E+03  1.398244502E+03  2.642899792E-05  0.00000E+00  9.000E+00
#rwgt            1           4   1.2713468250108455E-003           9     2327254           0
</event>
<event>
      6   9999  3.45752E-01  8.18196E+00 -1.00000E+00  1.96866E-01
      21    -1     0     0   501   502  0.000000000E+00  0.000000000E+00  2.580222235E+01  2.580222235E+01  0.000000000E+00  0.00000E+00  9.000E+00
       2    -1     0     0   502     0  0.000000000E+00  0.000000000E+00 -2.282728505E+03  2.282728505E+03  0.000000000E+00  0.00000E+00  9.000E+00
      25     1     1     2     0     0  5.680494080E+00  4.006303607E+01 -5.084794161E+02  5.251793555E+02  1.249988961E+02  0.00000E+00  9.000E+00
       5     1     1     2   501     0 -2.615159896E+00  1.144414623E+00  1.606189924E+01  1.699105215E+01  4.750000000E+00  0.00000E+00  9.000E+00
      -5     1     1     2     0   503  4.449520680E+00 -4.444341542E+01 -5.521689637E+02  5.539929082E+02  4.750000000E+00  0.00000E+00  9.000E+00
       2     1     1     2   503     0 -7.514854864E+00  3.235964719E+00 -1.212339802E+03  1.212367411E+03  1.525878906E-05  0.00000E+00  9.000E+00
#rwgt            1           9   1.0368210808767420E-004           9     2327473           0
</event>
<event>
      6   9999  3.45752E-01  2.58074E+01 -1.00000E+00  1.52195E-01
      21    -1     0     0   501   511  0.000000000E+00  0.000000000E+00  2.685847890E+01  2.685847890E+01  0.000000000E+00  0.00000E+00  9.000E+00
      21    -1     0     0   502   503  0.000000000E+00  0.000000000E+00 -7.807820270E+02  7.807820270E+02  0.000000000E+00  0.00000E+00  9.000E+00
      25     1     1     2     0     0 -2.880287042E+01 -2.160799410E+01 -5.826853245E+02  5.970277476E+02  1.249937329E+02  0.00000E+00  9.000E+00
       5     1     1     2   501     0  2.075379697E+01 -8.652165499E+00 -2.792399405E+01  3.616478951E+01  4.750000000E+00  0.00000E+00  9.000E+00
      -5     1     1     2     0   503  6.547122444E+00  4.496550765E+00 -1.479401255E+02  1.482293055E+02  4.750000000E+00  0.00000E+00  9.000E+00
      21     1     1     2   502   511  1.501951003E+00  2.576360884E+01  4.625895844E+00  2.621866338E+01  1.002705326E-06  0.00000E+00  9.000E+00
#rwgt            1           9   379.69127444133363                9     2331792           0
</event>
<event>
      6   9999 -3.45752E-01  9.04538E+01 -1.00000E+00  1.22316E-01
      21    -1     0     0   501   512  0.000000000E+00  0.000000000E+00  3.004502827E+01  3.004502827E+01  0.000000000E+00  0.00000E+00  9.000E+00
      21    -1     0     0   502   503  0.000000000E+00  0.000000000E+00 -2.807869196E+03  2.807869196E+03  0.000000000E+00  0.00000E+00  9.000E+00
      25     1     1     2     0     0  1.126787351E+02  8.011870795E+01 -2.137532891E+03  2.145643595E+03  1.249962858E+02  0.00000E+00  9.000E+00
       5     1     1     2   501     0 -2.287265175E+01 -9.395016179E+00 -1.068327265E+02  1.097598218E+02  4.750000000E+00  0.00000E+00  9.000E+00
      -5     1     1     2     0   503 -4.061522512E+01  5.185093181E+00 -4.705031095E+02  4.723052194E+02  4.750000000E+00  0.00000E+00  9.000E+00
      21     1     1     2   502   512 -4.919085827E+01 -7.590878495E+01 -6.295544087E+01  1.102055884E+02  2.523185073E-06  0.00000E+00  9.000E+00
#rwgt            1           9  -7.4026570776340608E-004           9     2333532           0
</event>
<event>
      6   9999  3.45752E-01  8.78351E+00 -1.00000E+00  1.93329E-01
      21    -1     0     0   501   502  0.000000000E+00  0.000000000E+00  1.331864138E+01  1.331864138E+01  0.000000000E+00  0.00000E+00  9.000E+00
      21    -1     0     0   502   511  0.000000000E+00  0.000000000E+00 -1.398148219E+03  1.398148219E+03  0.000000000E+00  0.00000E+00  9.000E+00
      25     1     1     2     0     0  8.342602429E+00  2.549246417E+01 -4.426633549E+02  4.607534405E+02  1.249936895E+02  0.00000E+00  9.000E+00
       5     1     1     2   501     0  3.794606175E-01  1.370779928E-01  2.331099567E+00  5.306534267E+00  4.750000000E+00  0.00000E+00  9.000E+00
      -5     1     1     2     0   503  5.867618064E-02 -2.585015416E+01 -4.121942361E+02  4.130313362E+02  4.750000000E+00  0.00000E+00  9.000E+00
      21     1     1     2   503   511 -8.780739227E+00  2.206119992E-01 -5.323030864E+02  5.323755497E+02  7.629394531E-06  0.00000E+00  9.000E+00
#rwgt            1           9   4.7864808550136233E-003           9     2334192           0
</event>
<event>
      6   9999  3.45752E-01  1.33461E+01 -1.00000E+00  1.74889E-01
      21    -1     0     0   501   512  0.000000000E+00  0.000000000E+00  4.498556858E+02  4.498556858E+02  0.000000000E+00  0.00000E+00  9.000E+00
      21    -1     0     0   502   503  0.000000000E+00  0.000000000E+00 -8.828779728E+01  8.828779728E+01  0.000000000E+00  0.00000E+00  9.000E+00
      25     1     1     2     0     0 -4.753353882E+00 -4.833247165E-01 -4.027587231E+01  1.314164488E+02  1.250012366E+02  0.00000E+00  9.000E+00
       5     1     1     2   501     0 -4.680514730E+00 -7.173366138E+00  1.074767453E+02  1.079220908E+02  4.750000000E+00  0.00000E+00  9.000E+00
      -5     1     1     2     0   503  7.629705631E-01 -2.488947563E+00  1.481544707E+00  5.615555073E+00  4.750000000E+00  0.00000E+00  9.000E+00
      21     1     1     2   502   512  8.670898049E+00  1.014563842E+01  2.928854708E+02  2.931893884E+02  3.814697266E-06  0.00000E+00  9.000E+00
#rwgt            1           9   2.0966514148997384E-004           9     2337428           0
</event>
<event>
      6   9999  3.45752E-01  2.24835E+01 -1.00000E+00  1.56425E-01
      21    -1     0     0   511   502  0.000000000E+00  0.000000000E+00  1.600309267E+01  1.600309267E+01  0.000000000E+00  0.00000E+00  9.000E+00
      21    -1     0     0   502   503  0.000000000E+00  0.000000000E+00 -4.674974376E+02  4.674974376E+02  0.000000000E+00  0.00000E+00  9.000E+00
      25     1     1     2     0     0  2.029668438E+01  9.199716126E+00 -3.925004365E+02  4.125268186E+02  1.250007730E+02  0.00000E+00  9.000E+00
       5     1     1     2   501     0  1.101520035E+00  1.707278936E+00 -1.664700235E+00  5.427879386E+00  4.750000000E+00  0.00000E+00  9.000E+00
      -5     1     1     2     0   503 -5.617431883E+00  5.107826049E+00 -1.229422662E+01  1.521038908E+01  4.750000000E+00  0.00000E+00  9.000E+00
      21     1     1     2   511   501 -1.578077253E+01 -1.601482111E+01 -4.503498161E+01  5.033544323E+01  9.536743164E-07  0.00000E+00  9.000E+00
#rwgt            1           9   2.8153333013885592E-003           9     2339654           0
</event>
<event>
      6   9999  3.45752E-01  1.18074E+01 -1.00000E+00  1.79900E-01
      21    -1     0     0   501   502  0.000000000E+00  0.000000000E+00  1.718360255E+03  1.718360255E+03  0.000000000E+00  0.00000E+00  9.000E+00
      21    -1     0     0   502   512  0.000000000E+00  0.000000000E+00 -2.999010137E+01  2.999010137E+01  0.000000000E+00  0.00000E+00  9.000E+00
      25     1     1     2     0     0  8.896351483E+00 -5.130652978E+00  3.548528949E+02  3.763689625E+02  1.250102006E+02  0.00000E+00  9.000E+00
       5     1     1     2   501     0  6.443892687E-01 -5.567446704E+00  1.331247176E+03  1.331267448E+03  4.750000000E+00  0.00000E+00  9.000E+00
      -5     1     1     2     0   503  1.761087818E+00  7.279868856E+00  1.857439956E+01  2.058321501E+01  4.750000000E+00  0.00000E+00  9.000E+00
      21     1     1     2   503   512 -1.130182857E+01  3.418230827E+00 -1.630431616E+01  2.013073164E+01  1.862108630E-06  0.00000E+00  9.000E+00
#rwgt            1           9   2.4038259505489053E-002           9     2340662           0
</event>
<event>
      6   9999  3.45752E-01  1.25740E+01 -1.00000E+00  1.77290E-01
      21    -1     0     0   502   503  0.000000000E+00  0.000000000E+00  6.692363303E+00  6.692363303E+00  0.000000000E+00  0.00000E+00  9.000E+00
      21    -1     0     0   501   511  0.000000000E+00  0.000000000E+00 -1.115511312E+03  1.115511312E+03  0.000000000E+00  0.00000E+00  9.000E+00
      25     1     1     2     0     0  9.379693927E+00  2.812557659E+00 -7.674513248E+02  7.776264917E+02  1.250021423E+02  0.00000E+00  9.000E+00
       5     1     1     2   501     0  9.741242475E-01  1.023903668E-01 -8.659710112E+00  9.925345388E+00  4.750000000E+00  0.00000E+00  9.000E+00
      -5     1     1     2     0   503  2.220124147E+00 -2.876940806E+00 -9.674775357E+00  1.137407217E+01  4.750000000E+00  0.00000E+00  9.000E+00
      21     1     1     2   502   511 -1.257394232E+01 -3.800722002E-02 -3.230331381E+02  3.232777657E+02  0.000000000E+00  0.00000E+00  9.000E+00
#rwgt            1           9   1.3589293177841908E-004           9     2343349           0
</event>
<event>
      6   9999  3.45752E-01  9.06229E+00 -1.00000E+00  1.91813E-01
      21    -1     0     0   501   512  0.000000000E+00  0.000000000E+00  3.689649858E+00  3.689649858E+00  0.000000000E+00  0.00000E+00  9.000E+00
      21    -1     0     0   502   503  0.000000000E+00  0.000000000E+00 -3.773003719E+03  3.773003719E+03  0.000000000E+00  0.00000E+00  9.000E+00
      25     1     1     2     0     0  2.319035296E+01  2.067105371E+01 -2.165076546E+03  2.168904829E+03  1.250064778E+02  0.00000E+00  9.000E+00
       5     1     1     2   501     0 -5.669389951E-01 -4.824753132E-01 -2.352218398E+00  5.352535254E+00  4.750000000E+00  0.00000E+00  9.000E+00
      -5     1     1     2     0   503 -2.299809263E+01 -1.113404170E+01 -1.474388013E+03  1.474617053E+03  4.750000000E+00  0.00000E+00  9.000E+00
      21     1     1     2   502   512  3.746786619E-01 -9.054536701E+00 -1.274972909E+02  1.278189509E+02  0.000000000E+00  0.00000E+00  9.000E+00
#rwgt            1           9   8.7612273737042046E-003           9     2344826           0
</event>
<event>
      6   9999  3.45752E-01  8.43854E+00 -1.00000E+00  1.95310E-01
      21    -1     0     0   511   502  0.000000000E+00  0.000000000E+00  7.906548643E+01  7.906548643E+01  0.000000000E+00  0.00000E+00  9.000E+00
      21    -1     0     0   502   503  0.000000000E+00  0.000000000E+00 -1.498394787E+02  1.498394787E+02  0.000000000E+00  0.00000E+00  9.000E+00
      25     1     1     2     0     0 -2.167146207E+00 -1.491179532E+00 -1.163564578E+02  1.707307941E+02  1.249130043E+02  0.00000E+00  9.000E+00
       5     1     1     2   501     0  2.736717433E+00 -4.362910599E+00  4.235010226E+01  4.292572973E+01  4.750000000E+00  0.00000E+00  9.000E+00
      -5     1     1     2     0   503  3.832981075E-02 -2.562520575E+00 -1.462368150E+00  5.591869229E+00  4.750000000E+00  0.00000E+00  9.000E+00
      21     1     1     2   511   501 -6.079010371E-01  8.416610705E+00  4.694731467E+00  9.656572010E+00  2.528810911E-07  0.00000E+00  9.000E+00
#rwgt            1           9   1.3815610536943372E-005           9     2347561           0
</event>
<event>
      6   9999  3.45752E-01  1.39657E+01 -1.00000E+00  1.73105E-01
      21    -1     0     0   501   502  0.000000000E+00  0.000000000E+00  7.568004840E+00  7.568004840E+00  0.000000000E+00  0.00000E+00  9.000E+00
      -2    -1     0     0     0   503  0.000000000E+00  0.000000000E+00 -2.184768460E+03  2.184768460E+03  0.000000000E+00  0.00000E+00  9.000E+00
      25     1     1     2     0     0  8.386326867E+00 -8.549918523E+00 -6.890676712E+02  7.004157890E+02  1.249983619E+02  0.00000E+00  9.000E+00
       5     1     1     2   501     0 -1.909300213E-01 -6.474469306E-01 -4.672494129E+00  6.697039882E+00  4.750000000E+00  0.00000E+00  9.000E+00
      -5     1     1     2     0   503 -4.826183349E+00 -4.355824885E+00 -1.825466104E+01  1.995145122E+01  4.750000000E+00  0.00000E+00  9.000E+00
      -2     1     1     2     0   502 -3.369213497E+00  1.355319034E+01 -1.465205628E+03  1.465272184E+03  2.157918644E-05  0.00000E+00  9.000E+00
#rwgt            1           9   4.1632669833880715E-005           9     2350463           0
</event>
<event>
      6   9999  3.45752E-01  6.16467E+00 -1.00000E+00  2.12433E-01
      21    -1     0     0   501   502  0.000000000E+00  0.000000000E+00  4.315448889E+01  4.315448889E+01  0.000000000E+00  0.00000E+00  9.000E+00
      21    -1     0     0   511   503  0.000000000E+00  0.000000000E+00 -1.289711028E+03  1.289711028E+03  0.000000000E+00  0.00000E+00  9.000E+00
      25     1     1     2     0     0 -2.768633184E+01 -5.885626079E+01 -5.626485537E+02  5.800254032E+02  1.250019240E+02  0.00000E+00  9.000E+00
       5     1     1     2   501     0  2.743663302E+00  1.906331093E+00  3.214431245E+01  3.266467679E+01  4.750000000E+00  0.00000E+00  9.000E+00
      -5     1     1     2     0   503  2.736813976E+01  6.261740704E+01 -6.905185497E+02  6.939080520E+02  4.750000000E+00  0.00000E+00  9.000E+00
      21     1     1     2   511   502 -2.425471222E+00 -5.667477341E+00 -2.553374820E+01  2.626738485E+01  0.000000000E+00  0.00000E+00  9.000E+00
#rwgt            1           9   1.0979082732239628E-002           9     2352403           0
</event>
<event>
      6   9999  3.45752E-01  3.89051E+01 -1.00000E+00  1.40889E-01
      21    -1     0     0   501   502  0.000000000E+00  0.000000000E+00  2.452038252E+01  2.452038252E+01  0.000000000E+00  0.00000E+00  9.000E+00
      21    -1     0     0   512   503  0.000000000E+00  0.000000000E+00 -1.533514609E+03  1.533514609E+03  0.000000000E+00  0.00000E+00  9.000E+00
      25     1     1     2     0     0 -4.355788521E+01  3.875952074E+01 -2.806315375E+02  3.126951710E+02  1.249984812E+02  0.00000E+00  9.000E+00
       5     1     1     2   501     0 -7.421272396E+00 -9.899658512E-01  4.100933497E+00  9.769108040E+00  4.750000000E+00  0.00000E+00  9.000E+00
      -5     1     1     2     0   503  1.298238081E+01 -4.612727388E+01 -7.471511278E+02  7.487013008E+02  4.750000000E+00  0.00000E+00  9.000E+00
      21     1     1     2   512   502  3.799677679E+01  8.357718986E+00 -4.853124947E+02  4.868694116E+02  5.394796609E-06  0.00000E+00  9.000E+00
#rwgt            1           9   9.4214446975903116E-004           9     2358189           0
</event>
<event>
      6   9999  3.45752E-01  5.68393E+00 -1.00000E+00  2.17385E-01
      21    -1     0     0   501   511  0.000000000E+00  0.000000000E+00  9.483840379E+01  9.483840379E+01  0.000000000E+00  0.00000E+00  9.000E+00
      21    -1     0     0   502   503  0.000000000E+00  0.000000000E+00 -7.435884339E+02  7.435884339E+02  0.000000000E+00  0.00000E+00  9.000E+00
      25     1     1     2     0     0 -2.755174859E+00  3.993005116E+00 -7.214176022E+02  7.321827348E+02  1.249986615E+02  0.00000E+00  9.000E+00
       5     1     1     2   501     0  9.068569143E-01 -5.441858959E-02  3.002901823E-01  4.845412783E+00  4.750000000E+00  0.00000E+00  9.000E+00
      -5     1     1     2     0   503  1.884835822E+00 -9.622402791E+00 -1.236255149E+01  1.647842289E+01  4.750000000E+00  0.00000E+00  9.000E+00
      21     1     1     2   502   511 -3.651787769E-02  5.683816265E+00  8.472983342E+01  8.492026715E+01  9.536743164E-07  0.00000E+00  9.000E+00
#rwgt            1           9   1.0485951482574300E-003           9     2360144           0
</event>
<event>
      6   9999  3.45752E-01  1.73114E+01 -1.00000E+00  1.65148E-01
      21    -1     0     0   501   502  0.000000000E+00  0.000000000E+00  5.931447288E+01  5.931447288E+01  0.000000000E+00  0.00000E+00  9.000E+00
      21    -1     0     0   512   503  0.000000000E+00  0.000000000E+00 -9.996219095E+02  9.996219095E+02  0.000000000E+00  0.00000E+00  9.000E+00
      25     1     1     2     0     0 -5.444420225E+01 -5.236342735E+01 -1.496181741E+02  2.090872238E+02  1.250030777E+02  0.00000E+00  9.000E+00
       5     1     1     2   501     0  3.866299299E+00  1.837306199E+00  2.523935753E+01  2.603673622E+01  4.750000000E+00  0.00000E+00  9.000E+00
      -5     1     1     2     0   503  5.317172606E+01  6.764205850E+01 -7.686344746E+02  7.734495450E+02  4.750000000E+00  0.00000E+00  9.000E+00
      21     1     1     2   512   502 -2.593823108E+00 -1.711593734E+01 -4.729414535E+01  5.036287734E+01  6.743495762E-07  0.00000E+00  9.000E+00
#rwgt            1           9   1.8193613023793046E-003           9     2364027           0
</event>
<event>
      6   9999 -3.45752E-01  1.98992E+01 -1.00000E+00  1.60378E-01
      21    -1     0     0   511   503  0.000000000E+00  0.000000000E+00  1.586291324E+01  1.586291324E+01  0.000000000E+00  0.00000E+00  9.000E+00
      21    -1     0     0   501   502  0.000000000E+00  0.000000000E+00 -7.300644531E+02  7.300644531E+02  0.000000000E+00  0.00000E+00  9.000E+00
      25     1     1     2     0     0 -1.005597115E+01 -9.686545208E-01 -6.032666306E+02  6.161677941E+02  1.250202467E+02  0.00000E+00  9.000E+00
       5     1     1     2   501     0  4.638659114E-01 -7.281725644E+00 -8.272429952E+01  8.318119337E+01  4.750000000E+00  0.00000E+00  9.000E+00
      -5     1     1     2     0   503 -7.540535907E+00 -1.871335674E+00 -2.476103546E+01  2.638243651E+01  4.750000000E+00  0.00000E+00  9.000E+00
      21     1     1     2   511   502  1.713264114E+01  1.012171584E+01 -3.449574280E+00  2.019594234E+01  6.989264130E-07  0.00000E+00  9.000E+00
#rwgt            1           9  -16.575627896801418                9     2366599           0
</event>
<event>
      6   9999  3.45752E-01  3.49475E+00 -1.00000E+00  2.60648E-01
      21    -1     0     0   512   502  0.000000000E+00  0.000000000E+00  1.092053065E+03  1.092053065E+03  0.000000000E+00  0.00000E+00  9.000E+00
      21    -1     0     0   502   503  0.000000000E+00  0.000000000E+00 -9.847375162E+00  9.847375162E+00  0.000000000E+00  0.00000E+00  9.000E+00
      25     1     1     2     0     0 -1.275811586E+00  4.707389855E+00  4.083614701E+02  4.270865523E+02  1.249801810E+02  0.00000E+00  9.000E+00
       5     1     1     2   501     0 -2.518813211E-01 -1.955869022E+00  5.844790760E+02  5.845017038E+02  4.750000000E+00  0.00000E+00  9.000E+00
      -5     1     1     2     0   503  2.256297235E+00  6.664373612E-01  1.582723999E+01  1.669128640E+01  4.750000000E+00  0.00000E+00  9.000E+00
      21     1     1     2   512   501 -7.286043280E-01 -3.417958194E+00  7.353790394E+01  7.362089798E+01  9.536743164E-07  0.00000E+00  9.000E+00
#rwgt            1           9   9.5242466838600642E-003           9     2367816           0
</event>
<event>
      6   9999  3.45752E-01  5.01592E+00 -1.00000E+00  2.25502E-01
      21    -1     0     0   501   511  0.000000000E+00  0.000000000E+00  4.075571194E+01  4.075571194E+01  0.000000000E+00  0.00000E+00  9.000E+00
      21    -1     0     0   502   503  0.000000000E+00  0.000000000E+00 -9.927482772E+02  9.927482772E+02  0.000000000E+00  0.00000E+00  9.000E+00
      25     1     1     2     0     0  5.113466203E-01 -5.783192986E+01 -5.850682786E+02  6.010627383E+02  1.250069240E+02  0.00000E+00  9.000E+00
       5     1     1     2   501     0  1.885123844E-01 -2.102831001E+00  1.509028445E+01  1.596047054E+01  4.750000000E+00  0.00000E+00  9.000E+00
      -5     1     1     2     0   503  3.273722561E+00  5.687369787E+01 -3.967850420E+02  4.008818615E+02  4.750000000E+00  0.00000E+00  9.000E+00
      21     1     1     2   502   511 -3.973581566E+00  3.061062994E+00  1.477047097E+01  1.559891887E+01  6.078504936E-07  0.00000E+00  9.000E+00
#rwgt            1           9  0.54727842813890204                9     2373702           0
</event>
<event>
      6   9999  3.45752E-01  7.33640E+00 -1.00000E+00  2.02574E-01
      21    -1     0     0   501   502  0.000000000E+00  0.000000000E+00  1.056432060E+01  1.056432060E+01  0.000000000E+00  0.00000E+00  9.000E+00
      21    -1     0     0   502   512  0.000000000E+00  0.000000000E+00 -1.210306476E+03  1.210306476E+03  0.000000000E+00  0.00000E+00  9.000E+00
      25     1     1     2     0     0  7.038350857E+00  1.246199815E+01 -6.293775811E+02  6.418316060E+02  1.250073241E+02  0.00000E+00  9.000E+00
       5     1     1     2   501     0 -2.711235723E-01 -6.429160958E-01  2.120128327E+00  5.248265735E+00  4.750000000E+00  0.00000E+00  9.000E+00
      -5     1     1     2     0   503  3.742275831E-01 -1.349906507E+01 -8.125073913E+01  8.250218126E+01  4.750000000E+00  0.00000E+00  9.000E+00
      21     1     1     2   503   512 -7.141454868E+00  1.679983012E+00 -4.912339636E+02  4.912887437E+02  0.000000000E+00  0.00000E+00  9.000E+00
#rwgt            1           9   2.3216054505803725E-004           9     2378518           0
</event>
<event>
      6   9999  3.45752E-01  1.60384E+01 -1.00000E+00  1.67890E-01
      21    -1     0     0   502   503  0.000000000E+00  0.000000000E+00  5.015244959E+01  5.015244959E+01  0.000000000E+00  0.00000E+00  9.000E+00
       2    -1     0     0   501     0  0.000000000E+00  0.000000000E+00 -3.483895613E+03  3.483895613E+03  0.000000000E+00  0.00000E+00  9.000E+00
      25     1     1     2     0     0  9.734487974E+01 -7.308042529E+01 -1.216004004E+02  2.126707325E+02  1.250016357E+02  0.00000E+00  9.000E+00
       5     1     1     2   501     0 -9.989278684E+01  6.460949895E+01 -1.039492145E+03  1.046288410E+03  4.750000000E+00  0.00000E+00  9.000E+00
      -5     1     1     2     0   503  3.200599791E-02 -7.368928264E+00 -1.494831262E+01  1.732964738E+01  4.750000000E+00  0.00000E+00  9.000E+00
       2     1     1     2   502     0  2.515901105E+00  1.583985461E+01 -2.257702306E+03  2.257759273E+03  3.051757812E-05  0.00000E+00  9.000E+00
#rwgt            1           9   4.1626392625180982E-002           9     2381760           0
</event>
<event>
      6   9999  3.45752E-01  1.28128E+02 -1.00000E+00  1.16032E-01
      21    -1     0     0   511   502  0.000000000E+00  0.000000000E+00  1.283665240E+02  1.283665240E+02  0.000000000E+00  0.00000E+00  9.000E+00
      21    -1     0     0   502   503  0.000000000E+00  0.000000000E+00 -1.267854833E+03  1.267854833E+03  0.000000000E+00  0.00000E+00  9.000E+00
      25     1     1     2     0     0 -1.170482997E+02 -4.125682336E+01 -3.115002110E+02  3.578517463E+02  1.249922437E+02  0.00000E+00  9.000E+00
       5     1     1     2   501     0 -1.887360065E+01  3.409286840E+00  2.754739193E+00  1.994961469E+01  4.750000000E+00  0.00000E+00  9.000E+00
      -5     1     1     2     0   503  7.809151583E+00  3.983161224E+01 -8.801483427E+02  8.810965939E+02  4.750000000E+00  0.00000E+00  9.000E+00
      21     1     1     2   511   501  1.281127488E+02 -1.984075715E+00  4.940550505E+01  1.373234026E+02  1.907348633E-06  0.00000E+00  9.000E+00
#rwgt            1           9   4.4864469256220780E-003           9     2384607           0
</event>
<event>
      6   9999  3.45752E-01  5.71043E+00 -1.00000E+00  2.17095E-01
      21    -1     0     0   501   512  0.000000000E+00  0.000000000E+00  7.541526083E+00  7.541526083E+00  0.000000000E+00  0.00000E+00  9.000E+00
      21    -1     0     0   502   503  0.000000000E+00  0.000000000E+00 -7.143341784E+02  7.143341784E+02  0.000000000E+00  0.00000E+00  9.000E+00
      25     1     1     2     0     0  1.006438987E-01 -7.034738180E+00 -6.167541152E+02  6.293329176E+02  1.249991399E+02  0.00000E+00  9.000E+00
       5     1     1     2   501     0  2.187694301E+00  4.104052733E+00 -2.026105835E+01  2.132374827E+01  4.750000000E+00  0.00000E+00  9.000E+00
      -5     1     1     2     0   503  3.236290246E+00  1.485870736E+00 -5.587462149E+01  5.618912006E+01  4.750000000E+00  0.00000E+00  9.000E+00
      21     1     1     2   502   512 -5.524628445E+00  1.444814710E+00 -1.390285735E+01  1.502991855E+01  2.920019320E-07  0.00000E+00  9.000E+00
#rwgt            1           9   2.4331294555837886E-002           9     2385177           0
</event>
<event>
      6   9999  3.45752E-01  1.40711E+01 -1.00000E+00  1.72813E-01
      21    -1     0     0   501   502  0.000000000E+00  0.000000000E+00  4.411442745E+01  4.411442745E+01  0.000000000E+00  0.00000E+00  9.000E+00
       1    -1     0     0   502     0  0.000000000E+00  0.000000000E+00 -1.787430386E+03  1.787430386E+03  0.000000000E+00  0.00000E+00  9.000E+00
      25     1     1     2     0     0 -2.347538746E+01  1.878807630E+01 -2.371014035E+02  2.697161297E+02  1.250025178E+02  0.00000E+00  9.000E+00
       5     1     1     2   501     0  1.091920013E+01 -2.155010195E+00  2.614211638E+01  2.880704340E+01  4.750000000E+00  0.00000E+00  9.000E+00
      -5     1     1     2     0   503  2.655630766E+01 -1.522179737E+01 -1.004774452E+03  1.005251810E+03  4.750000000E+00  0.00000E+00  9.000E+00
       1     1     1     2   503     0 -1.400012034E+01 -1.411268731E+00 -5.275822199E+02  5.277698303E+02  0.000000000E+00  0.00000E+00  9.000E+00
#rwgt            1           9   141.43651823412463                9     2388119           0
</event>
<event>
      6   9999  3.45752E-01  6.87407E+00 -1.00000E+00  2.06148E-01
      21    -1     0     0   501   502  0.000000000E+00  0.000000000E+00  4.765689612E+02  4.765689612E+02  0.000000000E+00  0.00000E+00  9.000E+00
      21    -1     0     0   511   503  0.000000000E+00  0.000000000E+00 -3.560080082E+01  3.560080082E+01  0.000000000E+00  0.00000E+00  9.000E+00
      25     1     1     2     0     0  4.280619963E+01 -3.969653359E+01  2.318846279E+02  2.698099154E+02  1.249748945E+02  0.00000E+00  9.000E+00
       5     1     1     2   501     0  8.423681294E-01  2.562490189E+00  1.689180987E+02  1.690063978E+02  4.750000000E+00  0.00000E+00  9.000E+00
      -5     1     1     2     0   503 -3.708104577E+01  3.916394699E+01  3.799893290E+01  6.614605129E+01  4.750000000E+00  0.00000E+00  9.000E+00
      21     1     1     2   511   502 -6.567521984E+00 -2.029903593E+00  2.166500873E+00  7.207397563E+00  1.115100797E-07  0.00000E+00  9.000E+00
#rwgt            1           9   12.245447504357225                9     2391657           0
</event>
<event>
      6   9999 -3.45752E-01  7.61638E+00 -1.00000E+00  2.00576E-01
      21    -1     0     0   512   502  0.000000000E+00  0.000000000E+00  2.840226452E+01  2.840226452E+01  0.000000000E+00  0.00000E+00  9.000E+00
      21    -1     0     0   502   503  0.000000000E+00  0.000000000E+00 -1.076515066E+03  1.076515066E+03  0.000000000E+00  0.00000E+00  9.000E+00
      25     1     1     2     0     0 -3.716051381E+01  8.362887343E+01 -2.536111405E+02  2.971813347E+02  1.249937713E+02  0.00000E+00  9.000E+00
       5     1     1     2   501     0  5.539899248E+00 -2.084004555E+01 -1.484344256E+02  1.500677820E+02  4.750000000E+00  0.00000E+00  9.000E+00
      -5     1     1     2     0   503  2.583657912E+01 -5.783361032E+01 -6.468957812E+02  6.500068996E+02  4.750000000E+00  0.00000E+00  9.000E+00
      21     1     1     2   512   501  5.784035446E+00 -4.955217563E+00  8.285458446E-01  7.661314206E+00  2.544130546E-07  0.00000E+00  9.000E+00
#rwgt            1           9 -0.56713917684398607                9     2395589           0
</event>
<event>
      6   9999  3.45752E-01  2.03931E+01 -1.00000E+00  1.59568E-01
      21    -1     0     0   501   502  0.000000000E+00  0.000000000E+00  1.719004440E+03  1.719004440E+03  0.000000000E+00  0.00000E+00  9.000E+00
      21    -1     0     0   502   511  0.000000000E+00  0.000000000E+00 -1.429895978E+02  1.429895978E+02  0.000000000E+00  0.00000E+00  9.000E+00
      25     1     1     2     0     0  3.573806531E+01  3.298816712E+02  7.183052019E+02  8.010542023E+02  1.250053830E+02  0.00000E+00  9.000E+00
       5     1     1     2   501     0 -1.860693329E+00  3.288196867E-01  3.302186074E+02  3.302581740E+02  4.750000000E+00  0.00000E+00  9.000E+00
      -5     1     1     2     0   503 -1.352530706E+01 -3.315028187E+02  5.834055252E+02  6.711643778E+02  4.750000000E+00  0.00000E+00  9.000E+00
      21     1     1     2   503   511 -2.035206492E+01  1.292327856E+00 -5.591449201E+01  5.951728383E+01  2.431401974E-06  0.00000E+00  9.000E+00
#rwgt            1           9   1.0831521046148387E-002           9     2399796           0
</event>
<event>
      6   9999  3.45752E-01  2.14894E+01 -1.00000E+00  1.57865E-01
       2    -1     0     0   501     0  0.000000000E+00  0.000000000E+00  8.278972915E+02  8.278972915E+02  0.000000000E+00  0.00000E+00  9.000E+00
      21    -1     0     0   502   503  0.000000000E+00  0.000000000E+00 -2.925610308E+02  2.925610308E+02  0.000000000E+00  0.00000E+00  9.000E+00
      25     1     1     2     0     0 -4.785518591E+00  3.464513996E+00 -2.719690274E+02  2.993783046E+02  1.250012535E+02  0.00000E+00  9.000E+00
       5     1     1     2   501     0  6.368709950E-01 -2.173556088E+01  1.927898401E+02  1.940704129E+02  4.750000000E+00  0.00000E+00  9.000E+00
      -5     1     1     2     0   503  2.230746039E+00 -3.132595983E+00 -4.519879590E+00  7.601394411E+00  4.750000000E+00  0.00000E+00  9.000E+00
       2     1     1     2   502     0  1.917901557E+00  2.140364287E+01  6.190353275E+02  6.194082103E+02  7.629394531E-06  0.00000E+00  9.000E+00
#rwgt            1           9  0.13235585224927468                9     2402800           0
</event>
<event>
      6   9999  3.45752E-01  1.63732E+01 -1.00000E+00  1.67139E-01
      -1    -1     0     0     0   502  0.000000000E+00  0.000000000E+00  4.435803092E+02  4.435803092E+02  0.000000000E+00  0.00000E+00  9.000E+00
      21    -1     0     0   502   503  0.000000000E+00  0.000000000E+00 -1.205551556E+03  1.205551556E+03  0.000000000E+00  0.00000E+00  9.000E+00
      25     1     1     2     0     0 -4.454304160E+01  2.821276194E+00 -9.319795523E+02  9.413831170E+02  1.249969797E+02  0.00000E+00  9.000E+00
       5     1     1     2   501     0 -1.014657087E+01  2.513631491E+00  3.870767590E+01  4.037471879E+01  4.750000000E+00  0.00000E+00  9.000E+00
      -5     1     1     2     0   503  4.538411557E+01 -1.880669549E+01 -2.655944272E+02  2.701413926E+02  4.750000000E+00  0.00000E+00  9.000E+00
      -1     1     1     2     0   501  9.305496893E+00  1.347178780E+01  3.968950569E+02  3.972326366E+02  9.344061824E-06  0.00000E+00  9.000E+00
#rwgt            1           9   1.2571699807939118E-003           9     2405187           0
</event>
<event>
      6   9999  3.45752E-01  3.58121E+01 -1.00000E+00  1.43029E-01
      21    -1     0     0   502   503  0.000000000E+00  0.000000000E+00  4.099289406E+02  4.099289406E+02  0.000000000E+00  0.00000E+00  9.000E+00
      21    -1     0     0   501   511  0.000000000E+00  0.000000000E+00 -2.101208167E+02  2.101208167E+02  0.000000000E+00  0.00000E+00  9.000E+00
      25     1     1     2     0     0  8.408787149E+01 -9.624264807E+01  1.467703893E+02  2.313037539E+02  1.250058476E+02  0.00000E+00  9.000E+00
       5     1     1     2   501     0 -1.198162298E+02  1.088599181E+02  1.809195380E+02  2.428185586E+02  4.750000000E+00  0.00000E+00  9.000E+00
      -5     1     1     2     0   503  2.768432200E+00  1.388192833E+00  5.453041308E+00  7.866985172E+00  4.750000000E+00  0.00000E+00  9.000E+00
      21     1     1     2   502   511  3.295992607E+01 -1.400546287E+01 -1.333348446E+02  1.380604596E+02  1.907348633E-06  0.00000E+00  9.000E+00
#rwgt            1           9   6.9275172113610486                9     2408598           0
</event>
<event>
      6   9999 -3.45752E-01  3.94330E+01 -1.00000E+00  1.40546E-01
      21    -1     0     0   512   503  0.000000000E+00  0.000000000E+00  2.300078828E+01  2.300078828E+01  0.000000000E+00  0.00000E+00  9.000E+00
      21    -1     0     0   501   502  0.000000000E+00  0.000000000E+00 -3.957426939E+03  3.957426939E+03  0.000000000E+00  0.00000E+00  9.000E+00
      25     1     1     2     0     0 -1.673550621E+02  1.757535511E+02 -1.679608839E+03  1.701648628E+03  1.250006898E+02  0.00000E+00  9.000E+00
       5     1     1     2   501     0 -4.845770522E+01 -5.656551305E+00 -5.225503121E+02  5.248442978E+02  4.750000000E+00  0.00000E+00  9.000E+00
      -5     1     1     2     0   503  1.851577358E+02 -1.452931049E+02 -1.486694479E+03  1.505216433E+03  4.750000000E+00  0.00000E+00  9.000E+00
      21     1     1     2   512   502  3.065503153E+01 -2.480389494E+01 -2.455725210E+02  2.487183693E+02  3.814697266E-06  0.00000E+00  9.000E+00
#rwgt            1           9  -9.0807205309284184E-002           9     2409820           0
</event>
<event>
      6   9999 -3.45752E-01  1.29248E+01 -1.00000E+00  1.76173E-01
      21    -1     0     0   501   502  0.000000000E+00  0.000000000E+00  2.205772823E+01  2.205772823E+01  0.000000000E+00  0.00000E+00  9.000E+00
      21    -1     0     0   511   503  0.000000000E+00  0.000000000E+00 -1.056961404E+03  1.056961404E+03  0.000000000E+00  0.00000E+00  9.000E+00
      25     1     1     2     0     0  1.342504716E+01 -9.171842413E+01 -5.201233297E+02  5.429052496E+02  1.250013228E+02  0.00000E+00  9.000E+00
       5     1     1     2   501     0  1.108336269E+00 -6.695566199E-01  3.067113207E+00  5.800551592E+00  4.750000000E+00  0.00000E+00  9.000E+00
      -5     1     1     2     0   503 -4.833228178E+00  1.009294515E+02 -4.689862379E+02  4.797715791E+02  4.750000000E+00  0.00000E+00  9.000E+00
      21     1     1     2   511   502 -9.700155252E+00 -8.541470795E+00 -4.886122120E+01  5.054175177E+01  6.743495762E-07  0.00000E+00  9.000E+00
#rwgt            1           9  -4.7894945681775068E-005           9     2411575           0
</event>
<event>
      6   9999  3.45752E-01  1.28863E+01 -1.00000E+00  1.76294E-01
      21    -1     0     0   501   502  0.000000000E+00  0.000000000E+00  1.612904623E+03  1.612904623E+03  0.000000000E+00  0.00000E+00  9.000E+00
      21    -1     0     0   502   512  0.000000000E+00  0.000000000E+00 -2.461651137E+01  2.461651137E+01  0.000000000E+00  0.00000E+00  9.000E+00
      25     1     1     2     0     0 -1.305236026E+01 -2.416518205E+01  1.037547332E+03  1.045412064E+03  1.250103844E+02  0.00000E+00  9.000E+00
       5     1     1     2   501     0 -3.541989599E-01  6.280182701E-01  3.804307293E+02  3.804610652E+02  4.750000000E+00  0.00000E+00  9.000E+00
      -5     1     1     2     0   503  1.316005444E+00  2.799534185E+01  1.877912724E+02  1.899305019E+02  4.750000000E+00  0.00000E+00  9.000E+00
      21     1     1     2   503   512  1.209055378E+01 -4.458178075E+00 -1.748122214E+01  2.171750377E+01  5.840038640E-07  0.00000E+00  9.000E+00
#rwgt            1           9   2.0452129088538882E-003           9     2414069           0
</event>
<event>
      6   9999  3.45752E-01  6.94222E+00 -1.00000E+00  2.05598E-01
      21    -1     0     0   501   511  0.000000000E+00  0.000000000E+00  2.031650025E+01  2.031650025E+01  0.000000000E+00  0.00000E+00  9.000E+00
      21    -1     0     0   502   503  0.000000000E+00  0.000000000E+00 -7.240786687E+02  7.240786687E+02  0.000000000E+00  0.00000E+00  9.000E+00
      25     1     1     2     0     0  5.465843299E+00  5.891685660E+00 -6.848022835E+02  6.961636461E+02  1.250002692E+02  0.00000E+00  9.000E+00
       5     1     1     2   501     0 -7.702341571E+00  1.451714147E+00 -1.087855708E+01  1.422459292E+01  4.750000000E+00  0.00000E+00  9.000E+00
      -5     1     1     2     0   503 -1.286962339E+00 -1.361792786E+00 -1.976635033E+01  2.041523590E+01  4.750000000E+00  0.00000E+00  9.000E+00
      21     1     1     2   502   511  3.523460611E+00 -5.981607020E+00  1.168502243E+01  1.359169402E+01  6.529361695E-07  0.00000E+00  9.000E+00
#rwgt            1           9   1.3065488885042719E-003           9     2416147           0
</event>
<event>
      6   9999 -3.45752E-01  4.04344E+01 -1.00000E+00  1.39914E-01
      21    -1     0     0   501   502  0.000000000E+00  0.000000000E+00  5.962851295E+01  5.962851295E+01  0.000000000E+00  0.00000E+00  9.000E+00
       3    -1     0     0   502     0  0.000000000E+00  0.000000000E+00 -2.307834889E+03  2.307834889E+03  0.000000000E+00  0.00000E+00  9.000E+00
      25     1     1     2     0     0 -1.481987046E+02  7.774918878E+01 -2.320859486E+02  3.122462533E+02  1.250041709E+02  0.00000E+00  9.000E+00
       5     1     1     2   501     0 -2.600324694E+00  4.713197756E+00  1.470056434E+01  1.635985982E+01  4.750000000E+00  0.00000E+00  9.000E+00
      -5     1     1     2     0   503  1.119019818E+02 -7.141865283E+01 -1.261507969E+03  1.268482399E+03  4.750000000E+00  0.00000E+00  9.000E+00
       3     1     1     2   503     0  3.889704746E+01 -1.104373371E+01 -7.693130225E+02  7.703748899E+02  0.000000000E+00  0.00000E+00  9.000E+00
#rwgt            1           9  -4.3341525296161199E-002           9     2419193           0
</event>
<event>
      6   9999  3.45752E-01  7.65465E+00 -1.00000E+00  2.00312E-01
      21    -1     0     0   501   502  0.000000000E+00  0.000000000E+00  1.354308880E+01  1.354308880E+01  0.000000000E+00  0.00000E+00  9.000E+00
      21    -1     0     0   511   503  0.000000000E+00  0.000000000E+00 -1.386337598E+03  1.386337598E+03  0.000000000E+00  0.00000E+00  9.000E+00
      25     1     1     2     0     0 -1.401192773E+01  2.800592591E+00 -6.692446160E+02  6.809560025E+02  1.249341585E+02  0.00000E+00  9.000E+00
       5     1     1     2   501     0 -4.203100559E-01 -3.026463956E+00  4.194714209E+00  7.035216551E+00  4.750000000E+00  0.00000E+00  9.000E+00
      -5     1     1     2     0   503  1.129568144E+01 -6.756651737E+00 -2.181534106E+01  2.591749153E+01  4.750000000E+00  0.00000E+00  9.000E+00
      21     1     1     2   511   502  3.136556344E+00  6.982523103E+00 -6.859292668E+02  6.859719766E+02  0.000000000E+00  0.00000E+00  9.000E+00
#rwgt            1           9   1.7776694949477574E-004           9     2420742           0
</event>
<event>
      6   9999  3.45752E-01  3.20379E+01 -1.00000E+00  1.46015E-01
      21    -1     0     0   501   502  0.000000000E+00  0.000000000E+00  1.207883262E+02  1.207883262E+02  0.000000000E+00  0.00000E+00  9.000E+00
      21    -1     0     0   512   503  0.000000000E+00  0.000000000E+00 -5.699272582E+02  5.699272582E+02  0.000000000E+00  0.00000E+00  9.000E+00
      25     1     1     2     0     0  1.939410521E+01 -2.395698559E+01 -4.605662065E+02  4.782218249E+02  1.249992591E+02  0.00000E+00  9.000E+00
       5     1     1     2   501     0  2.901420463E+00 -2.194571030E+00  1.075112252E+02  1.076775762E+02  4.750000000E+00  0.00000E+00  9.000E+00
      -5     1     1     2     0   503 -7.888254378E+00 -2.464135057E+00 -2.782791845E+01  2.941516724E+01  4.750000000E+00  0.00000E+00  9.000E+00
      21     1     1     2   512   502 -1.440727129E+01  2.861569168E+01 -6.825603227E+01  7.540101602E+01  9.536743164E-07  0.00000E+00  9.000E+00
#rwgt            1           9   1.2814497013038135E-003           9     2424059           0
</event>
<event>
      6   9999  3.45752E-01  7.99374E+01 -1.00000E+00  1.24718E-01
      -2    -1     0     0     0   502  0.000000000E+00  0.000000000E+00  3.327506712E+01  3.327506712E+01  0.000000000E+00  0.00000E+00  9.000E+00
       2    -1     0     0   511     0  0.000000000E+00  0.000000000E+00 -1.453490747E+03  1.453490747E+03  0.000000000E+00  0.00000E+00  9.000E+00
      25     1     1     2     0     0  1.477005680E+02 -1.285338990E+01 -8.041638281E+02  8.272157464E+02  1.250030453E+02  0.00000E+00  9.000E+00
       5     1     1     2   501     0 -1.912678420E+01  4.814626570E+01 -7.197035297E+01  8.880422840E+01  4.750000000E+00  0.00000E+00  9.000E+00
      -5     1     1     2     0   502 -7.546883218E+01  2.445542433E+01 -1.626519152E+02  1.810298882E+02  4.750000000E+00  0.00000E+00  9.000E+00
      21     1     1     2   511   501 -5.310495161E+01 -5.974830012E+01 -3.814295833E+02  3.897159507E+02  5.394796609E-06  0.00000E+00  9.000E+00
#rwgt            1           3   4.5115310647647208E-006           9     2425963           0
</event>
<event>
      6   9999  3.45752E-01  1.32966E+01 -1.00000E+00  1.75037E-01
      21    -1     0     0   501   502  0.000000000E+00  0.000000000E+00  5.589316102E+01  5.589316102E+01  0.000000000E+00  0.00000E+00  9.000E+00
       2    -1     0     0   502     0  0.000000000E+00  0.000000000E+00 -2.634244078E+03  2.634244078E+03  0.000000000E+00  0.00000E+00  9.000E+00
      25     1     1     2     0     0  4.164219335E+01  4.923392225E+00 -3.985221109E+02  4.197659952E+02  1.250012230E+02  0.00000E+00  9.000E+00
       5     1     1     2   501     0 -1.431948407E+01  5.529228093E+00  4.347468677E+01  4.634901161E+01  4.750000000E+00  0.00000E+00  9.000E+00
      -5     1     1     2     0   503 -3.509946802E+01  3.326145049E-01 -9.672232297E+02  9.678715937E+02  4.750000000E+00  0.00000E+00  9.000E+00
       2     1     1     2   503     0  7.776758750E+00 -1.078523482E+01 -1.256080263E+03  1.256150638E+03  1.525878906E-05  0.00000E+00  9.000E+00
#rwgt            1           9   1.7326818746039412E-002           9     2427143           0
</event>
<event>
      6   9999 -3.45752E-01  1.82376E+01 -1.00000E+00  1.63330E-01
      21    -1     0     0   501   502  0.000000000E+00  0.000000000E+00  2.872072831E+01  2.872072831E+01  0.000000000E+00  0.00000E+00  9.000E+00
      21    -1     0     0   502   511  0.000000000E+00  0.000000000E+00 -2.557683581E+03  2.557683581E+03  0.000000000E+00  0.00000E+00  9.000E+00
      25     1     1     2     0     0 -3.142158935E+01  2.991816523E+00 -9.626657214E+02  9.712613235E+02  1.250079999E+02  0.00000E+00  9.000E+00
       5     1     1     2   501     0  6.948512287E+00  9.187145410E+00  1.889112411E+01  2.263012448E+01  4.750000000E+00  0.00000E+00  9.000E+00
      -5     1     1     2     0   503  2.704516906E+01  5.876385230E+00 -5.102831761E+01  5.824452568E+01  4.750000000E+00  0.00000E+00  9.000E+00
      21     1     1     2   503   511 -2.572092000E+00 -1.805534716E+01 -1.534159937E+03  1.534268335E+03  2.157918644E-05  0.00000E+00  9.000E+00
#rwgt            1           9  -2.5188467153123737E-004           9     2431808           0
</event>
<event>
      6   9999  3.45752E-01  3.47848E+00 -1.00000E+00  2.61115E-01
      21    -1     0     0   512   502  0.000000000E+00  0.000000000E+00  1.124287316E+01  1.124287316E+01  0.000000000E+00  0.00000E+00  9.000E+00
      21    -1     0     0   502   503  0.000000000E+00  0.000000000E+00 -8.183444086E+02  8.183444086E+02  0.000000000E+00  0.00000E+00  9.000E+00
      25     1     1     2     0     0 -5.993349354E+00  2.482424997E+00 -7.250733984E+02  7.357976220E+02  1.249984990E+02  0.00000E+00  9.000E+00
       5     1     1     2   501     0 -1.067084022E+00 -1.784949973E+00  4.149548249E+00  6.641232219E+00  4.750000000E+00  0.00000E+00  9.000E+00
      -5     1     1     2     0   503  4.491901514E+00 -3.043214781E+00 -7.694559442E+01  7.728276222E+01  4.750000000E+00  0.00000E+00  9.000E+00
      21     1     1     2   512   501  2.568531863E+00  2.345739756E+00 -9.232090845E+00  9.865665325E+00  2.064765462E-07  0.00000E+00  9.000E+00
#rwgt            1           9   1.1473259931214054E-007           9     2434817           0
</event>
<event>
      6   9999  3.45752E-01  3.00192E+01 -1.00000E+00  1.47820E-01
      21    -1     0     0   511   502  0.000000000E+00  0.000000000E+00  3.235297353E+01  3.235297353E+01  0.000000000E+00  0.00000E+00  9.000E+00
      21    -1     0     0   502   503  0.000000000E+00  0.000000000E+00 -9.844197084E+02  9.844197084E+02  0.000000000E+00  0.00000E+00  9.000E+00
      25     1     1     2     0     0 -4.584371965E+01  1.350175038E+01 -7.734028456E+02  7.848953805E+02  1.249994113E+02  0.00000E+00  9.000E+00
       5     1     1     2   501     0  1.938337668E+01 -4.665382666E+01 -4.154028232E+01  6.557783459E+01  4.750000000E+00  0.00000E+00  9.000E+00
      -5     1     1     2     0   503 -1.277271314E+00  2.167259302E+01 -1.343239374E+02  1.361499738E+02  4.750000000E+00  0.00000E+00  9.000E+00
      21     1     1     2   511   501  2.773761429E+01  1.147948326E+01 -2.799669566E+00  3.014949307E+01  7.562981570E-07  0.00000E+00  9.000E+00
#rwgt            1           9  0.62046315461813317                9     2440109           0
</event>
<event>
      6   9999 -3.45752E-01  9.68481E+00 -1.00000E+00  1.88671E-01
      21    -1     0     0   501   502  0.000000000E+00  0.000000000E+00  1.178631446E+02  1.178631446E+02  0.000000000E+00  0.00000E+00  9.000E+00
      21    -1     0     0   512   503  0.000000000E+00  0.000000000E+00 -1.868423339E+02  1.868423339E+02  0.000000000E+00  0.00000E+00  9.000E+00
      25     1     1     2     0     0 -3.471167996E+01  6.104891217E-01 -1.384799840E+02  1.897544161E+02  1.249990361E+02  0.00000E+00  9.000E+00
       5     1     1     2   501     0  5.015930986E+00 -9.364034366E-01  6.174945913E+01  6.214173009E+01  4.750000000E+00  0.00000E+00  9.000E+00
      -5     1     1     2     0   503  3.563106638E+01 -7.327023476E+00  1.606199173E+01  4.004757474E+01  4.750000000E+00  0.00000E+00  9.000E+00
      21     1     1     2   512   502 -5.935317405E+00  7.652937791E+00 -8.310656202E+00  1.276175756E+01  2.064765462E-07  0.00000E+00  9.000E+00
#rwgt            1           9  -4.9663078251824375E-004           9     2442015           0
</event>
<event>
      6   9999  3.45752E-01  4.71477E+00 -1.00000E+00  2.33943E-01
       2    -1     0     0   501     0  0.000000000E+00  0.000000000E+00  2.566893661E+02  2.566893661E+02  0.000000000E+00  0.00000E+00  9.000E+00
      21    -1     0     0   502   503  0.000000000E+00  0.000000000E+00 -8.898636504E+02  8.898636504E+02  0.000000000E+00  0.00000E+00  9.000E+00
      25     1     1     2     0     0 -1.821196846E+01  3.203618669E+01 -8.333207528E+02  8.434517375E+02  1.250174520E+02  0.00000E+00  9.000E+00
       5     1     1     2   501     0  1.237382498E+00  7.971084763E-01  2.201777181E+00  5.438457513E+00  4.750000000E+00  0.00000E+00  9.000E+00
      -5     1     1     2     0   503  1.790437163E+01 -2.821111901E+01 -4.412240000E+01  5.554981945E+01  4.750000000E+00  0.00000E+00  9.000E+00
       2     1     1     2   502     0 -9.297856624E-01 -4.622176159E+00  2.420670914E+02  2.421130021E+02  5.394796609E-06  0.00000E+00  9.000E+00
#rwgt            1           9   1.4672487251028448E-005           9     2444995           0
</event>
<event>
      6   9999  3.45752E-01  6.78755E+00 -1.00000E+00  2.06859E-01
      21    -1     0     0   502   511  0.000000000E+00  0.000000000E+00  2.024473441E+01  2.024473441E+01  0.000000000E+00  0.00000E+00  9.000E+00
      21    -1     0     0   501   502  0.000000000E+00  0.000000000E+00 -7.621618679E+02  7.621618679E+02  0.000000000E+00  0.00000E+00  9.000E+00
      25     1     1     2     0     0 -1.558406630E+00  6.230743319E+00 -4.368829782E+02  4.544553833E+02  1.249868312E+02  0.00000E+00  9.000E+00
       5     1     1     2   501     0 -7.569303954E-01  1.304018853E+00 -2.892912031E+02  2.893341254E+02  4.750000000E+00  0.00000E+00  9.000E+00
      -5     1     1     2     0   503 -4.841599650E-01 -1.351426259E+00 -2.591642307E+01  2.638719857E+01  4.750000000E+00  0.00000E+00  9.000E+00
      21     1     1     2   503   511  2.799496991E+00 -6.183335913E+00  1.017347082E+01  1.222989513E+01  2.064765462E-07  0.00000E+00  9.000E+00
#rwgt            1           9   1.1772109169182580E-004           9     2449462           0
</event>
<event>
      6   9999  3.45752E-01  1.52536E+01 -1.00000E+00  1.69743E-01
      21    -1     0     0   501   502  0.000000000E+00  0.000000000E+00  1.642522329E+01  1.642522329E+01  0.000000000E+00  0.00000E+00  9.000E+00
      21    -1     0     0   502   512  0.000000000E+00  0.000000000E+00 -1.153805700E+03  1.153805700E+03  0.000000000E+00  0.00000E+00  9.000E+00
      25     1     1     2     0     0 -1.887793575E+01  1.010761879E+01 -7.839841941E+02  7.941786038E+02  1.250195897E+02  0.00000E+00  9.000E+00
       5     1     1     2   501     0 -7.899715928E+00 -3.104002949E+00  8.457273909E+00  1.288907786E+01  4.750000000E+00  0.00000E+00  9.000E+00
      -5     1     1     2     0   503  1.152861748E+01 -7.375715502E+00 -1.290732279E+02  1.298836821E+02  4.750000000E+00  0.00000E+00  9.000E+00
      21     1     1     2   503   512  1.524903419E+01  3.720996628E-01 -2.327803290E+02  2.332795599E+02  2.697398305E-06  0.00000E+00  9.000E+00
#rwgt            1           9   8.3687121112473932E-005           9     2452447           0
</event>
<event>
      6   9999  3.45752E-01  4.09687E+00 -1.00000E+00  2.45718E-01
      21    -1     0     0   501   502  0.000000000E+00  0.000000000E+00  1.080091827E+01  1.080091827E+01  0.000000000E+00  0.00000E+00  9.000E+00
      21    -1     0     0   511   503  0.000000000E+00  0.000000000E+00 -9.702421323E+02  9.702421323E+02  0.000000000E+00  0.00000E+00  9.000E+00
      25     1     1     2     0     0  3.455499594E-02 -1.008584171E+01 -7.095180127E+02  7.205158601E+02  1.250022755E+02  0.00000E+00  9.000E+00
       5     1     1     2   501     0  1.845141101E+00  2.943801209E-01  3.894141008E+00  6.420127688E+00  4.750000000E+00  0.00000E+00  9.000E+00
      -5     1     1     2     0   503 -2.827752323E+00  5.805796019E+00 -1.614348801E+02  1.616338036E+02  4.750000000E+00  0.00000E+00  9.000E+00
      21     1     1     2   511   502  9.480562251E-01  3.985665568E+00 -9.238246226E+01  9.247325923E+01  1.348699152E-06  0.00000E+00  9.000E+00
#rwgt            1           9   8.2970324431688410E-005           9     2454558           0
</event>
<event>
      6   9999  3.45752E-01  2.05729E+01 -1.00000E+00  1.59280E-01
      21    -1     0     0   501   502  0.000000000E+00  0.000000000E+00  3.345125159E+02  3.345125159E+02  0.000000000E+00  0.00000E+00  9.000E+00
       3    -1     0     0   502     0  0.000000000E+00  0.000000000E+00 -3.381814504E+02  3.381814504E+02  0.000000000E+00  0.00000E+00  9.000E+00
      25     1     1     2     0     0 -4.279557077E+00  1.582312969E+01  1.426696641E+02  1.903902449E+02  1.250005049E+02  0.00000E+00  9.000E+00
       5     1     1     2   501     0 -1.499304964E+00  2.938162519E+00  1.561858516E+02  1.562928771E+02  4.750000000E+00  0.00000E+00  9.000E+00
      -5     1     1     2     0   503  1.505558299E+00  1.362914182E+00  1.082094387E+01  1.199081178E+01  4.750000000E+00  0.00000E+00  9.000E+00
       3     1     1     2   503     0  4.273303742E+00 -2.012420639E+01 -3.133453941E+02  3.140200325E+02  3.814697266E-06  0.00000E+00  9.000E+00
#rwgt            1           9   2.0409031808436215                9     2459705           0
</event>
<event>
      6   9999  3.45752E-01  2.88969E+01 -1.00000E+00  1.48898E-01
      21    -1     0     0   501   502  0.000000000E+00  0.000000000E+00  7.727285069E+01  7.727285069E+01  0.000000000E+00  0.00000E+00  9.000E+00
      21    -1     0     0   511   503  0.000000000E+00  0.000000000E+00 -1.500623193E+02  1.500623193E+02  0.000000000E+00  0.00000E+00  9.000E+00
      25     1     1     2     0     0 -8.581042885E+00  9.810355184E+00 -6.835311138E+00  1.258631478E+02  1.249997325E+02  0.00000E+00  9.000E+00
       5     1     1     2   501     0 -1.823154824E+00  1.640207773E+00  1.051982267E+01  1.180014169E+01  4.750000000E+00  0.00000E+00  9.000E+00
      -5     1     1     2     0   503 -1.343983898E+01  4.874018672E+00 -1.287928027E+01  1.981978028E+01  4.750000000E+00  0.00000E+00  9.000E+00
      21     1     1     2   511   502  2.384403669E+01 -1.632458163E+01 -6.359469990E+01  6.985210023E+01  6.743495762E-07  0.00000E+00  9.000E+00
#rwgt            1           9   1.2645277936191883                9     2461158           0
</event>
<event>
      6   9999  3.45752E-01  1.54482E+01 -1.00000E+00  1.69271E-01
      21    -1     0     0   501   502  0.000000000E+00  0.000000000E+00  8.091442133E+01  8.091442133E+01  0.000000000E+00  0.00000E+00  9.000E+00
      21    -1     0     0   502   512  0.000000000E+00  0.000000000E+00 -1.614285674E+03  1.614285674E+03  0.000000000E+00  0.00000E+00  9.000E+00
      25     1     1     2     0     0 -1.785814862E+01 -2.153175530E+00 -1.351749659E+03  1.357635914E+03  1.249983340E+02  0.00000E+00  9.000E+00
       5     1     1     2   501     0  1.721530300E+00 -1.134854645E+01  7.633337830E+01  7.733757376E+01  4.750000000E+00  0.00000E+00  9.000E+00
      -5     1     1     2     0   503  1.792849411E+01 -1.842157782E+00 -1.556293099E+02  1.567414082E+02  4.750000000E+00  0.00000E+00  9.000E+00
      21     1     1     2   503   512 -1.791875794E+00  1.534387976E+01 -1.023256621E+02  1.034851999E+02  1.348699152E-06  0.00000E+00  9.000E+00
#rwgt            1           9   6.9421785186560905E-002           9     2462151           0
</event>
<event>
      6   9999  3.45752E-01  4.57360E+01 -1.00000E+00  1.36892E-01
      21    -1     0     0   501   502  0.000000000E+00  0.000000000E+00  3.176933995E+02  3.176933995E+02  0.000000000E+00  0.00000E+00  9.000E+00
      21    -1     0     0   502   511  0.000000000E+00  0.000000000E+00 -7.923746089E+02  7.923746089E+02  0.000000000E+00  0.00000E+00  9.000E+00
      25     1     1     2     0     0  2.119775357E+01 -1.475835879E+01 -3.873199603E+02  4.078093443E+02  1.249982230E+02  0.00000E+00  9.000E+00
       5     1     1     2   501     0  2.256364954E+00 -5.681203996E-01  3.043751866E+02  3.044211403E+02  4.750000000E+00  0.00000E+00  9.000E+00
      -5     1     1     2     0   503  2.096264181E+01  4.420788499E+00 -8.897606890E+01  9.164212491E+01  4.750000000E+00  0.00000E+00  9.000E+00
      21     1     1     2   503   511 -4.441676033E+01  1.090569069E+01 -3.027603666E+02  3.061953989E+02  0.000000000E+00  0.00000E+00  9.000E+00
#rwgt            1           9   3.3160910185619175E-002           9     2465787           0
</event>
<event>
      6   9999  3.45752E-01  8.77834E+00 -1.00000E+00  1.93358E-01
      21    -1     0     0   512   502  0.000000000E+00  0.000000000E+00  4.505306716E+01  4.505306716E+01  0.000000000E+00  0.00000E+00  9.000E+00
      21    -1     0     0   502   503  0.000000000E+00  0.000000000E+00 -1.249982274E+03  1.249982274E+03  0.000000000E+00  0.00000E+00  9.000E+00
      25     1     1     2     0     0  4.815712663E+01  2.485945558E+01 -4.974792415E+02  5.157990230E+02  1.250037398E+02  0.00000E+00  9.000E+00
       5     1     1     2   501     0  6.301315766E+00 -3.174394698E+00  3.014004581E+01  3.131721928E+01  4.750000000E+00  0.00000E+00  9.000E+00
      -5     1     1     2     0   503 -5.312024571E+01 -1.300932450E+01 -7.370848195E+02  7.391262386E+02  4.750000000E+00  0.00000E+00  9.000E+00
      21     1     1     2   512   501 -1.338196686E+00 -8.675736379E+00 -5.051915960E-01  8.792860208E+00  4.028139708E-07  0.00000E+00  9.000E+00
#rwgt            1           9   3.7354616130375615E-004           9     2467375           0
</event>
<event>
      6   9999  3.45752E-01  7.85641E+00 -1.00000E+00  1.98951E-01
      21    -1     0     0   501   502  0.000000000E+00  0.000000000E+00  3.497358121E+01  3.497358121E+01  0.000000000E+00  0.00000E+00  9.000E+00
      21    -1     0     0   502   511  0.000000000E+00  0.000000000E+00 -5.676380830E+02  5.676380830E+02  0.000000000E+00  0.00000E+00  9.000E+00
      25     1     1     2     0     0  2.806431446E+01  7.727875915E+01 -2.419979391E+02  2.845157661E+02  1.250064248E+02  0.00000E+00  9.000E+00
       5     1     1     2   501     0 -1.868303575E+01  3.586424865E+00 -9.264106538E+00  2.168650359E+01  4.750000000E+00  0.00000E+00  9.000E+00
      -5     1     1     2     0   503 -1.714257258E+01 -7.964636069E+01 -2.226689366E+02  2.371527533E+02  4.750000000E+00  0.00000E+00  9.000E+00
      21     1     1     2   503   511  7.761293874E+00 -1.218823325E+00 -5.873351949E+01  5.925664119E+01  9.536743164E-07  0.00000E+00  9.000E+00
#rwgt            1           9  0.15632511491165829                9     2471337           0
</event>
<event>
      6   9999  3.45752E-01  1.96018E+01 -1.00000E+00  1.60880E-01
      21    -1     0     0   512   502  0.000000000E+00  0.000000000E+00  4.103920583E+02  4.103920583E+02  0.000000000E+00  0.00000E+00  9.000E+00
      21    -1     0     0   502   503  0.000000000E+00  0.000000000E+00 -1.639564887E+03  1.639564887E+03  0.000000000E+00  0.00000E+00  9.000E+00
      25     1     1     2     0     0 -1.506151907E+02 -2.814611793E+01 -2.429602895E+02  3.132599780E+02  1.249998875E+02  0.00000E+00  9.000E+00
       5     1     1     2   501     0 -2.851924399E+00 -1.362140714E+00  5.630783755E+01  5.659614802E+01  4.750000000E+00  0.00000E+00  9.000E+00
      -5     1     1     2     0   503  1.354877903E+02  3.731694081E+01 -1.357373922E+03  1.364637689E+03  4.750000000E+00  0.00000E+00  9.000E+00
      21     1     1     2   512   501  1.797932480E+01 -7.808682165E+00  3.148535453E+02  3.154631304E+02  0.000000000E+00  0.00000E+00  9.000E+00
#rwgt            1           9   1.2327530943622954E-003           9     2474889           0
</event>
<event>
      6   9999  3.45752E-01  2.97912E+00 -1.00000E+00  2.77707E-01
      21    -1     0     0   501   502  0.000000000E+00  0.000000000E+00  8.905702092E+01  8.905702092E+01  0.000000000E+00  0.00000E+00  9.000E+00
      21    -1     0     0   502   511  0.000000000E+00  0.000000000E+00 -6.443540342E+01  6.443540342E+01  0.000000000E+00  0.00000E+00  9.000E+00
      25     1     1     2     0     0 -2.289117400E+00  1.572769504E+00  2.539048567E+01  1.275814580E+02  1.249985520E+02  0.00000E+00  9.000E+00
       5     1     1     2   501     0  2.663947067E-01 -2.330876613E-01  9.806894891E+00  1.090243016E+01  4.750000000E+00  0.00000E+00  9.000E+00
      -5     1     1     2     0   503  4.116042857E+00  7.800332865E-01 -3.289527581E+00  7.136788664E+00  4.750000000E+00  0.00000E+00  9.000E+00
      21     1     1     2   503   511 -2.093320164E+00 -2.119715129E+00 -7.286235472E+00  7.871747512E+00  1.192092896E-07  0.00000E+00  9.000E+00
#rwgt            1           9   4.4764721771199737E-004           9     2478080           0
</event>
<event>
      6   9999  3.45752E-01  1.33279E+01 -1.00000E+00  1.74943E-01
      21    -1     0     0   502   503  0.000000000E+00  0.000000000E+00  3.328565587E+03  3.328565587E+03  0.000000000E+00  0.00000E+00  9.000E+00
      21    -1     0     0   512   502  0.000000000E+00  0.000000000E+00 -1.970393016E+00  1.970393016E+00  0.000000000E+00  0.00000E+00  9.000E+00
      25     1     1     2     0     0  8.901349754E+00  6.511090099E+00  2.995201598E+03  2.997829082E+03  1.249998484E+02  0.00000E+00  9.000E+00
       5     1     1     2   501     0 -6.419420049E-01 -8.886960419E-01  1.062364815E+02  1.063482693E+02  4.750000000E+00  0.00000E+00  9.000E+00
      -5     1     1     2     0   503  3.958949883E+00 -2.984531072E-01  1.424563359E+02  1.425907868E+02  4.750000000E+00  0.00000E+00  9.000E+00
      21     1     1     2   512   501 -1.221835763E+01 -5.323940950E+00  8.270077850E+01  8.376784212E+01  1.348699152E-06  0.00000E+00  9.000E+00
#rwgt            1           9   4.7405290267313094E-004           9     2483624           0
</event>
<event>
      6   9999  3.45752E-01  1.35326E+01 -1.00000E+00  1.74339E-01
      21    -1     0     0   502   503  0.000000000E+00  0.000000000E+00  7.531502497E+00  7.531502497E+00  0.000000000E+00  0.00000E+00  9.000E+00
       1    -1     0     0   501     0  0.000000000E+00  0.000000000E+00 -2.572398033E+03  2.572398033E+03  0.000000000E+00  0.00000E+00  9.000E+00
      25     1     1     2     0     0  1.783951323E+01 -8.730823124E+00 -6.522726902E+02  6.644386354E+02  1.249982496E+02  0.00000E+00  9.000E+00
       5     1     1     2   501     0  1.427463291E+00 -2.973655826E-02 -3.442230594E+01  3.477781163E+01  4.750000000E+00  0.00000E+00  9.000E+00
      -5     1     1     2     0   503 -5.734446639E+00  8.714370921E+00 -2.511411904E+01  2.760626041E+01  4.750000000E+00  0.00000E+00  9.000E+00
       1     1     1     2   502     0 -1.353252988E+01  4.618876129E-02 -1.853057415E+03  1.853106828E+03  2.157918644E-05  0.00000E+00  9.000E+00
#rwgt            1           9   2.5851591244121835E-004           9     2485156           0
</event>
<event>
      6   9999  3.45752E-01  1.21740E+01 -1.00000E+00  1.78622E-01
      21    -1     0     0   501   511  0.000000000E+00  0.000000000E+00  1.128848988E+01  1.128848988E+01  0.000000000E+00  0.00000E+00  9.000E+00
      21    -1     0     0   502   503  0.000000000E+00  0.000000000E+00 -7.621451336E+02  7.621451336E+02  0.000000000E+00  0.00000E+00  9.000E+00
      25     1     1     2     0     0  1.133310653E+01  6.125979080E+00 -6.515737828E+02  6.635800128E+02  1.249962881E+02  0.00000E+00  9.000E+00
       5     1     1     2   501     0  6.545306959E-01  4.830518482E-01 -9.929800951E+00  1.103744520E+01  4.750000000E+00  0.00000E+00  9.000E+00
      -5     1     1     2     0   503 -3.567684595E+00  2.183576443E+00 -8.594008067E+01  8.617282835E+01  4.750000000E+00  0.00000E+00  9.000E+00
      21     1     1     2   502   511 -8.419952627E+00 -8.792607371E+00 -3.412979339E+00  1.264333716E+01  3.068336886E-07  0.00000E+00  9.000E+00
#rwgt            1           9   8.7955550242326604E-004           9     2487437           0
</event>
<event>
      6   9999  3.45752E-01  2.89899E+01 -1.00000E+00  1.48807E-01
      21    -1     0     0   501   502  0.000000000E+00  0.000000000E+00  2.182139036E+01  2.182139036E+01  0.000000000E+00  0.00000E+00  9.000E+00
      21    -1     0     0   502   512  0.000000000E+00  0.000000000E+00 -1.326652884E+03  1.326652884E+03  0.000000000E+00  0.00000E+00  9.000E+00
      25     1     1     2     0     0  7.091004610E+01  6.090792660E+00 -7.033080927E+02  7.178667661E+02  1.250003530E+02  0.00000E+00  9.000E+00
       5     1     1     2   501     0  5.786335457E+00  4.982290597E+00  1.017679343E+01  1.358066722E+01  4.750000000E+00  0.00000E+00  9.000E+00
      -5     1     1     2     0   503 -4.823232365E+01 -5.576510725E+00 -2.954487376E+02  2.994494507E+02  4.750000000E+00  0.00000E+00  9.000E+00
      21     1     1     2   503   512 -2.846405790E+01 -5.496572532E+00 -3.162514571E+02  3.175773906E+02  3.814697266E-06  0.00000E+00  9.000E+00
#rwgt            1           9   8.5528155777151552E-005           9     2489653           0
</event>
<event>
      6   9999  3.45752E-01  1.91415E+01 -1.00000E+00  1.61678E-01
      21    -1     0     0   501   502  0.000000000E+00  0.000000000E+00  1.015943755E+02  1.015943755E+02  0.000000000E+00  0.00000E+00  9.000E+00
      21    -1     0     0   502   511  0.000000000E+00  0.000000000E+00 -6.618011422E+02  6.618011422E+02  0.000000000E+00  0.00000E+00  9.000E+00
      25     1     1     2     0     0  1.999401885E+02  6.992981613E+00 -1.105161375E+02  2.605077661E+02  1.250019951E+02  0.00000E+00  9.000E+00
       5     1     1     2   501     0  3.326024286E-02 -1.710229744E-01  2.960209236E+00  5.599615507E+00  4.750000000E+00  0.00000E+00  9.000E+00
      -5     1     1     2     0   503 -1.856578955E+02 -1.952873245E+01 -4.078367691E+02  4.485572631E+02  4.750000000E+00  0.00000E+00  9.000E+00
      21     1     1     2   503   511 -1.431555326E+01  1.270677381E+01 -4.481406937E+01  4.873087295E+01  0.000000000E+00  0.00000E+00  9.000E+00
#rwgt            1           9  0.27578824493964343                9     2490930           0
</event>
<event>
      6   9999  3.45752E-01  1.05218E+01 -1.00000E+00  1.84897E-01
      21    -1     0     0   512   502  0.000000000E+00  0.000000000E+00  2.561279071E+02  2.561279071E+02  0.000000000E+00  0.00000E+00  9.000E+00
      21    -1     0     0   502   503  0.000000000E+00  0.000000000E+00 -8.312794909E+02  8.312794909E+02  0.000000000E+00  0.00000E+00  9.000E+00
      25     1     1     2     0     0 -3.929905013E+00 -9.018004032E+00 -6.733253343E+02  6.849002640E+02  1.249983892E+02  0.00000E+00  9.000E+00
       5     1     1     2   501     0 -3.964674125E+00 -1.270083826E+00  4.310604623E+00  7.646931807E+00  4.750000000E+00  0.00000E+00  9.000E+00
      -5     1     1     2     0   503  1.831430507E+00  1.688882172E+00 -1.503374180E+02  1.504330689E+02  4.750000000E+00  0.00000E+00  9.000E+00
      21     1     1     2   512   501  6.063148631E+00  8.599205686E+00  2.442005638E+02  2.444271333E+02  4.672030912E-06  0.00000E+00  9.000E+00
#rwgt            1           9   2.2838055625315005E-004           9     2493599           0
</event>
<event>
      6   9999 -3.45752E-01  1.81632E+01 -1.00000E+00  1.63471E-01
      21    -1     0     0   501   502  0.000000000E+00  0.000000000E+00  2.585556727E+01  2.585556727E+01  0.000000000E+00  0.00000E+00  9.000E+00
      21    -1     0     0   511   503  0.000000000E+00  0.000000000E+00 -7.374257913E+02  7.374257913E+02  0.000000000E+00  0.00000E+00  9.000E+00
      25     1     1     2     0     0 -9.641121920E+00  3.295969219E+01 -5.617594459E+02  5.765205106E+02  1.249917260E+02  0.00000E+00  9.000E+00
       5     1     1     2   501     0  2.990941692E-02  1.445854746E+00  1.216541758E+01  1.313968323E+01  4.750000000E+00  0.00000E+00  9.000E+00
      -5     1     1     2     0   503  1.537425364E+01 -1.718092018E+01 -2.120259754E+01  3.168066186E+01  4.750000000E+00  0.00000E+00  9.000E+00
      21     1     1     2   511   502 -5.763041141E+00 -1.722462675E+01 -1.407735982E+02  1.419405029E+02  1.907348633E-06  0.00000E+00  9.000E+00
#rwgt            1           9  -1.6743258705425621E-002           9     2495975           0
</event>
<event>
      6   9999  3.45752E-01  1.49951E+01 -1.00000E+00  1.70384E-01
      21    -1     0     0   501   502  0.000000000E+00  0.000000000E+00  2.579615427E+03  2.579615427E+03  0.000000000E+00  0.00000E+00  9.000E+00
      21    -1     0     0   502   512  0.000000000E+00  0.000000000E+00 -7.363399748E+01  7.363399748E+01  0.000000000E+00  0.00000E+00  9.000E+00
      25     1     1     2     0     0  3.281715338E+01  2.968475847E+01  1.596581048E+03  1.602078235E+03  1.250019100E+02  0.00000E+00  9.000E+00
       5     1     1     2   501     0  5.235266720E-01 -4.287307354E-01  3.676000859E+02  3.676313963E+02  4.750000000E+00  0.00000E+00  9.000E+00
      -5     1     1     2     0   503 -1.947662179E+01 -3.496935046E+01  6.112055001E+02  6.125331992E+02  4.750000000E+00  0.00000E+00  9.000E+00
      21     1     1     2   503   512 -1.386405826E+01  5.713322722E+00 -6.940520385E+01  7.100659469E+01  4.768371582E-06  0.00000E+00  9.000E+00
#rwgt            1           9   8.4229134195168337E-002           9     2497529           0
</event>
<event>
      6   9999 -3.45752E-01  8.43224E+00 -1.00000E+00  1.95348E-01
      21    -1     0     0   501   502  0.000000000E+00  0.000000000E+00  2.077548904E+01  2.077548904E+01  0.000000000E+00  0.00000E+00  9.000E+00
      21    -1     0     0   511   503  0.000000000E+00  0.000000000E+00 -9.379674144E+02  9.379674144E+02  0.000000000E+00  0.00000E+00  9.000E+00
      25     1     1     2     0     0  8.118804822E+01  1.992400646E+01 -7.388645424E+02  7.540121035E+02  1.249999001E+02  0.00000E+00  9.000E+00
       5     1     1     2   501     0 -1.921985294E+01  5.861519449E+00 -1.362974125E+01  2.474050330E+01  4.750000000E+00  0.00000E+00  9.000E+00
      -5     1     1     2     0   503 -6.054621911E+01 -1.747404920E+01 -1.339812542E+02  1.481375240E+02  4.750000000E+00  0.00000E+00  9.000E+00
      21     1     1     2   511   502 -1.421976171E+00 -8.311476712E+00 -3.071638755E+01  3.185277265E+01  6.743495762E-07  0.00000E+00  9.000E+00
#rwgt            1           9  -8.9114949748627466E-004           9     2499198           0
</event>
<event>
      6   9999  3.45752E-01  1.33813E+01 -1.00000E+00  1.74784E-01
      21    -1     0     0   501   502  0.000000000E+00  0.000000000E+00  3.568504269E+01  3.568504269E+01  0.000000000E+00  0.00000E+00  9.000E+00
      21    -1     0     0   502   512  0.000000000E+00  0.000000000E+00 -1.142970137E+03  1.142970137E+03  0.000000000E+00  0.00000E+00  9.000E+00
      25     1     1     2     0     0 -7.289933563E+01  1.117094399E+02 -7.808498434E+02  8.019612817E+02  1.249884283E+02  0.00000E+00  9.000E+00
       5     1     1     2   501     0 -7.799729250E-01 -1.789326695E+00  1.165329533E+01  1.273467078E+01  4.750000000E+00  0.00000E+00  9.000E+00
      -5     1     1     2     0   503  6.341711112E+01 -1.013325418E+02 -2.826000085E+02  3.068800113E+02  4.750000000E+00  0.00000E+00  9.000E+00
      21     1     1     2   503   512  1.026219744E+01 -8.587571375E+00 -5.548853777E+01  5.707921603E+01  6.743495762E-07  0.00000E+00  9.000E+00
#rwgt            1           9   6.5171379223789069E-004           9     2502795           0
</event>
<event>
      6   9999  3.45752E-01  5.89222E+00 -1.00000E+00  2.15160E-01
      21    -1     0     0   511   502  0.000000000E+00  0.000000000E+00  1.282432720E+02  1.282432720E+02  0.000000000E+00  0.00000E+00  9.000E+00
      21    -1     0     0   502   503  0.000000000E+00  0.000000000E+00 -2.586359402E+02  2.586359402E+02  0.000000000E+00  0.00000E+00  9.000E+00
      25     1     1     2     0     0 -8.481325360E+01  1.836935938E+01 -2.125032658E+02  2.613734047E+02  1.250107889E+02  0.00000E+00  9.000E+00
       5     1     1     2   501     0  7.785801368E+01 -1.950346842E+01  7.695953444E+01  1.112995419E+02  4.750000000E+00  0.00000E+00  9.000E+00
      -5     1     1     2     0   503  1.069615345E+00  1.412811943E+00 -1.532423690E+00  5.296313523E+00  4.750000000E+00  0.00000E+00  9.000E+00
      21     1     1     2   511   501  5.885624569E+00 -2.787029082E-01  6.683486883E+00  8.909952233E+00  1.192092896E-07  0.00000E+00  9.000E+00
#rwgt            1           9   4.8622865567622582E-002           9     2505415           0
</event>
<event>
      6   9999 -3.45752E-01  6.15380E+00 -1.00000E+00  2.12538E-01
      21    -1     0     0   501   512  0.000000000E+00  0.000000000E+00  3.157890591E+00  3.157890591E+00  0.000000000E+00  0.00000E+00  9.000E+00
      21    -1     0     0   502   503  0.000000000E+00  0.000000000E+00 -2.295401002E+03  2.295401002E+03  0.000000000E+00  0.00000E+00  9.000E+00
      25     1     1     2     0     0  4.025248545E+00 -5.034858435E+00 -2.166875881E+03  2.170486069E+03  1.249685422E+02  0.00000E+00  9.000E+00
       5     1     1     2   501     0 -2.268524839E-02 -8.004313395E-02 -4.049660888E+00  6.242529522E+00  4.750000000E+00  0.00000E+00  9.000E+00
      -5     1     1     2     0   503  3.428408255E-01  7.575331151E-01 -6.464182577E+01  6.482144348E+01  4.750000000E+00  0.00000E+00  9.000E+00
      21     1     1     2   502   512 -4.345404123E+00  4.357368454E+00 -5.667574328E+01  5.700885083E+01  1.168007728E-06  0.00000E+00  9.000E+00
#rwgt            1           9  -2.3139305143898291E-004           9     2510648           0
</event>
<event>
      6   9999 -3.45752E-01  3.93661E+01 -1.00000E+00  1.40589E-01
      21    -1     0     0   501   511  0.000000000E+00  0.000000000E+00  3.741291987E+02  3.741291987E+02  0.000000000E+00  0.00000E+00  9.000E+00
      21    -1     0     0   502   503  0.000000000E+00  0.000000000E+00 -2.525420014E+03  2.525420014E+03  0.000000000E+00  0.00000E+00  9.000E+00
      25     1     1     2     0     0 -3.941646144E+01 -1.455228727E+02  4.709149800E+00  1.958882270E+02  1.249778279E+02  0.00000E+00  9.000E+00
       5     1     1     2   501     0  8.175667819E-01  2.189002687E+01  2.489207140E+02  2.499278417E+02  4.750000000E+00  0.00000E+00  9.000E+00
      -5     1     1     2     0   503  6.121277407E+01  9.141016808E+01 -2.411334974E+03  2.413847912E+03  4.750000000E+00  0.00000E+00  9.000E+00
      21     1     1     2   502   511 -2.261387941E+01  3.222267775E+01  6.414295523E+00  3.988523149E+01  3.953724850E-07  0.00000E+00  9.000E+00
#rwgt            1           9  -1.3024527733521209E-005           9     2514487           0
</event>
<event>
      6   9999  3.45752E-01  8.54847E+00 -1.00000E+00  1.94666E-01
      21    -1     0     0   512   502  0.000000000E+00  0.000000000E+00  1.829569756E+02  1.829569756E+02  0.000000000E+00  0.00000E+00  9.000E+00
      21    -1     0     0   502   503  0.000000000E+00  0.000000000E+00 -1.342769310E+03  1.342769310E+03  0.000000000E+00  0.00000E+00  9.000E+00
      25     1     1     2     0     0 -6.897802029E+01  1.627681912E+01 -7.621231072E+02  7.755555561E+02  1.250275485E+02  0.00000E+00  9.000E+00
       5     1     1     2   501     0 -1.364358445E+00 -2.201878015E+00  3.138951504E+00  6.255018570E+00  4.750000000E+00  0.00000E+00  9.000E+00
      -5     1     1     2     0   503  6.286230502E+01 -1.821316504E+01 -5.703831633E+02  5.741453686E+02  4.750000000E+00  0.00000E+00  9.000E+00
      21     1     1     2   512   501  7.480073719E+00  4.138223930E+00  1.695549845E+02  1.697703425E+02  3.303624740E-06  0.00000E+00  9.000E+00
#rwgt            1           9   1.9956536172770984E-003           9     2517352           0
</event>
<event>
      6   9999  3.45752E-01  2.53105E+01 -1.00000E+00  1.52777E-01
      21    -1     0     0   501   502  0.000000000E+00  0.000000000E+00  9.326152410E+01  9.326152410E+01  0.000000000E+00  0.00000E+00  9.000E+00
      21    -1     0     0   511   503  0.000000000E+00  0.000000000E+00 -1.856336281E+03  1.856336281E+03  0.000000000E+00  0.00000E+00  9.000E+00
      25     1     1     2     0     0  4.322640119E+01  1.714235412E+02 -3.575398006E+02  4.179881934E+02  1.249994744E+02  0.00000E+00  9.000E+00
       5     1     1     2   501     0  1.385781200E+01  1.310663227E+01  5.496643884E+01  5.837546284E+01  4.750000000E+00  0.00000E+00  9.000E+00
      -5     1     1     2     0   503 -4.829100512E+01 -1.607962416E+02 -1.272548456E+03  1.283584664E+03  4.750000000E+00  0.00000E+00  9.000E+00
      21     1     1     2   511   502 -8.793208067E+00 -2.373393184E+01 -1.879529389E+02  1.896494853E+02  2.697398305E-06  0.00000E+00  9.000E+00
#rwgt            1           9   8.9202052306423904E-004           9     2520373           0
</event>
<event>
      6   9999  3.45752E-01  4.75848E+00 -1.00000E+00  2.33210E-01
      21    -1     0     0   501   502  0.000000000E+00  0.000000000E+00  3.072376269E+02  3.072376269E+02  0.000000000E+00  0.00000E+00  9.000E+00
      21    -1     0     0   502   512  0.000000000E+00  0.000000000E+00 -2.442803239E+03  2.442803239E+03  0.000000000E+00  0.00000E+00  9.000E+00
      25     1     1     2     0     0 -2.589109299E+02 -1.817766061E+02 -2.025256256E+02  3.958778677E+02  1.250002119E+02  0.00000E+00  9.000E+00
       5     1     1     2   501     0 -1.021714212E+00  4.495055688E+00  1.989548465E+02  1.990649213E+02  4.750000000E+00  0.00000E+00  9.000E+00
      -5     1     1     2     0   503  2.559380239E+02  1.746957962E+02 -2.095009341E+03  2.117807733E+03  4.750000000E+00  0.00000E+00  9.000E+00
      21     1     1     2   503   512  3.994620231E+00  2.585754213E+00 -3.698549231E+01  3.729034402E+01  6.743495762E-07  0.00000E+00  9.000E+00
#rwgt            1           9   4.1508350259335344E-002           9     2522787           0
</event>
<event>
      6   9999  3.45752E-01  8.74302E+00 -1.00000E+00  1.93556E-01
      21    -1     0     0   501   502  0.000000000E+00  0.000000000E+00  5.676039034E+01  5.676039034E+01  0.000000000E+00  0.00000E+00  9.000E+00
      21    -1     0     0   511   503  0.000000000E+00  0.000000000E+00 -1.472939081E+03  1.472939081E+03  0.000000000E+00  0.00000E+00  9.000E+00
      25     1     1     2     0     0 -8.383026218E+01  8.735966637E+01 -2.579540271E+02  3.111669879E+02  1.250015606E+02  0.00000E+00  9.000E+00
       5     1     1     2   501     0 -4.280305777E+00  1.039432654E+01  2.504141772E+01  2.785674323E+01  4.750000000E+00  0.00000E+00  9.000E+00
      -5     1     1     2     0   503  8.548206326E+01 -8.941544909E+01 -1.093535594E+03  1.100520314E+03  4.750000000E+00  0.00000E+00  9.000E+00
      21     1     1     2   511   502  2.628504693E+00 -8.338543813E+00 -8.973048801E+01  9.015542595E+01  0.000000000E+00  0.00000E+00  9.000E+00
#rwgt            1           9  0.70894977306934370                9     2532570           0
</event>
<event>
      6   9999  3.45752E-01  9.55312E+00 -1.00000E+00  1.89310E-01
      21    -1     0     0   512   502  0.000000000E+00  0.000000000E+00  3.481038066E+01  3.481038066E+01  0.000000000E+00  0.00000E+00  9.000E+00
      21    -1     0     0   502   503  0.000000000E+00  0.000000000E+00 -1.198589812E+03  1.198589812E+03  0.000000000E+00  0.00000E+00  9.000E+00
      25     1     1     2     0     0  8.192544748E+00  1.546459561E+01 -1.093492793E+03  1.100754081E+03  1.250071490E+02  0.00000E+00  9.000E+00
       5     1     1     2   501     0 -6.045481479E+00 -5.175061162E+00  2.924076388E+01  3.067431950E+01  4.750000000E+00  0.00000E+00  9.000E+00
      -5     1     1     2     0   503 -8.014102422E+00 -2.750307479E+00 -7.538157064E+01  7.600482696E+01  4.750000000E+00  0.00000E+00  9.000E+00
      21     1     1     2   512   501  5.867039153E+00 -7.539226965E+00 -2.414583165E+01  2.596696512E+01  0.000000000E+00  0.00000E+00  9.000E+00
#rwgt            1           9   6.9157337149426594E-006           9     2537691           0
</event>
<event>
      6   9999  3.45752E-01  1.10061E+01 -1.00000E+00  1.82912E-01
      21    -1     0     0   501   502  0.000000000E+00  0.000000000E+00  1.121031274E+01  1.121031274E+01  0.000000000E+00  0.00000E+00  9.000E+00
       1    -1     0     0   502     0  0.000000000E+00  0.000000000E+00 -1.781773803E+03  1.781773803E+03  0.000000000E+00  0.00000E+00  9.000E+00
      25     1     1     2     0     0 -1.021136598E+01 -1.641946132E+01 -3.833950195E+02  4.037220770E+02  1.250036150E+02  0.00000E+00  9.000E+00
       5     1     1     2   501     0 -5.234349527E-01 -5.669214153E-03 -7.216170581E+00  8.655035190E+00  4.750000000E+00  0.00000E+00  9.000E+00
      -5     1     1     2     0   503 -1.973877823E-02  1.408537624E+01 -1.825757703E+02  1.831798914E+02  4.750000000E+00  0.00000E+00  9.000E+00
       1     1     1     2   503     0  1.075453971E+01  2.339754291E+00 -1.197376530E+03  1.197427112E+03  2.642899792E-05  0.00000E+00  9.000E+00
#rwgt            1           9   1.2592600326390062                9     2541160           0
</event>
<event>
      6   9999  3.45752E-01  1.83441E+01 -1.00000E+00  1.63129E-01
      21    -1     0     0   501   502  0.000000000E+00  0.000000000E+00  2.009552555E+01  2.009552555E+01  0.000000000E+00  0.00000E+00  9.000E+00
      21    -1     0     0   511   503  0.000000000E+00  0.000000000E+00 -1.133334104E+03  1.133334104E+03  0.000000000E+00  0.00000E+00  9.000E+00
      25     1     1     2     0     0  8.994571091E+00  4.173078946E+00 -4.863007557E+02  5.021977116E+02  1.249631929E+02  0.00000E+00  9.000E+00
       5     1     1     2   501     0 -2.252583604E+00 -7.494549586E-01  1.067850697E+01  1.192597278E+01  4.750000000E+00  0.00000E+00  9.000E+00
      -5     1     1     2     0   503 -2.261471194E+01  5.772140128E+00 -4.861030253E+02  4.866861992E+02  4.750000000E+00  0.00000E+00  9.000E+00
      21     1     1     2   511   502  1.587272445E+01 -9.195764115E+00 -1.515133041E+02  1.526197457E+02  0.000000000E+00  0.00000E+00  9.000E+00
#rwgt            1           9   2.3991244157168120E-003           9     2543289           0
</event>
<event>
      6   9999 -3.45752E-01  3.56777E+01 -1.00000E+00  1.43128E-01
      21    -1     0     0   501   502  0.000000000E+00  0.000000000E+00  2.418763729E+01  2.418763729E+01  0.000000000E+00  0.00000E+00  9.000E+00
      21    -1     0     0   512   503  0.000000000E+00  0.000000000E+00 -1.619223825E+03  1.619223825E+03  0.000000000E+00  0.00000E+00  9.000E+00
      25     1     1     2     0     0 -8.299820061E+01 -1.920122916E+00 -7.906035208E+02  8.047187815E+02  1.250040081E+02  0.00000E+00  9.000E+00
       5     1     1     2   501     0  1.151438708E+01  1.095119945E+01 -1.308455459E+01  2.112529167E+01  4.750000000E+00  0.00000E+00  9.000E+00
      -5     1     1     2     0   503  1.071271698E+02 -1.059661842E+01 -2.186588654E+02  2.437678829E+02  4.750000000E+00  0.00000E+00  9.000E+00
      21     1     1     2   512   502 -3.564335622E+01  1.565541888E+00 -5.726892465E+02  5.737995058E+02  0.000000000E+00  0.00000E+00  9.000E+00
#rwgt            1           9  -5.8408047686387878E-003           9     2545142           0
</event>
<event>
      6   9999  3.45752E-01  2.09963E+01 -1.00000E+00  1.58615E-01
      21    -1     0     0   502   503  0.000000000E+00  0.000000000E+00  5.112879715E+03  5.112879715E+03  0.000000000E+00  0.00000E+00  9.000E+00
      21    -1     0     0   501   511  0.000000000E+00  0.000000000E+00 -2.125024365E+00  2.125024365E+00  0.000000000E+00  0.00000E+00  9.000E+00
      25     1     1     2     0     0 -4.232191655E+00  2.512256983E+01  3.363770002E+03  3.366188080E+03  1.249980323E+02  0.00000E+00  9.000E+00
       5     1     1     2   501     0 -1.335306680E+01  1.056732593E+01  4.837726561E+02  4.840955671E+02  4.750000000E+00  0.00000E+00  9.000E+00
      -5     1     1     2     0   503  3.296540181E+01 -2.139664772E+01  9.354479495E+02  9.362851932E+02  4.750000000E+00  0.00000E+00  9.000E+00
      21     1     1     2   502   511 -1.538014336E+01 -1.429324803E+01  3.277640833E+02  3.284358995E+02  3.814697266E-06  0.00000E+00  9.000E+00
#rwgt            1           9   1.0072673637513904E-003           9     2546538           0
</event>
<event>
      6   9999  3.45752E-01  2.23905E+01 -1.00000E+00  1.56556E-01
      21    -1     0     0   512   502  0.000000000E+00  0.000000000E+00  4.241700898E+01  4.241700898E+01  0.000000000E+00  0.00000E+00  9.000E+00
      21    -1     0     0   502   503  0.000000000E+00  0.000000000E+00 -7.639512973E+02  7.639512973E+02  0.000000000E+00  0.00000E+00  9.000E+00
      25     1     1     2     0     0 -2.078593630E+01  1.200702693E+00 -7.468317450E+02  7.575069681E+02  1.250026180E+02  0.00000E+00  9.000E+00
       5     1     1     2   501     0 -2.659770355E+00  8.389245981E-01 -2.326232052E+00  5.979299991E+00  4.750000000E+00  0.00000E+00  9.000E+00
      -5     1     1     2     0   503  1.067249158E+00 -1.306140702E+00 -2.273835710E+00  5.529724508E+00  4.750000000E+00  0.00000E+00  9.000E+00
      21     1     1     2   512   501  2.237845750E+01 -7.334865893E-01  2.989752451E+01  3.735231364E+01  2.718390048E-06  0.00000E+00  9.000E+00
#rwgt            1           9   1.7770000840039866E-004           9     2547660           0
</event>
<event>
      6   9999  3.45752E-01  2.24231E+01 -1.00000E+00  1.56510E-01
      21    -1     0     0   501   502  0.000000000E+00  0.000000000E+00  4.256732614E+01  4.256732614E+01  0.000000000E+00  0.00000E+00  9.000E+00
      21    -1     0     0   502   511  0.000000000E+00  0.000000000E+00 -1.396187596E+03  1.396187596E+03  0.000000000E+00  0.00000E+00  9.000E+00
      25     1     1     2     0     0 -4.769792017E+01 -3.546583699E+01 -9.589835529E+02  9.689197512E+02  1.249924493E+02  0.00000E+00  9.000E+00
       5     1     1     2   501     0 -2.312021683E+00 -4.371986457E+00  3.487292930E+01  3.554072886E+01  4.750000000E+00  0.00000E+00  9.000E+00
      -5     1     1     2     0   503  3.346184165E+01  2.470658961E+01 -2.783356858E+02  2.814665645E+02  4.750000000E+00  0.00000E+00  9.000E+00
      21     1     1     2   503   511  1.654810020E+01  1.513123384E+01 -1.511739609E+02  1.528278781E+02  1.907348633E-06  0.00000E+00  9.000E+00
#rwgt            1           9   2.8243601052284131                9     2549349           0
</event>
<event>
      6   9999  3.45752E-01  1.25102E+01 -1.00000E+00  1.77498E-01
      21    -1     0     0   502   503  0.000000000E+00  0.000000000E+00  8.385010563E+00  8.385010563E+00  0.000000000E+00  0.00000E+00  9.000E+00
      21    -1     0     0   501   512  0.000000000E+00  0.000000000E+00 -8.008636050E+02  8.008636050E+02  0.000000000E+00  0.00000E+00  9.000E+00
      25     1     1     2     0     0 -1.195637921E+01  1.792327465E+01 -5.279588500E+02  5.429821411E+02  1.249994381E+02  0.00000E+00  9.000E+00
       5     1     1     2   501     0  4.529511902E+00 -6.938420801E+00 -1.433575514E+02  1.436753569E+02  4.750000000E+00  0.00000E+00  9.000E+00
      -5     1     1     2     0   503  3.330525204E+00  8.357174678E-01 -4.941859014E+01  4.976495126E+01  4.750000000E+00  0.00000E+00  9.000E+00
      21     1     1     2   502   512  4.096342100E+00 -1.182057132E+01 -7.174360290E+01  7.282616619E+01  9.536743164E-07  0.00000E+00  9.000E+00
#rwgt            1           9   1.1747716166895740E-003           9     2551556           0
</event>
<event>
      6   9999 -3.45752E-01  5.41340E+00 -1.00000E+00  2.20477E-01
      21    -1     0     0   511   502  0.000000000E+00  0.000000000E+00  5.826114730E+02  5.826114730E+02  0.000000000E+00  0.00000E+00  9.000E+00
      21    -1     0     0   502   503  0.000000000E+00  0.000000000E+00 -1.686091585E+03  1.686091585E+03  0.000000000E+00  0.00000E+00  9.000E+00
      25     1     1     2     0     0 -6.444196421E+00  3.805751028E+01 -5.238173182E+02  5.399077931E+02  1.250037620E+02  0.00000E+00  9.000E+00
       5     1     1     2   501     0 -5.575797970E+00 -1.857761049E+00  7.129550027E+00  1.038911848E+01  4.750000000E+00  0.00000E+00  9.000E+00
      -5     1     1     2     0   503  6.813044838E+00 -3.768047994E+01 -1.152263364E+03  1.152909215E+03  4.750000000E+00  0.00000E+00  9.000E+00
      21     1     1     2   511   501  5.206949552E+00  1.480730707E+00  5.654710200E+02  5.654969313E+02  1.321449896E-05  0.00000E+00  9.000E+00
#rwgt            1           9  -6.2148018608081221E-004           9     2553359           0
</event>
<event>
      6   9999 -3.45752E-01  2.03500E+01 -1.00000E+00  1.59637E-01
      21    -1     0     0   501   512  0.000000000E+00  0.000000000E+00  8.656620104E+01  8.656620104E+01  0.000000000E+00  0.00000E+00  9.000E+00
      21    -1     0     0   502   503  0.000000000E+00  0.000000000E+00 -1.243213419E+03  1.243213419E+03  0.000000000E+00  0.00000E+00  9.000E+00
      25     1     1     2     0     0  1.055763029E+02 -1.074124335E+02 -5.365795061E+02  5.711628132E+02  1.250024249E+02  0.00000E+00  9.000E+00
       5     1     1     2   501     0  1.094184988E+00 -7.691058661E-01  2.330944620E+01  2.382606864E+01  4.750000000E+00  0.00000E+00  9.000E+00
      -5     1     1     2     0   503 -1.248850186E+02  1.172563043E+02 -6.754258627E+02  6.968270713E+02  4.750000000E+00  0.00000E+00  9.000E+00
      21     1     1     2   502   512  1.821453067E+01 -9.074764844E+00  3.204870500E+01  3.796366653E+01  4.768371582E-07  0.00000E+00  9.000E+00
#rwgt            1           9  -7.6069366054531105E-004           9     2558033           0
</event>
<event>
      6   9999  3.45752E-01  1.82077E+01 -1.00000E+00  1.63386E-01
      21    -1     0     0   501   502  0.000000000E+00  0.000000000E+00  3.906992189E+01  3.906992189E+01  0.000000000E+00  0.00000E+00  9.000E+00
      21    -1     0     0   502   511  0.000000000E+00  0.000000000E+00 -1.090269149E+03  1.090269149E+03  0.000000000E+00  0.00000E+00  9.000E+00
      25     1     1     2     0     0 -2.974131233E+01  2.397490918E+01 -5.063489942E+02  5.229472086E+02  1.250005485E+02  0.00000E+00  9.000E+00
       5     1     1     2   501     0 -4.806144955E+00 -9.063727018E-01  2.947219663E+01  3.025051099E+01  4.750000000E+00  0.00000E+00  9.000E+00
      -5     1     1     2     0   503  2.622156079E+01 -6.875960623E+00 -3.531056590E+02  3.541765351E+02  4.750000000E+00  0.00000E+00  9.000E+00
      21     1     1     2   503   511  8.325896493E+00 -1.619257585E+01 -2.212167703E+02  2.219648159E+02  3.814697266E-06  0.00000E+00  9.000E+00
#rwgt            1           9   2.1993784217922183E-004           9     2560493           0
</event>
<event>
      6   9999  3.45752E-01  6.54812E+00 -1.00000E+00  2.08903E-01
       4    -1     0     0   501     0  0.000000000E+00  0.000000000E+00  8.224800684E+01  8.224800684E+01  0.000000000E+00  0.00000E+00  9.000E+00
      21    -1     0     0   502   503  0.000000000E+00  0.000000000E+00 -7.120515952E+02  7.120515952E+02  0.000000000E+00  0.00000E+00  9.000E+00
      25     1     1     2     0     0  9.664113701E+00  1.735805025E+00 -6.083293210E+02  6.211164711E+02  1.249987988E+02  0.00000E+00  9.000E+00
       5     1     1     2   501     0  5.301481688E-02 -2.673101137E-01 -7.531864050E+00  8.908745217E+00  4.750000000E+00  0.00000E+00  9.000E+00
      -5     1     1     2     0   503 -3.642021091E+00 -3.912054195E+00 -8.882182866E+01  8.910919275E+01  4.750000000E+00  0.00000E+00  9.000E+00
       4     1     1     2   502     0 -6.075107427E+00  2.443559284E+00  7.487942532E+01  7.516519306E+01  9.536743164E-07  0.00000E+00  9.000E+00
#rwgt            1           9   1.5403717540591506E-003           9     2562845           0
</event>
<event>
      6   9999  3.45752E-01  1.54825E+01 -1.00000E+00  1.69188E-01
      21    -1     0     0   501   502  0.000000000E+00  0.000000000E+00  9.356522643E+02  9.356522643E+02  0.000000000E+00  0.00000E+00  9.000E+00
      21    -1     0     0   511   503  0.000000000E+00  0.000000000E+00 -3.467706493E+01  3.467706493E+01  0.000000000E+00  0.00000E+00  9.000E+00
      25     1     1     2     0     0  1.810053004E+01 -2.254720370E+01  6.413430341E+02  6.540506303E+02  1.250013361E+02  0.00000E+00  9.000E+00
       5     1     1     2   501     0 -3.005087192E-01  3.605414761E-01  2.687126343E+02  2.687550235E+02  4.750000000E+00  0.00000E+00  9.000E+00
      -5     1     1     2     0   503 -2.796653633E+01  1.050974283E+01 -1.038998244E+01  3.198587319E+01  4.750000000E+00  0.00000E+00  9.000E+00
      21     1     1     2   511   502  1.016651502E+01  1.167691940E+01  1.309513402E+00  1.553780227E+01  5.389196074E-07  0.00000E+00  9.000E+00
#rwgt            1           9   8.7062779658935731E-004           9     2565371           0
</event>
<event>
      6   9999  3.45752E-01  5.83085E+00 -1.00000E+00  2.15803E-01
      21    -1     0     0   501   502  0.000000000E+00  0.000000000E+00  9.058542027E+00  9.058542027E+00  0.000000000E+00  0.00000E+00  9.000E+00
      21    -1     0     0   502   512  0.000000000E+00  0.000000000E+00 -8.247249353E+02  8.247249353E+02  0.000000000E+00  0.00000E+00  9.000E+00
      25     1     1     2     0     0 -3.680422240E+00 -1.379104124E+00 -6.570582626E+02  6.688532660E+02  1.249947341E+02  0.00000E+00  9.000E+00
       5     1     1     2   501     0  9.554828306E-01 -1.354877122E-02  6.309007867E-01  4.886068646E+00  4.750000000E+00  0.00000E+00  9.000E+00
      -5     1     1     2     0   503  8.555477038E+00  1.452678180E+00 -1.145347636E+02  1.149612154E+02  4.750000000E+00  0.00000E+00  9.000E+00
      21     1     1     2   503   512 -5.830537629E+00 -6.002528425E-02 -4.470426791E+01  4.508292738E+01  4.768371582E-07  0.00000E+00  9.000E+00
#rwgt            1           9   1.3285897357361530E-003           9     2567918           0
</event>
<event>
      6   9999  3.45752E-01  1.01549E+01 -1.00000E+00  1.86493E-01
      21    -1     0     0   501   502  0.000000000E+00  0.000000000E+00  1.542247657E+03  1.542247657E+03  0.000000000E+00  0.00000E+00  9.000E+00
      21    -1     0     0   511   503  0.000000000E+00  0.000000000E+00 -6.572305878E+00  6.572305878E+00  0.000000000E+00  0.00000E+00  9.000E+00
      25     1     1     2     0     0 -4.078649079E+00  8.687775267E+00  8.931780951E+02  9.019337554E+02  1.250011064E+02  0.00000E+00  9.000E+00
       5     1     1     2   501     0 -3.286063981E-01  1.038335858E-01  5.936983804E+02  5.937174817E+02  4.750000000E+00  0.00000E+00  9.000E+00
      -5     1     1     2     0   503  3.667187609E+00  1.336288770E+00  4.242081911E+00  7.469383614E+00  4.750000000E+00  0.00000E+00  9.000E+00
      21     1     1     2   511   502  7.400678686E-01 -1.012789762E+01  4.455679383E+01  4.569934230E+01  4.768371582E-07  0.00000E+00  9.000E+00
#rwgt            1           9   9.6024286116397990E-004           9     2571218           0
</event>
<event>
      6   9999 -3.45752E-01  1.13945E+01 -1.00000E+00  1.81413E-01
      21    -1     0     0   501   502  0.000000000E+00  0.000000000E+00  3.426168884E+01  3.426168884E+01  0.000000000E+00  0.00000E+00  9.000E+00
      21    -1     0     0   512   503  0.000000000E+00  0.000000000E+00 -1.337619509E+03  1.337619509E+03  0.000000000E+00  0.00000E+00  9.000E+00
      25     1     1     2     0     0  7.503564638E+00 -2.606663648E+01 -8.110869191E+02  8.211107704E+02  1.250005359E+02  0.00000E+00  9.000E+00
       5     1     1     2   501     0  4.771532676E+00  1.850961558E+00  2.835363763E+01  2.920076796E+01  4.750000000E+00  0.00000E+00  9.000E+00
      -5     1     1     2     0   503 -1.420033735E+01  1.298498227E+01 -3.559594772E+02  3.565108291E+02  4.750000000E+00  0.00000E+00  9.000E+00
      21     1     1     2   512   502  1.925240040E+00  1.123069266E+01 -1.646650618E+02  1.650588307E+02  1.907348633E-06  0.00000E+00  9.000E+00
#rwgt            1           9  -8.7093590551045880E-008           9     2573354           0
</event>
<event>
      6   9999 -3.45752E-01  4.92736E+00 -1.00000E+00  2.30486E-01
      21    -1     0     0   501   502  0.000000000E+00  0.000000000E+00  6.201993942E+00  6.201993942E+00  0.000000000E+00  0.00000E+00  9.000E+00
      21    -1     0     0   511   503  0.000000000E+00  0.000000000E+00 -1.430246076E+03  1.430246076E+03  0.000000000E+00  0.00000E+00  9.000E+00
      25     1     1     2     0     0  4.054278968E+00  4.594086367E+00 -1.317719427E+03  1.323649505E+03  1.250039296E+02  0.00000E+00  9.000E+00
       5     1     1     2   501     0 -5.021454224E-02  4.198332867E-01 -1.221140681E-02  4.768797606E+00  4.750000000E+00  0.00000E+00  9.000E+00
      -5     1     1     2     0   503 -1.538043643E+00 -9.279789980E+00 -3.511564869E+01  3.666266989E+01  4.750000000E+00  0.00000E+00  9.000E+00
      21     1     1     2   511   502 -2.466020783E+00  4.265870326E+00 -7.119679456E+01  7.136709651E+01  9.536743164E-07  0.00000E+00  9.000E+00
#rwgt            1           9  -6.7481006265279449E-004           9     2576882           0
</event>
<event>
      6   9999  3.45752E-01  3.72980E+01 -1.00000E+00  1.41970E-01
      21    -1     0     0   501   512  0.000000000E+00  0.000000000E+00  3.497880616E+02  3.497880616E+02  0.000000000E+00  0.00000E+00  9.000E+00
      21    -1     0     0   502   503  0.000000000E+00  0.000000000E+00 -1.165581612E+03  1.165581612E+03  0.000000000E+00  0.00000E+00  9.000E+00
      25     1     1     2     0     0  4.361020433E+00 -1.281905510E+02 -5.503706554E+02  5.787791083E+02  1.250022481E+02  0.00000E+00  9.000E+00
       5     1     1     2   501     0  9.395246324E+00 -3.111022585E+00  1.122356010E+01  1.569967886E+01  4.750000000E+00  0.00000E+00  9.000E+00
      -5     1     1     2     0   503  1.710090162E+01  1.103498305E+02 -5.924458815E+02  6.028965176E+02  4.750000000E+00  0.00000E+00  9.000E+00
      21     1     1     2   502   512 -3.085716838E+01  2.095174302E+01  3.157994268E+02  3.179943685E+02  5.394796609E-06  0.00000E+00  9.000E+00
#rwgt            1           9   4.5567161402159188E-005           9     2580843           0
</event>
<event>
      6   9999  3.45752E-01  7.44116E+00 -1.00000E+00  2.01813E-01
      21    -1     0     0   502   503  0.000000000E+00  0.000000000E+00  1.017729523E+02  1.017729523E+02  0.000000000E+00  0.00000E+00  9.000E+00
       1    -1     0     0   501     0  0.000000000E+00  0.000000000E+00 -1.096760078E+03  1.096760078E+03  0.000000000E+00  0.00000E+00  9.000E+00
      25     1     1     2     0     0 -7.561644549E+01 -4.012885906E+01 -4.745065149E-01  1.515107471E+02  1.250084364E+02  0.00000E+00  9.000E+00
       5     1     1     2   501     0  3.925380733E+01  2.710905198E+01 -5.682213368E+01  7.434433042E+01  4.750000000E+00  0.00000E+00  9.000E+00
      -5     1     1     2     0   503  3.170511123E+01  1.882310633E+01 -2.288943860E+00  3.724681428E+01  4.750000000E+00  0.00000E+00  9.000E+00
       1     1     1     2   502     0  4.657526926E+00 -5.803299251E+00 -9.354015418E+02  9.354311387E+02  1.525878906E-05  0.00000E+00  9.000E+00
#rwgt            1           9  0.21303705758847946                9     2582282           0
</event>
<event>
      6   9999 -3.45752E-01  7.55033E+00 -1.00000E+00  2.01037E-01
      21    -1     0     0   501   502  0.000000000E+00  0.000000000E+00  7.762700490E+01  7.762700490E+01  0.000000000E+00  0.00000E+00  9.000E+00
      21    -1     0     0   511   503  0.000000000E+00  0.000000000E+00 -1.724471754E+03  1.724471754E+03  0.000000000E+00  0.00000E+00  9.000E+00
      25     1     1     2     0     0  8.348941868E+01  1.836386621E+02 -8.251235220E+02  8.585725878E+02  1.249976828E+02  0.00000E+00  9.000E+00
       5     1     1     2   501     0  4.967431494E+01 -2.936352925E+01  2.844606059E+01  6.450965260E+01  4.750000000E+00  0.00000E+00  9.000E+00
      -5     1     1     2     0   503 -1.262132141E+02 -1.513259358E+02 -6.625758794E+02  6.912732259E+02  4.750000000E+00  0.00000E+00  9.000E+00
      21     1     1     2   511   502 -6.950519502E+00 -2.949196978E+00 -1.875914080E+02  1.877432924E+02  2.697398305E-06  0.00000E+00  9.000E+00
#rwgt            1           9  -4.5093367557875470E-002           9     2585686           0
</event>
<event>
      6   9999 -3.45752E-01  2.05426E+01 -1.00000E+00  1.59328E-01
      21    -1     0     0   501   502  0.000000000E+00  0.000000000E+00  6.644739086E+01  6.644739086E+01  0.000000000E+00  0.00000E+00  9.000E+00
       1    -1     0     0   502     0  0.000000000E+00  0.000000000E+00 -4.151707822E+02  4.151707822E+02  0.000000000E+00  0.00000E+00  9.000E+00
      25     1     1     2     0     0 -1.758235154E+01  4.250633683E+01 -6.754786984E+01  1.493410196E+02  1.249963906E+02  0.00000E+00  9.000E+00
       5     1     1     2   501     0 -3.217734260E+01 -8.488629385E+00 -2.942502443E+00  3.374402208E+01  4.750000000E+00  0.00000E+00  9.000E+00
      -5     1     1     2     0   503  5.805807100E+01 -1.522578793E+01 -8.473550033E+01  1.039482166E+02  4.750000000E+00  0.00000E+00  9.000E+00
       1     1     1     2   503     0 -8.298376865E+00 -1.879191952E+01 -1.934975187E+02  1.945849147E+02  0.000000000E+00  0.00000E+00  9.000E+00
#rwgt            1           9  -7.4317378761877899                9     2591295           0
</event>
<event>
      6   9999 -3.45752E-01  2.80226E+01 -1.00000E+00  1.49779E-01
      21    -1     0     0   502   511  0.000000000E+00  0.000000000E+00  4.893613445E+00  4.893613445E+00  0.000000000E+00  0.00000E+00  9.000E+00
      21    -1     0     0   501   502  0.000000000E+00  0.000000000E+00 -2.353726732E+03  2.353726732E+03  0.000000000E+00  0.00000E+00  9.000E+00
      25     1     1     2     0     0  4.127763930E+01 -1.843250547E+01 -1.524235146E+03  1.530019708E+03  1.249957052E+02  0.00000E+00  9.000E+00
       5     1     1     2   501     0 -1.741546861E+01  5.224445162E+00 -6.376300685E+02  6.379069369E+02  4.750000000E+00  0.00000E+00  9.000E+00
      -5     1     1     2     0   503 -1.319926313E-01 -1.696428756E+00 -7.858309973E+01  7.874491320E+01  4.750000000E+00  0.00000E+00  9.000E+00
      21     1     1     2   503   511 -2.373017805E+01  1.490448907E+01 -1.083848046E+02  1.119487875E+02  3.303624740E-06  0.00000E+00  9.000E+00
#rwgt            1           9  -4.4772727632561271E-005           9     2593065           0
</event>
<event>
      6   9999  3.45752E-01  4.53226E+00 -1.00000E+00  2.37131E-01
      21    -1     0     0   501   512  0.000000000E+00  0.000000000E+00  1.120820148E+01  1.120820148E+01  0.000000000E+00  0.00000E+00  9.000E+00
      21    -1     0     0   502   503  0.000000000E+00  0.000000000E+00 -7.301231606E+02  7.301231606E+02  0.000000000E+00  0.00000E+00  9.000E+00
      25     1     1     2     0     0 -3.828332480E+00  2.017774584E+00 -6.656018106E+02  6.772599855E+02  1.250463523E+02  0.00000E+00  9.000E+00
       5     1     1     2   501     0  1.128830100E+00 -8.308072875E-02  8.592758616E-01  4.958025293E+00  4.750000000E+00  0.00000E+00  9.000E+00
      -5     1     1     2     0   503  4.193437320E+00  2.344269461E+00 -5.416134389E+01  5.458107903E+01  4.750000000E+00  0.00000E+00  9.000E+00
      21     1     1     2   502   512 -1.493934941E+00 -4.278963316E+00 -1.108051214E-02  4.532272216E+00  2.088366927E-07  0.00000E+00  9.000E+00
#rwgt            1           9   8.0089394056799702E-003           9     2593794           0
</event>
<event>
      6   9999  3.45752E-01  4.53348E+00 -1.00000E+00  2.37109E-01
       1    -1     0     0   501     0  0.000000000E+00  0.000000000E+00  2.188313466E+03  2.188313466E+03  0.000000000E+00  0.00000E+00  9.000E+00
      21    -1     0     0   502   503  0.000000000E+00  0.000000000E+00 -1.267310476E+03  1.267310476E+03  0.000000000E+00  0.00000E+00  9.000E+00
      25     1     1     2     0     0 -4.534595981E+00 -7.339976327E+00 -1.240629022E+03  1.246940026E+03  1.249984789E+02  0.00000E+00  9.000E+00
       5     1     1     2   501     0  1.630557332E+00 -1.311866998E+00 -5.821378923E-01  5.223130935E+00  4.750000000E+00  0.00000E+00  9.000E+00
      -5     1     1     2     0   503  2.740676680E+00  4.121311175E+00 -2.005043973E+01  2.119148763E+01  4.750000000E+00  0.00000E+00  9.000E+00
       1     1     1     2   502     0  1.633619690E-01  4.530532149E+00  2.182264589E+03  2.182269298E+03  3.051757812E-05  0.00000E+00  9.000E+00
#rwgt            1           9   7.1862411234257639E-004           9     2597901           0
</event>
<event>
      6   9999  3.45752E-01  8.63790E+00 -1.00000E+00  1.94151E-01
      21    -1     0     0   501   502  0.000000000E+00  0.000000000E+00  2.143185030E+01  2.143185030E+01  0.000000000E+00  0.00000E+00  9.000E+00
      21    -1     0     0   502   511  0.000000000E+00  0.000000000E+00 -1.172639259E+03  1.172639259E+03  0.000000000E+00  0.00000E+00  9.000E+00
      25     1     1     2     0     0  1.075778448E+01 -2.470279425E+01 -2.605928071E+02  2.902748169E+02  1.249996011E+02  0.00000E+00  9.000E+00
       5     1     1     2   501     0 -1.179314336E-01  1.026554691E+00  5.223374647E+00  7.135395228E+00  4.750000000E+00  0.00000E+00  9.000E+00
      -5     1     1     2     0   503 -1.912194121E+01  2.204299229E+01 -7.293535501E+02  7.299525366E+02  4.750000000E+00  0.00000E+00  9.000E+00
      21     1     1     2   503   511  8.482088165E+00  1.633247264E+00 -1.664844264E+02  1.667083608E+02  2.697398305E-06  0.00000E+00  9.000E+00
#rwgt            1           9   2.5002463606099519E-003           9     2602108           0
</event>
<event>
      6   9999  3.45752E-01  5.56297E+00 -1.00000E+00  2.18738E-01
      21    -1     0     0   501   502  0.000000000E+00  0.000000000E+00  6.684071948E+02  6.684071948E+02  0.000000000E+00  0.00000E+00  9.000E+00
      21    -1     0     0   502   512  0.000000000E+00  0.000000000E+00 -2.441562583E+01  2.441562583E+01  0.000000000E+00  0.00000E+00  9.000E+00
      25     1     1     2     0     0 -2.300384733E+01 -8.585936012E+00  1.904103049E+02  2.290928934E+02  1.249982973E+02  0.00000E+00  9.000E+00
       5     1     1     2   501     0  2.694635068E+00 -1.145678123E+00  4.147064818E+02  4.147440200E+02  4.750000000E+00  0.00000E+00  9.000E+00
      -5     1     1     2     0   503  1.828983464E+01  1.491511781E+01  2.939969217E+01  3.799846300E+01  4.750000000E+00  0.00000E+00  9.000E+00
      21     1     1     2   503   512  2.019377621E+00 -5.183503678E+00  9.475090177E+00  1.098744421E+01  1.192092896E-07  0.00000E+00  9.000E+00
#rwgt            1           9   2.3176542849329618E-002           9     2605169           0
</event>
<event>
      6   9999  3.45752E-01  7.78275E+00 -1.00000E+00  1.99442E-01
      21    -1     0     0   501   502  0.000000000E+00  0.000000000E+00  1.754198014E+02  1.754198014E+02  0.000000000E+00  0.00000E+00  9.000E+00
      21    -1     0     0   511   503  0.000000000E+00  0.000000000E+00 -1.116384990E+03  1.116384990E+03  0.000000000E+00  0.00000E+00  9.000E+00
      25     1     1     2     0     0 -1.422398096E+02  8.190360724E+01 -7.576628126E+01  2.197822171E+02  1.249933169E+02  0.00000E+00  9.000E+00
       5     1     1     2   501     0 -2.247727351E+00 -1.370935275E+01  9.351493376E+01  9.466046676E+01  4.750000000E+00  0.00000E+00  9.000E+00
      -5     1     1     2     0   503  1.505464168E+02 -7.307903660E+01 -7.480569924E+02  7.665615406E+02  4.750000000E+00  0.00000E+00  9.000E+00
      21     1     1     2   511   502 -6.058879911E+00  4.884782100E+00 -2.106568491E+02  2.108005673E+02  2.697398305E-06  0.00000E+00  9.000E+00
#rwgt            1           9   1.3120324088423249E-003           9     2610038           0
</event>
<event>
      6   9999  3.45752E-01  1.91420E+01 -1.00000E+00  1.61678E-01
      21    -1     0     0   501   502  0.000000000E+00  0.000000000E+00  2.888576727E+01  2.888576727E+01  0.000000000E+00  0.00000E+00  9.000E+00
      21    -1     0     0   512   503  0.000000000E+00  0.000000000E+00 -1.342975989E+03  1.342975989E+03  0.000000000E+00  0.00000E+00  9.000E+00
      25     1     1     2     0     0  1.933725562E+01  1.208556026E+00 -9.704356894E+02  9.786452944E+02  1.250031795E+02  0.00000E+00  9.000E+00
       5     1     1     2   501     0  2.596425578E+00  6.558193243E+00  2.344894977E+01  2.494327704E+01  4.750000000E+00  0.00000E+00  9.000E+00
      -5     1     1     2     0   503 -7.564969746E+00  4.880624179E+00 -1.314922638E+02  1.318856595E+02  4.750000000E+00  0.00000E+00  9.000E+00
      21     1     1     2   512   502 -1.436871145E+01 -1.264737345E+01 -2.356112183E+02  2.363875252E+02  3.814697266E-06  0.00000E+00  9.000E+00
#rwgt            1           9   3.9365546032047336E-005           9     2615705           0
</event>
<event>
      6   9999  3.45752E-01  2.39210E+01 -1.00000E+00  1.54494E-01
      21    -1     0     0   501   502  0.000000000E+00  0.000000000E+00  3.155607089E+01  3.155607089E+01  0.000000000E+00  0.00000E+00  9.000E+00
      21    -1     0     0   502   511  0.000000000E+00  0.000000000E+00 -1.594557818E+03  1.594557818E+03  0.000000000E+00  0.00000E+00  9.000E+00
      25     1     1     2     0     0  1.865013523E+01  4.481552461E+01 -6.238403244E+02  6.380894816E+02  1.250007098E+02  0.00000E+00  9.000E+00
       5     1     1     2   501     0  2.867234499E+00 -6.022964039E-01  2.278762495E+01  2.346107724E+01  4.750000000E+00  0.00000E+00  9.000E+00
      -5     1     1     2     0   503  2.399599371E+00 -4.465090217E+01 -5.087353640E+02  5.107188016E+02  4.750000000E+00  0.00000E+00  9.000E+00
      21     1     1     2   503   511 -2.391696910E+01  4.376739680E-01 -4.532136836E+02  4.538445284E+02  5.394796609E-06  0.00000E+00  9.000E+00
#rwgt            1           9   2.0224108097814271E-004           9     2617854           0
</event>
<event>
      6   9999  3.45752E-01  5.49643E+00 -1.00000E+00  2.19502E-01
      21    -1     0     0   501   502  0.000000000E+00  0.000000000E+00  4.641849734E+01  4.641849734E+01  0.000000000E+00  0.00000E+00  9.000E+00
      21    -1     0     0   512   503  0.000000000E+00  0.000000000E+00 -2.563261287E+02  2.563261287E+02  0.000000000E+00  0.00000E+00  9.000E+00
      25     1     1     2     0     0  1.705753085E+01 -2.698181792E+00 -1.311696183E+02  1.819889398E+02  1.249650588E+02  0.00000E+00  9.000E+00
       5     1     1     2   501     0 -1.277947786E+00  2.861614899E+00  1.874107190E+01  1.958602222E+01  4.750000000E+00  0.00000E+00  9.000E+00
      -5     1     1     2     0   503 -2.085786256E+01  1.939380352E+00 -8.091521894E+01  8.371766112E+01  4.750000000E+00  0.00000E+00  9.000E+00
      21     1     1     2   512   502  5.078279496E+00 -2.102813459E+00 -1.656386605E+01  1.745200291E+01  3.371747881E-07  0.00000E+00  9.000E+00
#rwgt            1           9  0.77294668377731890                9     2619582           0
</event>
<event>
      6   9999  3.45752E-01  7.73040E+00 -1.00000E+00  1.99794E-01
      21    -1     0     0   502   503  0.000000000E+00  0.000000000E+00  8.171665621E+00  8.171665621E+00  0.000000000E+00  0.00000E+00  9.000E+00
      21    -1     0     0   511   502  0.000000000E+00  0.000000000E+00 -8.112839110E+02  8.112839110E+02  0.000000000E+00  0.00000E+00  9.000E+00
      25     1     1     2     0     0 -9.511882138E+00  1.165416495E+01 -5.081030268E+02  5.234672516E+02  1.249919284E+02  0.00000E+00  9.000E+00
       5     1     1     2   501     0 -7.192929922E-01 -7.867258229E+00 -1.173401069E+02  1.177016326E+02  4.750000000E+00  0.00000E+00  9.000E+00
      -5     1     1     2     0   503  3.133371830E+00 -7.241736516E-01 -4.102571935E+01  4.142480651E+01  4.750000000E+00  0.00000E+00  9.000E+00
      21     1     1     2   511   501  7.097803300E+00 -3.062733071E+00 -1.366433924E+02  1.368618860E+02  0.000000000E+00  0.00000E+00  9.000E+00
#rwgt            1           9   2.1864198537957192E-003           9     2623490           0
</event>
<event>
      6   9999  3.45752E-01  6.11087E+00 -1.00000E+00  2.12956E-01
      21    -1     0     0   502   512  0.000000000E+00  0.000000000E+00  2.204116662E+02  2.204116662E+02  0.000000000E+00  0.00000E+00  9.000E+00
      21    -1     0     0   501   502  0.000000000E+00  0.000000000E+00 -1.430850812E+02  1.430850812E+02  0.000000000E+00  0.00000E+00  9.000E+00
      25     1     1     2     0     0 -4.722332305E+00  1.236078839E+01 -1.106036686E+02  1.674389547E+02  1.250101698E+02  0.00000E+00  9.000E+00
       5     1     1     2   501     0 -6.086924902E-01  2.976827129E-01  7.483749124E+00  8.889776290E+00  4.750000000E+00  0.00000E+00  9.000E+00
      -5     1     1     2     0   503  2.629498320E+00 -7.177190774E+00  2.812063624E+00  9.428495672E+00  4.750000000E+00  0.00000E+00  9.000E+00
      21     1     1     2   503   512  2.701526475E+00 -5.481280331E+00  1.776344407E+02  1.777395207E+02  2.697398305E-06  0.00000E+00  9.000E+00
#rwgt            1           9   4.4518663492606651E-004           9     2626298           0
</event>
<event>
      6   9999 -3.45752E-01  2.11371E+01 -1.00000E+00  1.58399E-01
      21    -1     0     0   501   502  0.000000000E+00  0.000000000E+00  1.991114060E+02  1.991114060E+02  0.000000000E+00  0.00000E+00  9.000E+00
      21    -1     0     0   511   503  0.000000000E+00  0.000000000E+00 -3.473042032E+02  3.473042032E+02  0.000000000E+00  0.00000E+00  9.000E+00
      25     1     1     2     0     0  2.974690202E+01  7.477913412E+01 -1.210717406E+02  1.917145889E+02  1.249772785E+02  0.00000E+00  9.000E+00
       5     1     1     2   501     0  2.794391361E+00  4.269511260E+00  5.448482160E+01  5.492900540E+01  4.750000000E+00  0.00000E+00  9.000E+00
      -5     1     1     2     0   503 -1.541342071E+01 -6.666261799E+01  9.761941412E+01  1.193046130E+02  4.750000000E+00  0.00000E+00  9.000E+00
      21     1     1     2   511   502 -1.712787267E+01 -1.238602739E+01 -1.792252923E+02  1.804674018E+02  2.697398305E-06  0.00000E+00  9.000E+00
#rwgt            1           9  -4.1926527494017674E-007           9     2629776           0
</event>
<event>
      6   9999  3.45752E-01  6.02739E+00 -1.00000E+00  2.13783E-01
      21    -1     0     0   501   502  0.000000000E+00  0.000000000E+00  3.534979439E+02  3.534979439E+02  0.000000000E+00  0.00000E+00  9.000E+00
      21    -1     0     0   512   503  0.000000000E+00  0.000000000E+00 -2.377875255E+02  2.377875255E+02  0.000000000E+00  0.00000E+00  9.000E+00
      25     1     1     2     0     0  3.838907255E+01 -2.343316216E+01  5.943503577E+01  1.455342980E+02  1.249994978E+02  0.00000E+00  9.000E+00
       5     1     1     2   501     0  1.397803212E+00  7.951095389E-01  1.374920934E+02  1.375835175E+02  4.750000000E+00  0.00000E+00  9.000E+00
      -5     1     1     2     0   503 -3.433020045E+01  2.007795646E+01  1.098921254E+02  1.169637924E+02  4.750000000E+00  0.00000E+00  9.000E+00
      21     1     1     2   512   502 -5.456675313E+00  2.560096159E+00 -1.911088361E+02  1.912038615E+02  0.000000000E+00  0.00000E+00  9.000E+00
#rwgt            1           9   5.9505436441603546E-004           9     2631842           0
</event>
<event>
      6   9999  3.45752E-01  3.40209E+01 -1.00000E+00  1.44389E-01
      21    -1     0     0   501   502  0.000000000E+00  0.000000000E+00  6.669900123E+01  6.669900123E+01  0.000000000E+00  0.00000E+00  9.000E+00
       2    -1     0     0   502     0  0.000000000E+00  0.000000000E+00 -3.811942885E+03  3.811942885E+03  0.000000000E+00  0.00000E+00  9.000E+00
      25     1     1     2     0     0 -1.043549756E+02  1.591577393E+02 -8.333258484E+02  8.638738965E+02  1.249999704E+02  0.00000E+00  9.000E+00
       5     1     1     2   501     0 -2.855746451E+00 -2.909949863E+00  4.520794651E+01  4.563928159E+01  4.750000000E+00  0.00000E+00  9.000E+00
      -5     1     1     2     0   503  1.272333774E+02 -1.287429947E+02 -1.403685630E+03  1.415315866E+03  4.750000000E+00  0.00000E+00  9.000E+00
       2     1     1     2   503     0 -2.002265534E+01 -2.750479475E+01 -1.553440352E+03  1.553812842E+03  3.051757812E-05  0.00000E+00  9.000E+00
#rwgt            1           9   9.6426159593647031E-004           9     2636070           0
</event>
<event>
      6   9999  3.45752E-01  2.44555E+01 -1.00000E+00  1.53817E-01
      21    -1     0     0   501   502  0.000000000E+00  0.000000000E+00  1.780649447E+01  1.780649447E+01  0.000000000E+00  0.00000E+00  9.000E+00
      21    -1     0     0   511   503  0.000000000E+00  0.000000000E+00 -1.116338768E+03  1.116338768E+03  0.000000000E+00  0.00000E+00  9.000E+00
      25     1     1     2     0     0  1.751523677E+01 -2.521899038E+01 -7.777839778E+02  7.883632971E+02  1.250039641E+02  0.00000E+00  9.000E+00
       5     1     1     2   501     0  7.946849126E+00 -7.230101357E+00  8.078723394E+00  1.425675448E+01  4.750000000E+00  0.00000E+00  9.000E+00
      -5     1     1     2     0   503 -9.121699905E+00  1.425401166E+01 -1.527625323E+02  1.537704004E+02  4.750000000E+00  0.00000E+00  9.000E+00
      21     1     1     2   511   502 -1.634038599E+01  1.819508007E+01 -1.760644864E+02  1.777548101E+02  3.814697266E-06  0.00000E+00  9.000E+00
#rwgt            1           9   9.0834199217991463E-003           9     2638266           0
</event>
<event>
      6   9999  3.45752E-01  9.02312E+00 -1.00000E+00  1.92022E-01
      21    -1     0     0   501   512  0.000000000E+00  0.000000000E+00  1.137138974E+01  1.137138974E+01  0.000000000E+00  0.00000E+00  9.000E+00
      21    -1     0     0   502   503  0.000000000E+00  0.000000000E+00 -8.372987697E+02  8.372987697E+02  0.000000000E+00  0.00000E+00  9.000E+00
      25     1     1     2     0     0 -3.234321453E+01 -4.076083469E+00 -5.596695648E+02  5.743823201E+02  1.249893190E+02  0.00000E+00  9.000E+00
       5     1     1     2   501     0 -6.805131314E-01 -6.460645274E+00 -1.875897642E+01  2.041236712E+01  4.750000000E+00  0.00000E+00  9.000E+00
      -5     1     1     2     0   503  2.895300048E+01  2.484034579E+00 -2.409099613E+02  2.427027371E+02  4.750000000E+00  0.00000E+00  9.000E+00
      21     1     1     2   502   512  4.070727177E+00  8.052694164E+00 -6.588877435E+00  1.117273507E+01  4.915124924E-07  0.00000E+00  9.000E+00
#rwgt            1           9   4.2679125146345302E-002           9     2639612           0
</event>
<event>
      6   9999  3.45752E-01  1.85989E+00 -1.00000E+00  3.45588E-01
      21    -1     0     0   501   502  0.000000000E+00  0.000000000E+00  7.910894442E+00  7.910894442E+00  0.000000000E+00  0.00000E+00  9.000E+00
       2    -1     0     0   502     0  0.000000000E+00  0.000000000E+00 -1.584873370E+03  1.584873370E+03  0.000000000E+00  0.00000E+00  9.000E+00
      25     1     1     2     0     0 -1.606886447E+01  6.182787388E-01 -6.661822304E+02  6.779987941E+02  1.250000402E+02  0.00000E+00  9.000E+00
       5     1     1     2   501     0  1.935426743E-01  6.155097478E-01 -4.042458605E+00  6.270588695E+00  4.750000000E+00  0.00000E+00  9.000E+00
      -5     1     1     2     0   503  1.529326641E+01  5.326738041E-01 -7.142986783E+01  7.320489230E+01  4.750000000E+00  0.00000E+00  9.000E+00
       2     1     1     2   503     0  5.820553867E-01 -1.766462291E+00 -8.353079186E+02  8.353099892E+02  0.000000000E+00  0.00000E+00  9.000E+00
#rwgt            1           9   4.5320641848453550E-005           9     2642169           0
</event>
<event>
      6   9999  3.45752E-01  7.75009E+00 -1.00000E+00  1.99661E-01
      21    -1     0     0   501   502  0.000000000E+00  0.000000000E+00  1.602252017E+02  1.602252017E+02  0.000000000E+00  0.00000E+00  9.000E+00
      21    -1     0     0   502   511  0.000000000E+00  0.000000000E+00 -9.292593026E+01  9.292593026E+01  0.000000000E+00  0.00000E+00  9.000E+00
      25     1     1     2     0     0  7.592166491E+00 -8.264219923E-02 -3.564267112E+01  1.302056918E+02  1.250018974E+02  0.00000E+00  9.000E+00
       5     1     1     2   501     0 -7.410633372E-01  2.521915088E+00  1.077377496E+02  1.078744382E+02  4.750000000E+00  0.00000E+00  9.000E+00
      -5     1     1     2     0   503  8.700200967E-01 -1.769873561E+00  1.189347254E+00  5.278866761E+00  4.750000000E+00  0.00000E+00  9.000E+00
      21     1     1     2   503   511 -7.721123251E+00 -6.693993275E-01 -5.985154285E+00  9.792135187E+00  8.429369702E-08  0.00000E+00  9.000E+00
#rwgt            1           9   1.2771216244977985E-004           9     2649940           0
</event>
<event>
      6   9999  3.45752E-01  1.68944E+01 -1.00000E+00  1.66013E-01
      21    -1     0     0   501   502  0.000000000E+00  0.000000000E+00  9.988751151E+02  9.988751151E+02  0.000000000E+00  0.00000E+00  9.000E+00
      21    -1     0     0   502   512  0.000000000E+00  0.000000000E+00 -4.159095241E+02  4.159095241E+02  0.000000000E+00  0.00000E+00  9.000E+00
      25     1     1     2     0     0  2.166930444E+01  1.995602636E+01  3.315149226E+02  3.555255035E+02  1.250137512E+02  0.00000E+00  9.000E+00
       5     1     1     2   501     0 -9.752662440E-01  1.454015520E+00  6.492167020E+02  6.492364392E+02  4.750000000E+00  0.00000E+00  9.000E+00
      -5     1     1     2     0   503 -4.354180214E+00 -2.570296067E+01 -2.362601993E+01  3.550144208E+01  4.750000000E+00  0.00000E+00  9.000E+00
      21     1     1     2   503   512 -1.633985798E+01  4.292918785E+00 -3.741400137E+02  3.745212544E+02  7.629394531E-06  0.00000E+00  9.000E+00
#rwgt            1           9   2.2413670136123224E-003           9     2653521           0
</event>
<event>
      6   9999  3.45752E-01  2.90165E+01 -1.00000E+00  1.48781E-01
      21    -1     0     0   501   511  0.000000000E+00  0.000000000E+00  5.405161669E+01  5.405161669E+01  0.000000000E+00  0.00000E+00  9.000E+00
      21    -1     0     0   502   503  0.000000000E+00  0.000000000E+00 -1.203807360E+03  1.203807360E+03  0.000000000E+00  0.00000E+00  9.000E+00
      25     1     1     2     0     0 -1.152562026E+02 -9.770145057E+01 -9.415531980E+02  9.617538258E+02  1.249737214E+02  0.00000E+00  9.000E+00
       5     1     1     2   501     0  9.415559029E+01  1.001521861E+02 -1.756808907E+02  2.231189670E+02  4.750000000E+00  0.00000E+00  9.000E+00
      -5     1     1     2     0   503 -7.226151211E+00  3.838137644E+00 -4.153746401E+01  4.260131428E+01  4.750000000E+00  0.00000E+00  9.000E+00
      21     1     1     2   502   511  2.832676355E+01 -6.288873201E+00  9.015809719E+00  3.038486933E+01  1.209842153E-06  0.00000E+00  9.000E+00
#rwgt            1           9   3.2470686163674271E-004           9     2656081           0
</event>
<event>
      6   9999  3.45752E-01  3.94856E+00 -1.00000E+00  2.49019E-01
      21    -1     0     0   501   502  0.000000000E+00  0.000000000E+00  7.976203363E+01  7.976203363E+01  0.000000000E+00  0.00000E+00  9.000E+00
      21    -1     0     0   512   503  0.000000000E+00  0.000000000E+00 -4.447196392E+02  4.447196392E+02  0.000000000E+00  0.00000E+00  9.000E+00
      25     1     1     2     0     0 -1.493880609E+01 -1.706369527E+00 -3.237258925E+02  3.473568852E+02  1.250290870E+02  0.00000E+00  9.000E+00
       5     1     1     2   501     0 -6.223252072E+00  5.156312253E+00  6.525260095E+01  6.592253676E+01  4.750000000E+00  0.00000E+00  9.000E+00
      -5     1     1     2     0   503  2.189603953E+01  4.297977236E-01 -5.261576984E+01  5.718918613E+01  4.750000000E+00  0.00000E+00  9.000E+00
      21     1     1     2   512   502 -7.339813706E-01 -3.879740449E+00 -5.386854415E+01  5.401306474E+01  0.000000000E+00  0.00000E+00  9.000E+00
#rwgt            1           9  0.94304982182160335                9     2657633           0
</event>
<event>
      6   9999  3.45752E-01  9.19506E+00 -1.00000E+00  1.91116E-01
      21    -1     0     0   501   511  0.000000000E+00  0.000000000E+00  8.679298570E+00  8.679298570E+00  0.000000000E+00  0.00000E+00  9.000E+00
      21    -1     0     0   502   503  0.000000000E+00  0.000000000E+00 -8.006455532E+02  8.006455532E+02  0.000000000E+00  0.00000E+00  9.000E+00
      25     1     1     2     0     0 -5.791478691E+00  3.325696296E+00 -6.137329870E+02  6.263746729E+02  1.250297968E+02  0.00000E+00  9.000E+00
       5     1     1     2   501     0  1.074467067E-01 -5.176746990E-01 -2.575632002E+00  5.429172322E+00  4.750000000E+00  0.00000E+00  9.000E+00
      -5     1     1     2     0   503  8.168026358E+00 -1.166120994E+01 -1.352582280E+02  1.360883948E+02  4.750000000E+00  0.00000E+00  9.000E+00
      21     1     1     2   502   511 -2.483994374E+00  8.853188342E+00 -4.039940765E+01  4.143261167E+01  1.066240300E-06  0.00000E+00  9.000E+00
#rwgt            1           9   8.6881606987921550E-002           9     2665174           0
</event>
<event>
      6   9999  3.45752E-01  5.84233E+00 -1.00000E+00  2.15682E-01
      21    -1     0     0   501   512  0.000000000E+00  0.000000000E+00  1.052667242E+02  1.052667242E+02  0.000000000E+00  0.00000E+00  9.000E+00
      21    -1     0     0   502   503  0.000000000E+00  0.000000000E+00 -1.478146575E+03  1.478146575E+03  0.000000000E+00  0.00000E+00  9.000E+00
      25     1     1     2     0     0  5.947387968E+01  1.013649259E+02 -3.311858690E+02  3.729903640E+02  1.250029650E+02  0.00000E+00  9.000E+00
       5     1     1     2   501     0  1.133214723E+01  6.624329184E+00  4.366803154E+01  4.584494276E+01  4.750000000E+00  0.00000E+00  9.000E+00
      -5     1     1     2     0   503 -7.121714480E+01 -1.021614118E+02 -1.121281753E+03  1.128186229E+03  4.750000000E+00  0.00000E+00  9.000E+00
      21     1     1     2   502   512  4.111178856E-01 -5.827843283E+00  3.591973935E+01  3.639176350E+01  1.168007728E-06  0.00000E+00  9.000E+00
#rwgt            1           9   1.2892760036251826E-003           9     2667425           0
</event>
<event>
      6   9999 -3.45752E-01  7.86375E+00 -1.00000E+00  1.98903E-01
      21    -1     0     0   501   502  0.000000000E+00  0.000000000E+00  7.566508253E+01  7.566508253E+01  0.000000000E+00  0.00000E+00  9.000E+00
      21    -1     0     0   502   511  0.000000000E+00  0.000000000E+00 -3.319569264E+02  3.319569264E+02  0.000000000E+00  0.00000E+00  9.000E+00
      25     1     1     2     0     0 -9.934207599E+00  6.105280448E+00 -2.045660356E+02  2.400171671E+02  1.250000586E+02  0.00000E+00  9.000E+00
       5     1     1     2   501     0 -1.283521466E+00 -3.849352814E+00  5.622510451E+01  5.657110413E+01  4.750000000E+00  0.00000E+00  9.000E+00
      -5     1     1     2     0   503  3.786224307E+00  3.153181279E-01 -5.257907070E+00  8.040087486E+00  4.750000000E+00  0.00000E+00  9.000E+00
      21     1     1     2   503   511  7.431504757E+00 -2.571245761E+00 -1.026930056E+02  1.029936502E+02  1.348699152E-06  0.00000E+00  9.000E+00
#rwgt            1           9  -5.4354385671780169E-004           9     2673412           0
</event>
<event>
      6   9999  3.45752E-01  3.31146E+00 -1.00000E+00  2.66153E-01
      21    -1     0     0   501   512  0.000000000E+00  0.000000000E+00  3.078944367E+02  3.078944367E+02  0.000000000E+00  0.00000E+00  9.000E+00
      21    -1     0     0   502   503  0.000000000E+00  0.000000000E+00 -1.066729107E+03  1.066729107E+03  0.000000000E+00  0.00000E+00  9.000E+00
      25     1     1     2     0     0  7.477825787E-01  1.157027609E+01 -9.355048433E+02  9.438907637E+02  1.250041257E+02  0.00000E+00  9.000E+00
       5     1     1     2   501     0  7.320047239E-01 -3.810434625E+00  2.073437078E+01  2.162248539E+01  4.750000000E+00  0.00000E+00  9.000E+00
      -5     1     1     2     0   503 -4.461413853E+00 -6.319126016E+00 -1.264147951E+02  1.267402797E+02  4.750000000E+00  0.00000E+00  9.000E+00
      21     1     1     2   502   512  2.981626551E+00 -1.440715454E+00  2.823505972E+02  2.823700152E+02  3.814697266E-06  0.00000E+00  9.000E+00
#rwgt            1           9   6.2585220998498335E-005           9     2676731           0
</event>
<event>
      6   9999  3.45752E-01  6.52148E+00 -1.00000E+00  2.09137E-01
      21    -1     0     0   501   502  0.000000000E+00  0.000000000E+00  1.967835810E+01  1.967835810E+01  0.000000000E+00  0.00000E+00  9.000E+00
      21    -1     0     0   511   503  0.000000000E+00  0.000000000E+00 -1.060218554E+03  1.060218554E+03  0.000000000E+00  0.00000E+00  9.000E+00
      25     1     1     2     0     0 -6.411199958E+00  1.338935451E+00 -2.360411651E+02  2.671760424E+02  1.249988390E+02  0.00000E+00  9.000E+00
       5     1     1     2   501     0 -1.228555198E+00 -3.438141431E-01  1.988898522E+00  5.305259029E+00  4.750000000E+00  0.00000E+00  9.000E+00
      -5     1     1     2     0   503  1.298408557E+00 -2.517288639E+00 -1.652695149E+01  1.742771449E+01  4.750000000E+00  0.00000E+00  9.000E+00
      21     1     1     2   511   502  6.341346599E+00  1.522167332E+00 -7.899609778E+02  7.899878962E+02  1.078959322E-05  0.00000E+00  9.000E+00
#rwgt            1           9  0.50526848659144907                9     2683926           0
</event>
<event>
      6   9999  3.45752E-01  4.80952E+00 -1.00000E+00  2.32370E-01
      21    -1     0     0   501   502  0.000000000E+00  0.000000000E+00  1.821354907E+03  1.821354907E+03  0.000000000E+00  0.00000E+00  9.000E+00
      21    -1     0     0   512   503  0.000000000E+00  0.000000000E+00 -4.873190077E+00  4.873190077E+00  0.000000000E+00  0.00000E+00  9.000E+00
      25     1     1     2     0     0 -6.691045038E+00 -2.456945038E+00  1.325629070E+03  1.331528615E+03  1.250008597E+02  0.00000E+00  9.000E+00
       5     1     1     2   501     0 -2.503260003E-01 -1.664729965E+00  4.517471944E+02  4.517753027E+02  4.750000000E+00  0.00000E+00  9.000E+00
      -5     1     1     2     0   503  3.917234706E+00  3.818822015E-01  3.699391783E+00  7.192952198E+00  4.750000000E+00  0.00000E+00  9.000E+00
      21     1     1     2   512   502  3.024136331E+00  3.739792802E+00  3.540606055E+01  3.573122688E+01  4.768371582E-07  0.00000E+00  9.000E+00
#rwgt            1           9   5.6801300827613306E-004           9     2687391           0
</event>
<event>
      6   9999  3.45752E-01  1.72063E+01 -1.00000E+00  1.65363E-01
      21    -1     0     0   501   511  0.000000000E+00  0.000000000E+00  6.199160499E+02  6.199160499E+02  0.000000000E+00  0.00000E+00  9.000E+00
      21    -1     0     0   502   503  0.000000000E+00  0.000000000E+00 -7.999022839E+02  7.999022839E+02  0.000000000E+00  0.00000E+00  9.000E+00
      25     1     1     2     0     0 -1.506780526E+01 -1.347296784E+01 -7.640236363E+02  7.744444764E+02  1.249942817E+02  0.00000E+00  9.000E+00
       5     1     1     2   501     0 -1.883321929E+00  2.288954852E+00  4.244404491E+00  7.025929496E+00  4.750000000E+00  0.00000E+00  9.000E+00
      -5     1     1     2     0   503  1.639412517E-01  1.495867214E+01 -2.704313249E+01  3.126791108E+01  4.750000000E+00  0.00000E+00  9.000E+00
      21     1     1     2   502   511  1.678718594E+01 -3.774659147E+00  6.068361303E+02  6.070800168E+02  0.000000000E+00  0.00000E+00  9.000E+00
#rwgt            1           9   1.7330818522859956E-005           9     2691423           0
</event>
<event>
      6   9999  3.45752E-01  1.98319E+01 -1.00000E+00  1.60491E-01
      21    -1     0     0   501   502  0.000000000E+00  0.000000000E+00  8.670198151E+00  8.670198151E+00  0.000000000E+00  0.00000E+00  9.000E+00
      21    -1     0     0   512   503  0.000000000E+00  0.000000000E+00 -9.799385347E+02  9.799385347E+02  0.000000000E+00  0.00000E+00  9.000E+00
      25     1     1     2     0     0  1.151734240E+01  1.691943295E+01 -8.055452474E+02  8.154495041E+02  1.250433193E+02  0.00000E+00  9.000E+00
       5     1     1     2   501     0  9.489801224E-01  2.279947081E+00 -4.008550256E-01  5.368603796E+00  4.750000000E+00  0.00000E+00  9.000E+00
      -5     1     1     2     0   503 -3.927075591E+00 -1.300065920E+00 -1.665184117E+01  1.780332577E+01  4.750000000E+00  0.00000E+00  9.000E+00
      21     1     1     2   512   502 -8.539246933E+00 -1.789931411E+01 -1.486703929E+02  1.499872992E+02  2.697398305E-06  0.00000E+00  9.000E+00
#rwgt            1           9   3.6451362321400583E-003           9     2693260           0
</event>
<event>
      6   9999  3.45752E-01  8.55920E+01 -1.00000E+00  1.23378E-01
      21    -1     0     0   502   503  0.000000000E+00  0.000000000E+00  1.000335754E+01  1.000335754E+01  0.000000000E+00  0.00000E+00  9.000E+00
      21    -1     0     0   501   511  0.000000000E+00  0.000000000E+00 -1.764182962E+03  1.764182962E+03  0.000000000E+00  0.00000E+00  9.000E+00
      25     1     1     2     0     0 -8.044209502E+01  4.988597346E+00 -7.344156470E+02  7.493244150E+02  1.249996783E+02  0.00000E+00  9.000E+00
       5     1     1     2   501     0 -8.303409839E-01 -3.645980287E+00 -4.529402893E+01  4.569566932E+01  4.750000000E+00  0.00000E+00  9.000E+00
      -5     1     1     2     0   503 -4.177250237E+00  3.591679399E+00 -3.193494221E+01  3.275290238E+01  4.750000000E+00  0.00000E+00  9.000E+00
      21     1     1     2   502   511  8.544968624E+01 -4.934296458E+00 -9.425349867E+02  9.464133332E+02  1.078959322E-05  0.00000E+00  9.000E+00
#rwgt            1           9   7.2595841824928619E-004           9     2694499           0
</event>
<event>
      6   9999  3.45752E-01  1.17362E+01 -1.00000E+00  1.80156E-01
      21    -1     0     0   512   503  0.000000000E+00  0.000000000E+00  5.243508067E+01  5.243508067E+01  0.000000000E+00  0.00000E+00  9.000E+00
      21    -1     0     0   501   502  0.000000000E+00  0.000000000E+00 -1.349077780E+03  1.349077780E+03  0.000000000E+00  0.00000E+00  9.000E+00
      25     1     1     2     0     0 -6.129246709E+01  2.333736528E+01 -9.946399901E+01  1.726836045E+02  1.250005641E+02  0.00000E+00  9.000E+00
       5     1     1     2   501     0 -1.330765910E+00  1.980375843E-01 -1.085466116E+03  1.085477343E+03  4.750000000E+00  0.00000E+00  9.000E+00
      -5     1     1     2     0   503  7.123174404E+01 -3.151231535E+01 -9.884540021E+01  1.259363451E+02  4.750000000E+00  0.00000E+00  9.000E+00
      21     1     1     2   512   502 -8.608511037E+00  7.976912483E+00 -1.286718454E+01  1.741556870E+01  3.371747881E-07  0.00000E+00  9.000E+00
#rwgt            1           9  0.22771059989284756                9     2695172           0
</event>
<event>
      6   9999  3.45752E-01  1.85562E+01 -1.00000E+00  1.62735E-01
      21    -1     0     0   502   503  0.000000000E+00  0.000000000E+00  2.373907577E+01  2.373907577E+01  0.000000000E+00  0.00000E+00  9.000E+00
      21    -1     0     0   501   511  0.000000000E+00  0.000000000E+00 -1.431471131E+03  1.431471131E+03  0.000000000E+00  0.00000E+00  9.000E+00
      25     1     1     2     0     0 -1.837787021E+01  5.464058255E+01 -2.024793606E+02  2.448367074E+02  1.249951297E+02  0.00000E+00  9.000E+00
       5     1     1     2   501     0  4.182438124E+01 -3.708418050E+00 -5.743161706E+02  5.758686113E+02  4.750000000E+00  0.00000E+00  9.000E+00
      -5     1     1     2     0   503 -1.137070554E+01 -3.684285494E+01 -2.396361483E+02  2.427647729E+02  4.750000000E+00  0.00000E+00  9.000E+00
      21     1     1     2   502   511 -1.207580549E+01 -1.408930957E+01 -3.913003761E+02  3.917401154E+02  5.394796609E-06  0.00000E+00  9.000E+00
#rwgt            1           9   3.1375234059657225E-004           9     2698603           0
</event>
<event>
      6   9999  3.45752E-01  3.70337E+01 -1.00000E+00  1.42155E-01
      21    -1     0     0   501   502  0.000000000E+00  0.000000000E+00  1.469545040E+01  1.469545040E+01  0.000000000E+00  0.00000E+00  9.000E+00
      21    -1     0     0   502   512  0.000000000E+00  0.000000000E+00 -1.625172563E+03  1.625172563E+03  0.000000000E+00  0.00000E+00  9.000E+00
      25     1     1     2     0     0  4.632773237E+01  7.162482062E+01 -5.715939281E+02  5.912909802E+02  1.250161226E+02  0.00000E+00  9.000E+00
       5     1     1     2   501     0 -3.011628332E-01  2.869089817E+00 -1.087860328E+00  5.662889326E+00  4.750000000E+00  0.00000E+00  9.000E+00
      -5     1     1     2     0   503 -3.818008679E+01 -3.830103365E+01 -3.561850350E+02  3.602985288E+02  4.750000000E+00  0.00000E+00  9.000E+00
      21     1     1     2   503   512 -7.846482748E+00 -3.619287679E+01 -6.816102891E+02  6.826156149E+02  7.629394531E-06  0.00000E+00  9.000E+00
#rwgt            1           9   2.9026034753956476E-004           9     2700696           0
</event>
<event>
      6   9999  3.45752E-01  8.18512E+00 -1.00000E+00  1.96846E-01
      21    -1     0     0   501   502  0.000000000E+00  0.000000000E+00  1.139186656E+01  1.139186656E+01  0.000000000E+00  0.00000E+00  9.000E+00
       1    -1     0     0   502     0  0.000000000E+00  0.000000000E+00 -1.931660935E+03  1.931660935E+03  0.000000000E+00  0.00000E+00  9.000E+00
      25     1     1     2     0     0  5.207012598E-01 -6.486445396E+00 -7.561152306E+02  7.664059366E+02  1.250018905E+02  0.00000E+00  9.000E+00
       5     1     1     2   501     0  3.425342816E+00  7.704495368E-01  3.952465270E+00  7.107112466E+00  4.750000000E+00  0.00000E+00  9.000E+00
      -5     1     1     2     0   503  3.417976242E+00  9.289150170E+00 -4.223241471E+01  4.363611148E+01  4.750000000E+00  0.00000E+00  9.000E+00
       1     1     1     2   503     0 -7.364020318E+00 -3.573154310E+00 -1.125873888E+03  1.125903641E+03  2.157918644E-05  0.00000E+00  9.000E+00
#rwgt            1           9   1.2625032465159714E-004           9     2701798           0
</event>
<event>
      6   9999  3.45752E-01  2.54812E+00 -1.00000E+00  2.96873E-01
      21    -1     0     0   511   502  0.000000000E+00  0.000000000E+00  7.523124307E+01  7.523124307E+01  0.000000000E+00  0.00000E+00  9.000E+00
      21    -1     0     0   502   503  0.000000000E+00  0.000000000E+00 -1.510443057E+03  1.510443057E+03  0.000000000E+00  0.00000E+00  9.000E+00
      25     1     1     2     0     0  9.724155926E+01 -1.549794931E+02 -2.011345978E+02  2.992580211E+02  1.250026904E+02  0.00000E+00  9.000E+00
       5     1     1     2   501     0 -3.716796497E-01 -1.902440989E+00  1.768141145E+01  1.841065557E+01  4.750000000E+00  0.00000E+00  9.000E+00
      -5     1     1     2     0   503 -9.658630162E+01  1.543496449E+02 -1.252236072E+03  1.265413161E+03  4.750000000E+00  0.00000E+00  9.000E+00
      21     1     1     2   511   501 -2.835779883E-01  2.532289188E+00  4.774446411E-01  2.592461840E+00  8.093402156E-08  0.00000E+00  9.000E+00
#rwgt            1           9   3.3291305233906707E-003           9     2704567           0
</event>
<event>
      6   9999  3.45752E-01  9.76012E+00 -1.00000E+00  1.88311E-01
      21    -1     0     0   501   512  0.000000000E+00  0.000000000E+00  1.635768397E+02  1.635768397E+02  0.000000000E+00  0.00000E+00  9.000E+00
      21    -1     0     0   502   503  0.000000000E+00  0.000000000E+00 -1.442458035E+03  1.442458035E+03  0.000000000E+00  0.00000E+00  9.000E+00
      25     1     1     2     0     0 -2.063624936E+00 -5.165848170E+00 -1.262581970E+03  1.268766073E+03  1.249926957E+02  0.00000E+00  9.000E+00
       5     1     1     2   501     0  1.526688813E+00 -9.624606001E-02 -6.928376328E+00  8.538439001E+00  4.750000000E+00  0.00000E+00  9.000E+00
      -5     1     1     2     0   503  9.703054034E+00  8.615045918E+00 -1.686185921E+02  1.691838065E+02  4.750000000E+00  0.00000E+00  9.000E+00
      21     1     1     2   502   512 -9.166117912E+00 -3.352951688E+00  1.592477427E+02  1.595465560E+02  5.046370146E-06  0.00000E+00  9.000E+00
#rwgt            1           9   1.5169020347831130E-004           9     2714885           0
</event>
<event>
      6   9999  3.45752E-01  2.24125E+01 -1.00000E+00  1.56525E-01
      21    -1     0     0   511   502  0.000000000E+00  0.000000000E+00  4.093857508E+01  4.093857508E+01  0.000000000E+00  0.00000E+00  9.000E+00
      21    -1     0     0   502   503  0.000000000E+00  0.000000000E+00 -1.150662280E+03  1.150662280E+03  0.000000000E+00  0.00000E+00  9.000E+00
      25     1     1     2     0     0  5.813008332E+01 -5.953720750E+01 -6.204807117E+02  6.383927594E+02  1.250008639E+02  0.00000E+00  9.000E+00
       5     1     1     2   501     0  1.435338635E+00  4.221453438E-01  1.960315750E+01  2.022584207E+01  4.750000000E+00  0.00000E+00  9.000E+00
      -5     1     1     2     0   503 -3.818243748E+01  5.240015099E+01 -5.062646572E+02  5.104215316E+02  4.750000000E+00  0.00000E+00  9.000E+00
      21     1     1     2   511   501 -2.138298448E+01  6.714911165E+00 -2.581493286E+00  2.256072173E+01  3.953724850E-07  0.00000E+00  9.000E+00
#rwgt            1           9   1.4200648270174744E-004           9     2716730           0
</event>
<event>
      6   9999  3.45752E-01  1.05377E+01 -1.00000E+00  1.84829E-01
      21    -1     0     0   502   512  0.000000000E+00  0.000000000E+00  1.210811206E+01  1.210811206E+01  0.000000000E+00  0.00000E+00  9.000E+00
      21    -1     0     0   501   502  0.000000000E+00  0.000000000E+00 -7.960041103E+02  7.960041103E+02  0.000000000E+00  0.00000E+00  9.000E+00
      25     1     1     2     0     0  9.539958827E+00  6.881795448E-01 -4.034002133E+02  4.224303925E+02  1.249968800E+02  0.00000E+00  9.000E+00
       5     1     1     2   501     0 -2.302841430E-01  3.973134218E+00 -3.531429628E+02  3.531973294E+02  4.750000000E+00  0.00000E+00  9.000E+00
      -5     1     1     2     0   503  3.681527025E-01 -4.919357508E-01 -1.718929376E+01  1.784409866E+01  4.750000000E+00  0.00000E+00  9.000E+00
      21     1     1     2   503   512 -9.677827386E+00 -4.169378012E+00 -1.016352840E+01  1.464040182E+01  3.953724850E-07  0.00000E+00  9.000E+00
#rwgt            1           9   1.1755450237691790E-002           9     2718406           0
</event>
<event>
      6   9999  3.45752E-01  2.89409E+01 -1.00000E+00  1.48855E-01
      21    -1     0     0   502   503  0.000000000E+00  0.000000000E+00  1.037640507E+02  1.037640507E+02  0.000000000E+00  0.00000E+00  9.000E+00
      21    -1     0     0   501   511  0.000000000E+00  0.000000000E+00 -5.770266000E+02  5.770266000E+02  0.000000000E+00  0.00000E+00  9.000E+00
      25     1     1     2     0     0 -5.645831859E+01  4.540134397E+00  2.113095666E+01  1.388507875E+02  1.249994772E+02  0.00000E+00  9.000E+00
       5     1     1     2   501     0  8.966054869E+01 -2.590176931E+01 -1.452832759E+02  1.727417390E+02  4.750000000E+00  0.00000E+00  9.000E+00
      -5     1     1     2     0   503 -1.289791801E+01  7.385688549E-01  4.441815636E+00  1.446354034E+01  4.750000000E+00  0.00000E+00  9.000E+00
      21     1     1     2   502   511 -2.030431209E+01  2.062306605E+01 -3.535520457E+02  3.547345839E+02  3.814697266E-06  0.00000E+00  9.000E+00
#rwgt            1           9   2655.5636757116854                9     2721216           0
</event>
<event>
      6   9999  3.45752E-01  4.53921E+01 -1.00000E+00  1.37073E-01
      21    -1     0     0   512   502  0.000000000E+00  0.000000000E+00  1.343655459E+01  1.343655459E+01  0.000000000E+00  0.00000E+00  9.000E+00
       2    -1     0     0   501     0  0.000000000E+00  0.000000000E+00 -1.299647877E+03  1.299647877E+03  0.000000000E+00  0.00000E+00  9.000E+00
      25     1     1     2     0     0  3.457574295E+00  4.726086020E+01 -4.889856051E+02  5.069316770E+02  1.250090374E+02  0.00000E+00  9.000E+00
       5     1     1     2   501     0 -4.378300571E+01 -9.785801448E-01 -2.237958888E+02  2.280900514E+02  4.750000000E+00  0.00000E+00  9.000E+00
      -5     1     1     2     0   502  3.272483965E-01 -2.482103550E+01 -1.400494389E+02  1.423116255E+02  4.750000000E+00  0.00000E+00  9.000E+00
       2     1     1     2   512     0  3.999818301E+01 -2.146124456E+01 -4.333803893E+02  4.357510775E+02  5.394796609E-06  0.00000E+00  9.000E+00
#rwgt            1           3   1.0962394686945991E-003           9     2722671           0
</event>
<event>
      6   9999  3.45752E-01  2.80371E+01 -1.00000E+00  1.49764E-01
      21    -1     0     0   511   502  0.000000000E+00  0.000000000E+00  3.050125846E+01  3.050125846E+01  0.000000000E+00  0.00000E+00  9.000E+00
      21    -1     0     0   502   503  0.000000000E+00  0.000000000E+00 -1.105581430E+03  1.105581430E+03  0.000000000E+00  0.00000E+00  9.000E+00
      25     1     1     2     0     0 -8.973046603E+01  2.692970554E+00 -3.720969857E+02  4.026608142E+02  1.249830223E+02  0.00000E+00  9.000E+00
       5     1     1     2   501     0 -3.489722576E+00  3.098093529E+00  1.008795288E+01  1.208741662E+01  4.750000000E+00  0.00000E+00  9.000E+00
      -5     1     1     2     0   503  6.521111969E+01 -4.536984685E+00 -6.351514540E+02  6.385240844E+02  4.750000000E+00  0.00000E+00  9.000E+00
      21     1     1     2   511   501  2.800906892E+01 -1.254079399E+00 -7.791968496E+01  8.281037351E+01  9.536743164E-07  0.00000E+00  9.000E+00
#rwgt            1           9   1.8348439523221835E-002           9     2723887           0
</event>
<event>
      6   9999  3.45752E-01  1.44008E+01 -1.00000E+00  1.71920E-01
      21    -1     0     0   512   502  0.000000000E+00  0.000000000E+00  8.964274498E+01  8.964274498E+01  0.000000000E+00  0.00000E+00  9.000E+00
      21    -1     0     0   502   503  0.000000000E+00  0.000000000E+00 -1.263496189E+03  1.263496189E+03  0.000000000E+00  0.00000E+00  9.000E+00
      25     1     1     2     0     0 -4.554881891E+01  1.022228200E+02 -5.074318735E+02  5.344492056E+02  1.249985890E+02  0.00000E+00  9.000E+00
       5     1     1     2   501     0  3.065497910E+00 -3.307628093E+00  3.523479232E+01  3.583839799E+01  4.750000000E+00  0.00000E+00  9.000E+00
      -5     1     1     2     0   503  3.956839036E+01 -8.481253637E+01 -7.379130599E+02  7.438394116E+02  4.750000000E+00  0.00000E+00  9.000E+00
      21     1     1     2   512   501  2.914930641E+00 -1.410265559E+01  3.625669712E+01  3.901191871E+01  4.768371582E-07  0.00000E+00  9.000E+00
#rwgt            1           9   1.1491367754706463E-004           9     2725364           0
</event>
<event>
      6   9999  3.45752E-01  2.84368E+01 -1.00000E+00  1.49357E-01
      21    -1     0     0   501   511  0.000000000E+00  0.000000000E+00  6.850787610E+02  6.850787610E+02  0.000000000E+00  0.00000E+00  9.000E+00
      21    -1     0     0   502   503  0.000000000E+00  0.000000000E+00 -8.049773426E+01  8.049773426E+01  0.000000000E+00  0.00000E+00  9.000E+00
      25     1     1     2     0     0 -9.092473289E+00  1.709836691E+01 -8.138724954E+00  1.267542225E+02  1.250014674E+02  0.00000E+00  9.000E+00
       5     1     1     2   501     0  1.261674612E+01 -7.121750401E+00  5.587153137E+02  5.589233095E+02  4.750000000E+00  0.00000E+00  9.000E+00
      -5     1     1     2     0   503  2.418921741E+01 -3.603872105E+00  8.660013140E+00  2.637545186E+01  4.750000000E+00  0.00000E+00  9.000E+00
      21     1     1     2   502   511 -2.771349024E+01 -6.372744404E+00  4.534442478E+01  5.352351139E+01  6.743495762E-07  0.00000E+00  9.000E+00
#rwgt            1           9   1.1144216735224300E-002           9     2728544           0
</event>
<event>
      6   9999  3.45752E-01  1.37728E+01 -1.00000E+00  1.73648E-01
      21    -1     0     0   512   503  0.000000000E+00  0.000000000E+00  5.170618095E+02  5.170618095E+02  0.000000000E+00  0.00000E+00  9.000E+00
      21    -1     0     0   501   502  0.000000000E+00  0.000000000E+00 -5.505191171E+02  5.505191171E+02  0.000000000E+00  0.00000E+00  9.000E+00
      25     1     1     2     0     0 -5.555744393E+00 -2.873721437E+01 -2.996228722E+02  3.259707192E+02  1.250054018E+02  0.00000E+00  9.000E+00
       5     1     1     2   501     0  6.604196007E-01  1.797045688E-01 -2.084426924E+02  2.084979304E+02  4.750000000E+00  0.00000E+00  9.000E+00
      -5     1     1     2     0   503 -8.204673009E+00  3.280968570E+01 -1.915499717E+01  3.915697322E+01  4.750000000E+00  0.00000E+00  9.000E+00
      21     1     1     2   512   502  1.309999780E+01 -4.252175896E+00  4.937632542E+02  4.939553038E+02  7.629394531E-06  0.00000E+00  9.000E+00
#rwgt            1           9   162.79729045574018                9     2730677           0
</event>
<event>
      6   9999  3.45752E-01  1.63858E+01 -1.00000E+00  1.67111E-01
      21    -1     0     0   501   502  0.000000000E+00  0.000000000E+00  1.002885344E+02  1.002885344E+02  0.000000000E+00  0.00000E+00  9.000E+00
      21    -1     0     0   502   511  0.000000000E+00  0.000000000E+00 -1.774577817E+03  1.774577817E+03  0.000000000E+00  0.00000E+00  9.000E+00
      25     1     1     2     0     0  6.287308949E+01  3.236007569E+02 -9.379684996E+02  1.002038794E+03  1.250054558E+02  0.00000E+00  9.000E+00
       5     1     1     2   501     0 -4.452348902E+00 -2.498158405E+00  2.942344769E+01  3.023848509E+01  4.750000000E+00  0.00000E+00  9.000E+00
      -5     1     1     2     0   503 -4.220267965E+01 -3.234413122E+02 -6.670671326E+02  7.425607520E+02  4.750000000E+00  0.00000E+00  9.000E+00
      21     1     1     2   503   511 -1.621806094E+01  2.338713654E+00 -9.867709829E+01  1.000283200E+02  1.907348633E-06  0.00000E+00  9.000E+00
#rwgt            1           9   8.6849979036787901E-004           9     2732938           0
</event>
<event>
      6   9999  3.45752E-01  7.75267E+00 -1.00000E+00  1.99644E-01
      21    -1     0     0   501   512  0.000000000E+00  0.000000000E+00  1.939739641E+02  1.939739641E+02  0.000000000E+00  0.00000E+00  9.000E+00
      21    -1     0     0   502   503  0.000000000E+00  0.000000000E+00 -8.554987753E+02  8.554987753E+02  0.000000000E+00  0.00000E+00  9.000E+00
      25     1     1     2     0     0  4.961869431E+00 -3.150681065E+00 -7.873694340E+02  7.972515186E+02  1.249992461E+02  0.00000E+00  9.000E+00
       5     1     1     2   501     0 -2.586675283E+00 -5.016288663E+00  7.161787661E+00  1.028142711E+01  4.750000000E+00  0.00000E+00  9.000E+00
      -5     1     1     2     0   503 -2.819495342E+00  4.270412690E-01 -6.142040542E+01  6.166977072E+01  4.750000000E+00  0.00000E+00  9.000E+00
      21     1     1     2   502   512  4.443011944E-01  7.739928459E+00  1.801032405E+02  1.802700229E+02  3.814697266E-06  0.00000E+00  9.000E+00
#rwgt            1           9   4.1068917222474985E-003           9     2736222           0
</event>
<event>
      6   9999 -3.45752E-01  1.23037E+02 -1.00000E+00  1.16729E-01
      21    -1     0     0   502   511  0.000000000E+00  0.000000000E+00  5.899705690E+01  5.899705690E+01  0.000000000E+00  0.00000E+00  9.000E+00
      21    -1     0     0   501   502  0.000000000E+00  0.000000000E+00 -1.575740001E+03  1.575740001E+03  0.000000000E+00  0.00000E+00  9.000E+00
      25     1     1     2     0     0 -1.219677232E+02 -2.412131219E+02 -8.343881892E+02  8.859380988E+02  1.249910757E+02  0.00000E+00  9.000E+00
       5     1     1     2   501     0 -1.524122356E+00 -7.209928665E+00 -1.331346800E+02  1.334230548E+02  4.750000000E+00  0.00000E+00  9.000E+00
      -5     1     1     2     0   503  6.995775158E+01  1.376434865E+02 -2.994395224E+02  3.369367989E+02  4.750000000E+00  0.00000E+00  9.000E+00
      21     1     1     2   503   511  5.353409398E+01  1.107795640E+02 -2.497805527E+02  2.784391056E+02  5.394796609E-06  0.00000E+00  9.000E+00
#rwgt            1           9  -1.4013933947018362E-002           9     2739721           0
</event>
<event>
      6   9999 -3.45752E-01  1.17377E+01 -1.00000E+00  1.80150E-01
      21    -1     0     0   501   502  0.000000000E+00  0.000000000E+00  1.440248488E+01  1.440248488E+01  0.000000000E+00  0.00000E+00  9.000E+00
      21    -1     0     0   512   503  0.000000000E+00  0.000000000E+00 -2.086606996E+03  2.086606996E+03  0.000000000E+00  0.00000E+00  9.000E+00
      25     1     1     2     0     0 -2.308636233E+01  1.657604594E+01 -1.881220439E+03  1.885582881E+03  1.249988700E+02  0.00000E+00  9.000E+00
       5     1     1     2   501     0 -3.450944567E+00 -3.596587933E+00  9.765815353E+00  1.194897957E+01  4.750000000E+00  0.00000E+00  9.000E+00
      -5     1     1     2     0   503  1.802245047E+01 -4.900444755E+00 -8.620045356E+01  8.832838600E+01  4.750000000E+00  0.00000E+00  9.000E+00
      21     1     1     2   512   502  8.514856426E+00 -8.079013249E+00 -1.145494341E+02  1.151492340E+02  1.907348633E-06  0.00000E+00  9.000E+00
#rwgt            1           9  -6.3110021252468857E-005           9     2740202           0
</event>
<event>
      6   9999  3.45752E-01  4.93154E+01 -1.00000E+00  1.35109E-01
       2    -1     0     0   501     0  0.000000000E+00  0.000000000E+00  2.080457840E+02  2.080457840E+02  0.000000000E+00  0.00000E+00  9.000E+00
      21    -1     0     0   502   503  0.000000000E+00  0.000000000E+00 -1.056506605E+03  1.056506605E+03  0.000000000E+00  0.00000E+00  9.000E+00
      25     1     1     2     0     0 -9.529081182E+01  9.488045498E+00 -5.673680289E+02  5.888144271E+02  1.250023502E+02  0.00000E+00  9.000E+00
       5     1     1     2   501     0  5.426515717E+01 -8.427409027E+01 -2.542625936E+02  2.733475051E+02  4.750000000E+00  0.00000E+00  9.000E+00
      -5     1     1     2     0   503  6.919384583E+00  3.916620110E+01 -2.094414914E+02  2.132373560E+02  4.750000000E+00  0.00000E+00  9.000E+00
       2     1     1     2   502     0  3.410627007E+01  3.561984367E+01  1.826112933E+02  1.891531003E+02  5.394796609E-06  0.00000E+00  9.000E+00
#rwgt            1           9   5.9148864851211890E-005           9     2743103           0
</event>
<event>
      6   9999  3.45752E-01  1.57862E+01 -1.00000E+00  1.68471E-01
      21    -1     0     0   511   502  0.000000000E+00  0.000000000E+00  6.075478111E+01  6.075478111E+01  0.000000000E+00  0.00000E+00  9.000E+00
      21    -1     0     0   502   503  0.000000000E+00  0.000000000E+00 -1.392792847E+03  1.392792847E+03  0.000000000E+00  0.00000E+00  9.000E+00
      25     1     1     2     0     0  8.639210504E+00 -8.947750715E-01 -1.274586629E+03  1.280731099E+03  1.250025434E+02  0.00000E+00  9.000E+00
       5     1     1     2   501     0 -1.337647379E+01 -3.053109319E+00  5.435167667E+01  5.625761090E+01  4.750000000E+00  0.00000E+00  9.000E+00
      -5     1     1     2     0   503 -4.806575450E+00 -8.626702862E+00 -8.294024546E+01  8.366104223E+01  4.750000000E+00  0.00000E+00  9.000E+00
      21     1     1     2   511   501  9.543838739E+00  1.257458725E+01 -2.886286763E+01  3.289787577E+01  5.840038640E-07  0.00000E+00  9.000E+00
#rwgt            1           9   8.4955424530221838E-005           9     2743995           0
</event>
<event>
      6   9999  3.45752E-01  5.19791E+00 -1.00000E+00  2.23124E-01
      21    -1     0     0   501   502  0.000000000E+00  0.000000000E+00  2.490647830E+01  2.490647830E+01  0.000000000E+00  0.00000E+00  9.000E+00
      21    -1     0     0   502   512  0.000000000E+00  0.000000000E+00 -4.027640462E+02  4.027640462E+02  0.000000000E+00  0.00000E+00  9.000E+00
      25     1     1     2     0     0 -1.026901200E+01  2.556182703E+01 -2.173362970E+02  2.522272478E+02  1.249986357E+02  0.00000E+00  9.000E+00
       5     1     1     2   501     0 -3.056814494E-01  3.336197611E-01  2.990633018E+00  5.631263548E+00  4.750000000E+00  0.00000E+00  9.000E+00
      -5     1     1     2     0   503  6.447865066E+00 -2.273513727E+01 -4.385962667E+01  5.004688584E+01  4.750000000E+00  0.00000E+00  9.000E+00
      21     1     1     2   503   512  4.126828386E+00 -3.160309518E+00 -1.196522773E+02  1.197651273E+02  1.348699152E-06  0.00000E+00  9.000E+00
#rwgt            1           9   15.112114774242954                9     2746999           0
</event>
<event>
      6   9999  3.45752E-01  5.01179E+00 -1.00000E+00  2.25557E-01
      21    -1     0     0   501   502  0.000000000E+00  0.000000000E+00  2.139126949E+00  2.139126949E+00  0.000000000E+00  0.00000E+00  9.000E+00
      21    -1     0     0   511   503  0.000000000E+00  0.000000000E+00 -2.667985250E+03  2.667985250E+03  0.000000000E+00  0.00000E+00  9.000E+00
      25     1     1     2     0     0  8.921637807E-01  5.022137925E+00 -2.353699508E+03  2.357021988E+03  1.250010346E+02  0.00000E+00  9.000E+00
       5     1     1     2   501     0  8.164691027E-01 -3.090964431E-01 -1.579848984E+01  1.652019805E+01  4.750000000E+00  0.00000E+00  9.000E+00
      -5     1     1     2     0   503  2.967270607E+00 -2.909162301E+00 -1.231952424E+02  1.233567922E+02  4.750000000E+00  0.00000E+00  9.000E+00
      21     1     1     2   511   502 -4.675903491E+00 -1.803879181E+00 -1.731528832E+02  1.732253994E+02  0.000000000E+00  0.00000E+00  9.000E+00
#rwgt            1           9   2.8097202407679719E-004           9     2750834           0
</event>
<event>
      6   9999  3.45752E-01  4.22897E+00 -1.00000E+00  2.42950E-01
      21    -1     0     0   502   503  0.000000000E+00  0.000000000E+00  8.323677795E+00  8.323677795E+00  0.000000000E+00  0.00000E+00  9.000E+00
      21    -1     0     0   512   502  0.000000000E+00  0.000000000E+00 -7.599969450E+02  7.599969450E+02  0.000000000E+00  0.00000E+00  9.000E+00
      25     1     1     2     0     0  8.567566305E+00  4.563170242E+00 -4.878176814E+02  5.036720554E+02  1.250008935E+02  0.00000E+00  9.000E+00
       5     1     1     2   501     0  4.902290749E-01  1.510894935E+00 -1.368918959E+02  1.369834910E+02  4.750000000E+00  0.00000E+00  9.000E+00
      -5     1     1     2     0   503 -6.032628654E+00 -3.118977363E+00 -1.028504485E+02  1.031838063E+02  4.750000000E+00  0.00000E+00  9.000E+00
      21     1     1     2   512   501 -3.025166726E+00 -2.955087814E+00 -2.411324136E+01  2.448127011E+01  0.000000000E+00  0.00000E+00  9.000E+00
#rwgt            1           9   3.4355441439450443E-005           9     2754310           0
</event>
<event>
      6   9999  3.45752E-01  2.82108E+01 -1.00000E+00  1.49586E-01
      21    -1     0     0   501   502  0.000000000E+00  0.000000000E+00  9.461848255E+01  9.461848255E+01  0.000000000E+00  0.00000E+00  9.000E+00
      21    -1     0     0   511   503  0.000000000E+00  0.000000000E+00 -8.063647125E+02  8.063647125E+02  0.000000000E+00  0.00000E+00  9.000E+00
      25     1     1     2     0     0  3.444498208E+01  4.315147157E+01 -1.171175622E+02  1.799669058E+02  1.249922298E+02  0.00000E+00  9.000E+00
       5     1     1     2   501     0 -1.232156476E+01 -4.543821707E+00  5.584580304E+01  5.756547135E+01  4.750000000E+00  0.00000E+00  9.000E+00
      -5     1     1     2     0   503 -4.413832179E+01 -5.624834392E+01 -2.064673281E+02  2.185483647E+02  4.750000000E+00  0.00000E+00  9.000E+00
      21     1     1     2   511   502  2.201490448E+01  1.764069406E+01 -4.440071427E+02  4.449024532E+02  7.629394531E-06  0.00000E+00  9.000E+00
#rwgt            1           9  0.97666724123182391                9     2759259           0
</event>
<event>
      6   9999  3.45752E-01  1.79796E+01 -1.00000E+00  1.63823E-01
      21    -1     0     0   512   502  0.000000000E+00  0.000000000E+00  4.144580453E+01  4.144580453E+01  0.000000000E+00  0.00000E+00  9.000E+00
      21    -1     0     0   502   503  0.000000000E+00  0.000000000E+00 -7.991919927E+02  7.991919927E+02  0.000000000E+00  0.00000E+00  9.000E+00
      25     1     1     2     0     0 -1.073885945E+00  7.263754866E+00 -7.084620342E+02  7.194396209E+02  1.249839948E+02  0.00000E+00  9.000E+00
       5     1     1     2   501     0 -5.137308558E-01  1.819707357E+00 -4.289999331E+00  6.673967974E+00  4.750000000E+00  0.00000E+00  9.000E+00
      -5     1     1     2     0   503 -5.711129152E+00  7.348006873E+00 -7.705814671E+01  7.776329903E+01  4.750000000E+00  0.00000E+00  9.000E+00
      21     1     1     2   512   501  7.298745953E+00 -1.643146910E+01  3.206399201E+01  3.676090931E+01  9.536743164E-07  0.00000E+00  9.000E+00
#rwgt            1           9  0.27457698457434054                9     2761181           0
</event>
<event>
      6   9999  3.45752E-01  2.19015E+01 -1.00000E+00  1.57257E-01
      21    -1     0     0   501   511  0.000000000E+00  0.000000000E+00  2.176119169E+01  2.176119169E+01  0.000000000E+00  0.00000E+00  9.000E+00
      21    -1     0     0   502   503  0.000000000E+00  0.000000000E+00 -7.269738222E+02  7.269738222E+02  0.000000000E+00  0.00000E+00  9.000E+00
      25     1     1     2     0     0  2.226063930E+01 -9.137950930E+00 -6.343483275E+02  6.469944001E+02  1.249996594E+02  0.00000E+00  9.000E+00
       5     1     1     2   501     0  1.495245708E+00 -8.364006143E-01 -5.920638225E+00  7.781502600E+00  4.750000000E+00  0.00000E+00  9.000E+00
      -5     1     1     2     0   503 -3.200824714E+00  2.413695949E+00 -7.097159996E+01  7.124325728E+01  4.750000000E+00  0.00000E+00  9.000E+00
      21     1     1     2   502   511 -2.055506029E+01  7.560655596E+00  6.027935238E+00  2.271585393E+01  1.685873940E-07  0.00000E+00  9.000E+00
#rwgt            1           9   3.5759461360118530E-004           9     2762601           0
</event>
<event>
      6   9999 -3.45752E-01  1.76046E+01 -1.00000E+00  1.64558E-01
      21    -1     0     0   512   502  0.000000000E+00  0.000000000E+00  1.213995751E+02  1.213995751E+02  0.000000000E+00  0.00000E+00  9.000E+00
      21    -1     0     0   502   503  0.000000000E+00  0.000000000E+00 -1.422275532E+03  1.422275532E+03  0.000000000E+00  0.00000E+00  9.000E+00
      25     1     1     2     0     0  1.013003624E+02  2.449894909E+02 -7.182882670E+02  7.757869373E+02  1.250028943E+02  0.00000E+00  9.000E+00
       5     1     1     2   501     0 -6.167230150E-01  4.531950094E+00  1.948572982E+01  2.057121984E+01  4.750000000E+00  0.00000E+00  9.000E+00
      -5     1     1     2     0   503 -1.099357645E+02 -2.345441447E+02 -6.481402743E+02  6.980008637E+02  4.750000000E+00  0.00000E+00  9.000E+00
      21     1     1     2   512   501  9.252125151E+00 -1.497729626E+01  4.606685473E+01  4.931608589E+01  1.507891493E-06  0.00000E+00  9.000E+00
#rwgt            1           9  -8.2869370733871073E-002           9     2764035           0
</event>
<event>
      6   9999  3.45752E-01  1.08656E+02 -1.00000E+00  1.18923E-01
      21    -1     0     0   501   502  0.000000000E+00  0.000000000E+00  3.728511956E+01  3.728511956E+01  0.000000000E+00  0.00000E+00  9.000E+00
      21    -1     0     0   502   511  0.000000000E+00  0.000000000E+00 -2.825950533E+03  2.825950533E+03  0.000000000E+00  0.00000E+00  9.000E+00
      25     1     1     2     0     0 -2.169728835E+01  5.151677359E+01 -1.063215177E+03  1.071995852E+03  1.249953774E+02  0.00000E+00  9.000E+00
       5     1     1     2   501     0  3.271416024E+00  5.019960451E-01  1.115190400E+01  1.256509553E+01  4.750000000E+00  0.00000E+00  9.000E+00
      -5     1     1     2     0   503  8.656099268E+01  3.261987689E+01 -9.221640215E+01  1.307030571E+02  4.750000000E+00  0.00000E+00  9.000E+00
      21     1     1     2   503   511 -6.813512035E+01 -8.463864652E+01 -1.644385738E+03  1.647971648E+03  2.157918644E-05  0.00000E+00  9.000E+00
#rwgt            1           9   1.6200565675176775E-005           9     2767026           0
</event>
<event>
      6   9999  3.45752E-01  3.65000E+01 -1.00000E+00  1.42532E-01
      -2    -1     0     0     0   512  0.000000000E+00  0.000000000E+00  7.866742523E+00  7.866742523E+00  0.000000000E+00  0.00000E+00  9.000E+00
       2    -1     0     0   501     0  0.000000000E+00  0.000000000E+00 -5.158094902E+03  5.158094902E+03  0.000000000E+00  0.00000E+00  9.000E+00
      25     1     1     2     0     0  2.328795548E+01 -1.112528860E+02 -1.120336838E+03  1.133004329E+03  1.249985881E+02  0.00000E+00  9.000E+00
       5     1     1     2   501     0 -1.330418058E+01  3.180408657E+01 -2.880765012E+03  2.880975203E+03  4.750000000E+00  0.00000E+00  9.000E+00
      -5     1     1     2     0   502 -6.944514264E+00  4.307556226E+01 -7.003856494E+02  7.017594679E+02  4.750000000E+00  0.00000E+00  9.000E+00
      21     1     1     2   502   512 -3.039260630E+00  3.637323716E+01 -4.487406608E+02  4.502226450E+02  5.394796609E-06  0.00000E+00  9.000E+00
#rwgt            1           3   3.9286818885899495E-004           9     2767761           0
</event>
<event>
      6   9999  3.45752E-01  1.23562E+01 -1.00000E+00  1.78007E-01
      21    -1     0     0   501   502  0.000000000E+00  0.000000000E+00  1.833448542E+01  1.833448542E+01  0.000000000E+00  0.00000E+00  9.000E+00
      21    -1     0     0   502   511  0.000000000E+00  0.000000000E+00 -1.205583258E+03  1.205583258E+03  0.000000000E+00  0.00000E+00  9.000E+00
      25     1     1     2     0     0 -4.753072445E+01  5.777460031E+00 -4.997654435E+02  5.173786482E+02  1.249904728E+02  0.00000E+00  9.000E+00
       5     1     1     2   501     0 -9.866116894E-01 -8.759981731E-01  7.373471271E+00  8.869687368E+00  4.750000000E+00  0.00000E+00  9.000E+00
      -5     1     1     2     0   503  4.647697193E+01 -1.708808033E+01 -5.880059931E+02  5.901065344E+02  4.750000000E+00  0.00000E+00  9.000E+00
      21     1     1     2   503   511  2.040364207E+00  1.218661847E+01 -1.068508076E+02  1.075628739E+02  1.907348633E-06  0.00000E+00  9.000E+00
#rwgt            1           9  0.43393135190741472                9     2769599           0
</event>
<event>
      6   9999  3.45752E-01  4.44289E+00 -1.00000E+00  2.38774E-01
      21    -1     0     0   501   512  0.000000000E+00  0.000000000E+00  2.328814869E+02  2.328814869E+02  0.000000000E+00  0.00000E+00  9.000E+00
      21    -1     0     0   502   503  0.000000000E+00  0.000000000E+00 -8.788120098E+02  8.788120098E+02  0.000000000E+00  0.00000E+00  9.000E+00
      25     1     1     2     0     0  4.962898141E+00 -1.315907016E+00 -8.380753162E+02  8.473611934E+02  1.249975779E+02  0.00000E+00  9.000E+00
       5     1     1     2   501     0  1.286778259E+00  3.359529558E+00  4.852466739E+00  7.684475948E+00  4.750000000E+00  0.00000E+00  9.000E+00
      -5     1     1     2     0   503 -2.107158666E+00 -4.377565112E-01 -3.445932325E+01  3.485167438E+01  4.750000000E+00  0.00000E+00  9.000E+00
      21     1     1     2   502   512 -4.142517734E+00 -1.605866031E+00  2.217516498E+02  2.217961530E+02  5.394796609E-06  0.00000E+00  9.000E+00
#rwgt            1           9   1.4861370475178733E-003           9     2772351           0
</event>
<event>
      6   9999  3.45752E-01  4.17363E+00 -1.00000E+00  2.44091E-01
      21    -1     0     0   501   502  0.000000000E+00  0.000000000E+00  1.986410250E+01  1.986410250E+01  0.000000000E+00  0.00000E+00  9.000E+00
      21    -1     0     0   511   503  0.000000000E+00  0.000000000E+00 -1.010165996E+03  1.010165996E+03  0.000000000E+00  0.00000E+00  9.000E+00
      25     1     1     2     0     0  7.916853969E+01 -2.179968767E+01 -5.149823443E+02  5.362598774E+02  1.249998284E+02  0.00000E+00  9.000E+00
       5     1     1     2   501     0  8.908682510E-01 -1.221729124E+00  3.704255773E+00  6.210497494E+00  4.750000000E+00  0.00000E+00  9.000E+00
      -5     1     1     2     0   503 -8.380935316E+01  2.118917365E+01 -4.522201090E+02  4.604330334E+02  4.750000000E+00  0.00000E+00  9.000E+00
      21     1     1     2   511   502  3.749945228E+00  1.832243144E+00 -2.680369545E+01  2.712668970E+01  3.371747881E-07  0.00000E+00  9.000E+00
#rwgt            1           9   5.5791071462830521E-004           9     2777169           0
</event>
<event>
      6   9999  3.45752E-01  5.05005E+00 -1.00000E+00  2.25045E-01
      21    -1     0     0   501   512  0.000000000E+00  0.000000000E+00  4.669353013E+02  4.669353013E+02  0.000000000E+00  0.00000E+00  9.000E+00
      21    -1     0     0   502   503  0.000000000E+00  0.000000000E+00 -3.924346090E+02  3.924346090E+02  0.000000000E+00  0.00000E+00  9.000E+00
      25     1     1     2     0     0  7.174549916E+01  7.185734995E+00  5.576585703E+01  1.547052328E+02  1.249993072E+02  0.00000E+00  9.000E+00
       5     1     1     2   501     0  5.073588564E+00  6.523123081E+00 -6.881418240E+01  6.947119285E+01  4.750000000E+00  0.00000E+00  9.000E+00
      -5     1     1     2     0   503 -7.886037266E+01 -9.089747852E+00 -2.680299749E+02  2.795786327E+02  4.750000000E+00  0.00000E+00  9.000E+00
      21     1     1     2   502   512  2.041284939E+00 -4.619110225E+00  3.555789926E+02  3.556148520E+02  3.814697266E-06  0.00000E+00  9.000E+00
#rwgt            1           9   9.3653344312773258E-003           9     2782795           0
</event>
<event>
      6   9999  3.45752E-01  1.52054E+01 -1.00000E+00  1.69861E-01
      21    -1     0     0   502   503  0.000000000E+00  0.000000000E+00  1.415784551E+02  1.415784551E+02  0.000000000E+00  0.00000E+00  9.000E+00
      21    -1     0     0   501   511  0.000000000E+00  0.000000000E+00 -2.521838996E+02  2.521838996E+02  0.000000000E+00  0.00000E+00  9.000E+00
      25     1     1     2     0     0  2.276010679E+01 -1.054143349E+02 -1.489439414E+02  2.223466349E+02  1.249940955E+02  0.00000E+00  9.000E+00
       5     1     1     2   501     0 -1.289633148E+00 -6.605804280E-01  2.111028552E+01  2.168654363E+01  4.750000000E+00  0.00000E+00  9.000E+00
      -5     1     1     2     0   503 -3.356482620E+01  1.152906692E+02  3.611649057E+01  1.254810717E+02  4.750000000E+00  0.00000E+00  9.000E+00
      21     1     1     2   502   511  1.209435256E+01 -9.215753884E+00 -1.888827914E+01  2.424810451E+01  5.840038640E-07  0.00000E+00  9.000E+00
#rwgt            1           9   4.5687031894072741E-004           9     2788336           0
</event>
<event>
      6   9999  3.45752E-01  5.40987E+01 -1.00000E+00  1.32982E-01
      21    -1     0     0   501   502  0.000000000E+00  0.000000000E+00  7.960722201E+01  7.960722201E+01  0.000000000E+00  0.00000E+00  9.000E+00
      21    -1     0     0   512   503  0.000000000E+00  0.000000000E+00 -1.839362915E+03  1.839362915E+03  0.000000000E+00  0.00000E+00  9.000E+00
      25     1     1     2     0     0 -9.340249405E+01  2.212084325E+02 -3.735490468E+02  4.613255468E+02  1.250006932E+02  0.00000E+00  9.000E+00
       5     1     1     2   501     0  7.060276021E-01 -2.237566366E+00  1.464756057E+01  1.557622255E+01  4.750000000E+00  0.00000E+00  9.000E+00
      -5     1     1     2     0   503  1.367681948E+02 -2.503451711E+02 -1.100570492E+03  1.136950401E+03  4.750000000E+00  0.00000E+00  9.000E+00
      21     1     1     2   512   502 -4.407172834E+01  3.137430495E+01 -3.002837145E+02  3.051179665E+02  5.394796609E-06  0.00000E+00  9.000E+00
#rwgt            1           9   2.6421982151743291E-004           9     2790971           0
</event>
<event>
      6   9999  3.45752E-01  1.41167E+01 -1.00000E+00  1.72688E-01
      21    -1     0     0   501   511  0.000000000E+00  0.000000000E+00  3.058134887E+01  3.058134887E+01  0.000000000E+00  0.00000E+00  9.000E+00
      21    -1     0     0   502   503  0.000000000E+00  0.000000000E+00 -2.068509418E+02  2.068509418E+02  0.000000000E+00  0.00000E+00  9.000E+00
      25     1     1     2     0     0 -6.348403120E+00 -1.436789361E+01 -1.363090531E+02  1.856116793E+02  1.249991958E+02  0.00000E+00  9.000E+00
       5     1     1     2   501     0  1.913012773E+00  6.213631011E-01 -1.498761217E-01  5.160491529E+00  4.750000000E+00  0.00000E+00  9.000E+00
      -5     1     1     2     0   503 -2.001192197E+00  1.182668760E+00 -2.726874109E+01  2.777679277E+01  4.750000000E+00  0.00000E+00  9.000E+00
      21     1     1     2   502   511  6.436582544E+00  1.256386175E+01 -1.254192262E+01  1.888332704E+01  2.384185791E-07  0.00000E+00  9.000E+00
#rwgt            1           9   16062.309697791639                9     2793073           0
</event>
<event>
      6   9999  3.45752E-01  8.40315E+00 -1.00000E+00  1.95521E-01
      21    -1     0     0   501   512  0.000000000E+00  0.000000000E+00  1.535065631E+01  1.535065631E+01  0.000000000E+00  0.00000E+00  9.000E+00
      21    -1     0     0   502   503  0.000000000E+00  0.000000000E+00 -8.952368591E+02  8.952368591E+02  0.000000000E+00  0.00000E+00  9.000E+00
      25     1     1     2     0     0 -3.028810956E+01  2.986030773E+01 -3.294377335E+02  3.549152732E+02  1.250064931E+02  0.00000E+00  9.000E+00
       5     1     1     2   501     0  2.867722946E+00 -8.785295012E-01 -2.896239478E+01  2.950217722E+01  4.750000000E+00  0.00000E+00  9.000E+00
      -5     1     1     2     0   503  2.942590734E+01 -3.714209468E+01 -5.083521000E+02  5.105779463E+02  4.750000000E+00  0.00000E+00  9.000E+00
      21     1     1     2   502   512 -2.005520727E+00  8.160316455E+00 -1.313397453E+01  1.559211868E+01  0.000000000E+00  0.00000E+00  9.000E+00
#rwgt            1           9   1.1260627412794529E-003           9     2794689           0
</event>
<event>
      6   9999  3.45752E-01  2.39934E+00 -1.00000E+00  3.05025E-01
      21    -1     0     0   501   511  0.000000000E+00  0.000000000E+00  1.194950809E+01  1.194950809E+01  0.000000000E+00  0.00000E+00  9.000E+00
      21    -1     0     0   502   503  0.000000000E+00  0.000000000E+00 -8.379781293E+02  8.379781293E+02  0.000000000E+00  0.00000E+00  9.000E+00
      25     1     1     2     0     0 -2.123029518E+01 -7.957047095E+00 -6.075061050E+02  6.206462994E+02  1.249964850E+02  0.00000E+00  9.000E+00
       5     1     1     2   501     0  1.695724588E+00 -3.167011623E-01  3.431301617E+00  6.108364126E+00  4.750000000E+00  0.00000E+00  9.000E+00
      -5     1     1     2     0   503  1.775908228E+01  6.659907655E+00 -2.132502822E+02  2.141447752E+02  4.750000000E+00  0.00000E+00  9.000E+00
      21     1     1     2   502   511  1.775488310E+00  1.613840602E+00 -8.703535670E+00  9.028198790E+00  0.000000000E+00  0.00000E+00  9.000E+00
#rwgt            1           9   1.4051245956667012E-004           9     2797401           0
</event>
<event>
      6   9999  3.45752E-01  4.98794E+00 -1.00000E+00  2.29547E-01
      21    -1     0     0   512   502  0.000000000E+00  0.000000000E+00  4.663769042E+01  4.663769042E+01  0.000000000E+00  0.00000E+00  9.000E+00
      21    -1     0     0   502   503  0.000000000E+00  0.000000000E+00 -7.816497229E+02  7.816497229E+02  0.000000000E+00  0.00000E+00  9.000E+00
      25     1     1     2     0     0  7.782267358E+00 -1.189337654E+01 -5.948170177E+02  6.079758017E+02  1.250010993E+02  0.00000E+00  9.000E+00
       5     1     1     2   501     0  4.762470555E-01  1.595960947E+00  3.121040230E+00  5.922608776E+00  4.750000000E+00  0.00000E+00  9.000E+00
      -5     1     1     2     0   503 -9.061054949E+00  1.522037267E+01 -1.782045699E+02  1.791457332E+02  4.750000000E+00  0.00000E+00  9.000E+00
      21     1     1     2   512   501  8.025405357E-01 -4.922957073E+00  3.488851498E+01  3.524326964E+01  1.581489940E-06  0.00000E+00  9.000E+00
#rwgt            1           9   2.7223518823544103E-004           9     2804186           0
</event>
<event>
      6   9999  3.45752E-01  1.04761E+01 -1.00000E+00  1.85091E-01
      21    -1     0     0   501   502  0.000000000E+00  0.000000000E+00  5.384235183E+01  5.384235183E+01  0.000000000E+00  0.00000E+00  9.000E+00
      21    -1     0     0   511   503  0.000000000E+00  0.000000000E+00 -1.648297969E+03  1.648297969E+03  0.000000000E+00  0.00000E+00  9.000E+00
      25     1     1     2     0     0  1.155280305E+02 -1.163177386E+02 -3.099077202E+02  3.722234638E+02  1.250238772E+02  0.00000E+00  9.000E+00
       5     1     1     2   501     0  1.148511371E-01  4.683110854E+00  1.526346573E+01  1.665774907E+01  4.750000000E+00  0.00000E+00  9.000E+00
      -5     1     1     2     0   503 -1.250758041E+02  1.161919689E+02 -1.100528031E+03  1.113700606E+03  4.750000000E+00  0.00000E+00  9.000E+00
      21     1     1     2   511   502  9.432922467E+00 -4.557341136E+00 -1.992833313E+02  1.995585015E+02  0.000000000E+00  0.00000E+00  9.000E+00
#rwgt            1           9   1.8946167948848901E-003           9     2808165           0
</event>
<event>
      6   9999  3.45752E-01  2.38257E+01 -1.00000E+00  1.54617E-01
      21    -1     0     0   501   502  0.000000000E+00  0.000000000E+00  1.881843145E+03  1.881843145E+03  0.000000000E+00  0.00000E+00  9.000E+00
      21    -1     0     0   502   512  0.000000000E+00  0.000000000E+00 -3.218616977E+02  3.218616977E+02  0.000000000E+00  0.00000E+00  9.000E+00
      25     1     1     2     0     0  9.349067957E+01  9.123949997E+00  8.652522830E+02  8.792667756E+02  1.249991828E+02  0.00000E+00  9.000E+00
       5     1     1     2   501     0 -1.024637025E+00 -3.766068322E+00  6.211650699E+02  6.211954924E+02  4.750000000E+00  0.00000E+00  9.000E+00
      -5     1     1     2     0   503 -9.849517954E+01 -2.840812904E+01  3.811562800E+02  3.947290140E+02  4.750000000E+00  0.00000E+00  9.000E+00
      21     1     1     2   503   512  6.029137003E+00  2.305024737E+01 -3.075921857E+02  3.085135607E+02  9.344061824E-06  0.00000E+00  9.000E+00
#rwgt            1           9   3.9995170121145474E-004           9     2812014           0
</event>
<event>
      6   9999  3.45752E-01  1.44141E+01 -1.00000E+00  1.71885E-01
      21    -1     0     0   511   502  0.000000000E+00  0.000000000E+00  6.989355416E+02  6.989355416E+02  0.000000000E+00  0.00000E+00  9.000E+00
      21    -1     0     0   502   503  0.000000000E+00  0.000000000E+00 -7.224818389E+02  7.224818389E+02  0.000000000E+00  0.00000E+00  9.000E+00
      25     1     1     2     0     0  4.197062502E+00 -1.141728221E+01 -5.894947158E+02  6.031100887E+02  1.268455337E+02  0.00000E+00  9.000E+00
       5     1     1     2   501     0 -1.474468164E+01  1.810778444E+00 -1.026064155E+02  1.037849872E+02  4.750000000E+00  0.00000E+00  9.000E+00
      -5     1     1     2     0   503  5.345989538E-01 -7.620487767E-01 -2.265291766E+01  2.316427622E+01  4.750000000E+00  0.00000E+00  9.000E+00
      21     1     1     2   511   501  1.001302018E+01  1.036855254E+01  6.912077517E+02  6.913580284E+02  0.000000000E+00  0.00000E+00  9.000E+00
#rwgt            1           9   7.2631421739219491E-003           9     2813839           0
</event>
<event>
      6   9999  3.45752E-01  2.55923E+00 -1.00000E+00  2.96302E-01
      21    -1     0     0   501   502  0.000000000E+00  0.000000000E+00  4.531506703E+00  4.531506703E+00  0.000000000E+00  0.00000E+00  9.000E+00
      21    -1     0     0   512   503  0.000000000E+00  0.000000000E+00 -1.779732767E+03  1.779732767E+03  0.000000000E+00  0.00000E+00  9.000E+00
      25     1     1     2     0     0 -2.424515157E+01 -1.520035943E+01 -1.479342173E+03  1.484889966E+03  1.250042721E+02  0.00000E+00  9.000E+00
       5     1     1     2   501     0  7.129500427E-01 -9.874610584E-01 -5.571821303E+00  7.422335868E+00  4.750000000E+00  0.00000E+00  9.000E+00
      -5     1     1     2     0   503  2.306637463E+01  1.367134222E+01 -2.293393505E+02  2.309503484E+02  4.750000000E+00  0.00000E+00  9.000E+00
      21     1     1     2   512   502  4.658268920E-01  2.516478263E+00 -6.094791515E+01  6.100162309E+01  0.000000000E+00  0.00000E+00  9.000E+00
#rwgt            1           9   1.8838399707748004E-004           9     2815568           0
</event>
<event>
      6   9999  3.45752E-01  2.20684E+01 -1.00000E+00  1.57015E-01
      21    -1     0     0   501   502  0.000000000E+00  0.000000000E+00  1.019284182E+02  1.019284182E+02  0.000000000E+00  0.00000E+00  9.000E+00
      21    -1     0     0   502   511  0.000000000E+00  0.000000000E+00 -1.259341159E+02  1.259341159E+02  0.000000000E+00  0.00000E+00  9.000E+00
      25     1     1     2     0     0  3.327095818E+01  4.032029686E+00  2.523079182E+01  1.318523316E+02  1.250009223E+02  0.00000E+00  9.000E+00
       5     1     1     2   501     0  8.572626366E-03 -9.022332284E-01  1.107435944E+01  1.208379226E+01  4.750000000E+00  0.00000E+00  9.000E+00
      -5     1     1     2     0   503 -2.662358667E+01 -2.417050334E+01 -3.633376209E+01  5.133939391E+01  4.750000000E+00  0.00000E+00  9.000E+00
      21     1     1     2   503   511 -6.655944136E+00  2.104070689E+01 -2.397708692E+01  3.258701637E+01  3.371747881E-07  0.00000E+00  9.000E+00
#rwgt            1           9   1.2094874476965402E-003           9     2821630           0
</event>
<event>
      6   9999  3.45752E-01  1.44894E+01 -1.00000E+00  1.71685E-01
      21    -1     0     0   512   502  0.000000000E+00  0.000000000E+00  2.687184677E+03  2.687184677E+03  0.000000000E+00  0.00000E+00  9.000E+00
      21    -1     0     0   502   503  0.000000000E+00  0.000000000E+00 -3.368651335E+00  3.368651335E+00  0.000000000E+00  0.00000E+00  9.000E+00
      25     1     1     2     0     0 -7.677076914E+00 -7.706207369E+00  1.245428775E+03  1.251732995E+03  1.249973404E+02  0.00000E+00  9.000E+00
       5     1     1     2   501     0 -2.669428084E+00 -1.660273614E+00  6.046296929E+02  6.046565227E+02  4.750000000E+00  0.00000E+00  9.000E+00
      -5     1     1     2     0   503  1.683226136E+00 -2.247752743E+00  5.597940603E+01  5.625070704E+01  4.750000000E+00  0.00000E+00  9.000E+00
      21     1     1     2   512   501  8.663278862E+00  1.161423373E+01  7.777781517E+02  7.779131032E+02  0.000000000E+00  0.00000E+00  9.000E+00
#rwgt            1           9   4.5011350454514217E-002           9     2823034           0
</event>
<event>
      6   9999 -3.45752E-01  1.84517E+01 -1.00000E+00  1.62928E-01
      21    -1     0     0   511   502  0.000000000E+00  0.000000000E+00  3.681071767E+01  3.681071767E+01  0.000000000E+00  0.00000E+00  9.000E+00
      21    -1     0     0   502   503  0.000000000E+00  0.000000000E+00 -6.973906895E+02  6.973906895E+02  0.000000000E+00  0.00000E+00  9.000E+00
      25     1     1     2     0     0 -4.034582901E+01 -4.372220590E+01 -6.234544653E+02  6.386442738E+02  1.250264809E+02  0.00000E+00  9.000E+00
       5     1     1     2   501     0 -4.265732222E+00  5.061635773E-01  1.364980815E+01  1.507754739E+01  4.750000000E+00  0.00000E+00  9.000E+00
      -5     1     1     2     0   503  3.065505751E+01  3.114613394E+01 -3.461371328E+01  5.595074492E+01  4.750000000E+00  0.00000E+00  9.000E+00
      21     1     1     2   511   501  1.395650372E+01  1.206990838E+01 -1.616160138E+01  2.452884105E+01  3.371747881E-07  0.00000E+00  9.000E+00
#rwgt            1           9  -3.9988403369665736E-003           9     2824611           0
</event>
<event>
      6   9999  3.45752E-01  6.56930E+00 -1.00000E+00  2.08717E-01
      21    -1     0     0   501   512  0.000000000E+00  0.000000000E+00  2.801864306E+01  2.801864306E+01  0.000000000E+00  0.00000E+00  9.000E+00
      21    -1     0     0   502   503  0.000000000E+00  0.000000000E+00 -8.170531902E+02  8.170531902E+02  0.000000000E+00  0.00000E+00  9.000E+00
      25     1     1     2     0     0  6.258850006E+00 -1.249414997E+00 -7.818729577E+02  7.918277215E+02  1.250003374E+02  0.00000E+00  9.000E+00
       5     1     1     2   501     0 -1.057084991E+00 -9.164970057E-01  5.418968326E+00  7.340648006E+00  4.750000000E+00  0.00000E+00  9.000E+00
      -5     1     1     2     0   503 -2.115207910E+00 -3.633128558E+00 -2.822854365E+01  2.893245417E+01  4.750000000E+00  0.00000E+00  9.000E+00
      21     1     1     2   502   512 -3.086557104E+00  5.799040561E+00  1.564798584E+01  1.697100961E+01  7.725644944E-07  0.00000E+00  9.000E+00
#rwgt            1           9   1.4865637359660769E-003           9     2826667           0
</event>
<event>
      6   9999  3.45752E-01  1.37935E+01 -1.00000E+00  1.73589E-01
      21    -1     0     0   511   502  0.000000000E+00  0.000000000E+00  6.055574962E+01  6.055574962E+01  0.000000000E+00  0.00000E+00  9.000E+00
      21    -1     0     0   502   503  0.000000000E+00  0.000000000E+00 -1.446616963E+03  1.446616963E+03  0.000000000E+00  0.00000E+00  9.000E+00
      25     1     1     2     0     0 -1.287323879E+01 -1.451660112E+01 -1.090045913E+03  1.097361104E+03  1.249993945E+02  0.00000E+00  9.000E+00
       5     1     1     2   501     0  1.735647376E+01  7.250967558E+00  5.056459467E+01  5.415869687E+01  4.750000000E+00  0.00000E+00  9.000E+00
      -5     1     1     2     0   503  3.549499111E+00  1.847886274E+01 -3.396726349E+02  3.402265844E+02  4.750000000E+00  0.00000E+00  9.000E+00
      21     1     1     2   511   501 -8.032734082E+00 -1.121322918E+01 -6.907260084E+00  1.542632709E+01  4.042583694E-07  0.00000E+00  9.000E+00
#rwgt            1           9   9.7967828449543339E-004           9     2830160           0
</event>
<event>
      6   9999 -3.45752E-01  3.17696E+01 -1.00000E+00  1.46246E-01
      21    -1     0     0   512   503  0.000000000E+00  0.000000000E+00  1.732180738E+01  1.732180738E+01  0.000000000E+00  0.00000E+00  9.000E+00
      21    -1     0     0   501   502  0.000000000E+00  0.000000000E+00 -8.996091267E+02  8.996091267E+02  0.000000000E+00  0.00000E+00  9.000E+00
      25     1     1     2     0     0 -6.600255240E+00 -5.449655497E+01 -4.419039918E+02  4.625124647E+02  1.250008165E+02  0.00000E+00  9.000E+00
       5     1     1     2   501     0  2.100866193E+01 -6.052371580E+00 -2.638245250E+02  2.647714818E+02  4.750000000E+00  0.00000E+00  9.000E+00
      -5     1     1     2     0   503 -8.186502755E+00  2.939457656E+01 -1.276010029E+02  1.312845703E+02  4.750000000E+00  0.00000E+00  9.000E+00
      21     1     1     2   512   502 -6.221903938E+00  3.115434999E+01 -4.895779958E+01  5.836241729E+01  0.000000000E+00  0.00000E+00  9.000E+00
#rwgt            1           9  -7.2858141643040444E-004           9     2833418           0
</event>
<event>
      6   9999  3.45752E-01  1.32318E+01 -1.00000E+00  1.75231E-01
      21    -1     0     0   511   503  0.000000000E+00  0.000000000E+00  3.046418239E+03  3.046418239E+03  0.000000000E+00  0.00000E+00  9.000E+00
      21    -1     0     0   501   502  0.000000000E+00  0.000000000E+00 -2.793905907E+01  2.793905907E+01  0.000000000E+00  0.00000E+00  9.000E+00
      25     1     1     2     0     0 -1.129803409E+02 -6.269030671E+01  2.723617932E+03  2.729544949E+03  1.250054325E+02  0.00000E+00  9.000E+00
       5     1     1     2   501     0 -5.267004987E+00 -3.155571153E+00 -5.438729153E+00  9.478462198E+00  4.750000000E+00  0.00000E+00  9.000E+00
      -5     1     1     2     0   503  1.104771922E+02  5.513581957E+01  2.068009064E+02  2.409031879E+02  4.750000000E+00  0.00000E+00  9.000E+00
      21     1     1     2   511   502  7.770153774E+00  1.071005829E+01  9.349907107E+01  9.443069908E+01  0.000000000E+00  0.00000E+00  9.000E+00
#rwgt            1           9   6.6831933150827375E-004           9     2834533           0
</event>
<event>
      6   9999  3.45752E-01  4.43620E+00 -1.00000E+00  2.38899E-01
      21    -1     0     0   501   502  0.000000000E+00  0.000000000E+00  7.607255221E+01  7.607255221E+01  0.000000000E+00  0.00000E+00  9.000E+00
      21    -1     0     0   512   503  0.000000000E+00  0.000000000E+00 -1.547848670E+02  1.547848670E+02  0.000000000E+00  0.00000E+00  9.000E+00
      25     1     1     2     0     0  1.198503470E-01  1.940597715E+01 -9.037840256E+01  1.554662021E+02  1.249995121E+02  0.00000E+00  9.000E+00
       5     1     1     2   501     0 -2.457624199E+00 -3.829685972E-03  4.001610633E+01  4.037191099E+01  4.750000000E+00  0.00000E+00  9.000E+00
      -5     1     1     2     0   503  3.198178532E+00 -1.505018301E+01 -2.159277677E+01  2.693597711E+01  4.750000000E+00  0.00000E+00  9.000E+00
      21     1     1     2   512   502 -8.604046807E-01 -4.351964461E+00 -6.757241815E+00  8.083329007E+00  0.000000000E+00  0.00000E+00  9.000E+00
#rwgt            1           9   1.3798900108432632E-004           9     2837993           0
</event>
<event>
      6   9999  3.45752E-01  5.67207E+00 -1.00000E+00  2.17515E-01
      21    -1     0     0   501   502  0.000000000E+00  0.000000000E+00  1.703749630E+01  1.703749630E+01  0.000000000E+00  0.00000E+00  9.000E+00
      21    -1     0     0   502   511  0.000000000E+00  0.000000000E+00 -1.172129084E+03  1.172129084E+03  0.000000000E+00  0.00000E+00  9.000E+00
      25     1     1     2     0     0  6.440169475E+01 -3.646048613E+01 -5.094885222E+02  5.297880543E+02  1.249795301E+02  0.00000E+00  9.000E+00
       5     1     1     2   501     0 -2.564308717E+00 -1.381828816E+01 -1.738704778E+01  2.285591165E+01  4.750000000E+00  0.00000E+00  9.000E+00
      -5     1     1     2     0   503 -6.592777581E+01  4.634925766E+01 -3.914106955E+02  3.996493718E+02  4.750000000E+00  0.00000E+00  9.000E+00
      21     1     1     2   503   511  4.090389780E+00  3.929516624E+00 -2.368053218E+02  2.368732421E+02  0.000000000E+00  0.00000E+00  9.000E+00
#rwgt            1           9   6.8658069397652829E-002           9     2842647           0
</event>
<event>
      6   9999  3.45752E-01  3.67427E+00 -1.00000E+00  2.55741E-01
      21    -1     0     0   501   512  0.000000000E+00  0.000000000E+00  1.031263830E+02  1.031263830E+02  0.000000000E+00  0.00000E+00  9.000E+00
      21    -1     0     0   502   503  0.000000000E+00  0.000000000E+00 -8.186537699E+02  8.186537699E+02  0.000000000E+00  0.00000E+00  9.000E+00
      25     1     1     2     0     0 -1.078442671E-03 -3.794910125E+00 -7.215696668E+02  7.323268840E+02  1.250019188E+02  0.00000E+00  9.000E+00
       5     1     1     2   501     0  2.025469695E+00  4.243172901E+00  8.407462840E+00  1.074034334E+01  4.750000000E+00  0.00000E+00  9.000E+00
      -5     1     1     2     0   503  6.207560114E-01  2.101923205E+00 -9.042514825E+01  9.057633993E+01  4.750000000E+00  0.00000E+00  9.000E+00
      21     1     1     2   502   512 -2.645147264E+00 -2.550185982E+00  8.805996523E+01  8.813658565E+01  2.336015456E-06  0.00000E+00  9.000E+00
#rwgt            1           9   1.4693175065779315E-002           9     2846661           0
</event>
<event>
      6   9999 -3.45752E-01  2.74746E+00 -1.00000E+00  2.87297E-01
      21    -1     0     0   501   511  0.000000000E+00  0.000000000E+00  1.836051528E+02  1.836051528E+02  0.000000000E+00  0.00000E+00  9.000E+00
      21    -1     0     0   502   503  0.000000000E+00  0.000000000E+00 -8.639070898E+02  8.639070898E+02  0.000000000E+00  0.00000E+00  9.000E+00
      25     1     1     2     0     0 -1.201627409E+01 -2.358893535E+01 -5.871811367E+02  6.009213708E+02  1.249959112E+02  0.00000E+00  9.000E+00
       5     1     1     2   501     0 -1.338534774E+00 -1.568228934E+00  3.343577415E+00  6.163848413E+00  4.750000000E+00  0.00000E+00  9.000E+00
      -5     1     1     2     0   503  1.120906942E+01  2.344126272E+01 -2.677849018E+02  2.690844703E+02  4.750000000E+00  0.00000E+00  9.000E+00
      21     1     1     2   502   511  2.145739440E+00  1.715901561E+00  1.713205241E+02  1.713425531E+02  5.394796609E-06  0.00000E+00  9.000E+00
#rwgt            1           9  -2.6354375319174225E-002           9     2852592           0
</event>
<event>
      6   9999  3.45752E-01  3.94191E+00 -1.00000E+00  2.49172E-01
      21    -1     0     0   501   502  0.000000000E+00  0.000000000E+00  3.723587306E+01  3.723587306E+01  0.000000000E+00  0.00000E+00  9.000E+00
      21    -1     0     0   502   512  0.000000000E+00  0.000000000E+00 -1.927403563E+03  1.927403563E+03  0.000000000E+00  0.00000E+00  9.000E+00
      25     1     1     2     0     0  4.052550475E+00 -1.434025181E+01 -1.164807186E+03  1.171589653E+03  1.249978822E+02  0.00000E+00  9.000E+00
       5     1     1     2   501     0  9.273620302E-01  8.425749758E+00  3.292514825E+01  3.432901319E+01  4.750000000E+00  0.00000E+00  9.000E+00
      -5     1     1     2     0   503 -2.553230691E+00  2.808084290E+00 -4.335517453E+01  4.377942419E+01  4.750000000E+00  0.00000E+00  9.000E+00
      21     1     1     2   503   512 -2.426681814E+00  3.106417766E+00 -7.149304777E+02  7.149413449E+02  0.000000000E+00  0.00000E+00  9.000E+00
#rwgt            1           9   1.1588936282586270E-003           9     2858853           0
</event>
<event>
      6   9999  3.45752E-01  5.61361E+00 -1.00000E+00  2.18165E-01
      21    -1     0     0   501   502  0.000000000E+00  0.000000000E+00  8.869851315E+02  8.869851315E+02  0.000000000E+00  0.00000E+00  9.000E+00
      21    -1     0     0   511   503  0.000000000E+00  0.000000000E+00 -4.456025078E+01  4.456025078E+01  0.000000000E+00  0.00000E+00  9.000E+00
      25     1     1     2     0     0  3.984563531E+01  6.576673503E+01  1.305602377E+02  1.963669606E+02  1.249042411E+02  0.00000E+00  9.000E+00
       5     1     1     2   501     0 -6.983153196E+00  1.747304451E+00  5.767618649E+02  5.768263420E+02  4.750000000E+00  0.00000E+00  9.000E+00
      -5     1     1     2     0   503 -3.836710802E+01 -6.641325144E+01  1.280368710E+02  1.493276859E+02  4.750000000E+00  0.00000E+00  9.000E+00
      21     1     1     2   511   502  5.504625907E+00 -1.100788044E+00  7.065907114E+00  9.024393832E+00  1.685873940E-07  0.00000E+00  9.000E+00
#rwgt            1           9   6.4725770985000014E-002           9     2865947           0
</event>
<event>
      6   9999 -3.45752E-01  1.05559E+01 -1.00000E+00  1.84752E-01
      21    -1     0     0   501   502  0.000000000E+00  0.000000000E+00  7.652493343E+00  7.652493343E+00  0.000000000E+00  0.00000E+00  9.000E+00
      21    -1     0     0   502   512  0.000000000E+00  0.000000000E+00 -8.913367498E+02  8.913367498E+02  0.000000000E+00  0.00000E+00  9.000E+00
      25     1     1     2     0     0  1.076870712E+01 -5.024289619E+00 -6.572771627E+02  6.691634156E+02  1.250007981E+02  0.00000E+00  9.000E+00
       5     1     1     2   501     0  9.399085608E-01  6.708333625E-01 -3.154030374E+00  5.817547000E+00  4.750000000E+00  0.00000E+00  9.000E+00
      -5     1     1     2     0   503 -1.152811070E+00  4.405600641E+00 -4.958790310E+01  5.002260414E+01  4.750000000E+00  0.00000E+00  9.000E+00
      21     1     1     2   503   512 -1.055580461E+01 -5.214438515E-02 -1.736651602E+02  1.739856765E+02  0.000000000E+00  0.00000E+00  9.000E+00
#rwgt            1           9  -4.2377293640999582E-004           9     2871593           0
</event>
<event>
      5   9999  3.45752E-01  8.94427E-01 -1.00000E+00  1.20288E-01
       4    -1     0     0   501     0  0.000000000E+00  0.000000000E+00  1.999270694E+01  1.999270694E+01  7.539457465E-07  0.00000E+00  9.000E+00
      -4    -1     0     0     0   502  0.000000000E+00  0.000000000E+00 -9.860867671E+02  9.860867671E+02  1.525878906E-05  0.00000E+00  9.000E+00
      25     1     1     2     0     0 -3.341430921E+01 -8.033528011E+01 -5.407356523E+02  5.617735329E+02  1.249967331E+02  0.00000E+00  9.000E+00
       5     1     1     2   501     0  4.243119687E+01  9.772748220E+01 -3.797565277E+02  3.944472716E+02  4.750000000E+00  0.00000E+00  9.000E+00
      -5     1     1     2     0   502 -9.016887667E+00 -1.739220208E+01 -4.560188010E+01  4.985866951E+01  4.750000000E+00  0.00000E+00  9.000E+00
#rwgt            1           6   1.0359294933219104E-004           9     2873868           0
</event>
<event>
      6   9999  3.45752E-01  3.94152E+00 -1.00000E+00  2.49181E-01
      21    -1     0     0   501   502  0.000000000E+00  0.000000000E+00  1.536453651E+01  1.536453651E+01  0.000000000E+00  0.00000E+00  9.000E+00
      21    -1     0     0   502   511  0.000000000E+00  0.000000000E+00 -1.411609436E+03  1.411609436E+03  0.000000000E+00  0.00000E+00  9.000E+00
      25     1     1     2     0     0 -2.138147827E+00  1.552178802E+00 -2.910439951E+02  3.167632670E+02  1.250015172E+02  0.00000E+00  9.000E+00
       5     1     1     2   501     0 -8.332274232E-01 -5.737357104E-01  7.935745615E-02  4.857184185E+00  4.750000000E+00  0.00000E+00  9.000E+00
      -5     1     1     2     0   503  5.609768374E+00 -3.906667271E+00 -5.978249294E+02  5.978828817E+02  4.750000000E+00  0.00000E+00  9.000E+00
      21     1     1     2   503   511 -2.638393124E+00  2.928224179E+00 -5.074553324E+02  5.074706395E+02  0.000000000E+00  0.00000E+00  9.000E+00
#rwgt            1           9   2.7557036789433932E-003           9     2873953           0
</event>
<event>
      6   9999  3.45752E-01  2.85702E+01 -1.00000E+00  1.49223E-01
      21    -1     0     0   501   502  0.000000000E+00  0.000000000E+00  1.652721736E+01  1.652721736E+01  0.000000000E+00  0.00000E+00  9.000E+00
      21    -1     0     0   502   512  0.000000000E+00  0.000000000E+00 -6.962569268E+02  6.962569268E+02  0.000000000E+00  0.00000E+00  9.000E+00
      25     1     1     2     0     0  1.524925721E+00  2.206678208E+01 -2.876337379E+02  3.143921519E+02  1.249799574E+02  0.00000E+00  9.000E+00
       5     1     1     2   501     0  5.381370082E-01  9.069962958E-01 -4.424087151E+00  6.576266482E+00  4.750000000E+00  0.00000E+00  9.000E+00
      -5     1     1     2     0   503  9.890916669E+00  2.975361981E+00 -1.976612654E+01  2.280230843E+01  4.750000000E+00  0.00000E+00  9.000E+00
      21     1     1     2   503   512 -1.195397940E+01 -2.594914036E+01 -3.679057579E+02  3.690134174E+02  0.000000000E+00  0.00000E+00  9.000E+00
#rwgt            1           9   2.7539966887253982E-003           9     2879198           0
</event>
<event>
      6   9999  3.45752E-01  4.15106E+00 -1.00000E+00  2.44564E-01
       1    -1     0     0   501     0  0.000000000E+00  0.000000000E+00  1.124393170E+03  1.124393170E+03  0.000000000E+00  0.00000E+00  9.000E+00
      21    -1     0     0   502   503  0.000000000E+00  0.000000000E+00 -7.661088045E+02  7.661088045E+02  0.000000000E+00  0.00000E+00  9.000E+00
      25     1     1     2     0     0  8.912986965E+00 -1.106116943E-02 -4.659597834E+02  4.825179612E+02  1.250024866E+02  0.00000E+00  9.000E+00
       5     1     1     2   501     0  2.894213386E-01  1.637354797E+00  1.370632968E+00  5.215920837E+00  4.750000000E+00  0.00000E+00  9.000E+00
      -5     1     1     2     0   503 -1.191173010E+01  1.518685003E+00 -2.897996315E+02  2.900872018E+02  4.750000000E+00  0.00000E+00  9.000E+00
       1     1     1     2   502     0  2.709321797E+00 -3.144978631E+00  1.112673147E+03  1.112680890E+03  1.525878906E-05  0.00000E+00  9.000E+00
#rwgt            1           9   2.1346525455881262E-003           9     2879942           0
</event>
<event>
      6   9999  3.45752E-01  6.05540E+00 -1.00000E+00  2.13503E-01
      21    -1     0     0   501   511  0.000000000E+00  0.000000000E+00  1.138225192E+01  1.138225192E+01  0.000000000E+00  0.00000E+00  9.000E+00
      21    -1     0     0   502   503  0.000000000E+00  0.000000000E+00 -8.389188481E+02  8.389188481E+02  0.000000000E+00  0.00000E+00  9.000E+00
      25     1     1     2     0     0 -3.982025437E+00  4.256618871E-01 -7.858680176E+02  7.957579934E+02  1.250048211E+02  0.00000E+00  9.000E+00
       5     1     1     2   501     0 -3.762185354E-01 -3.545029976E+00  4.016899141E+00  7.169850530E+00  4.750000000E+00  0.00000E+00  9.000E+00
      -5     1     1     2     0   503  1.426087585E-01 -1.227617240E+00 -3.244053793E+01  3.280973000E+01  4.750000000E+00  0.00000E+00  9.000E+00
      21     1     1     2   502   511  4.215635213E+00  4.346985328E+00 -1.324493978E+01  1.456352606E+01  4.129530925E-07  0.00000E+00  9.000E+00
#rwgt            1           9   1.6671157099690354E-004           9     2884968           0
</event>
<event>
      6   9999  3.45752E-01  7.02027E+00 -1.00000E+00  2.04979E-01
       2    -1     0     0   501     0  0.000000000E+00  0.000000000E+00  8.695218918E+02  8.695218918E+02  0.000000000E+00  0.00000E+00  9.000E+00
      21    -1     0     0   502   503  0.000000000E+00  0.000000000E+00 -7.840642187E+02  7.840642187E+02  0.000000000E+00  0.00000E+00  9.000E+00
      25     1     1     2     0     0 -1.394940303E+01  1.745305275E+01 -7.578196166E+02  7.683849006E+02  1.250023570E+02  0.00000E+00  9.000E+00
       5     1     1     2   501     0  3.340998098E-01  6.077795209E-02  1.941708502E+00  5.142766624E+00  4.750000000E+00  0.00000E+00  9.000E+00
      -5     1     1     2     0   503  1.305341913E+01 -1.051608354E+01 -1.542471772E+01  2.326938291E+01  4.750000000E+00  0.00000E+00  9.000E+00
       2     1     1     2   502     0  5.618840877E-01 -6.997747154E+00  8.567602989E+02  8.567890604E+02  1.078959322E-05  0.00000E+00  9.000E+00
#rwgt            1           9   1.4802440171923962E-004           9     2888763           0
</event>
<event>
      6   9999 -3.45752E-01  2.50900E+01 -1.00000E+00  1.53041E-01
      21    -1     0     0   511   502  0.000000000E+00  0.000000000E+00  6.008854951E+02  6.008854951E+02  0.000000000E+00  0.00000E+00  9.000E+00
      21    -1     0     0   502   503  0.000000000E+00  0.000000000E+00 -4.091541641E+02  4.091541641E+02  0.000000000E+00  0.00000E+00  9.000E+00
      25     1     1     2     0     0 -1.044456821E+02 -2.208245197E+02 -2.968566461E+02  4.042538747E+02  1.249998316E+02  0.00000E+00  9.000E+00
       5     1     1     2   501     0 -3.176114187E+00  1.482307451E+00  4.691658438E+01  4.728650258E+01  4.750000000E+00  0.00000E+00  9.000E+00
      -5     1     1     2     0   503  9.675357251E+01  2.419561053E+02  2.369257127E+02  3.522220415E+02  4.750000000E+00  0.00000E+00  9.000E+00
      21     1     1     2   511   501  1.086822378E+01 -2.261389310E+01  2.047456799E+02  2.062772404E+02  2.697398305E-06  0.00000E+00  9.000E+00
#rwgt            1           9  -3.6370556166200846E-003           9     2891897           0
</event>
<event>
      6   9999  3.45752E-01  2.55208E+01 -1.00000E+00  1.52529E-01
      21    -1     0     0   501   502  0.000000000E+00  0.000000000E+00  2.027821273E+02  2.027821273E+02  0.000000000E+00  0.00000E+00  9.000E+00
      21    -1     0     0   502   512  0.000000000E+00  0.000000000E+00 -5.567522772E+02  5.567522772E+02  0.000000000E+00  0.00000E+00  9.000E+00
      25     1     1     2     0     0  1.309126125E+02  1.556011542E+02 -6.019754043E+01  2.461693062E+02  1.250030085E+02  0.00000E+00  9.000E+00
       5     1     1     2   501     0  1.165624572E+00  4.045219537E+00  7.772322463E+01  7.798195066E+01  4.750000000E+00  0.00000E+00  9.000E+00
      -5     1     1     2     0   503 -1.449693674E+02 -1.376207567E+02 -3.110494409E+02  3.697700737E+02  4.750000000E+00  0.00000E+00  9.000E+00
      21     1     1     2   503   512  1.289113032E+01 -2.202561695E+01 -6.044639318E+01  6.561307409E+01  6.743495762E-07  0.00000E+00  9.000E+00
#rwgt            1           9   8.6274835257346751                9     2894575           0
</event>
<event>
      6   9999  3.45752E-01  7.73961E+00 -1.00000E+00  1.99732E-01
      21    -1     0     0   501   502  0.000000000E+00  0.000000000E+00  2.961444822E+01  2.961444822E+01  0.000000000E+00  0.00000E+00  9.000E+00
      21    -1     0     0   511   503  0.000000000E+00  0.000000000E+00 -2.646966705E+02  2.646966705E+02  0.000000000E+00  0.00000E+00  9.000E+00
      25     1     1     2     0     0 -1.320153858E-02  5.768358226E-01 -2.170742142E+02  2.504909389E+02  1.249966524E+02  0.00000E+00  9.000E+00
       5     1     1     2   501     0  2.130406639E+00  1.644302630E+00  1.031342202E+01  1.166925607E+01  4.750000000E+00  0.00000E+00  9.000E+00
      -5     1     1     2     0   503  4.766312178E-01  5.070883356E+00 -9.327790588E+00  1.164092834E+01  4.750000000E+00  0.00000E+00  9.000E+00
      21     1     1     2   511   502 -2.593836318E+00 -7.292021809E+00 -1.899363950E+01  2.050999538E+01  0.000000000E+00  0.00000E+00  9.000E+00
#rwgt            1           9   3.5850415030025527E-002           9     2896921           0
</event>
<event>
      6   9999 -3.45752E-01  8.09304E+00 -1.00000E+00  1.97423E-01
      21    -1     0     0   512   502  0.000000000E+00  0.000000000E+00  1.128112434E+01  1.128112434E+01  0.000000000E+00  0.00000E+00  9.000E+00
      21    -1     0     0   502   503  0.000000000E+00  0.000000000E+00 -8.096667255E+02  8.096667255E+02  0.000000000E+00  0.00000E+00  9.000E+00
      25     1     1     2     0     0  7.071492002E+00  1.090321130E+01 -7.479637196E+02  7.584427464E+02  1.249671467E+02  0.00000E+00  9.000E+00
       5     1     1     2   501     0  9.784893685E-01  1.202397050E+00  2.788247024E+00  5.721889686E+00  4.750000000E+00  0.00000E+00  9.000E+00
      -5     1     1     2     0   503 -8.850216653E+00 -4.052229809E+00 -3.849173125E+01  3.998653243E+01  4.750000000E+00  0.00000E+00  9.000E+00
      21     1     1     2   512   501  8.002352832E-01 -8.053378540E+00 -1.471839735E+01  1.679668131E+01  2.920019320E-07  0.00000E+00  9.000E+00
#rwgt            1           9  -6.1962616480328492E-004           9     2899600           0
</event>
<event>
      6   9999  3.45752E-01  7.35384E+01 -1.00000E+00  1.26394E-01
      21    -1     0     0   502   503  0.000000000E+00  0.000000000E+00  1.966047386E+01  1.966047386E+01  0.000000000E+00  0.00000E+00  9.000E+00
      21    -1     0     0   501   511  0.000000000E+00  0.000000000E+00 -1.735576655E+03  1.735576655E+03  0.000000000E+00  0.00000E+00  9.000E+00
      25     1     1     2     0     0  7.261115796E+01 -1.105159913E+02 -8.011715883E+02  8.215770011E+02  1.250067610E+02  0.00000E+00  9.000E+00
       5     1     1     2   501     0 -2.713315155E+01  4.473668781E+00 -8.048178436E+01  8.518275494E+01  4.750000000E+00  0.00000E+00  9.000E+00
      -5     1     1     2     0   503 -1.928074470E+01  3.732846360E+01 -7.865173101E+01  8.929624069E+01  4.750000000E+00  0.00000E+00  9.000E+00
      21     1     1     2   502   511 -2.619726172E+01  6.871385888E+01 -7.556110770E+02  7.591811317E+02  1.078959322E-05  0.00000E+00  9.000E+00
#rwgt            1           9   1.4691371185073794E-003           9     2902235           0
</event>
<event>
      6   9999  3.45752E-01  2.90586E+01 -1.00000E+00  1.48739E-01
      -1    -1     0     0     0   503  0.000000000E+00  0.000000000E+00  1.353585703E+01  1.353585703E+01  0.000000000E+00  0.00000E+00  9.000E+00
      21    -1     0     0   501   502  0.000000000E+00  0.000000000E+00 -1.307872012E+03  1.307872012E+03  0.000000000E+00  0.00000E+00  9.000E+00
      25     1     1     2     0     0  1.703215967E+01  5.348824408E+01 -5.292891406E+02  5.467382186E+02  1.249983947E+02  0.00000E+00  9.000E+00
       5     1     1     2   501     0 -2.316408224E+01 -4.354642653E+01 -4.564502246E+02  4.591320464E+02  4.750000000E+00  0.00000E+00  9.000E+00
      -5     1     1     2     0   503  3.507081320E+01 -7.307239559E+00 -1.922475322E+02  1.956145031E+02  4.750000000E+00  0.00000E+00  9.000E+00
      -1     1     1     2     0   502 -2.893889064E+01 -2.634577992E+00 -1.163492580E+02  1.199231013E+02  0.000000000E+00  0.00000E+00  9.000E+00
#rwgt            1           9   1.8887444039246696E-002           9     2902781           0
</event>
<event>
      6   9999  3.45752E-01  4.46654E+00 -1.00000E+00  2.38334E-01
      21    -1     0     0   501   502  0.000000000E+00  0.000000000E+00  2.620578541E+03  2.620578541E+03  0.000000000E+00  0.00000E+00  9.000E+00
      21    -1     0     0   502   511  0.000000000E+00  0.000000000E+00 -3.254328513E+00  3.254328513E+00  0.000000000E+00  0.00000E+00  9.000E+00
      25     1     1     2     0     0  2.724455297E+01 -3.338189101E-01  1.672756189E+03  1.677642017E+03  1.250083679E+02  0.00000E+00  9.000E+00
       5     1     1     2   501     0 -1.422288833E+00  4.472371785E-01  5.697648675E+02  5.697866177E+02  4.750000000E+00  0.00000E+00  9.000E+00
      -5     1     1     2     0   503 -2.968079848E+01  2.136404256E+00  3.343590570E+02  3.357142469E+02  4.750000000E+00  0.00000E+00  9.000E+00
      21     1     1     2   503   511  3.858534337E+00 -2.249822524E+00  4.044409940E+01  4.068998851E+01  9.536743164E-07  0.00000E+00  9.000E+00
#rwgt            1           9   1.0413725294699394E-002           9     2904310           0
</event>
<event>
      6   9999  3.45752E-01  3.06661E+00 -1.00000E+00  2.74441E-01
      21    -1     0     0   512   502  0.000000000E+00  0.000000000E+00  2.567791463E+01  2.567791463E+01  0.000000000E+00  0.00000E+00  9.000E+00
      21    -1     0     0   502   503  0.000000000E+00  0.000000000E+00 -6.513039995E+02  6.513039995E+02  0.000000000E+00  0.00000E+00  9.000E+00
      25     1     1     2     0     0  9.435523475E+00  1.338899375E+01 -5.499456526E+02  5.642102177E+02  1.249986187E+02  0.00000E+00  9.000E+00
       5     1     1     2   501     0 -9.114450117E-01 -1.905895595E+00  4.694901239E+00  7.004838875E+00  4.750000000E+00  0.00000E+00  9.000E+00
      -5     1     1     2     0   503 -6.137601416E+00 -1.340893301E+01 -9.222987450E+01  9.352209304E+01  4.750000000E+00  0.00000E+00  9.000E+00
      21     1     1     2   512   501 -2.386477048E+00  1.925834856E+00  1.185454107E+01  1.224476445E+01  3.371747881E-07  0.00000E+00  9.000E+00
#rwgt            1           9  0.33571846845804060                9     2908273           0
</event>
<event>
      6   9999 -3.45752E-01  1.43441E+01 -1.00000E+00  1.72072E-01
      21    -1     0     0   502   511  0.000000000E+00  0.000000000E+00  2.884643823E+02  2.884643823E+02  0.000000000E+00  0.00000E+00  9.000E+00
      21    -1     0     0   501   502  0.000000000E+00  0.000000000E+00 -4.470421624E+02  4.470421624E+02  0.000000000E+00  0.00000E+00  9.000E+00
      25     1     1     2     0     0 -6.464192051E+01  4.857257501E+01 -3.943191656E+02  4.214866198E+02  1.250019735E+02  0.00000E+00  9.000E+00
       5     1     1     2   501     0  4.797587822E+00 -4.064954824E+00  4.376161019E-03  7.880559992E+00  4.750000000E+00  0.00000E+00  9.000E+00
      -5     1     1     2     0   503  5.011883840E+01 -5.505125223E+01  4.796315693E+00  7.475363188E+01  4.750000000E+00  0.00000E+00  9.000E+00
      21     1     1     2   503   511  9.725494285E+00  1.054363205E+01  2.309406937E+02  2.313857330E+02  3.814697266E-06  0.00000E+00  9.000E+00
#rwgt            1           9  -641.58700320276500                9     2913608           0
</event>
<event>
      6   9999  3.45752E-01  4.10753E+00 -1.00000E+00  2.45489E-01
      21    -1     0     0   512   502  0.000000000E+00  0.000000000E+00  8.718440487E+00  8.718440487E+00  0.000000000E+00  0.00000E+00  9.000E+00
      21    -1     0     0   502   503  0.000000000E+00  0.000000000E+00 -7.734264497E+02  7.734264497E+02  0.000000000E+00  0.00000E+00  9.000E+00
      25     1     1     2     0     0  5.858485471E+00 -1.174148233E+01 -7.026423949E+02  7.138205921E+02  1.251451892E+02  0.00000E+00  9.000E+00
       5     1     1     2   501     0 -9.253692827E-02  7.763665601E-01 -2.025709172E+00  5.222768018E+00  4.750000000E+00  0.00000E+00  9.000E+00
      -5     1     1     2     0   503 -3.169497662E+00  1.414791716E+01 -4.910817640E+01  5.142358180E+01  4.750000000E+00  0.00000E+00  9.000E+00
      21     1     1     2   512   501 -2.596450881E+00 -3.182801394E+00 -1.093172870E+01  1.167794821E+01  1.192092896E-07  0.00000E+00  9.000E+00
#rwgt            1           9   3.4861838585435382E-003           9     2916292           0
</event>
<event>
      6   9999 -3.45752E-01  6.53415E+00 -1.00000E+00  2.09026E-01
      21    -1     0     0   501   502  0.000000000E+00  0.000000000E+00  1.364030686E+01  1.364030686E+01  0.000000000E+00  0.00000E+00  9.000E+00
      21    -1     0     0   502   511  0.000000000E+00  0.000000000E+00 -1.310170845E+03  1.310170845E+03  0.000000000E+00  0.00000E+00  9.000E+00
      25     1     1     2     0     0 -7.223448924E+00  2.262314549E+01 -4.150722698E+02  4.341357903E+02  1.249996415E+02  0.00000E+00  9.000E+00
       5     1     1     2   501     0  1.175689647E+00  4.209958599E-02  1.936204315E+00  5.262642461E+00  4.750000000E+00  0.00000E+00  9.000E+00
      -5     1     1     2     0   503  1.111345839E+01 -2.679244897E+01 -4.450344906E+02  4.460040410E+02  4.750000000E+00  0.00000E+00  9.000E+00
      21     1     1     2   503   511 -5.065699109E+00  4.127203896E+00 -4.383599819E+02  4.384086779E+02  0.000000000E+00  0.00000E+00  9.000E+00
#rwgt            1           9  -5.6523524951065940E-003           9     2920879           0
</event>
<event>
      6   9999  3.45752E-01  9.25113E+00 -1.00000E+00  1.90826E-01
      21    -1     0     0   501   502  0.000000000E+00  0.000000000E+00  8.401678898E+01  8.401678898E+01  0.000000000E+00  0.00000E+00  9.000E+00
      -1    -1     0     0     0   503  0.000000000E+00  0.000000000E+00 -3.921288699E+02  3.921288699E+02  0.000000000E+00  0.00000E+00  9.000E+00
      25     1     1     2     0     0 -6.824840334E-01 -4.854509970E+00 -1.673073185E+01  1.262098457E+02  1.249999029E+02  0.00000E+00  9.000E+00
       5     1     1     2   501     0 -2.420476667E-01  1.785497418E+00  2.484295612E+01  2.535708100E+01  4.750000000E+00  0.00000E+00  9.000E+00
      -5     1     1     2     0   503 -6.350786580E+00  8.783302633E+00 -4.412602647E+00  1.262982413E+01  4.750000000E+00  0.00000E+00  9.000E+00
      -1     1     1     2     0   502  7.275318280E+00 -5.714290081E+00 -3.118117025E+02  3.119489080E+02  3.814697266E-06  0.00000E+00  9.000E+00
#rwgt            1           9   6.5416615960251607E-004           9     2925125           0
</event>
<event>
      6   9999  3.45752E-01  7.79279E+00 -1.00000E+00  1.99374E-01
      21    -1     0     0   511   502  0.000000000E+00  0.000000000E+00  1.143209181E+02  1.143209181E+02  0.000000000E+00  0.00000E+00  9.000E+00
      21    -1     0     0   502   503  0.000000000E+00  0.000000000E+00 -6.005502617E+01  6.005502617E+01  0.000000000E+00  0.00000E+00  9.000E+00
      25     1     1     2     0     0  8.244566264E+00 -1.727156713E+00  4.238137212E+01  1.322572063E+02  1.249993279E+02  0.00000E+00  9.000E+00
       5     1     1     2   501     0 -7.642390314E-01 -3.637607072E-01  1.243307792E+01  1.333642792E+01  4.750000000E+00  0.00000E+00  9.000E+00
      -5     1     1     2     0   503 -1.196089562E+01 -4.284981593E+00 -9.764547016E+00  1.671325730E+01  4.750000000E+00  0.00000E+00  9.000E+00
      21     1     1     2   511   501  4.480568386E+00  6.375899013E+00  9.215988871E+00  1.206905266E+01  1.192092896E-07  0.00000E+00  9.000E+00
#rwgt            1           9   2.3539066345913628E-002           9     2927718           0
</event>
<event>
      6   9999  3.45752E-01  6.71134E+02 -1.00000E+00  9.33460E-02
       1    -1     0     0   501     0  0.000000000E+00  0.000000000E+00  1.189233715E+03  1.189233715E+03  0.000000000E+00  0.00000E+00  9.000E+00
      21    -1     0     0   512   502  0.000000000E+00  0.000000000E+00 -5.640233740E+02  5.640233740E+02  0.000000000E+00  0.00000E+00  9.000E+00
      25     1     1     2     0     0  5.741022478E+02  3.684752135E+02  5.336795684E+02  8.751008466E+02  1.249809431E+02  0.00000E+00  9.000E+00
       5     1     1     2   501     0  3.348506434E+01  9.923294892E+00 -1.113575576E+02  1.168023520E+02  4.750000000E+00  0.00000E+00  9.000E+00
      -5     1     1     2     0   502 -5.936073317E+01  8.729451545E+00  3.467424356E+01  6.946053292E+01  4.750000000E+00  0.00000E+00  9.000E+00
       1     1     1     2   512     0 -5.482265789E+02 -3.871279599E+02  1.682140867E+02  6.918933575E+02  2.697398305E-06  0.00000E+00  9.000E+00
#rwgt            1           2   1.6865344193737885E-005           9     2930371           0
</event>
<event>
      6   9999 -3.45752E-01  6.29695E+00 -1.00000E+00  2.11177E-01
      21    -1     0     0   501   511  0.000000000E+00  0.000000000E+00  2.437821292E+01  2.437821292E+01  0.000000000E+00  0.00000E+00  9.000E+00
      21    -1     0     0   502   503  0.000000000E+00  0.000000000E+00 -1.057162118E+03  1.057162118E+03  0.000000000E+00  0.00000E+00  9.000E+00
      25     1     1     2     0     0  9.097056067E+00 -3.761144999E+01 -6.375960439E+02  6.508810722E+02  1.249803076E+02  0.00000E+00  9.000E+00
       5     1     1     2   501     0  1.055121138E+00 -3.379387442E+00  1.505059849E+01  1.617456506E+01  4.750000000E+00  0.00000E+00  9.000E+00
      -5     1     1     2     0   503 -8.432461950E+00  4.704840675E+01 -3.961700201E+02  3.990713048E+02  4.750000000E+00  0.00000E+00  9.000E+00
      21     1     1     2   502   511 -1.719715255E+00 -6.057569317E+00 -1.406844001E+01  1.541338934E+01  0.000000000E+00  0.00000E+00  9.000E+00
#rwgt            1           9  -4.7301045166180953E-003           9     2930502           0
</event>
<event>
      6   9999  3.45752E-01  7.76992E+00 -1.00000E+00  1.99528E-01
      21    -1     0     0   501   512  0.000000000E+00  0.000000000E+00  4.891640959E+01  4.891640959E+01  0.000000000E+00  0.00000E+00  9.000E+00
      21    -1     0     0   502   503  0.000000000E+00  0.000000000E+00 -1.064743167E+03  1.064743167E+03  0.000000000E+00  0.00000E+00  9.000E+00
      25     1     1     2     0     0  4.428576771E-01 -9.471898601E-01 -9.733135845E+02  9.813084751E+02  1.250035848E+02  0.00000E+00  9.000E+00
       5     1     1     2   501     0  4.318422716E+00 -5.003708884E+00  2.005374459E+01  2.164257493E+01  4.750000000E+00  0.00000E+00  9.000E+00
      -5     1     1     2     0   503  2.920075633E+00  7.120687973E+00 -8.576668552E+01  8.624220477E+01  4.750000000E+00  0.00000E+00  9.000E+00
      21     1     1     2   502   512 -7.681356027E+00 -1.169789228E+00  2.319976833E+01  2.446632150E+01  0.000000000E+00  0.00000E+00  9.000E+00
#rwgt            1           9   1.8863842135106328E-002           9     2934928           0
</event>
<event>
      6   9999  3.45752E-01  6.01098E+00 -1.00000E+00  2.13947E-01
      21    -1     0     0   501   502  0.000000000E+00  0.000000000E+00  1.851773320E+01  1.851773320E+01  0.000000000E+00  0.00000E+00  9.000E+00
       2    -1     0     0   502     0  0.000000000E+00  0.000000000E+00 -4.082910591E+03  4.082910591E+03  0.000000000E+00  0.00000E+00  9.000E+00
      25     1     1     2     0     0 -2.561628531E+01 -6.114607152E+00 -7.321149795E+02  7.431786138E+02  1.250141050E+02  0.00000E+00  9.000E+00
       5     1     1     2   501     0  9.376020965E-01  1.109174204E-01  1.182366765E+01  1.277705040E+01  4.750000000E+00  0.00000E+00  9.000E+00
      -5     1     1     2     0   503  2.211346804E+01  5.675607146E-01 -1.867689901E+02  1.881343822E+02  4.750000000E+00  0.00000E+00  9.000E+00
       2     1     1     2   503     0  2.565215166E+00  5.436129017E+00 -3.157332556E+03  3.157338278E+03  4.315837288E-05  0.00000E+00  9.000E+00
#rwgt            1           9  0.81146905768647337                9     2938672           0
</event>
<event>
      6   9999  3.45752E-01  8.54919E+00 -1.00000E+00  1.94662E-01
      21    -1     0     0   501   502  0.000000000E+00  0.000000000E+00  1.453698316E+01  1.453698316E+01  0.000000000E+00  0.00000E+00  9.000E+00
      21    -1     0     0   511   503  0.000000000E+00  0.000000000E+00 -1.237511173E+03  1.237511173E+03  0.000000000E+00  0.00000E+00  9.000E+00
      25     1     1     2     0     0 -5.989463224E+01 -1.187908245E+01 -4.960531505E+02  5.151913684E+02  1.249997538E+02  0.00000E+00  9.000E+00
       5     1     1     2   501     0  4.627777763E-01 -5.839797804E-02  3.106686460E-02  4.772948643E+00  4.750000000E+00  0.00000E+00  9.000E+00
      -5     1     1     2     0   503  5.809217360E+01  2.038105492E+01 -3.766719289E+02  3.816993484E+02  4.750000000E+00  0.00000E+00  9.000E+00
      21     1     1     2   511   502  1.339680859E+00 -8.443574499E+00 -3.502801773E+02  3.503844907E+02  5.394796609E-06  0.00000E+00  9.000E+00
#rwgt            1           9   8.9567838568544761E-006           9     2943332           0
</event>
<event>
      6   9999  3.45752E-01  7.58027E+00 -1.00000E+00  2.00827E-01
      21    -1     0     0   501   512  0.000000000E+00  0.000000000E+00  3.674189490E+01  3.674189490E+01  0.000000000E+00  0.00000E+00  9.000E+00
      21    -1     0     0   502   503  0.000000000E+00  0.000000000E+00 -1.169511320E+03  1.169511320E+03  0.000000000E+00  0.00000E+00  9.000E+00
      25     1     1     2     0     0 -3.792973445E+01  1.436771845E+01 -6.578488384E+02  6.708466824E+02  1.250003238E+02  0.00000E+00  9.000E+00
       5     1     1     2   501     0  2.714845121E+00  1.023890693E+01  2.587242693E+01  2.835754881E+01  4.750000000E+00  0.00000E+00  9.000E+00
      -5     1     1     2     0   503  4.057308454E+01 -1.924469489E+01 -4.960629580E+02  4.981139973E+02  4.750000000E+00  0.00000E+00  9.000E+00
      21     1     1     2   502   512 -5.358195211E+00 -5.361930495E+00 -4.730055315E+00  8.934986169E+00  1.332800375E-07  0.00000E+00  9.000E+00
#rwgt            1           9  0.12736605066862289                9     2947399           0
</event>
<event>
      6   9999  3.45752E-01  1.42881E+01 -1.00000E+00  1.72222E-01
      21    -1     0     0   501   502  0.000000000E+00  0.000000000E+00  3.206429918E+02  3.206429918E+02  0.000000000E+00  0.00000E+00  9.000E+00
      21    -1     0     0   502   511  0.000000000E+00  0.000000000E+00 -5.053440025E+01  5.053440025E+01  0.000000000E+00  0.00000E+00  9.000E+00
      25     1     1     2     0     0  1.549276570E+01  1.665582430E+01  2.956325814E+02  3.217770717E+02  1.249976735E+02  0.00000E+00  9.000E+00
       5     1     1     2   501     0 -2.380617900E+00  1.150918048E+00  8.735641531E-01  5.506139143E+00  4.750000000E+00  0.00000E+00  9.000E+00
      -5     1     1     2     0   503 -2.289433357E+00 -8.478429504E+00  3.643485217E+00  1.062839388E+01  4.750000000E+00  0.00000E+00  9.000E+00
      21     1     1     2   503   511 -1.082271445E+01 -9.328312839E+00 -3.004103924E+01  3.326578734E+01  3.371747881E-07  0.00000E+00  9.000E+00
#rwgt            1           9   2.5219513361015791E-004           9     2952056           0
</event>
<event>
      6   9999  3.45752E-01  4.53198E+01 -1.00000E+00  1.37112E-01
      21    -1     0     0   501   502  0.000000000E+00  0.000000000E+00  1.258213315E+01  1.258213315E+01  0.000000000E+00  0.00000E+00  9.000E+00
      21    -1     0     0   512   503  0.000000000E+00  0.000000000E+00 -1.323599784E+03  1.323599784E+03  0.000000000E+00  0.00000E+00  9.000E+00
      25     1     1     2     0     0 -6.642402183E+00 -6.194648682E+00 -4.634901669E+02  4.801356074E+02  1.249982860E+02  0.00000E+00  9.000E+00
       5     1     1     2   501     0 -1.225438189E+00 -5.113018935E+00 -2.856452588E+00  7.639795990E+00  4.750000000E+00  0.00000E+00  9.000E+00
      -5     1     1     2     0   503  2.958807979E+00 -3.374549267E+01 -3.621602872E+02  3.637721113E+02  4.750000000E+00  0.00000E+00  9.000E+00
      21     1     1     2   512   502  4.909032393E+00  4.505316028E+01 -4.825107442E+02  4.846344025E+02  7.629394531E-06  0.00000E+00  9.000E+00
#rwgt            1           9   2.3251392074056775E-004           9     2953958           0
</event>
<event>
      6   9999  3.45752E-01  1.46725E+00 -1.00000E+00  4.05442E-01
      21    -1     0     0   511   502  0.000000000E+00  0.000000000E+00  1.118694206E+03  1.118694206E+03  0.000000000E+00  0.00000E+00  9.000E+00
      21    -1     0     0   502   503  0.000000000E+00  0.000000000E+00 -2.755925259E+02  2.755925259E+02  0.000000000E+00  0.00000E+00  9.000E+00
      25     1     1     2     0     0  2.202088088E+01  6.452910454E+00 -2.326318550E+02  2.650830261E+02  1.249994862E+02  0.00000E+00  9.000E+00
       5     1     1     2   501     0  1.147868521E+00  1.145297598E-01  7.136648967E+00  8.650143217E+00  4.750000000E+00  0.00000E+00  9.000E+00
      -5     1     1     2     0   503 -2.180462598E+01 -6.027090733E+00 -2.083567349E+01  3.112001489E+01  4.750000000E+00  0.00000E+00  9.000E+00
      21     1     1     2   511   501 -1.364123413E+00 -5.403494812E-01  1.089432560E+03  1.089433548E+03  2.157918644E-05  0.00000E+00  9.000E+00
#rwgt            1           9   30.593035637224030                9     2954971           0
</event>
<event>
      6   9999  3.45752E-01  7.96063E+00 -1.00000E+00  1.98269E-01
      21    -1     0     0   501   502  0.000000000E+00  0.000000000E+00  3.864070942E+01  3.864070942E+01  0.000000000E+00  0.00000E+00  9.000E+00
      21    -1     0     0   512   503  0.000000000E+00  0.000000000E+00 -1.831926309E+03  1.831926309E+03  0.000000000E+00  0.00000E+00  9.000E+00
      25     1     1     2     0     0  1.698148462E+01 -2.008400237E+01 -1.228519057E+03  1.235142226E+03  1.250020269E+02  0.00000E+00  9.000E+00
       5     1     1     2   501     0 -6.234346191E+00  3.315723386E+00  3.383969489E+01  3.489338826E+01  4.750000000E+00  0.00000E+00  9.000E+00
      -5     1     1     2     0   503 -2.823266459E+00  1.753237396E+01 -8.976516509E+01  9.162806520E+01  4.750000000E+00  0.00000E+00  9.000E+00
      21     1     1     2   512   502 -7.923871971E+00 -7.640949764E-01 -5.088410724E+02  5.089033391E+02  9.344061824E-06  0.00000E+00  9.000E+00
#rwgt            1           9   8.6093797761591734E-002           9     2964979           0
</event>
<event>
      6   9999  3.45752E-01  1.21580E+01 -1.00000E+00  1.78677E-01
      21    -1     0     0   501   502  0.000000000E+00  0.000000000E+00  7.685271557E+00  7.685271557E+00  0.000000000E+00  0.00000E+00  9.000E+00
      21    -1     0     0   502   511  0.000000000E+00  0.000000000E+00 -1.338817215E+03  1.338817215E+03  0.000000000E+00  0.00000E+00  9.000E+00
      25     1     1     2     0     0 -6.383454172E+00  1.627841917E+01 -8.330080192E+02  8.425158439E+02  1.249994074E+02  0.00000E+00  9.000E+00
       5     1     1     2   501     0  6.428937537E-02  7.730834049E-01 -1.817868101E-01  4.816361440E+00  4.750000000E+00  0.00000E+00  9.000E+00
      -5     1     1     2     0   503  1.462257641E+01 -8.170612397E+00 -1.485790730E+02  1.495957289E+02  4.750000000E+00  0.00000E+00  9.000E+00
      21     1     1     2   503   511 -8.303411614E+00 -8.880890174E+00 -3.493630643E+02  3.495745522E+02  6.607249480E-06  0.00000E+00  9.000E+00
#rwgt            1           9   5.1608046020847791E-004           9     2969010           0
</event>
<event>
      6   9999  3.45752E-01  6.43393E+00 -1.00000E+00  2.09919E-01
      21    -1     0     0   502   503  0.000000000E+00  0.000000000E+00  9.934383904E+02  9.934383904E+02  0.000000000E+00  0.00000E+00  9.000E+00
      21    -1     0     0   512   502  0.000000000E+00  0.000000000E+00 -5.504211836E+00  5.504211836E+00  0.000000000E+00  0.00000E+00  9.000E+00
      25     1     1     2     0     0 -7.042307964E+00  1.894491075E+00  8.769186429E+02  8.858194479E+02  1.250464111E+02  0.00000E+00  9.000E+00
       5     1     1     2   501     0  4.702149839E+00 -4.695174852E+00  3.551270085E+01  3.643994102E+01  4.750000000E+00  0.00000E+00  9.000E+00
      -5     1     1     2     0   503  1.275031718E+00 -3.544464299E+00  5.063245914E+01  5.099409134E+01  4.750000000E+00  0.00000E+00  9.000E+00
      21     1     1     2   512   501  1.065126408E+00  6.345148076E+00  2.487037575E+01  2.568912198E+01  4.768371582E-07  0.00000E+00  9.000E+00
#rwgt            1           9   1153.5696132112244                9     2971015           0
</event>
<event>
      6   9999  3.45752E-01  7.40890E+00 -1.00000E+00  2.02046E-01
      21    -1     0     0   501   502  0.000000000E+00  0.000000000E+00  3.161022712E+02  3.161022712E+02  0.000000000E+00  0.00000E+00  9.000E+00
      21    -1     0     0   502   511  0.000000000E+00  0.000000000E+00 -5.710081890E+01  5.710081890E+01  0.000000000E+00  0.00000E+00  9.000E+00
      25     1     1     2     0     0  1.922003675E+00  4.997703344E+00  1.369435878E+02  1.854922399E+02  1.250006148E+02  0.00000E+00  9.000E+00
       5     1     1     2   501     0  2.094355599E+00 -2.336454328E-01  1.214739276E+02  1.215850258E+02  4.750000000E+00  0.00000E+00  9.000E+00
      -5     1     1     2     0   503  2.967843063E+00 -7.236437354E+00  3.229208448E+01  3.356360138E+01  4.750000000E+00  0.00000E+00  9.000E+00
      21     1     1     2   503   511 -6.984202337E+00  2.472379443E+00 -3.170814758E+01  3.256222298E+01  1.066240300E-06  0.00000E+00  9.000E+00
#rwgt            1           9   2.0707725914673750E-004           9     2973923           0
</event>
<event>
      6   9999  3.45752E-01  1.40115E+01 -1.00000E+00  1.72978E-01
      21    -1     0     0   512   502  0.000000000E+00  0.000000000E+00  7.125096376E+02  7.125096376E+02  0.000000000E+00  0.00000E+00  9.000E+00
      21    -1     0     0   502   503  0.000000000E+00  0.000000000E+00 -1.968443206E+01  1.968443206E+01  0.000000000E+00  0.00000E+00  9.000E+00
      25     1     1     2     0     0  1.357581096E+00  1.305131587E+01  1.973837654E+02  2.340043663E+02  1.250020508E+02  0.00000E+00  9.000E+00
       5     1     1     2   501     0  8.157818331E-01 -2.469638009E+00  1.762540804E+02  1.763372564E+02  4.750000000E+00  0.00000E+00  9.000E+00
      -5     1     1     2     0   503 -4.434434708E+00 -2.440954405E+01  1.525594983E+02  1.546365192E+02  4.750000000E+00  0.00000E+00  9.000E+00
      21     1     1     2   512   501  2.261071779E+00  1.382786619E+01  1.666278615E+02  1.672159279E+02  1.907348633E-06  0.00000E+00  9.000E+00
#rwgt            1           9   2.3276200166363397E-003           9     2976671           0
</event>
<event>
      6   9999  3.45752E-01  1.95388E+01 -1.00000E+00  1.60988E-01
      21    -1     0     0   501   502  0.000000000E+00  0.000000000E+00  6.133900470E+01  6.133900470E+01  0.000000000E+00  0.00000E+00  9.000E+00
       1    -1     0     0   502     0  0.000000000E+00  0.000000000E+00 -1.661710667E+03  1.661710667E+03  0.000000000E+00  0.00000E+00  9.000E+00
      25     1     1     2     0     0  4.725614729E+01 -5.999137993E+01 -8.800043746E+01  1.708828901E+02  1.249991040E+02  0.00000E+00  9.000E+00
       5     1     1     2   501     0 -2.996551291E+00  5.349401377E-01  1.842830753E+01  1.927253224E+01  4.750000000E+00  0.00000E+00  9.000E+00
      -5     1     1     2     0   503 -4.463504826E+01  3.992126078E+01 -1.223972345E+03  1.225445575E+03  4.750000000E+00  0.00000E+00  9.000E+00
       1     1     1     2   503     0  3.754522621E-01  1.953517902E+01 -3.068271876E+02  3.074486742E+02  3.814697266E-06  0.00000E+00  9.000E+00
#rwgt            1           9   8.4247328180988060E-004           9     2978611           0
</event>
<event>
      6   9999  3.45752E-01  5.23726E+00 -1.00000E+00  2.22627E-01
      21    -1     0     0   501   502  0.000000000E+00  0.000000000E+00  1.385488142E+01  1.385488142E+01  0.000000000E+00  0.00000E+00  9.000E+00
      21    -1     0     0   502   511  0.000000000E+00  0.000000000E+00 -9.595086730E+02  9.595086730E+02  0.000000000E+00  0.00000E+00  9.000E+00
      25     1     1     2     0     0  4.716256559E-01  3.896506596E+01 -5.759287335E+02  5.906247052E+02  1.250005502E+02  0.00000E+00  9.000E+00
       5     1     1     2   501     0 -7.497156578E-01  7.899202885E-01  3.910363661E+00  6.248159056E+00  4.750000000E+00  0.00000E+00  9.000E+00
      -5     1     1     2     0   503 -4.903168463E+00 -3.899112689E+01 -2.896764463E+02  2.923685261E+02  4.750000000E+00  0.00000E+00  9.000E+00
      21     1     1     2   503   511  5.181258465E+00 -7.638593557E-01 -8.395897546E+01  8.412216403E+01  9.536743164E-07  0.00000E+00  9.000E+00
#rwgt            1           9   4.9647661747949780E-004           9     2981287           0
</event>
<event>
      6   9999  3.45752E-01  1.07538E+01 -1.00000E+00  1.83929E-01
      21    -1     0     0   512   502  0.000000000E+00  0.000000000E+00  4.223160621E+02  4.223160621E+02  0.000000000E+00  0.00000E+00  9.000E+00
      21    -1     0     0   502   503  0.000000000E+00  0.000000000E+00 -1.738454494E+02  1.738454494E+02  0.000000000E+00  0.00000E+00  9.000E+00
      25     1     1     2     0     0  2.348497100E+01  6.629840492E+01 -1.244167725E+02  1.898734347E+02  1.250014623E+02  0.00000E+00  9.000E+00
       5     1     1     2   501     0 -4.375076797E+00 -2.386816916E+00  3.191138365E+02  3.191880971E+02  4.750000000E+00  0.00000E+00  9.000E+00
      -5     1     1     2     0   503 -1.190153979E+01 -5.593143013E+01  4.845574070E+01  7.510321453E+01  4.750000000E+00  0.00000E+00  9.000E+00
      21     1     1     2   512   501 -7.208354410E+00 -7.980157866E+00  5.317808056E+00  1.199676521E+01  1.976862425E-07  0.00000E+00  9.000E+00
#rwgt            1           9   4.2268710872573039E-004           9     2985404           0
</event>
<event>
      6   9999  3.45752E-01  2.07940E+01 -1.00000E+00  1.58930E-01
      21    -1     0     0   501   502  0.000000000E+00  0.000000000E+00  2.153001844E+02  2.153001844E+02  0.000000000E+00  0.00000E+00  9.000E+00
      21    -1     0     0   511   503  0.000000000E+00  0.000000000E+00 -8.152341757E+02  8.152341757E+02  0.000000000E+00  0.00000E+00  9.000E+00
      25     1     1     2     0     0 -2.604070235E+01  3.251690212E+00 -7.627695256E+02  7.733887499E+02  1.249964703E+02  0.00000E+00  9.000E+00
       5     1     1     2   501     0  9.922497577E+00 -6.761255347E+00  2.043761808E+02  2.047836817E+02  4.750000000E+00  0.00000E+00  9.000E+00
      -5     1     1     2     0   503 -4.247742843E+00 -6.880999284E-01 -2.495089942E+01  2.576095267E+01  4.750000000E+00  0.00000E+00  9.000E+00
      21     1     1     2   511   502  2.036594762E+01  4.197665064E+00 -1.658974704E+01  2.660097594E+01  5.840038640E-07  0.00000E+00  9.000E+00
#rwgt            1           9  0.23686680884259695                9     2989122           0
</event>
<event>
      6   9999 -3.45752E-01  1.63986E+01 -1.00000E+00  1.67083E-01
      21    -1     0     0   512   502  0.000000000E+00  0.000000000E+00  1.185295831E+03  1.185295831E+03  0.000000000E+00  0.00000E+00  9.000E+00
      21    -1     0     0   502   503  0.000000000E+00  0.000000000E+00 -9.236032965E+01  9.236032965E+01  0.000000000E+00  0.00000E+00  9.000E+00
      25     1     1     2     0     0  6.524607159E+01 -1.127825912E+02  2.283976837E+01  1.820010357E+02  1.250030369E+02  0.00000E+00  9.000E+00
       5     1     1     2   501     0 -7.677212384E+00 -6.086738112E+00  7.372469036E+02  7.373273001E+02  4.750000000E+00  0.00000E+00  9.000E+00
      -5     1     1     2     0   503 -4.894011472E+01  1.049244356E+02  3.003277378E+02  3.219061736E+02  4.750000000E+00  0.00000E+00  9.000E+00
      21     1     1     2   512   501 -8.628744486E+00  1.394489367E+01  3.252109170E+01  3.642165148E+01  6.743495762E-07  0.00000E+00  9.000E+00
#rwgt            1           9  -3.5613763360150550E-003           9     2993005           0
</event>
<event>
      6   9999  3.45752E-01  2.08578E+01 -1.00000E+00  1.58831E-01
      21    -1     0     0   501   502  0.000000000E+00  0.000000000E+00  2.933218878E+01  2.933218878E+01  0.000000000E+00  0.00000E+00  9.000E+00
      21    -1     0     0   511   503  0.000000000E+00  0.000000000E+00 -1.183483787E+03  1.183483787E+03  0.000000000E+00  0.00000E+00  9.000E+00
      25     1     1     2     0     0 -2.034388801E+01  1.862633318E+01 -5.383724081E+02  5.533811597E+02  1.250001762E+02  0.00000E+00  9.000E+00
       5     1     1     2   501     0 -4.313389595E-01 -2.962459580E+00  1.921932291E+01  2.002266449E+01  4.750000000E+00  0.00000E+00  9.000E+00
      -5     1     1     2     0   503  2.447766494E+01 -3.619041980E+01 -5.550651930E+02  5.568023289E+02  4.750000000E+00  0.00000E+00  9.000E+00
      21     1     1     2   511   502 -3.702437967E+00  2.052654619E+01 -7.993332052E+01  8.260982312E+01  9.536743164E-07  0.00000E+00  9.000E+00
#rwgt            1           9   1.2537337554184478E-003           9     2996556           0
</event>
<event>
      6   9999  3.45752E-01  2.85791E+01 -1.00000E+00  1.49214E-01
      21    -1     0     0   501   502  0.000000000E+00  0.000000000E+00  4.336780169E+02  4.336780169E+02  0.000000000E+00  0.00000E+00  9.000E+00
      21    -1     0     0   512   503  0.000000000E+00  0.000000000E+00 -3.631144286E+02  3.631144286E+02  0.000000000E+00  0.00000E+00  9.000E+00
      25     1     1     2     0     0 -1.238237416E+01 -3.171306588E+01 -3.253642904E+02  3.502085178E+02  1.250001711E+02  0.00000E+00  9.000E+00
       5     1     1     2   501     0  4.106204186E+00  3.558172855E+00  4.074068328E+02  4.074707492E+02  4.750000000E+00  0.00000E+00  9.000E+00
      -5     1     1     2     0   503 -5.565416876E+00  3.151403179E+00 -6.096398581E+00  1.003163908E+01  4.750000000E+00  0.00000E+00  9.000E+00
      21     1     1     2   512   502  1.384158685E+01  2.500348984E+01 -5.382555503E+00  2.908153941E+01  4.420398764E-07  0.00000E+00  9.000E+00
#rwgt            1           9   3.5906440058908085E-002           9     2998883           0
</event>
<event>
      6   9999  3.45752E-01  1.11466E+01 -1.00000E+00  1.82361E-01
      21    -1     0     0   511   503  0.000000000E+00  0.000000000E+00  2.480139078E+01  2.480139078E+01  0.000000000E+00  0.00000E+00  9.000E+00
      21    -1     0     0   501   502  0.000000000E+00  0.000000000E+00 -7.531915420E+02  7.531915420E+02  0.000000000E+00  0.00000E+00  9.000E+00
      25     1     1     2     0     0  1.564409084E+01 -1.253056326E+01 -6.609106390E+02  6.729262704E+02  1.250005604E+02  0.00000E+00  9.000E+00
       5     1     1     2   501     0 -3.690956089E+00  6.768683801E+00 -4.080417443E+01  4.179690644E+01  4.750000000E+00  0.00000E+00  9.000E+00
      -5     1     1     2     0   503 -8.197353380E+00  1.625662703E+01 -4.100462036E+01  4.511558395E+01  4.750000000E+00  0.00000E+00  9.000E+00
      21     1     1     2   511   502 -3.755781374E+00 -1.049474757E+01  1.432928256E+01  1.815417195E+01  8.429369702E-07  0.00000E+00  9.000E+00
#rwgt            1           9   1.9547250059245093E-004           9     3001011           0
</event>
<event>
      6   9999  3.45752E-01  7.85738E+01 -1.00000E+00  1.25060E-01
      21    -1     0     0   501   502  0.000000000E+00  0.000000000E+00  1.400885858E+03  1.400885858E+03  0.000000000E+00  0.00000E+00  9.000E+00
      21    -1     0     0   512   503  0.000000000E+00  0.000000000E+00 -1.224117386E+02  1.224117386E+02  0.000000000E+00  0.00000E+00  9.000E+00
      25     1     1     2     0     0 -5.513209604E+00 -2.939200599E+02  3.989482922E+02  5.110815880E+02  1.250010106E+02  0.00000E+00  9.000E+00
       5     1     1     2   501     0  1.100437898E+01 -1.555813392E+01  5.793001099E+02  5.796329285E+02  4.750000000E+00  0.00000E+00  9.000E+00
      -5     1     1     2     0   503  7.237175957E+00  2.319421901E+02  2.370636418E+02  3.317699339E+02  4.750000000E+00  0.00000E+00  9.000E+00
      21     1     1     2   512   502 -1.272834533E+01  7.753600368E+01  6.316207513E+01  1.008131459E+02  2.132480600E-06  0.00000E+00  9.000E+00
#rwgt            1           9  0.91042252066263007                9     3002914           0
</event>
<event>
      6   9999 -3.45752E-01  4.58644E+01 -1.00000E+00  1.36825E-01
      21    -1     0     0   501   502  0.000000000E+00  0.000000000E+00  1.773345296E+02  1.773345296E+02  0.000000000E+00  0.00000E+00  9.000E+00
      21    -1     0     0   502   511  0.000000000E+00  0.000000000E+00 -5.691992238E+02  5.691992238E+02  0.000000000E+00  0.00000E+00  9.000E+00
      25     1     1     2     0     0 -3.202043909E+01  1.210372429E+01 -8.525171594E+00  1.298823504E+02  1.249997510E+02  0.00000E+00  9.000E+00
       5     1     1     2   501     0 -1.454434040E+00 -2.362526326E+00  1.129964738E+02  1.131302899E+02  4.750000000E+00  0.00000E+00  9.000E+00
      -5     1     1     2     0   503  1.131622938E+01  3.041518600E+01 -1.200258849E+02  1.244263482E+02  4.750000000E+00  0.00000E+00  9.000E+00
      21     1     1     2   503   511  2.215864375E+01 -4.015638396E+01 -3.763101115E+02  3.790947648E+02  5.394796609E-06  0.00000E+00  9.000E+00
#rwgt            1           9  -2364.2048977215495                9     3003994           0
</event>
<event>
      6   9999 -3.45752E-01  1.49530E+01 -1.00000E+00  1.70490E-01
      21    -1     0     0   501   502  0.000000000E+00  0.000000000E+00  2.824142126E+02  2.824142126E+02  0.000000000E+00  0.00000E+00  9.000E+00
      21    -1     0     0   512   503  0.000000000E+00  0.000000000E+00 -2.337877338E+03  2.337877338E+03  0.000000000E+00  0.00000E+00  9.000E+00
      25     1     1     2     0     0 -8.012908537E+01  2.468761107E+02 -1.492442859E+02  3.244456012E+02  1.249904273E+02  0.00000E+00  9.000E+00
       5     1     1     2   501     0 -2.629056048E+00  4.030843067E+00  1.864287632E+02  1.865513492E+02  4.750000000E+00  0.00000E+00  9.000E+00
      -5     1     1     2     0   503  7.786670422E+01 -2.367765884E+02 -1.993010082E+03  2.008541293E+03  4.750000000E+00  0.00000E+00  9.000E+00
      21     1     1     2   512   502  4.891437189E+00 -1.413036536E+01 -9.963752166E+01  1.007533082E+02  0.000000000E+00  0.00000E+00  9.000E+00
#rwgt            1           9  -9.9590061973243852E-005           9     3005472           0
</event>
<event>
      6   9999  3.45752E-01  3.51963E+00 -1.00000E+00  2.59941E-01
      21    -1     0     0   511   502  0.000000000E+00  0.000000000E+00  1.016057528E+03  1.016057528E+03  0.000000000E+00  0.00000E+00  9.000E+00
      21    -1     0     0   502   503  0.000000000E+00  0.000000000E+00 -8.167324097E+02  8.167324097E+02  0.000000000E+00  0.00000E+00  9.000E+00
      25     1     1     2     0     0 -8.909791228E-01  7.321596811E-01 -7.485320769E+02  7.588982263E+02  1.249996712E+02  0.00000E+00  9.000E+00
       5     1     1     2   501     0 -4.906018902E-02 -3.588687649E+00  4.902546978E+00  7.712233971E+00  4.750000000E+00  0.00000E+00  9.000E+00
      -5     1     1     2     0   503 -2.277431518E-01 -4.637287028E-01 -6.151669360E+01  6.170196919E+01  4.750000000E+00  0.00000E+00  9.000E+00
      21     1     1     2   511   501  1.167782464E+00  3.320256671E+00  1.004471342E+03  1.004477508E+03  0.000000000E+00  0.00000E+00  9.000E+00
#rwgt            1           9   6.2600148654498658E-003           9     3010587           0
</event>
<event>
      6   9999  3.45752E-01  1.92776E+01 -1.00000E+00  1.61440E-01
      -1    -1     0     0     0   502  0.000000000E+00  0.000000000E+00  1.197634733E+03  1.197634733E+03  0.000000000E+00  0.00000E+00  9.000E+00
       1    -1     0     0   512     0  0.000000000E+00  0.000000000E+00 -8.514409401E+02  8.514409401E+02  0.000000000E+00  0.00000E+00  9.000E+00
      25     1     1     2     0     0  6.763227835E+02  5.980368427E+02 -9.181614158E+01  9.160312670E+02  1.249900225E+02  0.00000E+00  9.000E+00
       5     1     1     2   501     0 -2.951614439E+02 -6.355692518E+01  2.520253495E+02  3.933180647E+02  4.750000000E+00  0.00000E+00  9.000E+00
      -5     1     1     2     0   502 -3.655232593E+02 -5.232071519E+02  2.403730426E+02  6.820225356E+02  4.750000000E+00  0.00000E+00  9.000E+00
      21     1     1     2   512   501 -1.563808018E+01 -1.127276555E+01 -5.438845796E+01  5.770380537E+01  6.743495762E-07  0.00000E+00  9.000E+00
#rwgt            1           1   1.8969211468348741E-002           9     3015771           0
</event>
<event>
      6   9999  3.45752E-01  1.12986E+01 -1.00000E+00  1.81776E-01
      21    -1     0     0   502   511  0.000000000E+00  0.000000000E+00  3.049454642E+00  3.049454642E+00  0.000000000E+00  0.00000E+00  9.000E+00
      21    -1     0     0   501   502  0.000000000E+00  0.000000000E+00 -2.387267676E+03  2.387267676E+03  0.000000000E+00  0.00000E+00  9.000E+00
      25     1     1     2     0     0 -2.575517979E-01  1.223055318E+01 -2.194063593E+03  2.197655503E+03  1.250000197E+02  0.00000E+00  9.000E+00
       5     1     1     2   501     0  1.256306654E+00  3.749513017E+00 -1.071493999E+02  1.073275061E+02  4.750000000E+00  0.00000E+00  9.000E+00
      -5     1     1     2     0   503 -2.650715767E+00 -4.802860374E+00 -1.898521117E+01  2.032472644E+01  4.750000000E+00  0.00000E+00  9.000E+00
      21     1     1     2   503   511  1.651960911E+00 -1.117720582E+01 -6.402001707E+01  6.500939540E+01  9.536743164E-07  0.00000E+00  9.000E+00
#rwgt            1           9  0.17497114408993183                9     3016596           0
</event>
<event>
      6   9999  3.45752E-01  9.68980E+00 -1.00000E+00  1.88647E-01
      21    -1     0     0   512   502  0.000000000E+00  0.000000000E+00  3.652202924E+01  3.652202924E+01  0.000000000E+00  0.00000E+00  9.000E+00
      21    -1     0     0   502   503  0.000000000E+00  0.000000000E+00 -1.668039856E+03  1.668039856E+03  0.000000000E+00  0.00000E+00  9.000E+00
      25     1     1     2     0     0  4.341757730E-01  4.657419733E+00 -1.605418282E+03  1.610285219E+03  1.250149754E+02  0.00000E+00  9.000E+00
       5     1     1     2   501     0 -1.931848266E+00  2.519130718E+00 -3.741050313E+00  6.829056651E+00  4.750000000E+00  0.00000E+00  9.000E+00
      -5     1     1     2     0   503 -1.291431452E+00  2.103169512E+00 -5.404663280E+01  5.431106824E+01  4.750000000E+00  0.00000E+00  9.000E+00
      21     1     1     2   512   501  2.789103944E+00 -9.279719963E+00  3.168813837E+01  3.313654201E+01  3.216442481E-06  0.00000E+00  9.000E+00
#rwgt            1           9   3.2978181056642081E-004           9     3018574           0
</event>
<event>
      6   9999  3.45752E-01  1.78386E+02 -1.00000E+00  1.10640E-01
       2    -1     0     0   501     0  0.000000000E+00  0.000000000E+00  4.039623300E+02  4.039623300E+02  0.000000000E+00  0.00000E+00  9.000E+00
      21    -1     0     0   502   503  0.000000000E+00  0.000000000E+00 -1.481692226E+03  1.481692226E+03  0.000000000E+00  0.00000E+00  9.000E+00
      25     1     1     2     0     0  1.647366852E+02  1.089689093E+02 -6.913441696E+02  7.297908681E+02  1.250022065E+02  0.00000E+00  9.000E+00
       5     1     1     2   501     0 -3.736427442E+00 -2.080741914E+01  1.618411541E+01  2.704436490E+01  4.750000000E+00  0.00000E+00  9.000E+00
      -5     1     1     2     0   503 -3.611945271E+00 -4.194091337E+00 -7.437674450E+02  7.438032074E+02  4.750000000E+00  0.00000E+00  9.000E+00
       2     1     1     2   502     0 -1.573883125E+02 -8.396739878E+01  3.411976032E+02  3.850161157E+02  6.607249480E-06  0.00000E+00  9.000E+00
#rwgt            1           9   74.932012257596412                9     3021309           0
</event>
<event>
      6   9999  3.45752E-01  9.90527E+00 -1.00000E+00  1.87630E-01
      21    -1     0     0   501   511  0.000000000E+00  0.000000000E+00  9.290489695E+01  9.290489695E+01  0.000000000E+00  0.00000E+00  9.000E+00
      21    -1     0     0   502   503  0.000000000E+00  0.000000000E+00 -8.931241881E+01  8.931241881E+01  0.000000000E+00  0.00000E+00  9.000E+00
      25     1     1     2     0     0  3.535745753E+00  6.663522728E+00 -4.044822274E+01  1.315999869E+02  1.250023752E+02  0.00000E+00  9.000E+00
       5     1     1     2   501     0  5.428186166E-01  8.471229294E-01  7.491966581E+00  8.927728298E+00  4.750000000E+00  0.00000E+00  9.000E+00
      -5     1     1     2     0   503 -3.326177944E+00  2.366004395E+00  3.470610925E+00  7.160242783E+00  4.750000000E+00  0.00000E+00  9.000E+00
      21     1     1     2   502   511 -7.523864251E-01 -9.876650053E+00  3.307812337E+01  3.452935776E+01  4.768371582E-07  0.00000E+00  9.000E+00
#rwgt            1           9   9.6605432068804062E-004           9     3021598           0
</event>
<event>
      6   9999  3.45752E-01  6.28643E+00 -1.00000E+00  2.11275E-01
      21    -1     0     0   512   502  0.000000000E+00  0.000000000E+00  7.358903877E+01  7.358903877E+01  0.000000000E+00  0.00000E+00  9.000E+00
      21    -1     0     0   502   503  0.000000000E+00  0.000000000E+00 -1.599096895E+03  1.599096895E+03  0.000000000E+00  0.00000E+00  9.000E+00
      25     1     1     2     0     0 -1.637862749E+01  2.559547901E+00 -1.494857930E+03  1.500166651E+03  1.249997511E+02  0.00000E+00  9.000E+00
       5     1     1     2   501     0  8.586936633E+00  3.449579889E+00  5.148021548E+01  5.252056900E+01  4.750000000E+00  0.00000E+00  9.000E+00
      -5     1     1     2     0   503  1.394861474E+01 -7.278559097E+00 -9.985169805E+01  1.011951846E+02  4.750000000E+00  0.00000E+00  9.000E+00
      21     1     1     2   512   501 -6.156923882E+00  1.269431306E+00  1.772155636E+01  1.880352965E+01  2.384185791E-07  0.00000E+00  9.000E+00
#rwgt            1           9   142.85421337650700                9     3024349           0
</event>
<event>
      6   9999  3.45752E-01  8.46267E+00 -1.00000E+00  1.95168E-01
      21    -1     0     0   511   502  0.000000000E+00  0.000000000E+00  8.862425683E+00  8.862425683E+00  0.000000000E+00  0.00000E+00  9.000E+00
      21    -1     0     0   502   503  0.000000000E+00  0.000000000E+00 -7.195669273E+02  7.195669273E+02  0.000000000E+00  0.00000E+00  9.000E+00
      25     1     1     2     0     0 -3.871993732E+00 -1.137454828E+01 -5.898101243E+02  6.030298152E+02  1.249984105E+02  0.00000E+00  9.000E+00
       5     1     1     2   501     0 -2.231463150E+00  9.904763204E+00 -7.123501688E+01  7.211153785E+01  4.750000000E+00  0.00000E+00  9.000E+00
      -5     1     1     2     0   503 -1.945206510E+00 -1.144757950E+00 -4.041231818E+01  4.075306442E+01  4.750000000E+00  0.00000E+00  9.000E+00
      21     1     1     2   511   501  8.048663392E+00  2.614543022E+00 -9.247042277E+00  1.253493552E+01  1.192092896E-07  0.00000E+00  9.000E+00
#rwgt            1           9   3.5492392489297774E-003           9     3030145           0
</event>
<event>
      6   9999 -3.45752E-01  3.90542E+00 -1.00000E+00  2.50021E-01
      21    -1     0     0   501   502  0.000000000E+00  0.000000000E+00  1.109614940E+01  1.109614940E+01  0.000000000E+00  0.00000E+00  9.000E+00
       1    -1     0     0   502     0  0.000000000E+00  0.000000000E+00 -3.146709848E+03  3.146709848E+03  0.000000000E+00  0.00000E+00  9.000E+00
      25     1     1     2     0     0 -9.784292289E-01  3.409585788E+00 -7.657808369E+02  7.759270752E+02  1.250198112E+02  0.00000E+00  9.000E+00
       5     1     1     2   501     0 -3.799710841E-01 -1.842708293E+00  1.938619143E+00  5.464494127E+00  4.750000000E+00  0.00000E+00  9.000E+00
      -5     1     1     2     0   503  3.495644185E+00 -4.835592867E+00 -3.948284898E+00  8.588011428E+00  4.750000000E+00  0.00000E+00  9.000E+00
       1     1     1     2   503     0 -2.137243872E+00  3.268715372E+00 -2.367823196E+03  2.367826417E+03  3.051757812E-05  0.00000E+00  9.000E+00
#rwgt            1           9  -1.3434731188256463E-004           9     3032602           0
</event>
<event>
      6   9999  3.45752E-01  7.89512E+00 -1.00000E+00  1.98696E-01
      21    -1     0     0   502   511  0.000000000E+00  0.000000000E+00  7.428867673E+01  7.428867673E+01  0.000000000E+00  0.00000E+00  9.000E+00
      21    -1     0     0   501   502  0.000000000E+00  0.000000000E+00 -7.480077795E+02  7.480077795E+02  0.000000000E+00  0.00000E+00  9.000E+00
      25     1     1     2     0     0 -8.532190287E+00 -3.820577032E+00 -4.663444214E+02  4.828984292E+02  1.250055138E+02  0.00000E+00  9.000E+00
       5     1     1     2   501     0  3.145789686E+00 -3.382374472E+00 -1.993393935E+02  1.994494742E+02  4.750000000E+00  0.00000E+00  9.000E+00
      -5     1     1     2     0   503 -1.692813468E+00  3.707568382E+00 -7.362239432E+01  7.388796334E+01  4.750000000E+00  0.00000E+00  9.000E+00
      21     1     1     2   503   511  7.079214070E+00  3.495383122E+00  6.558710637E+01  6.606058959E+01  0.000000000E+00  0.00000E+00  9.000E+00
#rwgt            1           9   2.3632707495603922E-004           9     3037684           0
</event>
<event>
      6   9999 -3.45752E-01  6.02888E+00 -1.00000E+00  2.13768E-01
      21    -1     0     0   501   502  0.000000000E+00  0.000000000E+00  1.210749523E+01  1.210749523E+01  0.000000000E+00  0.00000E+00  9.000E+00
      21    -1     0     0   512   503  0.000000000E+00  0.000000000E+00 -9.236153968E+02  9.236153968E+02  0.000000000E+00  0.00000E+00  9.000E+00
      25     1     1     2     0     0  2.448252877E+00  2.148731017E+01 -6.627943847E+02  6.748250200E+02  1.249988513E+02  0.00000E+00  9.000E+00
       5     1     1     2   501     0 -1.106590068E+00 -3.119455152E+00  3.383484627E+00  6.705670007E+00  4.750000000E+00  0.00000E+00  9.000E+00
      -5     1     1     2     0   503 -1.492149187E+00 -2.439485660E+01 -1.629028509E+02  1.647945293E+02  4.750000000E+00  0.00000E+00  9.000E+00
      21     1     1     2   512   502  1.504863773E-01  6.027001586E+00 -8.919415059E+01  8.939767275E+01  9.536743164E-07  0.00000E+00  9.000E+00
#rwgt            1           9  -6.6227758917556946E-005           9     3040642           0
</event>
<event>
      6   9999  3.45752E-01  5.82642E+00 -1.00000E+00  2.15849E-01
      21    -1     0     0   511   502  0.000000000E+00  0.000000000E+00  2.416927533E+01  2.416927533E+01  0.000000000E+00  0.00000E+00  9.000E+00
      21    -1     0     0   502   503  0.000000000E+00  0.000000000E+00 -6.566724910E+02  6.566724910E+02  0.000000000E+00  0.00000E+00  9.000E+00
      25     1     1     2     0     0 -4.913731866E+00 -1.790662881E+01 -6.132247600E+02  6.261125220E+02  1.250099670E+02  0.00000E+00  9.000E+00
       5     1     1     2   501     0 -1.131604138E+00  2.922269819E+00  5.708889974E+00  8.060652179E+00  4.750000000E+00  0.00000E+00  9.000E+00
      -5     1     1     2     0   503  7.229383147E+00  2.068919690E+01 -3.102323041E+01  3.827937009E+01  4.750000000E+00  0.00000E+00  9.000E+00
      21     1     1     2   511   501 -1.184047142E+00 -5.704837905E+00  6.035884704E+00  8.389222093E+00  4.460403188E-07  0.00000E+00  9.000E+00
#rwgt            1           9   1.4245400787954885E-002           9     3044435           0
</event>
<event>
      6   9999  3.45752E-01  2.36967E+01 -1.00000E+00  1.54784E-01
      21    -1     0     0   512   502  0.000000000E+00  0.000000000E+00  1.127418066E+02  1.127418066E+02  0.000000000E+00  0.00000E+00  9.000E+00
      21    -1     0     0   502   503  0.000000000E+00  0.000000000E+00 -7.477050156E+01  7.477050156E+01  0.000000000E+00  0.00000E+00  9.000E+00
      25     1     1     2     0     0 -1.137085058E+01 -6.593437053E+00 -5.984122251E+00  1.258297765E+02  1.249982131E+02  0.00000E+00  9.000E+00
       5     1     1     2   501     0 -3.168241129E+00  1.412450164E+00  2.409356766E+00  6.356120463E+00  4.750000000E+00  0.00000E+00  9.000E+00
      -5     1     1     2     0   503 -8.384951046E+00 -8.207072755E-01  3.085967226E+00  1.015217505E+01  4.750000000E+00  0.00000E+00  9.000E+00
      21     1     1     2   512   501  2.292404275E+01  6.001694165E+00  3.846010332E+01  4.517423620E+01  6.743495762E-07  0.00000E+00  9.000E+00
#rwgt            1           9   1.8486388740721537E-004           9     3048287           0
</event>
<event>
      6   9999  3.45752E-01  2.64374E+01 -1.00000E+00  1.51479E-01
      21    -1     0     0   501   502  0.000000000E+00  0.000000000E+00  2.023690987E+01  2.023690987E+01  0.000000000E+00  0.00000E+00  9.000E+00
      21    -1     0     0   511   503  0.000000000E+00  0.000000000E+00 -1.125529527E+03  1.125529527E+03  0.000000000E+00  0.00000E+00  9.000E+00
      25     1     1     2     0     0 -6.077641903E+01  2.969790991E+01 -4.307515045E+02  4.535938275E+02  1.249990511E+02  0.00000E+00  9.000E+00
       5     1     1     2   501     0  1.299916322E+00  4.417780052E+00  2.686436881E+00  7.140448596E+00  4.750000000E+00  0.00000E+00  9.000E+00
      -5     1     1     2     0   503  7.394699828E+01 -1.199008525E+01 -4.426306032E+02  4.489502579E+02  4.750000000E+00  0.00000E+00  9.000E+00
      21     1     1     2   511   502 -1.447049557E+01 -2.212560471E+01 -2.345969462E+02  2.360819027E+02  2.697398305E-06  0.00000E+00  9.000E+00
#rwgt            1           9   1.1950000525839765E-002           9     3049276           0
</event>
</LesHouchesEvents>
 #Random number generator exit values:            9       3050434             0
