<LesHouchesEvents version="3.0">
<!--
file generated with POWHEG-BOX-V2
Input file powheg.input contained:
numevts 1000    ! number of events to be generated

! Production parameters for ttH production
hmass 125.d0      ! mass of the HIggs boson [GeV]
hwidth 0.00498d0  ! width of the Higgs boson [GeV]

hdecaymode -1    ! -1 no decay
                ! 0 all decay channels open
                ! 1-6 d dbar, u ubar,..., t tbar
                ! 7-9 e+ e-, mu+ mu-, tau+ tau-
                ! 10  W+W-
                ! 11  ZZ
                ! 12  gamma gamma

#pythiatune 320	! PYTHIA tune


ih1   1           ! hadron 1 (1 for protons, -1 for antiprotons)
ih2   1           ! hadron 2 (1 for protons, -1 for antiprotons)
ebeam1 6500d0     ! energy of beam 1
ebeam2 6500d0     ! energy of beam 2

! To be set only if using 'native' pdfs
!ndns1 131         ! pdf set for hadron 1 (mlm numbering)
!ndns2 131         ! pdf set for hadron 2 (mlm numbering)
! To be set only if using LHA pdfs
! 10050 cteq6m
! 10042 cteq6l with LO alphas (corr. to vbfnlo LO set)
! 10041 cteq6l with NLO alphas
! 21000 MSTW2008 LO
! 21100 MSTW2008 NLO
! 23300 MSTW2008 NLO, NF=4
! 11082 CT10 Nf4

lhans1  23300      ! pdf set for hadron 1 (LHA numbering)
lhans2  23300      ! pdf set for hadron 2 (LHA numbering)

#bornktmin 1d0    ! Generation cut; minimum kt in underlying born
#bornsuppfact 1d0 ! (default 0d0) switch for Born suppression factor. If < 0 suppfact = 1
delta_mbbmin 0d0 ! generation cut on mbb (no gencut used, if set to 0)

use-old-grid    1 ! if 1 use old grid if file pwggrids.dat is present (<> 1 regenerate)
use-old-ubound  1 ! if 1 use norm of upper bounding function stored in pwgubound.dat, if present; <>

ncall1  500000  ! number of calls for initializing the integration grid
itmx1    2     ! number of iterations for initializing the integration grid
ncall2  50000  ! number of calls for computing the integral and finding upper bound
itmx2     1     ! number of iterations for computing the integral and finding upper bound
foldcsi   1    ! number of folds on csi integration
foldy     1    ! number of folds on  y  integration
foldphi   1    ! number of folds on phi integration
nubound 10000  ! number of bbarra calls to setup norm of upper bounding function
icsimax  1     ! <= 100, number of csi subdivision when computing the upper bounds
iymax    1     ! <= 100, number of y subdivision when computing the upper bounds
xupbound 2d0   ! increase upper bound for radiation generation

#runningscales 2	   ! default 0 (no running scales); 1,2: use running scales
renscfact 1d0   ! (default 1d0) ren scale factor: muren  = muref * renscfact
facscfact 1d0   ! (default 1d0) fac scale factor: mufact = muref * facscfact
testplots  1       ! (default 0, do not) do NLO and PWHG distributions

#bornonly   1      ! (default 0) if 1 do Born only
#fakevirt   1      ! (default 0) if 1 use Born for virtuals

iseed    2

manyseeds  1       ! Used to perform multiple runs with different random
                   ! seeds in the same directory.
                   ! If set to 1, the program asks for an integer j;
                   ! The file pwgseeds.dat at line j is read, and the
                   ! integer at line j is used to initialize the random
                   ! sequence for the generation of the event.
                   ! The event file is called pwgevents-'j'.lhe

#storeinfo_rwgt 1   ! store info for reweighting events
#compute_rwgt 1   ! store info for reweighting events
#xgriditeration 1   ! identifier for grid generation
#parallelstage  4   ! identifier for parallel running stages


toploop 1	! 1 include top loop effects; 0 disregard top loop effects
msbar  1	! 1 MSbar renormalization; 0 On-Shell renormalization
parallelstage 4
End of powheg.input content
PDF package: lha
 Random number generator initialized with:            8             0             0
-->
<init>
     2212     2212  6.50000E+03  6.50000E+03     -1     -1     -1     -1     -4      1
  3.37328E-01  1.60874E-01  1.00000E+00   9999
</init>
<event>
      6   9999  3.45752E-01  9.91359E+00 -1.00000E+00  1.87592E-01
      21    -1     0     0   502   503  0.000000000E+00  0.000000000E+00  9.715009725E+00  9.715009725E+00  0.000000000E+00  0.00000E+00  9.000E+00
      21    -1     0     0   511   502  0.000000000E+00  0.000000000E+00 -1.034143363E+03  1.034143363E+03  0.000000000E+00  0.00000E+00  9.000E+00
      25     1     1     2     0     0  1.448616982E+01 -3.455877846E+01 -6.050166368E+02  6.189300426E+02  1.250004345E+02  0.00000E+00  9.000E+00
       5     1     1     2   501     0 -3.254894060E+00  2.503627565E+00 -2.102899392E+01  2.194637946E+01  4.750000000E+00  0.00000E+00  9.000E+00
      -5     1     1     2     0   503 -4.173730547E+00  2.509309237E+01 -7.304709593E+01  7.749531621E+01  4.750000000E+00  0.00000E+00  9.000E+00
      21     1     1     2   511   501 -7.057545213E+00  6.962058522E+00 -3.253356270E+02  3.254866347E+02  3.814697266E-06  0.00000E+00  9.000E+00
#rwgt            1           9   2.9591289425991867E-004           8         281           0
</event>
<event>
      6   9999  3.45752E-01  4.22236E+01 -1.00000E+00  1.38837E-01
      21    -1     0     0   512   502  0.000000000E+00  0.000000000E+00  9.935500755E+01  9.935500755E+01  0.000000000E+00  0.00000E+00  9.000E+00
      21    -1     0     0   502   503  0.000000000E+00  0.000000000E+00 -7.694844200E+02  7.694844200E+02  0.000000000E+00  0.00000E+00  9.000E+00
      25     1     1     2     0     0  2.403966589E+01  9.419951541E+00 -6.585903896E+02  6.708542970E+02  1.250501722E+02  0.00000E+00  9.000E+00
       5     1     1     2   501     0  1.849410895E+01 -6.720432140E+00 -5.285146561E+01  5.659537252E+01  4.750000000E+00  0.00000E+00  9.000E+00
      -5     1     1     2     0   503 -6.427743638E-01 -7.988441703E+00 -4.465304705E+01  4.561453135E+01  4.750000000E+00  0.00000E+00  9.000E+00
      21     1     1     2   512   501 -4.189100047E+01  5.288922302E+00  8.596548975E+01  9.577522669E+01  3.162979880E-06  0.00000E+00  9.000E+00
#rwgt            1           9  0.16957628536935163                8        2450           0
</event>
<event>
      6   9999  3.45752E-01  2.52457E+01 -1.00000E+00  1.52854E-01
      21    -1     0     0   501   511  0.000000000E+00  0.000000000E+00  7.514820249E+01  7.514820249E+01  0.000000000E+00  0.00000E+00  9.000E+00
      21    -1     0     0   502   503  0.000000000E+00  0.000000000E+00 -1.998356806E+02  1.998356806E+02  0.000000000E+00  0.00000E+00  9.000E+00
      25     1     1     2     0     0 -1.294192565E+01 -2.202022838E+01 -1.539180703E+02  1.999235000E+02  1.250049983E+02  0.00000E+00  9.000E+00
       5     1     1     2   501     0  8.396576270E-01 -2.527800660E+00  6.307699117E+00  8.333328822E+00  4.750000000E+00  0.00000E+00  9.000E+00
      -5     1     1     2     0   503  2.000376980E+01  5.706771828E-01 -1.186434692E+01  2.374450897E+01  4.750000000E+00  0.00000E+00  9.000E+00
      21     1     1     2   502   511 -7.901501771E+00  2.397735186E+01  3.478723997E+01  4.298254526E+01  4.768371582E-07  0.00000E+00  9.000E+00
#rwgt            1           9   1.9112367361818634E-004           8        3071           0
</event>
<event>
      6   9999  3.45752E-01  2.91490E+01 -1.00000E+00  1.48651E-01
      21    -1     0     0   502   503  0.000000000E+00  0.000000000E+00  2.510188893E+03  2.510188893E+03  0.000000000E+00  0.00000E+00  9.000E+00
      21    -1     0     0   501   512  0.000000000E+00  0.000000000E+00 -1.680631923E+01  1.680631923E+01  0.000000000E+00  0.00000E+00  9.000E+00
      25     1     1     2     0     0  1.626977508E+01  2.083945087E+00  2.187683675E+03  2.191313287E+03  1.250000444E+02  0.00000E+00  9.000E+00
       5     1     1     2   501     0 -7.046554781E+00 -2.218731210E+01  7.039829953E+01  7.429948741E+01  4.750000000E+00  0.00000E+00  9.000E+00
      -5     1     1     2     0   503 -1.380932501E+01 -8.682618608E+00  2.313429620E+02  2.319659757E+02  4.750000000E+00  0.00000E+00  9.000E+00
      21     1     1     2   502   512  4.586104710E+00  2.878598562E+01  3.957636626E+00  2.941646159E+01  2.362856226E-06  0.00000E+00  9.000E+00
#rwgt            1           9   35.721648196191069                8        4808           0
</event>
<event>
      6   9999  3.45752E-01  1.16766E+01 -1.00000E+00  1.80371E-01
      21    -1     0     0   501   502  0.000000000E+00  0.000000000E+00  8.701094969E+01  8.701094969E+01  0.000000000E+00  0.00000E+00  9.000E+00
      21    -1     0     0   511   503  0.000000000E+00  0.000000000E+00 -2.523908463E+03  2.523908463E+03  0.000000000E+00  0.00000E+00  9.000E+00
      25     1     1     2     0     0  9.332433874E+01 -6.988066868E+01 -1.134984288E+03  1.147783543E+03  1.249999460E+02  0.00000E+00  9.000E+00
       5     1     1     2   501     0 -1.415369683E+01 -1.997005492E+00  7.679378237E+01  7.825702956E+01  4.750000000E+00  0.00000E+00  9.000E+00
      -5     1     1     2     0   503 -6.864645228E+01  6.681954623E+01 -7.557216471E+02  7.617840623E+02  4.750000000E+00  0.00000E+00  9.000E+00
      21     1     1     2   511   502 -1.052418963E+01  5.058127946E+00 -6.229853602E+02  6.230947779E+02  7.629394531E-06  0.00000E+00  9.000E+00
#rwgt            1           9   3.5406288574495130E-003           8        6195           0
</event>
<event>
      6   9999  3.45752E-01  1.72026E+01 -1.00000E+00  1.65371E-01
      21    -1     0     0   501   502  0.000000000E+00  0.000000000E+00  2.560158830E+03  2.560158830E+03  0.000000000E+00  0.00000E+00  9.000E+00
      21    -1     0     0   502   512  0.000000000E+00  0.000000000E+00 -2.327119433E+01  2.327119433E+01  0.000000000E+00  0.00000E+00  9.000E+00
      25     1     1     2     0     0  1.752780695E+01 -6.408146226E+01  1.113105226E+03  1.122071082E+03  1.250064459E+02  0.00000E+00  9.000E+00
       5     1     1     2   501     0 -1.693152655E+00 -7.383606570E-01  1.082430275E+03  1.082442273E+03  4.750000000E+00  0.00000E+00  9.000E+00
      -5     1     1     2     0   503 -3.059513273E+01  5.598475033E+01  3.526041124E+02  3.583609591E+02  4.750000000E+00  0.00000E+00  9.000E+00
      21     1     1     2   503   512  1.476047844E+01  8.835072586E+00 -1.125197735E+01  2.055571030E+01  2.185142372E-06  0.00000E+00  9.000E+00
#rwgt            1           9   7.9085559365362965E-004           8       10982           0
</event>
<event>
      6   9999  3.45752E-01  4.28398E+01 -1.00000E+00  1.38480E-01
      21    -1     0     0   501   502  0.000000000E+00  0.000000000E+00  8.334699740E+01  8.334699740E+01  0.000000000E+00  0.00000E+00  9.000E+00
      21    -1     0     0   502   511  0.000000000E+00  0.000000000E+00 -1.703496379E+03  1.703496379E+03  0.000000000E+00  0.00000E+00  9.000E+00
      25     1     1     2     0     0  1.299207908E+02 -2.121487346E+02 -5.243781233E+02  5.937037259E+02  1.250008018E+02  0.00000E+00  9.000E+00
       5     1     1     2   501     0  4.289310017E+00 -4.977815634E-01  3.453834939E+01  3.512984551E+01  4.750000000E+00  0.00000E+00  9.000E+00
      -5     1     1     2     0   503 -1.149629129E+02  1.743738391E+02 -9.423880647E+02  9.652670792E+02  4.750000000E+00  0.00000E+00  9.000E+00
      21     1     1     2   503   511 -1.924718789E+01  3.827267702E+01 -1.879215431E+02  1.927427260E+02  0.000000000E+00  0.00000E+00  9.000E+00
#rwgt            1           9   3.7935273693575028E-005           8       12874           0
</event>
<event>
      6   9999  3.45752E-01  7.07793E+00 -1.00000E+00  2.04528E-01
      21    -1     0     0   512   502  0.000000000E+00  0.000000000E+00  8.254903358E+02  8.254903358E+02  0.000000000E+00  0.00000E+00  9.000E+00
      21    -1     0     0   502   503  0.000000000E+00  0.000000000E+00 -7.278206490E+00  7.278206490E+00  0.000000000E+00  0.00000E+00  9.000E+00
      25     1     1     2     0     0  5.041027506E+00  3.278977024E+00  5.901702486E+02  6.032932967E+02  1.250028633E+02  0.00000E+00  9.000E+00
       5     1     1     2   501     0  1.355514465E+00  3.410374740E-01  1.447593727E+02  1.448440272E+02  4.750000000E+00  0.00000E+00  9.000E+00
      -5     1     1     2     0   503  2.349163543E-01 -1.145975495E+00  1.145526429E+01  1.245608388E+01  4.750000000E+00  0.00000E+00  9.000E+00
      21     1     1     2   512   501 -6.631458326E+00 -2.474039002E+00  7.182724360E+01  7.217513444E+01  9.536743164E-07  0.00000E+00  9.000E+00
#rwgt            1           9   3.4052782027525944E-002           8       14472           0
</event>
<event>
      6   9999  3.45752E-01  5.74200E+00 -1.00000E+00  2.16752E-01
      21    -1     0     0   501   502  0.000000000E+00  0.000000000E+00  2.872154116E+01  2.872154116E+01  0.000000000E+00  0.00000E+00  9.000E+00
      21    -1     0     0   502   511  0.000000000E+00  0.000000000E+00 -1.133392181E+03  1.133392181E+03  0.000000000E+00  0.00000E+00  9.000E+00
      25     1     1     2     0     0  4.662432951E+01 -8.373791575E+01 -3.890433063E+02  4.197205569E+02  1.249991404E+02  0.00000E+00  9.000E+00
       5     1     1     2   501     0  4.056787493E-01 -2.603556028E+00  8.853977177E+00  1.038741985E+01  4.750000000E+00  0.00000E+00  9.000E+00
      -5     1     1     2     0   503 -4.192706296E+01  8.897406063E+01 -6.977745092E+02  7.046886477E+02  4.750000000E+00  0.00000E+00  9.000E+00
      21     1     1     2   503   511 -5.102945303E+00 -2.632588851E+00 -2.670680118E+01  2.731709729E+01  3.371747881E-07  0.00000E+00  9.000E+00
#rwgt            1           9   6.0437437262575714E-005           8       17736           0
</event>
<event>
      6   9999  3.45752E-01  1.56321E+01 -1.00000E+00  1.68832E-01
      21    -1     0     0   501   502  0.000000000E+00  0.000000000E+00  2.085034577E+01  2.085034577E+01  0.000000000E+00  0.00000E+00  9.000E+00
      21    -1     0     0   512   503  0.000000000E+00  0.000000000E+00 -1.079772368E+03  1.079772368E+03  0.000000000E+00  0.00000E+00  9.000E+00
      25     1     1     2     0     0  3.677673910E+00 -4.989416262E+01 -9.299674072E+02  9.396639615E+02  1.250041172E+02  0.00000E+00  9.000E+00
       5     1     1     2   501     0  9.571703004E-01 -3.790616062E+00  7.627141679E+00  9.799017058E+00  4.750000000E+00  0.00000E+00  9.000E+00
      -5     1     1     2     0   503  6.712438919E+00  4.293288783E+01 -6.814569168E+01  8.096102450E+01  4.750000000E+00  0.00000E+00  9.000E+00
      21     1     1     2   512   502 -1.134728313E+01  1.075189085E+01 -6.843606489E+01  7.019871059E+01  0.000000000E+00  0.00000E+00  9.000E+00
#rwgt            1           9   5.4063536627640648E-004           8       22664           0
</event>
<event>
      6   9999  3.45752E-01  3.70280E+01 -1.00000E+00  1.42158E-01
      21    -1     0     0   501   502  0.000000000E+00  0.000000000E+00  4.967807115E+01  4.967807115E+01  0.000000000E+00  0.00000E+00  9.000E+00
      21    -1     0     0   502   511  0.000000000E+00  0.000000000E+00 -4.930717389E+02  4.930717389E+02  0.000000000E+00  0.00000E+00  9.000E+00
      25     1     1     2     0     0 -2.540230925E+01 -4.004992595E+01 -1.581610365E+02  2.070959192E+02  1.249981296E+02  0.00000E+00  9.000E+00
       5     1     1     2   501     0 -2.010052901E+00 -3.955428920E+00  8.036220058E+00  1.033581460E+01  4.750000000E+00  0.00000E+00  9.000E+00
      -5     1     1     2     0   503  8.153658933E+00  1.237979335E+01  1.083656281E+01  1.896668212E+01  4.750000000E+00  0.00000E+00  9.000E+00
      21     1     1     2   503   511  1.925870322E+01  3.162556152E+01 -3.041054141E+02  3.063513941E+02  0.000000000E+00  0.00000E+00  9.000E+00
#rwgt            1           9   6.8283240834958946E-004           8       24882           0
</event>
<event>
      6   9999  3.45752E-01  3.18553E+00 -1.00000E+00  2.70269E-01
      21    -1     0     0   501   502  0.000000000E+00  0.000000000E+00  1.661514525E+01  1.661514525E+01  0.000000000E+00  0.00000E+00  9.000E+00
      21    -1     0     0   502   512  0.000000000E+00  0.000000000E+00 -9.068717078E+02  9.068717078E+02  0.000000000E+00  0.00000E+00  9.000E+00
      25     1     1     2     0     0  9.168216726E+00  1.615934183E+00 -2.267648161E+02  2.591009050E+02  1.249973187E+02  0.00000E+00  9.000E+00
       5     1     1     2   501     0 -5.450498196E-01 -3.767997837E+00 -4.735993439E+01  4.774956306E+01  4.750000000E+00  0.00000E+00  9.000E+00
      -5     1     1     2     0   503 -5.599415588E+00  3.154324012E+00 -6.421364628E+01  6.470902630E+01  4.750000000E+00  0.00000E+00  9.000E+00
      21     1     1     2   503   512 -3.023751318E+00 -1.002260358E+00 -5.519181657E+02  5.519273587E+02  7.629394531E-06  0.00000E+00  9.000E+00
#rwgt            1           9  0.22470067947782871                8       25897           0
</event>
<event>
      6   9999  3.45752E-01  2.72227E+01 -1.00000E+00  1.50620E-01
      21    -1     0     0   501   511  0.000000000E+00  0.000000000E+00  1.145621011E+02  1.145621011E+02  0.000000000E+00  0.00000E+00  9.000E+00
      21    -1     0     0   502   503  0.000000000E+00  0.000000000E+00 -8.786489353E+02  8.786489353E+02  0.000000000E+00  0.00000E+00  9.000E+00
      25     1     1     2     0     0  1.327282867E+01  3.996072561E+01 -6.894750110E+02  7.019786571E+02  1.250008663E+02  0.00000E+00  9.000E+00
       5     1     1     2   501     0  9.489539304E-01  5.250545699E+00  9.360529515E+01  9.387748678E+01  4.750000000E+00  0.00000E+00  9.000E+00
      -5     1     1     2     0   503 -4.136560300E+01 -4.314091803E+01 -1.567320217E+02  1.678086441E+02  4.750000000E+00  0.00000E+00  9.000E+00
      21     1     1     2   502   511  2.714382039E+01 -2.070353276E+00 -1.148509669E+01  2.954624840E+01  0.000000000E+00  0.00000E+00  9.000E+00
#rwgt            1           9   7.2365944222272192E-003           8       30363           0
</event>
<event>
      6   9999  3.45752E-01  8.36452E+00 -1.00000E+00  1.95752E-01
      21    -1     0     0   512   502  0.000000000E+00  0.000000000E+00  7.966409532E+01  7.966409532E+01  0.000000000E+00  0.00000E+00  9.000E+00
      21    -1     0     0   502   503  0.000000000E+00  0.000000000E+00 -6.586817965E+02  6.586817965E+02  0.000000000E+00  0.00000E+00  9.000E+00
      25     1     1     2     0     0 -1.214169395E+02  2.947748146E+01 -3.282356292E+02  3.727912074E+02  1.249946437E+02  0.00000E+00  9.000E+00
       5     1     1     2   501     0  2.245487156E+00  4.938984833E+00  2.869874201E+01  2.959081068E+01  4.750000000E+00  0.00000E+00  9.000E+00
      -5     1     1     2     0   503  1.275077025E+02 -3.372931165E+01 -2.922672342E+02  3.206845481E+02  4.750000000E+00  0.00000E+00  9.000E+00
      21     1     1     2   512   501 -8.336250216E+00 -6.871546477E-01  1.278642025E+01  1.527932564E+01  0.000000000E+00  0.00000E+00  9.000E+00
#rwgt            1           9  0.96400711133144645                8       32600           0
</event>
<event>
      6   9999  3.45752E-01  2.15588E+01 -1.00000E+00  1.57762E-01
      21    -1     0     0   511   502  0.000000000E+00  0.000000000E+00  2.039509088E+01  2.039509088E+01  0.000000000E+00  0.00000E+00  9.000E+00
      21    -1     0     0   502   503  0.000000000E+00  0.000000000E+00 -1.138667965E+03  1.138667965E+03  0.000000000E+00  0.00000E+00  9.000E+00
      25     1     1     2     0     0 -9.352040043E+00  4.482811972E+00 -1.021438504E+03  1.029110716E+03  1.249987614E+02  0.00000E+00  9.000E+00
       5     1     1     2   501     0 -1.171685435E+01 -4.396285604E-01  1.012072864E+01  1.620091348E+01  4.750000000E+00  0.00000E+00  9.000E+00
      -5     1     1     2     0   503 -2.671573184E-01 -9.522752447E-01 -7.527729713E+01  7.543349498E+01  4.750000000E+00  0.00000E+00  9.000E+00
      21     1     1     2   511   501  2.133605172E+01 -3.090908167E+00 -3.167780158E+01  3.831793222E+01  3.371747881E-07  0.00000E+00  9.000E+00
#rwgt            1           9   3.7603723554912601E-004           8       37587           0
</event>
<event>
      6   9999 -3.45752E-01  1.04954E+01 -1.00000E+00  1.85009E-01
      21    -1     0     0   512   502  0.000000000E+00  0.000000000E+00  9.304447167E+00  9.304447167E+00  0.000000000E+00  0.00000E+00  9.000E+00
      21    -1     0     0   502   503  0.000000000E+00  0.000000000E+00 -7.714933041E+02  7.714933041E+02  0.000000000E+00  0.00000E+00  9.000E+00
      25     1     1     2     0     0  2.389723263E+00  1.369924354E+01 -5.993676351E+02  6.124211209E+02  1.249987493E+02  0.00000E+00  9.000E+00
       5     1     1     2   501     0 -1.563633857E+01 -4.843355541E+00 -4.457743045E+01  4.772486754E+01  4.750000000E+00  0.00000E+00  9.000E+00
      -5     1     1     2     0   503  2.868549556E+00 -7.291131743E+00 -9.093772206E+01  9.139814534E+01  4.750000000E+00  0.00000E+00  9.000E+00
      21     1     1     2   512   501  1.037806575E+01 -1.564756256E+00 -2.730606934E+01  2.925361744E+01  7.539457465E-07  0.00000E+00  9.000E+00
#rwgt            1           9 -0.15125991518120324                8       39148           0
</event>
<event>
      6   9999 -3.45752E-01  3.47717E+00 -1.00000E+00  2.61154E-01
       1    -1     0     0   501     0  0.000000000E+00  0.000000000E+00  9.119167396E+01  9.119167396E+01  0.000000000E+00  0.00000E+00  9.000E+00
      21    -1     0     0   502   503  0.000000000E+00  0.000000000E+00 -8.750904765E+02  8.750904765E+02  0.000000000E+00  0.00000E+00  9.000E+00
      25     1     1     2     0     0  2.364500167E+01  1.594150748E+01 -7.149210644E+02  7.263259149E+02  1.249959537E+02  0.00000E+00  9.000E+00
       5     1     1     2   501     0  1.933032059E+00 -3.059133692E+00  5.432629081E+00  8.072847739E+00  4.750000000E+00  0.00000E+00  9.000E+00
      -5     1     1     2     0   503 -2.345845122E+01 -1.563883074E+01 -1.517730893E+02  1.544425624E+02  4.750000000E+00  0.00000E+00  9.000E+00
       1     1     1     2   502     0 -2.119582510E+00  2.756456946E+00  7.736272206E+01  7.744082547E+01  3.015782986E-06  0.00000E+00  9.000E+00
#rwgt            1           9  -8.9070748164901593E-006           8       41338           0
</event>
<event>
      6   9999  3.45752E-01  3.61659E+01 -1.00000E+00  1.42772E-01
      21    -1     0     0   501   502  0.000000000E+00  0.000000000E+00  4.286881791E+01  4.286881791E+01  0.000000000E+00  0.00000E+00  9.000E+00
      21    -1     0     0   511   503  0.000000000E+00  0.000000000E+00 -1.684741578E+03  1.684741578E+03  0.000000000E+00  0.00000E+00  9.000E+00
      25     1     1     2     0     0  2.372259965E+01  1.655349658E+01 -1.089738676E+03  1.097265011E+03  1.249933734E+02  0.00000E+00  9.000E+00
       5     1     1     2   501     0  5.571305594E+00  1.266442955E+00  3.787118160E+01  3.859316286E+01  4.750000000E+00  0.00000E+00  9.000E+00
      -5     1     1     2     0   503  4.907848056E+00 -6.063412925E+00 -1.015370824E+02  1.019470134E+02  4.750000000E+00  0.00000E+00  9.000E+00
      21     1     1     2   511   502 -3.420175330E+01 -1.175652661E+01 -4.884681837E+02  4.898052086E+02  5.394796609E-06  0.00000E+00  9.000E+00
#rwgt            1           9   7.6995942127111540E-003           8       46711           0
</event>
<event>
      6   9999  3.45752E-01  7.42746E+00 -1.00000E+00  2.01912E-01
      21    -1     0     0   501   502  0.000000000E+00  0.000000000E+00  2.722762378E+01  2.722762378E+01  0.000000000E+00  0.00000E+00  9.000E+00
      21    -1     0     0   502   512  0.000000000E+00  0.000000000E+00 -1.171293101E+03  1.171293101E+03  0.000000000E+00  0.00000E+00  9.000E+00
      25     1     1     2     0     0 -2.402696502E+01  1.512279151E+01 -1.674683561E+02  2.108870069E+02  1.249867413E+02  0.00000E+00  9.000E+00
       5     1     1     2   501     0  1.288053589E-01 -2.047504498E+00  3.861285775E+00  6.456074142E+00  4.750000000E+00  0.00000E+00  9.000E+00
      -5     1     1     2     0   503  1.844424407E+01 -1.811730710E+01 -8.982052952E+02  8.985898630E+02  4.750000000E+00  0.00000E+00  9.000E+00
      21     1     1     2   503   512  5.453915592E+00  5.042020086E+00 -8.225311204E+01  8.258778119E+01  1.651812370E-06  0.00000E+00  9.000E+00
#rwgt            1           9   1.2172338695234208E-004           8       48224           0
</event>
<event>
      6   9999  3.45752E-01  6.52561E+00 -1.00000E+00  2.09101E-01
      21    -1     0     0   511   502  0.000000000E+00  0.000000000E+00  1.061805236E+03  1.061805236E+03  0.000000000E+00  0.00000E+00  9.000E+00
      21    -1     0     0   502   503  0.000000000E+00  0.000000000E+00 -1.866627331E+03  1.866627331E+03  0.000000000E+00  0.00000E+00  9.000E+00
      25     1     1     2     0     0  7.897426873E+00  5.573244545E+00 -1.718163792E+03  1.722731110E+03  1.249889291E+02  0.00000E+00  9.000E+00
       5     1     1     2   501     0 -9.179390051E-01 -3.430621364E+00 -9.843305059E-01  6.011919952E+00  4.750000000E+00  0.00000E+00  9.000E+00
      -5     1     1     2     0   503 -4.145002763E+00 -8.020491316E+00 -1.424893186E+02  1.428540435E+02  4.750000000E+00  0.00000E+00  9.000E+00
      21     1     1     2   511   501 -2.834485105E+00  5.877868135E+00  1.056815346E+03  1.056835493E+03  1.525878906E-05  0.00000E+00  9.000E+00
#rwgt            1           9  0.57951087215049779                8       52602           0
</event>
<event>
      6   9999  3.45752E-01  4.45023E+00 -1.00000E+00  2.38637E-01
      21    -1     0     0   512   503  0.000000000E+00  0.000000000E+00  7.976905665E+00  7.976905665E+00  0.000000000E+00  0.00000E+00  9.000E+00
      21    -1     0     0   501   502  0.000000000E+00  0.000000000E+00 -6.965301600E+02  6.965301600E+02  0.000000000E+00  0.00000E+00  9.000E+00
      25     1     1     2     0     0  4.433606934E+00  9.310729203E+00 -6.426361167E+02  6.547609514E+02  1.249975140E+02  0.00000E+00  9.000E+00
       5     1     1     2   501     0  1.098002051E-01  6.596725149E-01 -5.630050392E+00  7.396430986E+00  4.750000000E+00  0.00000E+00  9.000E+00
      -5     1     1     2     0   503 -4.203595303E+00 -5.533167171E+00 -2.276370951E+01  2.427004580E+01  4.750000000E+00  0.00000E+00  9.000E+00
      21     1     1     2   512   502 -3.398118359E-01 -4.437234547E+00 -1.752337774E+01  1.807963744E+01  0.000000000E+00  0.00000E+00  9.000E+00
#rwgt            1           9   7.9625629307505274E-005           8       56107           0
</event>
<event>
      6   9999  3.45752E-01  3.40155E+01 -1.00000E+00  1.44394E-01
      21    -1     0     0   511   502  0.000000000E+00  0.000000000E+00  7.808086503E+02  7.808086503E+02  0.000000000E+00  0.00000E+00  9.000E+00
      21    -1     0     0   502   503  0.000000000E+00  0.000000000E+00 -9.484559336E+02  9.484559336E+02  0.000000000E+00  0.00000E+00  9.000E+00
      25     1     1     2     0     0  2.082107101E+01 -8.683218580E+01 -5.663356358E+02  5.868003862E+02  1.250011815E+02  0.00000E+00  9.000E+00
       5     1     1     2   501     0 -1.116961489E+01  5.098642600E+01 -1.650283032E+02  1.731510303E+02  4.750000000E+00  0.00000E+00  9.000E+00
      -5     1     1     2     0   503 -4.223707785E+01  2.608701952E+01 -1.993476871E+02  2.054910368E+02  4.750000000E+00  0.00000E+00  9.000E+00
      21     1     1     2   511   501  3.258562173E+01  9.758740288E+00  7.630643429E+02  7.638221306E+02  0.000000000E+00  0.00000E+00  9.000E+00
#rwgt            1           9   6.8583539977511354E-007           8       59911           0
</event>
<event>
      6   9999  3.45752E-01  3.45587E+01 -1.00000E+00  1.43971E-01
      21    -1     0     0   501   502  0.000000000E+00  0.000000000E+00  1.744484655E+02  1.744484655E+02  0.000000000E+00  0.00000E+00  9.000E+00
      21    -1     0     0   502   512  0.000000000E+00  0.000000000E+00 -5.791703665E+02  5.791703665E+02  0.000000000E+00  0.00000E+00  9.000E+00
      25     1     1     2     0     0  4.312720742E+01  3.718764111E+01 -1.006591207E+02  1.702945120E+02  1.250003423E+02  0.00000E+00  9.000E+00
       5     1     1     2   501     0  2.054424597E+00  1.532352739E+01  1.364041911E+02  1.373597357E+02  4.750000000E+00  0.00000E+00  9.000E+00
      -5     1     1     2     0   503 -2.468037581E+01 -2.469029339E+01 -2.274251472E+02  2.301379838E+02  4.750000000E+00  0.00000E+00  9.000E+00
      21     1     1     2   503   512 -2.050125620E+01 -2.782087510E+01 -2.130418242E+02  2.158266005E+02  0.000000000E+00  0.00000E+00  9.000E+00
#rwgt            1           9   2.5068174701025400E-002           8       61330           0
</event>
<event>
      6   9999  3.45752E-01  1.23210E+01 -1.00000E+00  1.78125E-01
      21    -1     0     0   501   511  0.000000000E+00  0.000000000E+00  1.811907470E+01  1.811907470E+01  0.000000000E+00  0.00000E+00  9.000E+00
      21    -1     0     0   502   503  0.000000000E+00  0.000000000E+00 -9.552487769E+02  9.552487769E+02  0.000000000E+00  0.00000E+00  9.000E+00
      25     1     1     2     0     0  1.702636952E+01 -4.866184738E+00 -9.039532251E+02  9.127306157E+02  1.250286631E+02  0.00000E+00  9.000E+00
       5     1     1     2   501     0 -2.092585934E+00 -6.044140733E-01  6.673859252E+00  8.476268612E+00  4.750000000E+00  0.00000E+00  9.000E+00
      -5     1     1     2     0   503 -1.489751481E+01 -6.850348960E+00 -3.495918573E+01  3.890463205E+01  4.750000000E+00  0.00000E+00  9.000E+00
      21     1     1     2   502   511 -3.626877438E-02  1.232094777E+01 -4.891150579E+00  1.325633522E+01  3.209808354E-07  0.00000E+00  9.000E+00
#rwgt            1           9   7.8800926038560327E-004           8       63544           0
</event>
<event>
      6   9999  3.45752E-01  5.61537E+00 -1.00000E+00  2.18146E-01
      21    -1     0     0   501   502  0.000000000E+00  0.000000000E+00  2.300500235E+01  2.300500235E+01  0.000000000E+00  0.00000E+00  9.000E+00
      21    -1     0     0   512   503  0.000000000E+00  0.000000000E+00 -2.937971898E+03  2.937971898E+03  0.000000000E+00  0.00000E+00  9.000E+00
      25     1     1     2     0     0 -3.686122166E+01 -7.992814602E+01 -1.901810167E+03  1.907944992E+03  1.249996911E+02  0.00000E+00  9.000E+00
       5     1     1     2   501     0  6.487376746E-01  5.737046758E+00  1.722901334E+01  1.878126638E+01  4.750000000E+00  0.00000E+00  9.000E+00
      -5     1     1     2     0   503  4.116733165E+01  7.154877761E+01 -9.941406891E+02  9.975731797E+02  4.750000000E+00  0.00000E+00  9.000E+00
      21     1     1     2   512   502 -4.954847665E+00  2.642321654E+00 -3.624505304E+01  3.667746242E+01  0.000000000E+00  0.00000E+00  9.000E+00
#rwgt            1           9  0.60088365458532444                8       65947           0
</event>
<event>
      6   9999  3.45752E-01  1.41006E+01 -1.00000E+00  1.72732E-01
      21    -1     0     0   502   503  0.000000000E+00  0.000000000E+00  1.464345330E+01  1.464345330E+01  0.000000000E+00  0.00000E+00  9.000E+00
      21    -1     0     0   511   502  0.000000000E+00  0.000000000E+00 -2.228786959E+03  2.228786959E+03  0.000000000E+00  0.00000E+00  9.000E+00
      25     1     1     2     0     0 -1.277258098E+01  1.376669094E+01 -4.432137921E+02  4.608833533E+02  1.249893566E+02  0.00000E+00  9.000E+00
       5     1     1     2   501     0 -1.779607220E+01 -3.665415254E+01 -1.252746232E+03  1.253417692E+03  4.750000000E+00  0.00000E+00  9.000E+00
      -5     1     1     2     0   503  2.465159847E+01  1.008836880E+01 -2.869964507E+01  3.944247228E+01  4.750000000E+00  0.00000E+00  9.000E+00
      21     1     1     2   511   501  5.917054710E+00  1.279909280E+01 -4.894838366E+02  4.896868945E+02  5.394796609E-06  0.00000E+00  9.000E+00
#rwgt            1           9  0.32137086538049436                8       71223           0
</event>
<event>
      6   9999  3.45752E-01  1.39399E+01 -1.00000E+00  1.73177E-01
      21    -1     0     0   501   502  0.000000000E+00  0.000000000E+00  1.616722163E+01  1.616722163E+01  0.000000000E+00  0.00000E+00  9.000E+00
      21    -1     0     0   512   503  0.000000000E+00  0.000000000E+00 -1.025786074E+03  1.025786074E+03  0.000000000E+00  0.00000E+00  9.000E+00
      25     1     1     2     0     0  5.087243749E+01 -4.444838833E+01 -5.459244426E+02  5.641153409E+02  1.250158258E+02  0.00000E+00  9.000E+00
       5     1     1     2   501     0 -6.764087633E+01  4.584171740E+01 -2.621408084E+02  2.746217711E+02  4.750000000E+00  0.00000E+00  9.000E+00
      -5     1     1     2     0   503  3.086191885E+00 -4.061314619E+00 -2.102572613E+01  2.215090328E+01  4.750000000E+00  0.00000E+00  9.000E+00
      21     1     1     2   512   502  1.368224695E+01  2.667985552E+00 -1.805278753E+02  1.810652805E+02  2.697398305E-06  0.00000E+00  9.000E+00
#rwgt            1           9   3.9268810302519698E-002           8       73606           0
</event>
<event>
      6   9999  3.45752E-01  1.24317E+01 -1.00000E+00  1.77757E-01
      21    -1     0     0   501   511  0.000000000E+00  0.000000000E+00  3.973180194E+01  3.973180194E+01  0.000000000E+00  0.00000E+00  9.000E+00
      21    -1     0     0   502   503  0.000000000E+00  0.000000000E+00 -7.630666178E+02  7.630666178E+02  0.000000000E+00  0.00000E+00  9.000E+00
      25     1     1     2     0     0 -1.698756198E+01 -4.171823628E+01 -5.933531312E+02  6.080473871E+02  1.249987926E+02  0.00000E+00  9.000E+00
       5     1     1     2   501     0  3.003943248E+01  3.591561016E+01 -1.334100674E+02  1.414676894E+02  4.750000000E+00  0.00000E+00  9.000E+00
      -5     1     1     2     0   503 -1.010097377E+00  2.713478883E+00 -2.322041502E+01  2.387746717E+01  4.750000000E+00  0.00000E+00  9.000E+00
      21     1     1     2   502   511 -1.204177312E+01  3.089147227E+00  2.664879773E+01  2.940587613E+01  1.066240300E-06  0.00000E+00  9.000E+00
#rwgt            1           9   1.7479727007018020E-004           8       75825           0
</event>
<event>
      6   9999  3.45752E-01  3.28075E+00 -1.00000E+00  2.67130E-01
      21    -1     0     0   512   502  0.000000000E+00  0.000000000E+00  3.403607490E+01  3.403607490E+01  0.000000000E+00  0.00000E+00  9.000E+00
      21    -1     0     0   502   503  0.000000000E+00  0.000000000E+00 -1.068780020E+03  1.068780020E+03  0.000000000E+00  0.00000E+00  9.000E+00
      25     1     1     2     0     0  8.654118084E+00  7.422414672E+00 -9.849904288E+02  9.929538377E+02  1.249847705E+02  0.00000E+00  9.000E+00
       5     1     1     2   501     0 -5.386991860E+00 -1.345910021E+00  1.435279351E+01  1.610578581E+01  4.750000000E+00  0.00000E+00  9.000E+00
      -5     1     1     2     0   503 -1.371118758E-01 -7.059513975E+00 -7.851711917E+01  7.897693359E+01  4.750000000E+00  0.00000E+00  9.000E+00
      21     1     1     2   512   501 -3.130014348E+00  9.830093242E-01  1.441080963E+01  1.477953759E+01  1.143415337E-06  0.00000E+00  9.000E+00
#rwgt            1           9   3.2575112215548239E-004           8       77688           0
</event>
<event>
      6   9999 -3.45752E-01  3.89104E+00 -1.00000E+00  2.50359E-01
      21    -1     0     0   502   503  0.000000000E+00  0.000000000E+00  1.102923033E+01  1.102923033E+01  0.000000000E+00  0.00000E+00  9.000E+00
       2    -1     0     0   501     0  0.000000000E+00  0.000000000E+00 -1.410548968E+03  1.410548968E+03  0.000000000E+00  0.00000E+00  9.000E+00
      25     1     1     2     0     0  3.420747508E+00 -1.538211473E+01 -6.693650917E+02  6.811188448E+02  1.249997750E+02  0.00000E+00  9.000E+00
       5     1     1     2   501     0 -2.096354721E+01  4.428096102E-01 -1.057769394E+02  1.079397508E+02  4.750000000E+00  0.00000E+00  9.000E+00
      -5     1     1     2     0   503  1.903374237E+01  1.134524706E+01 -2.752273637E+01  3.565194941E+01  4.750000000E+00  0.00000E+00  9.000E+00
       2     1     1     2   502     0 -1.490942669E+00  3.594058064E+00 -5.968549697E+02  5.968676529E+02  7.629394531E-06  0.00000E+00  9.000E+00
#rwgt            1           9 -0.39981916197718154                8       84768           0
</event>
<event>
      6   9999  3.45752E-01  5.97061E+00 -1.00000E+00  2.14355E-01
      21    -1     0     0   501   502  0.000000000E+00  0.000000000E+00  4.243739361E+01  4.243739361E+01  0.000000000E+00  0.00000E+00  9.000E+00
      21    -1     0     0   502   511  0.000000000E+00  0.000000000E+00 -1.655753925E+03  1.655753925E+03  0.000000000E+00  0.00000E+00  9.000E+00
      25     1     1     2     0     0  6.620847815E+00 -6.643151660E+00 -1.031322527E+02  1.623496655E+02  1.250327367E+02  0.00000E+00  9.000E+00
       5     1     1     2   501     0 -7.353829593E-01 -8.688744814E-01  6.631156386E+00  8.235925326E+00  4.750000000E+00  0.00000E+00  9.000E+00
      -5     1     1     2     0   503 -7.654483429E+00  1.809500162E+00  1.472799728E+00  9.305753406E+00  4.750000000E+00  0.00000E+00  9.000E+00
      21     1     1     2   503   511  1.769018574E+00  5.702525980E+00 -1.518288235E+03  1.518299975E+03  3.051757812E-05  0.00000E+00  9.000E+00
#rwgt            1           9   5.5678734071027310E-005           8       90048           0
</event>
<event>
      6   9999  3.45752E-01  4.02259E+01 -1.00000E+00  1.40044E-01
      21    -1     0     0   501   512  0.000000000E+00  0.000000000E+00  4.398526281E+01  4.398526281E+01  0.000000000E+00  0.00000E+00  9.000E+00
      21    -1     0     0   502   503  0.000000000E+00  0.000000000E+00 -1.038758039E+03  1.038758039E+03  0.000000000E+00  0.00000E+00  9.000E+00
      25     1     1     2     0     0  1.313731567E+01  7.728337252E+01 -8.362441211E+02  8.491609092E+02  1.249988441E+02  0.00000E+00  9.000E+00
       5     1     1     2   501     0  3.317194727E+01 -3.773720835E+01 -8.539606064E+01  9.919437813E+01  4.750000000E+00  0.00000E+00  9.000E+00
      -5     1     1     2     0   503 -7.305579722E+00 -2.970557770E+01 -8.660049951E+01  9.196739562E+01  4.750000000E+00  0.00000E+00  9.000E+00
      21     1     1     2   502   512 -3.900368322E+01 -9.840586474E+00  1.346790493E+01  4.242061892E+01  9.536743164E-07  0.00000E+00  9.000E+00
#rwgt            1           9   4.8898048284622200E-003           8       93350           0
</event>
<event>
      6   9999 -3.45752E-01  3.51741E+01 -1.00000E+00  1.43503E-01
      21    -1     0     0   501   502  0.000000000E+00  0.000000000E+00  1.555941703E+01  1.555941703E+01  0.000000000E+00  0.00000E+00  9.000E+00
      21    -1     0     0   511   503  0.000000000E+00  0.000000000E+00 -1.684539483E+03  1.684539483E+03  0.000000000E+00  0.00000E+00  9.000E+00
      25     1     1     2     0     0  1.771300268E+01 -2.502059541E+01 -1.450221521E+03  1.455921525E+03  1.250009752E+02  0.00000E+00  9.000E+00
       5     1     1     2   501     0  7.200865062E-01 -6.381026345E+00  6.962519993E+00  1.059599955E+01  4.750000000E+00  0.00000E+00  9.000E+00
      -5     1     1     2     0   503 -1.172708594E+01 -3.127292670E+00 -1.468695993E+01  1.963603310E+01  4.750000000E+00  0.00000E+00  9.000E+00
      21     1     1     2   511   502 -6.706003240E+00  3.452891442E+01 -2.110341048E+02  2.139453430E+02  2.697398305E-06  0.00000E+00  9.000E+00
#rwgt            1           9  -4.9781492285227427E-004           8       94477           0
</event>
<event>
      6   9999 -3.45752E-01  1.06212E+01 -1.00000E+00  1.84478E-01
      21    -1     0     0   501   512  0.000000000E+00  0.000000000E+00  2.058257849E+01  2.058257849E+01  0.000000000E+00  0.00000E+00  9.000E+00
      21    -1     0     0   502   503  0.000000000E+00  0.000000000E+00 -8.279557474E+02  8.279557474E+02  0.000000000E+00  0.00000E+00  9.000E+00
      25     1     1     2     0     0 -1.613312820E+01  8.501002752E+00 -3.365476637E+02  3.594743195E+02  1.249996463E+02  0.00000E+00  9.000E+00
       5     1     1     2   501     0  2.226926405E-01  1.089131608E+00 -3.037536135E+00  5.746731719E+00  4.750000000E+00  0.00000E+00  9.000E+00
      -5     1     1     2     0   503  1.789856593E+01  8.433613013E-01 -4.716511519E+02  4.720152980E+02  4.750000000E+00  0.00000E+00  9.000E+00
      21     1     1     2   502   512 -1.988130377E+00 -1.043349566E+01  3.863182883E+00  1.130197665E+01  1.576990671E-07  0.00000E+00  9.000E+00
#rwgt            1           9  -9.5523094451112323E-004           8       95820           0
</event>
<event>
      6   9999  3.45752E-01  2.87028E+01 -1.00000E+00  1.49091E-01
      21    -1     0     0   501   502  0.000000000E+00  0.000000000E+00  3.546286110E+03  3.546286110E+03  0.000000000E+00  0.00000E+00  9.000E+00
      21    -1     0     0   502   511  0.000000000E+00  0.000000000E+00 -1.652155712E+01  1.652155712E+01  0.000000000E+00  0.00000E+00  9.000E+00
      25     1     1     2     0     0  1.189155661E+00 -1.633848200E+01  4.444519891E+02  4.619857161E+02  1.249994847E+02  0.00000E+00  9.000E+00
       5     1     1     2   501     0  2.463495065E+00  3.342984837E+00  2.920152953E+03  2.920159769E+03  4.750000000E+00  0.00000E+00  9.000E+00
      -5     1     1     2     0   503  2.209580512E+01  2.567888175E+01  1.339997829E+02  1.382972664E+02  4.750000000E+00  0.00000E+00  9.000E+00
      21     1     1     2   503   511 -2.574845584E+01 -1.268338459E+01  3.115982829E+01  4.236491617E+01  2.261837239E-06  0.00000E+00  9.000E+00
#rwgt            1           9   3.1186858133682306E-002           8       98576           0
</event>
<event>
      6   9999  3.45752E-01  8.39602E+00 -1.00000E+00  1.95563E-01
      21    -1     0     0   501   502  0.000000000E+00  0.000000000E+00  7.252652416E+02  7.252652416E+02  0.000000000E+00  0.00000E+00  9.000E+00
      21    -1     0     0   512   503  0.000000000E+00  0.000000000E+00 -7.618857414E+01  7.618857414E+01  0.000000000E+00  0.00000E+00  9.000E+00
      25     1     1     2     0     0 -3.016153290E+01  6.567582435E+01  3.382592705E+02  3.677896114E+02  1.250073285E+02  0.00000E+00  9.000E+00
       5     1     1     2   501     0 -2.339286594E+00 -2.280708930E+00  3.446132826E+02  3.446615019E+02  4.750000000E+00  0.00000E+00  9.000E+00
      -5     1     1     2     0   503  3.964342805E+01 -5.898191246E+01 -2.204163747E+01  7.455778744E+01  4.750000000E+00  0.00000E+00  9.000E+00
      21     1     1     2   512   502 -7.142608553E+00 -4.413202953E+00 -1.175424820E+01  1.444491495E+01  1.685873940E-07  0.00000E+00  9.000E+00
#rwgt            1           9   2.3270358914557435E-004           8      101639           0
</event>
<event>
      6   9999  3.45752E-01  1.84464E+02 -1.00000E+00  1.10123E-01
       2    -1     0     0   501     0  0.000000000E+00  0.000000000E+00  2.661933640E+02  2.661933640E+02  0.000000000E+00  0.00000E+00  9.000E+00
      21    -1     0     0   511   502  0.000000000E+00  0.000000000E+00 -2.870674344E+02  2.870674344E+02  0.000000000E+00  0.00000E+00  9.000E+00
      25     1     1     2     0     0  6.350914029E+00 -1.716389589E+02 -1.882832106E+02  2.838637451E+02  1.250111677E+02  0.00000E+00  9.000E+00
       5     1     1     2   501     0  1.446839098E-01 -7.402741609E+00 -3.490491284E+00  9.464013216E+00  4.750000000E+00  0.00000E+00  9.000E+00
      -5     1     1     2     0   502 -2.643079422E+00 -5.381710885E+00 -1.092055082E+00  7.726821156E+00  4.750000000E+00  0.00000E+00  9.000E+00
       2     1     1     2   511     0 -3.852518517E+00  1.844234114E+02  1.719916866E+02  2.522062189E+02  1.907348633E-06  0.00000E+00  9.000E+00
#rwgt            1           4   4.4269526982930610E-006           8      105586           0
</event>
<event>
      6   9999  3.45752E-01  4.77309E+00 -1.00000E+00  2.32968E-01
      21    -1     0     0   501   512  0.000000000E+00  0.000000000E+00  1.082207770E+02  1.082207770E+02  0.000000000E+00  0.00000E+00  9.000E+00
      21    -1     0     0   502   503  0.000000000E+00  0.000000000E+00 -8.192117903E+02  8.192117903E+02  0.000000000E+00  0.00000E+00  9.000E+00
      25     1     1     2     0     0 -2.661524402E+00  5.315063402E-01 -8.038904010E+02  8.135557820E+02  1.250034693E+02  0.00000E+00  9.000E+00
       5     1     1     2   501     0  2.529966237E-01 -2.130800557E-01 -4.090327158E+00  6.277155937E+00  4.750000000E+00  0.00000E+00  9.000E+00
      -5     1     1     2     0   503 -1.742281214E+00 -2.674949550E+00 -3.688260251E+00  6.808572729E+00  4.750000000E+00  0.00000E+00  9.000E+00
      21     1     1     2   502   512  4.150808992E+00  2.356523266E+00  1.006779752E+02  1.007910567E+02  3.015782986E-06  0.00000E+00  9.000E+00
#rwgt            1           9   5.7053888400241900E-004           8      105659           0
</event>
<event>
      6   9999  3.45752E-01  1.34596E+01 -1.00000E+00  1.74553E-01
      21    -1     0     0   501   511  0.000000000E+00  0.000000000E+00  1.627466840E+03  1.627466840E+03  0.000000000E+00  0.00000E+00  9.000E+00
      21    -1     0     0   502   503  0.000000000E+00  0.000000000E+00 -5.806239065E+00  5.806239065E+00  0.000000000E+00  0.00000E+00  9.000E+00
      25     1     1     2     0     0  1.342091694E+01  1.423411700E+01  8.253113878E+02  8.349532849E+02  1.250014797E+02  0.00000E+00  9.000E+00
       5     1     1     2   501     0  5.715607796E-01  1.315849384E+00  6.050478902E+02  6.050682359E+02  4.750000000E+00  0.00000E+00  9.000E+00
      -5     1     1     2     0   503 -1.883644404E+00 -9.673113017E+00  4.411948351E+01  4.545556684E+01  4.750000000E+00  0.00000E+00  9.000E+00
      21     1     1     2   502   511 -1.210883331E+01 -5.876853368E+00  1.471818393E+02  1.477959914E+02  0.000000000E+00  0.00000E+00  9.000E+00
#rwgt            1           9   3.4894115069052415E-004           8      109985           0
</event>
<event>
      6   9999  3.45752E-01  3.80447E+01 -1.00000E+00  1.41460E-01
      21    -1     0     0   501   512  0.000000000E+00  0.000000000E+00  1.985038042E+01  1.985038042E+01  0.000000000E+00  0.00000E+00  9.000E+00
      21    -1     0     0   502   503  0.000000000E+00  0.000000000E+00 -3.613766931E+03  3.613766931E+03  0.000000000E+00  0.00000E+00  9.000E+00
      25     1     1     2     0     0 -2.265429982E+01 -5.404703090E+01 -3.208493498E+03  3.211462001E+03  1.249934417E+02  0.00000E+00  9.000E+00
       5     1     1     2   501     0 -3.381648583E+00 -3.175512188E+00 -8.704092440E+00  1.094728962E+01  4.750000000E+00  0.00000E+00  9.000E+00
      -5     1     1     2     0   503 -2.714426499E+00  3.230637445E+01 -3.713424866E+02  3.727852932E+02  4.750000000E+00  0.00000E+00  9.000E+00
      21     1     1     2   502   512  2.875037491E+01  2.491616863E+01 -5.376473707E+00  3.842272747E+01  2.241324863E-06  0.00000E+00  9.000E+00
#rwgt            1           9   3.2901258469788153E-003           8      112050           0
</event>
<event>
      6   9999  3.45752E-01  3.23772E+02 -1.00000E+00  1.02115E-01
      21    -1     0     0   511   502  0.000000000E+00  0.000000000E+00  6.856658177E+02  6.856658177E+02  0.000000000E+00  0.00000E+00  9.000E+00
       1    -1     0     0   501     0  0.000000000E+00  0.000000000E+00 -2.800768525E+03  2.800768525E+03  0.000000000E+00  0.00000E+00  9.000E+00
      25     1     1     2     0     0 -3.344173729E+01  2.784827616E+02  2.470375737E+02  3.941116937E+02  1.250018637E+02  0.00000E+00  9.000E+00
       5     1     1     2   501     0 -9.918955916E+01  4.064367157E+01  2.812548991E+02  3.010271706E+02  4.750000000E+00  0.00000E+00  9.000E+00
      -5     1     1     2     0   502 -1.123867976E+01 -2.907460855E+01  6.042604387E+01  6.815797871E+01  4.750000000E+00  0.00000E+00  9.000E+00
       1     1     1     2   511     0  1.438699762E+02 -2.900518247E+02 -2.703821224E+03  2.723137499E+03  5.285799584E-05  0.00000E+00  9.000E+00
#rwgt            1           1   1.1060348068465721E-003           8      112800           0
</event>
<event>
      6   9999  3.45752E-01  1.13366E+01 -1.00000E+00  1.81632E-01
      21    -1     0     0   501   502  0.000000000E+00  0.000000000E+00  1.040817134E+02  1.040817134E+02  0.000000000E+00  0.00000E+00  9.000E+00
      21    -1     0     0   502   512  0.000000000E+00  0.000000000E+00 -4.244303005E+02  4.244303005E+02  0.000000000E+00  0.00000E+00  9.000E+00
      25     1     1     2     0     0  1.263071815E+01 -1.161350109E+01 -3.809259409E+02  4.012784900E+02  1.250017826E+02  0.00000E+00  9.000E+00
       5     1     1     2   501     0 -3.557463486E+00  2.837335297E+00  9.029814099E+01  9.053741097E+01  4.750000000E+00  0.00000E+00  9.000E+00
      -5     1     1     2     0   503 -6.329531275E+00 -2.223408980E+00 -5.322721303E+00  9.792873722E+00  4.750000000E+00  0.00000E+00  9.000E+00
      21     1     1     2   503   512 -2.743723388E+00  1.099957478E+01 -2.439806580E+01  2.690323918E+01  3.371747881E-07  0.00000E+00  9.000E+00
#rwgt            1           9   1.6320206118460904E-003           8      112855           0
</event>
<event>
      6   9999 -3.45752E-01  1.49817E+01 -1.00000E+00  1.70417E-01
      21    -1     0     0   511   503  0.000000000E+00  0.000000000E+00  1.034311923E+02  1.034311923E+02  0.000000000E+00  0.00000E+00  9.000E+00
      21    -1     0     0   501   502  0.000000000E+00  0.000000000E+00 -2.369457599E+03  2.369457599E+03  0.000000000E+00  0.00000E+00  9.000E+00
      25     1     1     2     0     0  3.921740047E+01  4.433949947E+01 -2.843328191E+02  3.161867819E+02  1.249997333E+02  0.00000E+00  9.000E+00
       5     1     1     2   501     0 -3.055427746E+00  3.096769793E+00 -1.437657026E+03  1.437671455E+03  4.750000000E+00  0.00000E+00  9.000E+00
      -5     1     1     2     0   503 -2.318480973E+01 -5.492253893E+01 -6.294643931E+02  6.322989841E+02  4.750000000E+00  0.00000E+00  9.000E+00
      21     1     1     2   511   502 -1.297716300E+01  7.486269668E+00  8.542783116E+01  8.673157055E+01  3.693564745E-06  0.00000E+00  9.000E+00
#rwgt            1           9  -2.8480430266936826E-003           8      116412           0
</event>
<event>
      6   9999 -3.45752E-01  2.48399E+01 -1.00000E+00  1.53344E-01
      21    -1     0     0   501   502  0.000000000E+00  0.000000000E+00  1.883139181E+01  1.883139181E+01  0.000000000E+00  0.00000E+00  9.000E+00
      21    -1     0     0   502   512  0.000000000E+00  0.000000000E+00 -1.102917193E+03  1.102917193E+03  0.000000000E+00  0.00000E+00  9.000E+00
      25     1     1     2     0     0 -7.668331919E+01 -4.223093573E+01 -5.378903761E+02  5.591193994E+02  1.249986505E+02  0.00000E+00  9.000E+00
       5     1     1     2   501     0  1.858607025E+01 -2.114822460E+01 -4.218484235E+01  5.093930540E+01  4.750000000E+00  0.00000E+00  9.000E+00
      -5     1     1     2     0   503  3.647119480E+01  5.115897168E+01 -3.365782749E+02  3.424250079E+02  4.750000000E+00  0.00000E+00  9.000E+00
      21     1     1     2   503   512  2.162605415E+01  1.222018866E+01 -1.674323083E+02  1.692648725E+02  1.907348633E-06  0.00000E+00  9.000E+00
#rwgt            1           9  -3.4314280270951306E-002           8      119406           0
</event>
<event>
      6   9999  3.45752E-01  1.41700E+02 -1.00000E+00  1.14335E-01
      21    -1     0     0   501   511  0.000000000E+00  0.000000000E+00  3.082659304E+02  3.082659304E+02  0.000000000E+00  0.00000E+00  9.000E+00
      21    -1     0     0   502   503  0.000000000E+00  0.000000000E+00 -1.316596778E+03  1.316596778E+03  0.000000000E+00  0.00000E+00  9.000E+00
      25     1     1     2     0     0  2.909408212E+01 -2.789118177E+02 -8.461023855E+02  9.000855216E+02  1.250057271E+02  0.00000E+00  9.000E+00
       5     1     1     2   501     0 -1.052400921E+01  7.146716557E+00 -2.455810678E+01  2.806231345E+01  4.750000000E+00  0.00000E+00  9.000E+00
      -5     1     1     2     0   503 -2.927106859E+01  1.304697222E+02 -3.872514515E+02  4.097137941E+02  4.750000000E+00  0.00000E+00  9.000E+00
      21     1     1     2   502   511  1.070099568E+01  1.412953789E+02  2.495810966E+02  2.870010788E+02  6.607249480E-06  0.00000E+00  9.000E+00
#rwgt            1           9   1.8167137314743557E-002           8      120772           0
</event>
<event>
      6   9999  3.45752E-01  2.68373E+01 -1.00000E+00  1.51037E-01
      21    -1     0     0   501   502  0.000000000E+00  0.000000000E+00  3.958242994E+03  3.958242994E+03  0.000000000E+00  0.00000E+00  9.000E+00
      21    -1     0     0   502   512  0.000000000E+00  0.000000000E+00 -6.358316404E+00  6.358316404E+00  0.000000000E+00  0.00000E+00  9.000E+00
      25     1     1     2     0     0 -1.070735419E+01  1.891679546E+01  2.285847995E+03  2.289366341E+03  1.249987753E+02  0.00000E+00  9.000E+00
       5     1     1     2   501     0  1.671631308E+00  5.472618501E+00  1.250226368E+03  1.250248486E+03  4.750000000E+00  0.00000E+00  9.000E+00
      -5     1     1     2     0   503  1.556774455E+01  1.640852277E+00  3.794090628E+02  3.797615654E+02  4.750000000E+00  0.00000E+00  9.000E+00
      21     1     1     2   503   512 -6.532021665E+00 -2.603026624E+01  3.640125207E+01  4.522491813E+01  1.066240300E-06  0.00000E+00  9.000E+00
#rwgt            1           9   1.0416939446275749E-003           8      121285           0
</event>
<event>
      6   9999 -3.45752E-01  1.01694E+01 -1.00000E+00  1.86429E-01
      21    -1     0     0   502   503  0.000000000E+00  0.000000000E+00  4.279394889E+01  4.279394889E+01  0.000000000E+00  0.00000E+00  9.000E+00
      21    -1     0     0   511   502  0.000000000E+00  0.000000000E+00 -3.664354859E+02  3.664354859E+02  0.000000000E+00  0.00000E+00  9.000E+00
      25     1     1     2     0     0  3.538837193E+00  6.030388865E+00 -3.301686687E+02  3.531072037E+02  1.249978342E+02  0.00000E+00  9.000E+00
       5     1     1     2   501     0  4.593287560E-01 -3.466506510E-01  4.436336658E+00  6.524931611E+00  4.750000000E+00  0.00000E+00  9.000E+00
      -5     1     1     2     0   503  5.923680635E+00 -3.453662474E+00  2.401876160E+01  2.542599429E+01  4.750000000E+00  0.00000E+00  9.000E+00
      21     1     1     2   511   501 -9.921846584E+00 -2.230075740E+00 -2.192796658E+01  2.417130521E+01  2.384185791E-07  0.00000E+00  9.000E+00
#rwgt            1           9  -2.8619808911319513                8      122144           0
</event>
<event>
      6   9999  3.45752E-01  2.25271E+01 -1.00000E+00  1.56364E-01
      21    -1     0     0   501   502  0.000000000E+00  0.000000000E+00  2.459496230E+02  2.459496230E+02  0.000000000E+00  0.00000E+00  9.000E+00
      21    -1     0     0   512   503  0.000000000E+00  0.000000000E+00 -2.236657474E+03  2.236657474E+03  0.000000000E+00  0.00000E+00  9.000E+00
      25     1     1     2     0     0 -1.031797861E+02  4.129686544E+01 -1.229257674E+02  2.075737650E+02  1.249984970E+02  0.00000E+00  9.000E+00
       5     1     1     2   501     0 -2.319512488E+00 -2.212484003E+01  1.999151478E+02  2.012051627E+02  4.750000000E+00  0.00000E+00  9.000E+00
      -5     1     1     2     0   503  1.100348222E+02  2.893780589E+00 -1.986814549E+03  1.989866994E+03  4.750000000E+00  0.00000E+00  9.000E+00
      21     1     1     2   512   502 -4.535523597E+00 -2.206580599E+01 -8.088268179E+01  8.396117544E+01  1.907348633E-06  0.00000E+00  9.000E+00
#rwgt            1           9   5.2940032041375085E-005           8      124693           0
</event>
<event>
      6   9999  3.45752E-01  1.33214E+01 -1.00000E+00  1.74963E-01
      21    -1     0     0   511   502  0.000000000E+00  0.000000000E+00  9.996454505E+01  9.996454505E+01  0.000000000E+00  0.00000E+00  9.000E+00
      21    -1     0     0   502   503  0.000000000E+00  0.000000000E+00 -4.258793881E+02  4.258793881E+02  0.000000000E+00  0.00000E+00  9.000E+00
      25     1     1     2     0     0  1.563118816E+02 -7.097960586E+00 -1.240920599E+02  2.356010645E+02  1.250009475E+02  0.00000E+00  9.000E+00
       5     1     1     2   501     0 -6.380494149E-01  1.080188087E+00  6.447607968E+00  8.106050942E+00  4.750000000E+00  0.00000E+00  9.000E+00
      -5     1     1     2     0   503 -1.663469594E+02  1.398926037E+01 -2.104258291E+02  2.686421456E+02  4.750000000E+00  0.00000E+00  9.000E+00
      21     1     1     2   511   501  1.067312718E+01 -7.971487875E+00  2.155438021E+00  1.349467212E+01  3.291774099E-07  0.00000E+00  9.000E+00
#rwgt            1           9   3.2205287456976606E-003           8      128274           0
</event>
<event>
      6   9999  3.45752E-01  1.76664E+01 -1.00000E+00  1.64435E-01
      21    -1     0     0   512   503  0.000000000E+00  0.000000000E+00  2.622369154E+02  2.622369154E+02  0.000000000E+00  0.00000E+00  9.000E+00
      21    -1     0     0   501   502  0.000000000E+00  0.000000000E+00 -1.523551947E+02  1.523551947E+02  0.000000000E+00  0.00000E+00  9.000E+00
      25     1     1     2     0     0  2.008815746E+00  1.055454030E+00 -8.741373210E+01  1.525479197E+02  1.249982317E+02  0.00000E+00  9.000E+00
       5     1     1     2   501     0 -2.350552712E+00 -1.181847057E+00 -1.061040679E+01  1.191910621E+01  4.750000000E+00  0.00000E+00  9.000E+00
      -5     1     1     2     0   503  6.424860414E+00 -1.645963849E+01 -1.673203299E+01  2.479358704E+01  4.750000000E+00  0.00000E+00  9.000E+00
      21     1     1     2   512   502 -6.083123449E+00  1.658603152E+01  2.246378925E+02  2.253314971E+02  0.000000000E+00  0.00000E+00  9.000E+00
#rwgt            1           9  0.45075783374134137                8      131427           0
</event>
<event>
      6   9999  3.45752E-01  1.03146E+01 -1.00000E+00  1.85788E-01
      21    -1     0     0   511   502  0.000000000E+00  0.000000000E+00  1.053308035E+02  1.053308035E+02  0.000000000E+00  0.00000E+00  9.000E+00
      21    -1     0     0   502   503  0.000000000E+00  0.000000000E+00 -1.103786084E+03  1.103786084E+03  0.000000000E+00  0.00000E+00  9.000E+00
      25     1     1     2     0     0  1.532365586E+01  8.321563846E+00 -9.817756925E+02  9.898546729E+02  1.249988011E+02  0.00000E+00  9.000E+00
       5     1     1     2   501     0 -1.988104661E+01  5.952945163E+00  8.638886958E+01  8.897355145E+01  4.750000000E+00  0.00000E+00  9.000E+00
      -5     1     1     2     0   503 -5.346979020E+00 -1.139466904E+01 -1.142713551E+02  1.150605656E+02  4.750000000E+00  0.00000E+00  9.000E+00
      21     1     1     2   511   501  9.904369762E+00 -2.879839971E+00  1.120289798E+01  1.522809712E+01  0.000000000E+00  0.00000E+00  9.000E+00
#rwgt            1           9   1.7461961048768806E-004           8      132894           0
</event>
<event>
      6   9999  3.45752E-01  8.86158E+00 -1.00000E+00  1.92898E-01
      21    -1     0     0   512   503  0.000000000E+00  0.000000000E+00  1.523296721E+03  1.523296721E+03  0.000000000E+00  0.00000E+00  9.000E+00
      21    -1     0     0   501   502  0.000000000E+00  0.000000000E+00 -1.052917410E+01  1.052917410E+01  0.000000000E+00  0.00000E+00  9.000E+00
      25     1     1     2     0     0  1.338490337E+01 -1.576162656E+01  5.083252692E+02  5.238791446E+02  1.250087773E+02  0.00000E+00  9.000E+00
       5     1     1     2   501     0  2.301291955E+00  1.812512783E+00  2.413240485E+00  6.080080336E+00  4.750000000E+00  0.00000E+00  9.000E+00
      -5     1     1     2     0   503 -2.182307108E+01  2.034179178E+01  2.547234868E+02  2.565085811E+02  4.750000000E+00  0.00000E+00  9.000E+00
      21     1     1     2   512   502  6.136875762E+00 -6.392678011E+00  7.473055504E+02  7.473580890E+02  1.078959322E-05  0.00000E+00  9.000E+00
#rwgt            1           9   1.1204067662401791                8      137219           0
</event>
<event>
      6   9999  3.45752E-01  7.03683E+00 -1.00000E+00  2.04848E-01
      -2    -1     0     0     0   502  0.000000000E+00  0.000000000E+00  2.170668937E+02  2.170668937E+02  0.000000000E+00  0.00000E+00  9.000E+00
      21    -1     0     0   502   503  0.000000000E+00  0.000000000E+00 -2.484194795E+03  2.484194795E+03  0.000000000E+00  0.00000E+00  9.000E+00
      25     1     1     2     0     0  4.249762810E+00  5.500770277E+00 -2.290845687E+03  2.294263922E+03  1.249986613E+02  0.00000E+00  9.000E+00
       5     1     1     2   501     0 -3.204201613E-01  4.909625834E-01 -7.168489309E+00  8.619364960E+00  4.750000000E+00  0.00000E+00  9.000E+00
      -5     1     1     2     0   503  4.647438220E-01 -4.954621195E-01 -1.836570423E+02  1.837197136E+02  4.750000000E+00  0.00000E+00  9.000E+00
      -2     1     1     2     0   501 -4.394086471E+00 -5.496270741E+00  2.145433176E+02  2.146586875E+02  3.814697266E-06  0.00000E+00  9.000E+00
#rwgt            1           9   1.7181809157991487E-003           8      140452           0
</event>
<event>
      6   9999  3.45752E-01  7.84153E+01 -1.00000E+00  1.25100E-01
      21    -1     0     0   502   511  0.000000000E+00  0.000000000E+00  1.327663110E+02  1.327663110E+02  0.000000000E+00  0.00000E+00  9.000E+00
      21    -1     0     0   501   502  0.000000000E+00  0.000000000E+00 -9.901785544E+02  9.901785544E+02  0.000000000E+00  0.00000E+00  9.000E+00
      25     1     1     2     0     0 -3.759404241E+01 -2.055879186E+01 -3.332524343E+02  3.584986175E+02  1.250123908E+02  0.00000E+00  9.000E+00
       5     1     1     2   501     0 -6.350038915E+01 -3.516127278E+01 -4.700541647E+02  4.756491299E+02  4.750000000E+00  0.00000E+00  9.000E+00
      -5     1     1     2     0   503  3.251484136E+01  1.769637113E+01 -1.558980755E+02  1.603033029E+02  4.750000000E+00  0.00000E+00  9.000E+00
      21     1     1     2   503   511  6.857959019E+01  3.802369351E+01  1.017924312E+02  1.284938150E+02  3.015782986E-06  0.00000E+00  9.000E+00
#rwgt            1           9   2.1997407407635672E-002           8      143790           0
</event>
<event>
      6   9999  3.45752E-01  2.62643E+01 -1.00000E+00  1.51674E-01
      21    -1     0     0   501   502  0.000000000E+00  0.000000000E+00  5.093275903E+00  5.093275903E+00  0.000000000E+00  0.00000E+00  9.000E+00
      21    -1     0     0   502   512  0.000000000E+00  0.000000000E+00 -2.046856616E+03  2.046856616E+03  0.000000000E+00  0.00000E+00  9.000E+00
      25     1     1     2     0     0 -2.527186857E+01  4.070701163E+01 -1.055169967E+03  1.063628228E+03  1.250024748E+02  0.00000E+00  9.000E+00
       5     1     1     2   501     0 -2.763457375E+00 -1.700869406E+00 -1.409922271E+02  1.411095329E+02  4.750000000E+00  0.00000E+00  9.000E+00
      -5     1     1     2     0   503  1.517410054E+01 -1.610626373E+01 -5.436424186E+02  5.441133218E+02  4.750000000E+00  0.00000E+00  9.000E+00
      21     1     1     2   503   512  1.286122540E+01 -2.289987849E+01 -3.019587274E+02  3.030988099E+02  3.814697266E-06  0.00000E+00  9.000E+00
#rwgt            1           9   3.3775726782341569E-003           8      144957           0
</event>
<event>
      6   9999 -3.45752E-01  1.48112E+01 -1.00000E+00  1.70849E-01
      21    -1     0     0   501   502  0.000000000E+00  0.000000000E+00  4.090636532E+02  4.090636532E+02  0.000000000E+00  0.00000E+00  9.000E+00
      21    -1     0     0   511   503  0.000000000E+00  0.000000000E+00 -2.284433381E+01  2.284433381E+01  0.000000000E+00  0.00000E+00  9.000E+00
      25     1     1     2     0     0  2.698024946E+00 -3.131872995E+00  1.931547879E+02  2.301104931E+02  1.249999159E+02  0.00000E+00  9.000E+00
       5     1     1     2   501     0 -2.430792370E-01  1.810219710E+00  1.382571847E+02  1.383508135E+02  4.750000000E+00  0.00000E+00  9.000E+00
      -5     1     1     2     0   503 -1.327356786E+00  1.608990457E+01  3.360540319E+01  3.758367370E+01  4.750000000E+00  0.00000E+00  9.000E+00
      21     1     1     2   511   502 -1.127588924E+00 -1.476825129E+01  2.120194361E+01  2.586300670E+01  2.384185791E-07  0.00000E+00  9.000E+00
#rwgt            1           9  -35.016453121692550                8      145885           0
</event>
<event>
      6   9999  3.45752E-01  8.81354E+00 -1.00000E+00  1.93163E-01
      21    -1     0     0   501   502  0.000000000E+00  0.000000000E+00  4.287657500E+00  4.287657500E+00  0.000000000E+00  0.00000E+00  9.000E+00
      21    -1     0     0   512   503  0.000000000E+00  0.000000000E+00 -2.858970331E+03  2.858970331E+03  0.000000000E+00  0.00000E+00  9.000E+00
      25     1     1     2     0     0  1.193177216E+00  7.801571353E+00 -2.646852945E+03  2.649814665E+03  1.249998197E+02  0.00000E+00  9.000E+00
       5     1     1     2   501     0 -4.391705388E+00  2.550458856E-01 -1.525737830E+00  6.651503630E+00  4.750000000E+00  0.00000E+00  9.000E+00
      -5     1     1     2     0   503 -2.134847138E+00 -1.039946902E+00 -8.788639223E+01  8.804668932E+01  4.750000000E+00  0.00000E+00  9.000E+00
      21     1     1     2   512   502  5.333375311E+00 -7.016670337E+00 -1.184175976E+02  1.187451303E+02  2.336015456E-06  0.00000E+00  9.000E+00
#rwgt            1           9   5.4439317544040773E-003           8      147235           0
</event>
<event>
      6   9999  3.45752E-01  5.17020E+00 -1.00000E+00  2.23477E-01
      21    -1     0     0   511   502  0.000000000E+00  0.000000000E+00  4.847452451E+01  4.847452451E+01  0.000000000E+00  0.00000E+00  9.000E+00
      21    -1     0     0   502   503  0.000000000E+00  0.000000000E+00 -7.787161307E+02  7.787161307E+02  0.000000000E+00  0.00000E+00  9.000E+00
      25     1     1     2     0     0 -1.756786496E+01 -2.211604538E+01 -7.066884385E+02  7.182133209E+02  1.249963036E+02  0.00000E+00  9.000E+00
       5     1     1     2   501     0  3.258586147E-01 -5.693640515E-01 -2.137601740E-01  4.799849234E+00  4.750000000E+00  0.00000E+00  9.000E+00
      -5     1     1     2     0   503  1.592062464E+01  1.768692147E+01 -6.126776166E+01  6.589836568E+01  4.750000000E+00  0.00000E+00  9.000E+00
      21     1     1     2   511   501  1.321381701E+00  4.998487964E+00  3.792835414E+01  3.827911937E+01  4.768371582E-07  0.00000E+00  9.000E+00
#rwgt            1           9  0.16112350922552696                8      151766           0
</event>
<event>
      6   9999  3.45752E-01  3.18324E+00 -1.00000E+00  2.70346E-01
       2    -1     0     0   501     0  0.000000000E+00  0.000000000E+00  1.607838107E+03  1.607838107E+03  0.000000000E+00  0.00000E+00  9.000E+00
      21    -1     0     0   502   503  0.000000000E+00  0.000000000E+00 -1.677508377E+03  1.677508377E+03  0.000000000E+00  0.00000E+00  9.000E+00
      25     1     1     2     0     0 -4.047471275E+01  9.238152555E+00 -7.831566505E+02  7.941557789E+02  1.250020644E+02  0.00000E+00  9.000E+00
       5     1     1     2   501     0  8.435660215E-01 -1.828203397E+00  6.945721116E+00  8.652136910E+00  4.750000000E+00  0.00000E+00  9.000E+00
      -5     1     1     2     0   503  4.230685090E+01 -5.685526002E+00 -8.874780059E+02  8.885167237E+02  4.750000000E+00  0.00000E+00  9.000E+00
       2     1     1     2   502     0 -2.675704166E+00 -1.724423155E+00  1.594018665E+03  1.594021844E+03  0.000000000E+00  0.00000E+00  9.000E+00
#rwgt            1           9   1.5882606526803391                8      155363           0
</event>
<event>
      6   9999 -3.45752E-01  2.35169E+01 -1.00000E+00  1.55020E-01
      21    -1     0     0   501   502  0.000000000E+00  0.000000000E+00  1.050399736E+02  1.050399736E+02  0.000000000E+00  0.00000E+00  9.000E+00
       1    -1     0     0   502     0  0.000000000E+00  0.000000000E+00 -1.134509260E+03  1.134509260E+03  0.000000000E+00  0.00000E+00  9.000E+00
      25     1     1     2     0     0 -4.906806215E+01 -4.854131875E+01 -7.105095811E+01  1.594879343E+02  1.249969128E+02  0.00000E+00  9.000E+00
       5     1     1     2   501     0  4.768843726E+00 -5.184418135E-01  2.856405901E+01  2.935095603E+01  4.750000000E+00  0.00000E+00  9.000E+00
      -5     1     1     2     0   503  6.746759366E+01  5.309323152E+01 -2.655013326E+01  8.999021893E+01  4.750000000E+00  0.00000E+00  9.000E+00
       1     1     1     2   503     0 -2.316837524E+01 -4.033470955E+00 -9.604322538E+02  9.607201240E+02  0.000000000E+00  0.00000E+00  9.000E+00
#rwgt            1           9  -4.7866133800523141E-004           8      162398           0
</event>
<event>
      6   9999  3.45752E-01  1.22008E+01 -1.00000E+00  1.78531E-01
      21    -1     0     0   501   502  0.000000000E+00  0.000000000E+00  9.303427258E+00  9.303427258E+00  0.000000000E+00  0.00000E+00  9.000E+00
      21    -1     0     0   511   503  0.000000000E+00  0.000000000E+00 -8.329574650E+02  8.329574650E+02  0.000000000E+00  0.00000E+00  9.000E+00
      25     1     1     2     0     0  5.604386138E+00 -1.105232185E+01 -6.489268098E+02  6.609729160E+02  1.250025128E+02  0.00000E+00  9.000E+00
       5     1     1     2   501     0  1.424962562E+00 -1.541500093E+00  1.135086107E-01  5.194432120E+00  4.750000000E+00  0.00000E+00  9.000E+00
      -5     1     1     2     0   503 -5.683114357E+00  4.675256170E-01 -9.898941739E+01  9.926723338E+01  4.750000000E+00  0.00000E+00  9.000E+00
      21     1     1     2   511   502 -1.346234343E+00  1.212629632E+01 -7.585131914E+01  7.682631075E+01  9.536743164E-07  0.00000E+00  9.000E+00
#rwgt            1           9   7.0745945156488728E-004           8      164244           0
</event>
<event>
      6   9999  3.45752E-01  7.93705E+00 -1.00000E+00  1.98422E-01
      21    -1     0     0   501   512  0.000000000E+00  0.000000000E+00  2.788774375E+01  2.788774375E+01  0.000000000E+00  0.00000E+00  9.000E+00
      21    -1     0     0   502   503  0.000000000E+00  0.000000000E+00 -1.005712411E+03  1.005712411E+03  0.000000000E+00  0.00000E+00  9.000E+00
      25     1     1     2     0     0  3.424720349E+01 -3.199012324E+01 -9.254152663E+02  9.349938928E+02  1.249957017E+02  0.00000E+00  9.000E+00
       5     1     1     2   501     0 -9.190351620E-01 -3.965225868E-01  6.173014848E-01  4.893405452E+00  4.750000000E+00  0.00000E+00  9.000E+00
      -5     1     1     2     0   503 -3.616113810E+01  2.497240437E+01 -6.544559430E+01  7.897428190E+01  4.750000000E+00  0.00000E+00  9.000E+00
      21     1     1     2   502   512  2.832969767E+00  7.414241459E+00  1.241889211E+01  1.473857440E+01  0.000000000E+00  0.00000E+00  9.000E+00
#rwgt            1           9   7.8316806304096751E-004           8      166415           0
</event>
<event>
      6   9999  3.45752E-01  2.92778E+00 -1.00000E+00  2.79709E-01
      21    -1     0     0   501   502  0.000000000E+00  0.000000000E+00  2.445496292E+01  2.445496292E+01  0.000000000E+00  0.00000E+00  9.000E+00
      21    -1     0     0   511   503  0.000000000E+00  0.000000000E+00 -1.065473735E+03  1.065473735E+03  0.000000000E+00  0.00000E+00  9.000E+00
      25     1     1     2     0     0  4.235464270E+00 -7.120856450E+00 -9.348917385E+02  9.432475912E+02  1.249992393E+02  0.00000E+00  9.000E+00
       5     1     1     2   501     0  4.778242430E-01  7.519820228E+00  1.899134125E+01  2.097640472E+01  4.750000000E+00  0.00000E+00  9.000E+00
      -5     1     1     2     0   503 -3.500950762E+00  2.266023546E+00 -3.687908608E+01  3.741685461E+01  4.750000000E+00  0.00000E+00  9.000E+00
      21     1     1     2   511   502 -1.212337752E+00 -2.664987324E+00 -8.823928899E+01  8.828784765E+01  9.536743164E-07  0.00000E+00  9.000E+00
#rwgt            1           9   1.1929527390480712E-005           8      169701           0
</event>
<event>
      6   9999  3.45752E-01  5.42335E+00 -1.00000E+00  2.20359E-01
      21    -1     0     0   501   502  0.000000000E+00  0.000000000E+00  3.199127855E+02  3.199127855E+02  0.000000000E+00  0.00000E+00  9.000E+00
      21    -1     0     0   502   512  0.000000000E+00  0.000000000E+00 -7.129331143E+01  7.129331143E+01  0.000000000E+00  0.00000E+00  9.000E+00
      25     1     1     2     0     0 -3.041013008E+01 -4.926601688E+01  1.346493462E+02  1.926289959E+02  1.249942686E+02  0.00000E+00  9.000E+00
       5     1     1     2   501     0  1.738397695E+00  2.693979868E-01  1.061345329E+02  1.062553348E+02  4.750000000E+00  0.00000E+00  9.000E+00
      -5     1     1     2     0   503  2.616751906E+01  5.380719415E+01  3.167988837E+01  6.786848329E+01  4.750000000E+00  0.00000E+00  9.000E+00
      21     1     1     2   503   512  2.504213324E+00 -4.810575263E+00 -2.384429340E+01  2.445328294E+01  3.371747881E-07  0.00000E+00  9.000E+00
#rwgt            1           9   1.3463201385545324E-002           8      178200           0
</event>
<event>
      6   9999  3.45752E-01  8.64175E+00 -1.00000E+00  1.94129E-01
      -2    -1     0     0     0   502  0.000000000E+00  0.000000000E+00  1.006998211E+03  1.006998211E+03  0.000000000E+00  0.00000E+00  9.000E+00
      21    -1     0     0   502   503  0.000000000E+00  0.000000000E+00 -8.602418362E+02  8.602418362E+02  0.000000000E+00  0.00000E+00  9.000E+00
      25     1     1     2     0     0 -2.677470433E+00  3.163125595E+00 -8.231515786E+02  8.325969895E+02  1.249882045E+02  0.00000E+00  9.000E+00
       5     1     1     2   501     0  2.437909099E+00  3.284512907E+00  8.958205326E+00  1.093358900E+01  4.750000000E+00  0.00000E+00  9.000E+00
      -5     1     1     2     0   503 -1.691467195E+00  1.975603210E+00 -3.112725976E+01  3.159482346E+01  4.750000000E+00  0.00000E+00  9.000E+00
      -2     1     1     2     0   501  1.931028529E+00 -8.423241711E+00  9.920770083E+02  9.921146458E+02  1.525878906E-05  0.00000E+00  9.000E+00
#rwgt            1           9   2.5305631435242601E-002           8      182672           0
</event>
<event>
      6   9999  3.45752E-01  1.39938E+01 -1.00000E+00  1.73027E-01
      21    -1     0     0   501   511  0.000000000E+00  0.000000000E+00  4.621611911E+01  4.621611911E+01  0.000000000E+00  0.00000E+00  9.000E+00
      21    -1     0     0   502   503  0.000000000E+00  0.000000000E+00 -1.270889888E+03  1.270889888E+03  0.000000000E+00  0.00000E+00  9.000E+00
      25     1     1     2     0     0 -6.872424475E+00  2.354634822E+01 -3.458559458E+02  3.685721611E+02  1.250097675E+02  0.00000E+00  9.000E+00
       5     1     1     2   501     0 -3.549326859E+00 -1.922058264E+00  3.022705711E+01  3.086307682E+01  4.750000000E+00  0.00000E+00  9.000E+00
      -5     1     1     2     0   503  1.636692897E+01 -8.956133814E+00 -9.016268698E+02  9.018323921E+02  4.750000000E+00  0.00000E+00  9.000E+00
      21     1     1     2   502   511 -5.945177641E+00 -1.266815615E+01 -7.418010963E+00  1.583837757E+01  5.717076687E-07  0.00000E+00  9.000E+00
#rwgt            1           9   6.1354725043378616E-005           8      185372           0
</event>
<event>
      6   9999  3.45752E-01  1.16488E+01 -1.00000E+00  1.80472E-01
      21    -1     0     0   512   502  0.000000000E+00  0.000000000E+00  8.182117182E+00  8.182117182E+00  0.000000000E+00  0.00000E+00  9.000E+00
      21    -1     0     0   502   503  0.000000000E+00  0.000000000E+00 -7.433999894E+02  7.433999894E+02  0.000000000E+00  0.00000E+00  9.000E+00
      25     1     1     2     0     0 -2.892275872E-01 -5.856932721E+00 -6.170061478E+02  6.295682005E+02  1.250005815E+02  0.00000E+00  9.000E+00
       5     1     1     2   501     0  2.026082975E-01 -5.241876250E-01 -1.343992295E+01  1.426568791E+01  4.750000000E+00  0.00000E+00  9.000E+00
      -5     1     1     2     0   503  3.198009787E+00 -4.844439498E+00 -8.025522938E+01  8.060496388E+01  4.750000000E+00  0.00000E+00  9.000E+00
      21     1     1     2   512   501 -3.111390498E+00  1.122555984E+01 -2.451657212E+01  2.714325428E+01  4.768371582E-07  0.00000E+00  9.000E+00
#rwgt            1           9   1.9323507842216645E-004           8      188709           0
</event>
<event>
      6   9999  3.45752E-01  6.20293E+00 -1.00000E+00  2.12065E-01
      21    -1     0     0   501   511  0.000000000E+00  0.000000000E+00  7.606493200E+01  7.606493200E+01  0.000000000E+00  0.00000E+00  9.000E+00
      21    -1     0     0   502   503  0.000000000E+00  0.000000000E+00 -1.394591252E+03  1.394591252E+03  0.000000000E+00  0.00000E+00  9.000E+00
      25     1     1     2     0     0 -7.252717701E+01  8.405424479E+01 -9.566734776E+01  1.926214539E+02  1.250019024E+02  0.00000E+00  9.000E+00
       5     1     1     2   501     0  5.249340863E-01  1.083359541E+00  4.363508644E+00  6.561397060E+00  4.750000000E+00  0.00000E+00  9.000E+00
      -5     1     1     2     0   503  6.594884654E+01 -8.649137070E+01 -1.246488257E+03  1.251233609E+03  4.750000000E+00  0.00000E+00  9.000E+00
      21     1     1     2   502   511  6.053396383E+00  1.353766378E+00  1.926577611E+01  2.023972382E+01  1.283923342E-06  0.00000E+00  9.000E+00
#rwgt            1           9   2.4528125925933592E-004           8      191788           0
</event>
<event>
      6   9999 -3.45752E-01  5.65771E+00 -1.00000E+00  2.17674E-01
      21    -1     0     0   501   502  0.000000000E+00  0.000000000E+00  2.018507985E+02  2.018507985E+02  0.000000000E+00  0.00000E+00  9.000E+00
      21    -1     0     0   512   503  0.000000000E+00  0.000000000E+00 -5.445486425E+02  5.445486425E+02  0.000000000E+00  0.00000E+00  9.000E+00
      25     1     1     2     0     0 -1.385256074E+01 -2.674245000E-01 -1.199619169E+02  1.738065596E+02  1.250035747E+02  0.00000E+00  9.000E+00
       5     1     1     2   501     0  4.494867517E+00 -1.430015203E+00  1.098487309E+02  1.100525100E+02  4.750000000E+00  0.00000E+00  9.000E+00
      -5     1     1     2     0   503  1.139137816E+01  6.977002300E+00  6.418409069E+01  6.573128673E+01  4.750000000E+00  0.00000E+00  9.000E+00
      21     1     1     2   512   502 -2.033684937E+00 -5.279562597E+00 -3.967687488E+02  3.968090847E+02  7.629394531E-06  0.00000E+00  9.000E+00
#rwgt            1           9  -6.4707648761662189E-003           8      197378           0
</event>
<event>
      6   9999  3.45752E-01  5.20467E+00 -1.00000E+00  2.23038E-01
      21    -1     0     0   501   502  0.000000000E+00  0.000000000E+00  1.629950229E+01  1.629950229E+01  0.000000000E+00  0.00000E+00  9.000E+00
      21    -1     0     0   502   511  0.000000000E+00  0.000000000E+00 -1.343997024E+03  1.343997024E+03  0.000000000E+00  0.00000E+00  9.000E+00
      25     1     1     2     0     0  1.287102120E+01 -2.765770708E+01 -6.492493678E+02  6.618766343E+02  1.250013018E+02  0.00000E+00  9.000E+00
       5     1     1     2   501     0  1.494238364E+00 -2.194103698E-01  8.047572897E+00  9.466087826E+00  4.750000000E+00  0.00000E+00  9.000E+00
      -5     1     1     2     0   503 -1.351416389E+01  3.301173177E+01 -2.656929348E+02  2.681188266E+02  4.750000000E+00  0.00000E+00  9.000E+00
      21     1     1     2   503   511 -8.510956771E-01 -5.134614317E+00 -4.208027923E+02  4.208349779E+02  5.394796609E-06  0.00000E+00  9.000E+00
#rwgt            1           9   2.0791787339848374E-003           8      203029           0
</event>
<event>
      6   9999 -3.45752E-01  8.63571E+00 -1.00000E+00  1.94163E-01
      21    -1     0     0   501   502  0.000000000E+00  0.000000000E+00  1.064748994E+01  1.064748994E+01  0.000000000E+00  0.00000E+00  9.000E+00
      21    -1     0     0   512   503  0.000000000E+00  0.000000000E+00 -1.163998537E+03  1.163998537E+03  0.000000000E+00  0.00000E+00  9.000E+00
      25     1     1     2     0     0  1.273591136E+01 -1.896235997E+01 -7.531417096E+02  7.637860159E+02  1.249994755E+02  0.00000E+00  9.000E+00
       5     1     1     2   501     0 -8.279442677E-01 -7.408536706E-01  2.432350055E+00  5.450979973E+00  4.750000000E+00  0.00000E+00  9.000E+00
      -5     1     1     2     0   503 -7.617852207E+00  1.220851872E+01 -4.176846486E+01  4.443249665E+01  4.750000000E+00  0.00000E+00  9.000E+00
      21     1     1     2   512   502 -4.290114886E+00  7.494694919E+00 -3.608732227E+02  3.609765344E+02  7.629394531E-06  0.00000E+00  9.000E+00
#rwgt            1           9  -3.8312567750414921E-005           8      207180           0
</event>
<event>
      6   9999  3.45752E-01  3.25462E+01 -1.00000E+00  1.45585E-01
      21    -1     0     0   501   502  0.000000000E+00  0.000000000E+00  4.714750930E+01  4.714750930E+01  0.000000000E+00  0.00000E+00  9.000E+00
      21    -1     0     0   511   503  0.000000000E+00  0.000000000E+00 -1.463419270E+03  1.463419270E+03  0.000000000E+00  0.00000E+00  9.000E+00
      25     1     1     2     0     0 -8.824122306E+01 -4.878794758E+01 -8.745492762E+02  8.891725452E+02  1.249984061E+02  0.00000E+00  9.000E+00
       5     1     1     2   501     0 -5.396693904E+00 -1.105163366E+01  3.314349708E+01  3.566955019E+01  4.750000000E+00  0.00000E+00  9.000E+00
      -5     1     1     2     0   503  6.555905171E+01  4.338260992E+01 -3.699447038E+02  3.782349620E+02  4.750000000E+00  0.00000E+00  9.000E+00
      21     1     1     2   511   502  2.807886525E+01  1.645697131E+01 -2.049212774E+02  2.074897214E+02  2.697398305E-06  0.00000E+00  9.000E+00
#rwgt            1           9   6.5183684416824649E-005           8      209998           0
</event>
<event>
      6   9999 -3.45752E-01  3.59652E+00 -1.00000E+00  2.57812E-01
      21    -1     0     0   501   512  0.000000000E+00  0.000000000E+00  1.611048002E+01  1.611048002E+01  0.000000000E+00  0.00000E+00  9.000E+00
      21    -1     0     0   502   503  0.000000000E+00  0.000000000E+00 -8.625204019E+02  8.625204019E+02  0.000000000E+00  0.00000E+00  9.000E+00
      25     1     1     2     0     0  2.879894322E+00  1.020831211E+01 -7.045716465E+02  7.156526889E+02  1.250002507E+02  0.00000E+00  9.000E+00
       5     1     1     2   501     0 -6.031281146E-01 -3.251571994E-01  5.558764375E+00  7.343830887E+00  4.750000000E+00  0.00000E+00  9.000E+00
      -5     1     1     2     0   503  1.284894688E+00 -9.383606319E+00 -1.505071218E+02  1.508796184E+02  4.750000000E+00  0.00000E+00  9.000E+00
      21     1     1     2   502   512 -3.561660895E+00 -4.995485911E-01  3.110082094E+00  4.754743711E+00  1.788139343E-07  0.00000E+00  9.000E+00
#rwgt            1           9  -1.8045125969959541E-003           8      211847           0
</event>
<event>
      6   9999  3.45752E-01  1.06690E+01 -1.00000E+00  1.84279E-01
      21    -1     0     0   501   511  0.000000000E+00  0.000000000E+00  1.716907804E+03  1.716907804E+03  0.000000000E+00  0.00000E+00  9.000E+00
      21    -1     0     0   502   503  0.000000000E+00  0.000000000E+00 -1.354883210E+01  1.354883210E+01  0.000000000E+00  0.00000E+00  9.000E+00
      25     1     1     2     0     0  2.005426825E+01 -8.075728890E+00  7.920057944E+02  8.021010244E+02  1.250019356E+02  0.00000E+00  9.000E+00
       5     1     1     2   501     0  5.127222488E+00 -1.743854734E-01  5.744841362E+02  5.745266783E+02  4.750000000E+00  0.00000E+00  9.000E+00
      -5     1     1     2     0   503 -1.461608019E+01  6.766780402E+00  1.324713487E-03  1.679230832E+01  4.750000000E+00  0.00000E+00  9.000E+00
      21     1     1     2   502   511 -1.056541055E+01  1.483333961E+00  3.368677171E+02  3.370366256E+02  7.629394531E-06  0.00000E+00  9.000E+00
#rwgt            1           9   16.113899849328600                8      216568           0
</event>
<event>
      6   9999  3.45752E-01  5.81123E+00 -1.00000E+00  2.16010E-01
      21    -1     0     0   501   502  0.000000000E+00  0.000000000E+00  4.046014276E+01  4.046014276E+01  0.000000000E+00  0.00000E+00  9.000E+00
      21    -1     0     0   512   503  0.000000000E+00  0.000000000E+00 -3.555510436E+03  3.555510436E+03  0.000000000E+00  0.00000E+00  9.000E+00
      25     1     1     2     0     0  3.975423753E+01  2.212293508E+02 -1.017060529E+03  1.049075624E+03  1.249988779E+02  0.00000E+00  9.000E+00
       5     1     1     2   501     0 -9.726537132E+00 -3.785474991E+00  1.800031322E+01  2.134265966E+01  4.750000000E+00  0.00000E+00  9.000E+00
      -5     1     1     2     0   503 -2.913463573E+01 -2.117016781E+02 -2.451445861E+03  2.460747001E+03  4.750000000E+00  0.00000E+00  9.000E+00
      21     1     1     2   512   502 -8.930646630E-01 -5.742197700E+00 -6.454421608E+01  6.480529476E+01  9.536743164E-07  0.00000E+00  9.000E+00
#rwgt            1           9  0.63808047661047484                8      219541           0
</event>
<event>
      6   9999 -3.45752E-01  5.70641E+01 -1.00000E+00  1.31787E-01
      21    -1     0     0   502   511  0.000000000E+00  0.000000000E+00  7.019227769E+01  7.019227769E+01  0.000000000E+00  0.00000E+00  9.000E+00
      21    -1     0     0   501   502  0.000000000E+00  0.000000000E+00 -1.402866219E+03  1.402866219E+03  0.000000000E+00  0.00000E+00  9.000E+00
      25     1     1     2     0     0 -1.362277847E+02  7.512165816E+01 -1.925859895E+02  2.773391963E+02  1.250055744E+02  0.00000E+00  9.000E+00
       5     1     1     2   501     0  1.556687427E+02 -1.553424836E+02 -1.037131077E+03  1.060201622E+03  4.750000000E+00  0.00000E+00  9.000E+00
      -5     1     1     2     0   503 -1.888614210E+01  2.315939411E+01 -2.730579026E+01  4.075797567E+01  4.750000000E+00  0.00000E+00  9.000E+00
      21     1     1     2   503   511 -5.548158924E-01  5.706143128E+01 -7.565108422E+01  9.475970296E+01  1.907348633E-06  0.00000E+00  9.000E+00
#rwgt            1           9  -2.0430675487611063E-005           8      226315           0
</event>
<event>
      6   9999  3.45752E-01  2.23678E+01 -1.00000E+00  1.56588E-01
      21    -1     0     0   501   512  0.000000000E+00  0.000000000E+00  3.250319341E+01  3.250319341E+01  0.000000000E+00  0.00000E+00  9.000E+00
      21    -1     0     0   502   503  0.000000000E+00  0.000000000E+00 -1.145585990E+03  1.145585990E+03  0.000000000E+00  0.00000E+00  9.000E+00
      25     1     1     2     0     0  5.260346671E+01  5.924655137E+01 -3.902286081E+02  4.173494168E+02  1.249995621E+02  0.00000E+00  9.000E+00
       5     1     1     2   501     0 -5.241844819E-01  4.179577351E+00  8.978990756E+00  1.099674548E+01  4.750000000E+00  0.00000E+00  9.000E+00
      -5     1     1     2     0   503 -7.011298149E+01 -5.019340080E+01 -7.185655737E+02  7.237363152E+02  4.750000000E+00  0.00000E+00  9.000E+00
      21     1     1     2   502   512  1.803369927E+01 -1.323272793E+01 -1.326760536E+01  2.600670586E+01  5.591411304E-07  0.00000E+00  9.000E+00
#rwgt            1           9   4.7855669381464466E-003           8      227665           0
</event>
<event>
      6   9999  3.45752E-01  1.23926E+01 -1.00000E+00  1.77886E-01
      21    -1     0     0   501   502  0.000000000E+00  0.000000000E+00  9.557910041E+00  9.557910041E+00  0.000000000E+00  0.00000E+00  9.000E+00
      21    -1     0     0   511   503  0.000000000E+00  0.000000000E+00 -8.771650090E+02  8.771650090E+02  0.000000000E+00  0.00000E+00  9.000E+00
      25     1     1     2     0     0 -8.972613918E+00  8.983550104E+00 -7.182517751E+02  7.291596454E+02  1.250078563E+02  0.00000E+00  9.000E+00
       5     1     1     2   501     0 -1.858305767E+00 -1.461514816E-02  1.797327993E+00  5.407994253E+00  4.750000000E+00  0.00000E+00  9.000E+00
      -5     1     1     2     0   503  1.246568832E+00 -1.112874106E+00 -4.130604190E+01  4.161182548E+01  4.750000000E+00  0.00000E+00  9.000E+00
      21     1     1     2   511   502  9.584350853E+00 -7.856060850E+00 -1.098466099E+02  1.105434538E+02  0.000000000E+00  0.00000E+00  9.000E+00
#rwgt            1           9   1.5035324155155454E-002           8      230306           0
</event>
<event>
      6   9999  3.45752E-01  1.50960E+01 -1.00000E+00  1.70132E-01
      21    -1     0     0   501   502  0.000000000E+00  0.000000000E+00  2.447909219E+03  2.447909219E+03  0.000000000E+00  0.00000E+00  9.000E+00
      21    -1     0     0   512   503  0.000000000E+00  0.000000000E+00 -1.364555767E+01  1.364555767E+01  0.000000000E+00  0.00000E+00  9.000E+00
      25     1     1     2     0     0 -1.329833556E+01  6.005856391E+00  1.896097516E+03  1.900269382E+03  1.250000626E+02  0.00000E+00  9.000E+00
       5     1     1     2   501     0 -1.196476576E+00  2.879778313E-01  5.386519959E+02  5.386743448E+02  4.750000000E+00  0.00000E+00  9.000E+00
      -5     1     1     2     0   503  3.090415758E+00  3.597070438E+00  2.608510841E+00  7.201139778E+00  4.750000000E+00  0.00000E+00  9.000E+00
      21     1     1     2   512   502  1.140439638E+01 -9.890904661E+00 -3.094362108E+00  1.540991008E+01  1.123037558E-06  0.00000E+00  9.000E+00
#rwgt            1           9   2.5858771457872467                8      232212           0
</event>
<event>
      6   9999 -3.45752E-01  9.05900E+00 -1.00000E+00  1.91831E-01
       4    -1     0     0   501     0  0.000000000E+00  0.000000000E+00  1.923868852E+02  1.923868852E+02  0.000000000E+00  0.00000E+00  9.000E+00
      21    -1     0     0   502   503  0.000000000E+00  0.000000000E+00 -8.628467075E+02  8.628467075E+02  0.000000000E+00  0.00000E+00  9.000E+00
      25     1     1     2     0     0 -1.779640857E+01 -7.876873873E+00 -5.608146121E+02  5.749064967E+02  1.250027741E+02  0.00000E+00  9.000E+00
       5     1     1     2   501     0 -1.298439649E+00 -3.014922177E-01  1.847369742E+00  5.268027908E+00  4.750000000E+00  0.00000E+00  9.000E+00
      -5     1     1     2     0   503  1.815047222E+01 -8.312766246E-01 -2.928620096E+02  2.934635409E+02  4.750000000E+00  0.00000E+00  9.000E+00
       4     1     1     2   502     0  9.443760044E-01  9.009642716E+00  1.813694296E+02  1.815955272E+02  4.672030912E-06  0.00000E+00  9.000E+00
#rwgt            1           9 -0.31321801779888930                8      234194           0
</event>
<event>
      6   9999  3.45752E-01  2.53586E+01 -1.00000E+00  1.52720E-01
      21    -1     0     0   502   503  0.000000000E+00  0.000000000E+00  3.438397009E+01  3.438397009E+01  0.000000000E+00  0.00000E+00  9.000E+00
      21    -1     0     0   511   502  0.000000000E+00  0.000000000E+00 -1.267354649E+03  1.267354649E+03  0.000000000E+00  0.00000E+00  9.000E+00
      25     1     1     2     0     0 -3.148423096E+01  1.667933353E+01 -4.321974819E+02  4.513195956E+02  1.250010283E+02  0.00000E+00  9.000E+00
       5     1     1     2   501     0 -8.472711947E+01  2.705807067E+01 -4.156864911E+02  4.251219182E+02  4.750000000E+00  0.00000E+00  9.000E+00
      -5     1     1     2     0   503  1.407290481E+02 -5.021343343E+01 -2.824320386E+02  3.195566817E+02  4.750000000E+00  0.00000E+00  9.000E+00
      21     1     1     2   511   501 -2.451769766E+01  6.476029227E+00 -1.026546676E+02  1.057404238E+02  0.000000000E+00  0.00000E+00  9.000E+00
#rwgt            1           9  0.21797727781192036                8      237029           0
</event>
<event>
      6   9999  3.45752E-01  1.85992E+01 -1.00000E+00  1.62655E-01
      21    -1     0     0   501   512  0.000000000E+00  0.000000000E+00  3.966614560E+01  3.966614560E+01  0.000000000E+00  0.00000E+00  9.000E+00
      21    -1     0     0   502   503  0.000000000E+00  0.000000000E+00 -1.114757320E+03  1.114757320E+03  0.000000000E+00  0.00000E+00  9.000E+00
      25     1     1     2     0     0  4.774452928E-01 -4.426414789E+01 -8.119591212E+02  8.227160148E+02  1.249979349E+02  0.00000E+00  9.000E+00
       5     1     1     2   501     0  2.002541572E+00  4.769164881E-01  5.563595604E+00  7.599586708E+00  4.750000000E+00  0.00000E+00  9.000E+00
      -5     1     1     2     0   503  1.489033633E+01  3.713887580E+01 -2.917313686E+02  2.945008865E+02  4.750000000E+00  0.00000E+00  9.000E+00
      21     1     1     2   502   512 -1.737032320E+01  6.648355603E+00  2.303571959E+01  2.960697785E+01  1.907348633E-06  0.00000E+00  9.000E+00
#rwgt            1           9   6.5684663231587795E-002           8      238767           0
</event>
<event>
      6   9999  3.45752E-01  3.79372E+00 -1.00000E+00  2.52708E-01
      21    -1     0     0   511   502  0.000000000E+00  0.000000000E+00  1.055586088E+01  1.055586088E+01  0.000000000E+00  0.00000E+00  9.000E+00
      21    -1     0     0   502   503  0.000000000E+00  0.000000000E+00 -1.760883037E+03  1.760883037E+03  0.000000000E+00  0.00000E+00  9.000E+00
      25     1     1     2     0     0  7.318597632E+00 -1.833240379E+01 -1.363838847E+03  1.369697496E+03  1.250007711E+02  0.00000E+00  9.000E+00
       5     1     1     2   501     0  3.323872449E+00 -4.607496819E+00  5.084946953E+00  8.983114188E+00  4.750000000E+00  0.00000E+00  9.000E+00
      -5     1     1     2     0   503 -1.086347617E+01  1.915262584E+01 -3.778340633E+02  3.785049275E+02  4.750000000E+00  0.00000E+00  9.000E+00
      21     1     1     2   511   501  2.210060888E-01  3.787274772E+00 -1.373921342E+01  1.425336029E+01  2.384185791E-07  0.00000E+00  9.000E+00
#rwgt            1           9  0.34682642672498254                8      240863           0
</event>
<event>
      6   9999  3.45752E-01  1.21798E+01 -1.00000E+00  1.78602E-01
      21    -1     0     0   512   502  0.000000000E+00  0.000000000E+00  9.762131774E+00  9.762131774E+00  0.000000000E+00  0.00000E+00  9.000E+00
      21    -1     0     0   502   503  0.000000000E+00  0.000000000E+00 -6.999903753E+02  6.999903753E+02  0.000000000E+00  0.00000E+00  9.000E+00
      25     1     1     2     0     0 -2.587271213E+00  5.826392360E+00 -6.493960881E+02  6.613471575E+02  1.249965707E+02  0.00000E+00  9.000E+00
       5     1     1     2   501     0 -6.451669938E-02  9.948731009E-01 -2.542923719E+00  5.479315279E+00  4.750000000E+00  0.00000E+00  9.000E+00
      -5     1     1     2     0   503  1.051552623E+00  5.252981382E+00 -1.591824140E+01  1.745429705E+01  4.750000000E+00  0.00000E+00  9.000E+00
      21     1     1     2   512   501  1.600235289E+00 -1.207424684E+01 -2.237099026E+01  2.547173718E+01  3.371747881E-07  0.00000E+00  9.000E+00
#rwgt            1           9   2.8683563882695324E-004           8      246142           0
</event>
<event>
      6   9999 -3.45752E-01  3.40918E+01 -1.00000E+00  1.44334E-01
      21    -1     0     0   501   511  0.000000000E+00  0.000000000E+00  2.823220324E+01  2.823220324E+01  0.000000000E+00  0.00000E+00  9.000E+00
      21    -1     0     0   502   503  0.000000000E+00  0.000000000E+00 -1.009453693E+03  1.009453693E+03  0.000000000E+00  0.00000E+00  9.000E+00
      25     1     1     2     0     0 -2.001709633E+01 -2.752408196E+01 -2.092483402E+02  2.461052828E+02  1.249987325E+02  0.00000E+00  9.000E+00
       5     1     1     2   501     0  1.262871489E+00  4.786200142E-01 -3.307234819E+00  5.943418516E+00  4.750000000E+00  0.00000E+00  9.000E+00
      -5     1     1     2     0   503  5.278405826E+01  2.909930669E+01 -7.358105506E+02  7.382903597E+02  4.750000000E+00  0.00000E+00  9.000E+00
      21     1     1     2   502   511 -3.402983341E+01 -2.053844745E+00 -3.285536401E+01  4.734683500E+01  9.536743164E-07  0.00000E+00  9.000E+00
#rwgt            1           9  -5.3343689126792381E-004           8      247975           0
</event>
<event>
      6   9999 -3.45752E-01  1.83617E+01 -1.00000E+00  1.63096E-01
      21    -1     0     0   501   502  0.000000000E+00  0.000000000E+00  2.390732694E+01  2.390732694E+01  0.000000000E+00  0.00000E+00  9.000E+00
       2    -1     0     0   502     0  0.000000000E+00  0.000000000E+00 -4.631159864E+03  4.631159864E+03  0.000000000E+00  0.00000E+00  9.000E+00
      25     1     1     2     0     0  4.227142200E+01  1.507115968E+01 -6.850498236E+02  6.978067108E+02  1.250077274E+02  0.00000E+00  9.000E+00
       5     1     1     2   501     0 -8.206120389E-01 -6.857184312E+00  1.524862700E+01  1.740050304E+01  4.750000000E+00  0.00000E+00  9.000E+00
      -5     1     1     2     0   503 -3.260206387E+01 -2.430282231E+01 -3.536814711E+02  3.560430693E+02  4.750000000E+00  0.00000E+00  9.000E+00
       2     1     1     2   503     0 -8.848746090E+00  1.608884694E+01 -3.583769870E+03  3.583816908E+03  0.000000000E+00  0.00000E+00  9.000E+00
#rwgt            1           9  -1.8906238295012971E-004           8      248968           0
</event>
<event>
      6   9999  3.45752E-01  3.69309E+01 -1.00000E+00  1.42227E-01
      21    -1     0     0   502   511  0.000000000E+00  0.000000000E+00  2.810156680E+01  2.810156680E+01  0.000000000E+00  0.00000E+00  9.000E+00
      21    -1     0     0   501   502  0.000000000E+00  0.000000000E+00 -7.869479648E+02  7.869479648E+02  0.000000000E+00  0.00000E+00  9.000E+00
      25     1     1     2     0     0  4.142957216E+01 -2.797997572E+01 -4.611204148E+02  4.803717064E+02  1.250026035E+02  0.00000E+00  9.000E+00
       5     1     1     2   501     0 -4.497292500E+00  1.707119183E+00 -1.534988554E+02  1.536476522E+02  4.750000000E+00  0.00000E+00  9.000E+00
      -5     1     1     2     0   503 -1.636362480E+00  1.540605531E+01 -1.431700514E+02  1.440841779E+02  4.750000000E+00  0.00000E+00  9.000E+00
      21     1     1     2   503   511 -3.529591718E+01  1.086680123E+01 -1.057076343E+00  3.694599504E+01  4.460403188E-07  0.00000E+00  9.000E+00
#rwgt            1           9   2.4303688697283115E-003           8      251057           0
</event>
<event>
      6   9999 -3.45752E-01  1.89858E+01 -1.00000E+00  1.61955E-01
      21    -1     0     0   501   512  0.000000000E+00  0.000000000E+00  2.806279677E+02  2.806279677E+02  0.000000000E+00  0.00000E+00  9.000E+00
      21    -1     0     0   502   503  0.000000000E+00  0.000000000E+00 -1.402190672E+02  1.402190672E+02  0.000000000E+00  0.00000E+00  9.000E+00
      25     1     1     2     0     0  5.569953688E+01 -1.905437747E+00 -9.037660083E+01  1.640084495E+02  1.249990897E+02  0.00000E+00  9.000E+00
       5     1     1     2   501     0  2.910239267E+00 -1.601317429E+00  1.765841002E+02  1.766792026E+02  4.750000000E+00  0.00000E+00  9.000E+00
      -5     1     1     2     0   503 -3.971630820E+01  1.636422984E+00  3.810330094E+01  5.526741408E+01  4.750000000E+00  0.00000E+00  9.000E+00
      21     1     1     2   502   512 -1.889346795E+01  1.870332191E+00  1.609810023E+01  2.489196868E+01  3.371747881E-07  0.00000E+00  9.000E+00
#rwgt            1           9  -5.2825906159071644E-002           8      252821           0
</event>
<event>
      6   9999 -3.45752E-01  7.77229E+00 -1.00000E+00  1.99512E-01
      21    -1     0     0   511   502  0.000000000E+00  0.000000000E+00  3.408103323E+01  3.408103323E+01  0.000000000E+00  0.00000E+00  9.000E+00
      21    -1     0     0   502   503  0.000000000E+00  0.000000000E+00 -1.170064815E+03  1.170064815E+03  0.000000000E+00  0.00000E+00  9.000E+00
      25     1     1     2     0     0 -6.108871946E+01  4.084785047E+01 -9.546673390E+02  9.656162204E+02  1.249983135E+02  0.00000E+00  9.000E+00
       5     1     1     2   501     0 -1.674242512E+00  8.383709067E-02  1.935427665E+01  1.999901601E+01  4.750000000E+00  0.00000E+00  9.000E+00
      -5     1     1     2     0   503  6.856670713E+01 -3.576206410E+01 -1.910508298E+02  2.061632863E+02  4.750000000E+00  0.00000E+00  9.000E+00
      21     1     1     2   511   501 -5.803745152E+00 -5.169623453E+00 -9.619889547E+00  1.236732547E+01  0.000000000E+00  0.00000E+00  9.000E+00
#rwgt            1           9  -1.0428027647095133E-004           8      255009           0
</event>
<event>
      6   9999  3.45752E-01  6.20360E+00 -1.00000E+00  2.12059E-01
      21    -1     0     0   501   502  0.000000000E+00  0.000000000E+00  1.074655258E+01  1.074655258E+01  0.000000000E+00  0.00000E+00  9.000E+00
       2    -1     0     0   502     0  0.000000000E+00  0.000000000E+00 -1.090710821E+03  1.090710821E+03  0.000000000E+00  0.00000E+00  9.000E+00
      25     1     1     2     0     0 -2.407017597E+01  1.588729753E+01 -7.287379777E+02  7.399416744E+02  1.249914468E+02  0.00000E+00  9.000E+00
       5     1     1     2   501     0 -4.816947566E-01  1.858637551E-01  1.700563655E+00  5.071586726E+00  4.750000000E+00  0.00000E+00  9.000E+00
      -5     1     1     2     0   503  2.529340873E+01 -9.914038763E+00 -1.088848848E+02  1.123233071E+02  4.750000000E+00  0.00000E+00  9.000E+00
       2     1     1     2   503     0 -7.415380065E-01 -6.159122523E+00 -2.440419694E+02  2.441208052E+02  0.000000000E+00  0.00000E+00  9.000E+00
#rwgt            1           9   3.6888899870590097                8      258724           0
</event>
<event>
      6   9999  3.45752E-01  1.39010E+01 -1.00000E+00  1.73286E-01
      21    -1     0     0   501   502  0.000000000E+00  0.000000000E+00  1.873588099E+01  1.873588099E+01  0.000000000E+00  0.00000E+00  9.000E+00
      21    -1     0     0   502   511  0.000000000E+00  0.000000000E+00 -1.538098279E+03  1.538098279E+03  0.000000000E+00  0.00000E+00  9.000E+00
      25     1     1     2     0     0 -8.180317302E+01  2.124650737E+01 -8.889301150E+02  9.016461234E+02  1.250032377E+02  0.00000E+00  9.000E+00
       5     1     1     2   501     0  3.668859768E+00 -1.196617502E+00  6.965428259E+00  9.272114984E+00  4.750000000E+00  0.00000E+00  9.000E+00
      -5     1     1     2     0   503  8.046165936E+01 -3.375467093E+01 -4.786901514E+02  4.866007398E+02  4.750000000E+00  0.00000E+00  9.000E+00
      21     1     1     2   503   511 -2.327346112E+00  1.370478106E+01 -1.587075595E+02  1.593151813E+02  1.907348633E-06  0.00000E+00  9.000E+00
#rwgt            1           9  0.19775732221931180                8      262038           0
</event>
<event>
      6   9999  3.45752E-01  2.72364E+01 -1.00000E+00  1.50605E-01
      21    -1     0     0   502   503  0.000000000E+00  0.000000000E+00  3.457285249E+01  3.457285249E+01  0.000000000E+00  0.00000E+00  9.000E+00
      21    -1     0     0   512   502  0.000000000E+00  0.000000000E+00 -1.233941842E+03  1.233941842E+03  0.000000000E+00  0.00000E+00  9.000E+00
      25     1     1     2     0     0  3.285024917E+01 -3.507709633E+01 -1.171403427E+02  1.779230148E+02  1.250007911E+02  0.00000E+00  9.000E+00
       5     1     1     2   501     0 -8.998114841E+00 -3.680085105E+00 -4.896438172E+02  4.897633503E+02  4.750000000E+00  0.00000E+00  9.000E+00
      -5     1     1     2     0   503 -4.564167777E+01  5.509850011E+01 -4.476649725E+02  4.533712580E+02  4.750000000E+00  0.00000E+00  9.000E+00
      21     1     1     2   512   501  2.178954344E+01 -1.634131867E+01 -1.449198573E+02  1.474570715E+02  2.697398305E-06  0.00000E+00  9.000E+00
#rwgt            1           9   1.4749528636422393E-004           8      264709           0
</event>
<event>
      6   9999 -3.45752E-01  2.50882E+00 -1.00000E+00  2.98935E-01
       1    -1     0     0   501     0  0.000000000E+00  0.000000000E+00  8.798327819E+02  8.798327819E+02  0.000000000E+00  0.00000E+00  9.000E+00
      21    -1     0     0   502   503  0.000000000E+00  0.000000000E+00 -7.719999407E+02  7.719999407E+02  0.000000000E+00  0.00000E+00  9.000E+00
      25     1     1     2     0     0  1.270526485E-01 -3.828168126E+00 -7.092935929E+02  7.202352764E+02  1.250071253E+02  0.00000E+00  9.000E+00
       5     1     1     2   501     0 -9.065738495E-01  2.531052298E+00  5.737629721E+00  7.919027509E+00  4.750000000E+00  0.00000E+00  9.000E+00
      -5     1     1     2     0   503 -1.579718197E+00  4.437946451E-01 -5.603053494E+01  5.625545137E+01  4.750000000E+00  0.00000E+00  9.000E+00
       1     1     1     2   502     0  2.359239398E+00  8.533211835E-01  8.674193393E+02  8.674229674E+02  1.078959322E-05  0.00000E+00  9.000E+00
#rwgt            1           9  -6.9410616297857280E-004           8      266207           0
</event>
<event>
      6   9999 -3.45752E-01  3.76458E+00 -1.00000E+00  2.53432E-01
      21    -1     0     0   501   502  0.000000000E+00  0.000000000E+00  5.036472375E+01  5.036472375E+01  0.000000000E+00  0.00000E+00  9.000E+00
       2    -1     0     0   502     0  0.000000000E+00  0.000000000E+00 -3.358672422E+03  3.358672422E+03  0.000000000E+00  0.00000E+00  9.000E+00
      25     1     1     2     0     0 -2.510647720E+00  7.919123538E-01 -1.396561123E+03  1.402146914E+03  1.250042723E+02  0.00000E+00  9.000E+00
       5     1     1     2   501     0  8.160489492E-01  1.326672790E+00  4.356598916E+01  4.385184042E+01  4.750000000E+00  0.00000E+00  9.000E+00
      -5     1     1     2     0   503  7.798344222E-01  1.533166907E+00  2.208645601E+00  5.513561270E+00  4.750000000E+00  0.00000E+00  9.000E+00
       2     1     1     2   503     0  9.147643483E-01 -3.651752051E+00 -1.957521210E+03  1.957524830E+03  0.000000000E+00  0.00000E+00  9.000E+00
#rwgt            1           9  -1.0546999778209694E-004           8      273551           0
</event>
<event>
      6   9999 -3.45752E-01  2.13600E+01 -1.00000E+00  1.58060E-01
      21    -1     0     0   501   502  0.000000000E+00  0.000000000E+00  1.850564643E+01  1.850564643E+01  0.000000000E+00  0.00000E+00  9.000E+00
      21    -1     0     0   511   503  0.000000000E+00  0.000000000E+00 -4.416027424E+03  4.416027424E+03  0.000000000E+00  0.00000E+00  9.000E+00
      25     1     1     2     0     0 -1.595406874E+01  6.999979201E+00 -4.078787965E+03  4.080740156E+03  1.250017097E+02  0.00000E+00  9.000E+00
       5     1     1     2   501     0  6.824436831E+00  6.356209598E+00  8.461731741E+00  1.345874224E+01  4.750000000E+00  0.00000E+00  9.000E+00
      -5     1     1     2     0   503  1.134961051E+01  7.888183886E+00 -2.368662235E+00  1.480574768E+01  4.750000000E+00  0.00000E+00  9.000E+00
      21     1     1     2   511   502 -2.219978593E+00 -2.124437268E+01 -3.248268822E+02  3.255284243E+02  5.394796609E-06  0.00000E+00  9.000E+00
#rwgt            1           9  -4.1489465725636950E-002           8      280928           0
</event>
<event>
      6   9999  3.45752E-01  1.67870E+01 -1.00000E+00  1.66241E-01
      21    -1     0     0   501   502  0.000000000E+00  0.000000000E+00  7.356530023E+01  7.356530023E+01  0.000000000E+00  0.00000E+00  9.000E+00
       2    -1     0     0   502     0  0.000000000E+00  0.000000000E+00 -8.065064256E+02  8.065064256E+02  0.000000000E+00  0.00000E+00  9.000E+00
      25     1     1     2     0     0 -1.433229910E+01 -6.933091069E+00 -2.537960486E+02  2.833569396E+02  1.250009534E+02  0.00000E+00  9.000E+00
       5     1     1     2   501     0  1.212742124E-01 -2.541849367E+00  5.724907282E+01  5.750212643E+01  4.750000000E+00  0.00000E+00  9.000E+00
      -5     1     1     2     0   503  3.664077053E-01 -1.880986373E-02 -3.165700099E+00  5.720031952E+00  4.750000000E+00  0.00000E+00  9.000E+00
       2     1     1     2   503     0  1.384461719E+01  9.493750300E+00 -5.332284494E+02  5.334926279E+02  1.078959322E-05  0.00000E+00  9.000E+00
#rwgt            1           9   1.0007995827972796E-004           8      282975           0
</event>
<event>
      6   9999  3.45752E-01  1.44024E+01 -1.00000E+00  1.71916E-01
      21    -1     0     0   502   503  0.000000000E+00  0.000000000E+00  4.594092608E+02  4.594092608E+02  0.000000000E+00  0.00000E+00  9.000E+00
      21    -1     0     0   501   511  0.000000000E+00  0.000000000E+00 -2.583965797E+01  2.583965797E+01  0.000000000E+00  0.00000E+00  9.000E+00
      25     1     1     2     0     0  6.425736049E+00 -1.487700370E+01  2.019067068E+02  2.380220913E+02  1.250023294E+02  0.00000E+00  9.000E+00
       5     1     1     2   501     0 -3.917099858E-01  6.363501109E-01  4.371652229E+01  4.398016825E+01  4.750000000E+00  0.00000E+00  9.000E+00
      -5     1     1     2     0   503 -8.087258738E+00  2.849591043E+01  1.863577195E+02  1.887569410E+02  4.750000000E+00  0.00000E+00  9.000E+00
      21     1     1     2   502   511  2.053232675E+00 -1.425525685E+01  1.588654206E+00  1.448971823E+01  3.781490785E-07  0.00000E+00  9.000E+00
#rwgt            1           9   8.9830345849844801E-005           8      284934           0
</event>
<event>
      6   9999  3.45752E-01  8.20683E+00 -1.00000E+00  1.96712E-01
      21    -1     0     0   501   502  0.000000000E+00  0.000000000E+00  8.143130840E+02  8.143130840E+02  0.000000000E+00  0.00000E+00  9.000E+00
      21    -1     0     0   502   512  0.000000000E+00  0.000000000E+00 -1.303312809E+02  1.303312809E+02  0.000000000E+00  0.00000E+00  9.000E+00
      25     1     1     2     0     0 -8.277305430E+00 -2.840245414E+01  2.133059350E+02  2.489984102E+02  1.250022929E+02  0.00000E+00  9.000E+00
       5     1     1     2   501     0  4.539715914E+00 -1.963831136E+00  5.164150165E+02  5.164605478E+02  4.750000000E+00  0.00000E+00  9.000E+00
      -5     1     1     2     0   503  9.939729334E+00  2.499175578E+01  6.376819623E+01  6.937096962E+01  4.750000000E+00  0.00000E+00  9.000E+00
      21     1     1     2   503   512 -6.202139818E+00  5.374529490E+00 -1.095073446E+02  1.098144373E+02  3.303624740E-06  0.00000E+00  9.000E+00
#rwgt            1           9   6.9387828714577438E-004           8      286881           0
</event>
<event>
      6   9999  3.45752E-01  2.11535E+01 -1.00000E+00  1.58374E-01
      21    -1     0     0   501   502  0.000000000E+00  0.000000000E+00  6.475267822E+01  6.475267822E+01  0.000000000E+00  0.00000E+00  9.000E+00
      21    -1     0     0   511   503  0.000000000E+00  0.000000000E+00 -1.643685940E+03  1.643685940E+03  0.000000000E+00  0.00000E+00  9.000E+00
      25     1     1     2     0     0 -2.730348020E+02 -2.415450826E+01 -8.864231852E+02  9.362168852E+02  1.249981976E+02  0.00000E+00  9.000E+00
       5     1     1     2   501     0 -2.626860794E+00  3.528314409E+00  1.175596437E+01  1.342067802E+01  4.750000000E+00  0.00000E+00  9.000E+00
      -5     1     1     2     0   503  2.590115087E+02  3.367398363E+01 -6.465722635E+02  6.973515278E+02  4.750000000E+00  0.00000E+00  9.000E+00
      21     1     1     2   511   502  1.665015406E+01 -1.304778977E+01 -5.769377739E+01  6.144952724E+01  6.743495762E-07  0.00000E+00  9.000E+00
#rwgt            1           9   3.8521536957682313E-003           8      289983           0
</event>
<event>
      6   9999  3.45752E-01  3.45321E+01 -1.00000E+00  1.43991E-01
      21    -1     0     0   512   502  0.000000000E+00  0.000000000E+00  7.032700490E+02  7.032700490E+02  0.000000000E+00  0.00000E+00  9.000E+00
      21    -1     0     0   502   503  0.000000000E+00  0.000000000E+00 -1.348816938E+03  1.348816938E+03  0.000000000E+00  0.00000E+00  9.000E+00
      25     1     1     2     0     0 -5.633388089E+01 -1.411052985E+02 -8.074335918E+02  8.310586112E+02  1.250007947E+02  0.00000E+00  9.000E+00
       5     1     1     2   501     0 -7.154485275E+00 -6.051733755E+00  3.050215396E+01  3.226071972E+01  4.750000000E+00  0.00000E+00  9.000E+00
      -5     1     1     2     0   503  6.319017201E+01  1.126262015E+02 -5.203306479E+02  5.361382329E+02  4.750000000E+00  0.00000E+00  9.000E+00
      21     1     1     2   512   501  2.981941609E-01  3.453083076E+01  6.517151965E+02  6.526294236E+02  1.078959322E-05  0.00000E+00  9.000E+00
#rwgt            1           9   3.7825497423875907E-004           8      292705           0
</event>
<event>
      6   9999  3.45752E-01  9.51061E+00 -1.00000E+00  1.89519E-01
      21    -1     0     0   501   502  0.000000000E+00  0.000000000E+00  2.639428150E+03  2.639428150E+03  0.000000000E+00  0.00000E+00  9.000E+00
      21    -1     0     0   511   503  0.000000000E+00  0.000000000E+00 -5.687966585E+00  5.687966585E+00  0.000000000E+00  0.00000E+00  9.000E+00
      25     1     1     2     0     0 -3.162265975E+00 -1.054522498E+01  7.599280275E+02  7.702184635E+02  1.249986908E+02  0.00000E+00  9.000E+00
       5     1     1     2   501     0 -3.625477009E+00 -1.599011762E-01  1.358113771E+03  1.358126926E+03  4.750000000E+00  0.00000E+00  9.000E+00
      -5     1     1     2     0   503  1.499468171E+00  1.860992643E+01  4.472558295E+02  4.476705455E+02  4.750000000E+00  0.00000E+00  9.000E+00
      21     1     1     2   511   502  5.288274814E+00 -7.904800279E+00  6.844255568E+01  6.910018195E+01  0.000000000E+00  0.00000E+00  9.000E+00
#rwgt            1           9   1.0895434954854379E-003           8      294483           0
</event>
<event>
      6   9999  3.45752E-01  4.62174E+01 -1.00000E+00  1.36641E-01
      21    -1     0     0   512   502  0.000000000E+00  0.000000000E+00  5.762641761E+01  5.762641761E+01  0.000000000E+00  0.00000E+00  9.000E+00
      21    -1     0     0   502   503  0.000000000E+00  0.000000000E+00 -1.955187822E+02  1.955187822E+02  0.000000000E+00  0.00000E+00  9.000E+00
      25     1     1     2     0     0 -1.557919119E+01  2.151886666E+01 -1.282526399E+02  1.810501027E+02  1.249985088E+02  0.00000E+00  9.000E+00
       5     1     1     2   501     0 -1.608247437E+00  1.474886012E+00 -3.139566773E-01  5.236679994E+00  4.750000000E+00  0.00000E+00  9.000E+00
      -5     1     1     2     0   503 -1.558932012E+01  9.590421713E+00 -8.244111300E+00  2.062840182E+01  4.750000000E+00  0.00000E+00  9.000E+00
      21     1     1     2   512   501  3.277675874E+01 -3.258417438E+01 -1.081656627E+00  4.623001530E+01  8.205115734E-07  0.00000E+00  9.000E+00
#rwgt            1           9   3.1179262994793022E-002           8      297033           0
</event>
<event>
      6   9999  3.45752E-01  1.47475E+01 -1.00000E+00  1.71013E-01
      21    -1     0     0   511   502  0.000000000E+00  0.000000000E+00  1.190135137E+01  1.190135137E+01  0.000000000E+00  0.00000E+00  9.000E+00
      21    -1     0     0   502   503  0.000000000E+00  0.000000000E+00 -8.114575581E+02  8.114575581E+02  0.000000000E+00  0.00000E+00  9.000E+00
      25     1     1     2     0     0 -1.220610812E+01 -5.867834089E-01 -6.702964593E+02  6.819616501E+02  1.250000619E+02  0.00000E+00  9.000E+00
       5     1     1     2   501     0 -3.486154323E+00  9.509043224E-01  1.745265661E+00  6.218194531E+00  4.750000000E+00  0.00000E+00  9.000E+00
      -5     1     1     2     0   503  9.458580845E-01 -1.805731884E-01 -1.062760160E+02  1.063864715E+02  4.750000000E+00  0.00000E+00  9.000E+00
      21     1     1     2   511   501  1.474640436E+01 -1.835477251E-01 -2.472899715E+01  2.879259334E+01  5.840038640E-07  0.00000E+00  9.000E+00
#rwgt            1           9   2.4140363906143734E-003           8      298324           0
</event>
<event>
      6   9999  3.45752E-01  1.10202E+01 -1.00000E+00  1.82857E-01
      21    -1     0     0   512   502  0.000000000E+00  0.000000000E+00  1.609189199E+01  1.609189199E+01  0.000000000E+00  0.00000E+00  9.000E+00
      21    -1     0     0   502   503  0.000000000E+00  0.000000000E+00 -9.348862959E+02  9.348862959E+02  0.000000000E+00  0.00000E+00  9.000E+00
      25     1     1     2     0     0 -7.671925170E+00  1.235502101E+01 -4.607529804E+02  4.776293151E+02  1.249997949E+02  0.00000E+00  9.000E+00
       5     1     1     2   501     0  3.409131985E-01  4.027738405E-01  5.696686812E+00  7.435939027E+00  4.750000000E+00  0.00000E+00  9.000E+00
      -5     1     1     2     0   503  1.195052123E+01 -2.752586768E+00 -4.339900557E+02  4.341892705E+02  4.750000000E+00  0.00000E+00  9.000E+00
      21     1     1     2   512   501 -4.619509254E+00 -1.000520808E+01 -2.974805460E+01  3.172366320E+01  0.000000000E+00  0.00000E+00  9.000E+00
#rwgt            1           9   4.2375155925379699E-003           8      300127           0
</event>
<event>
      6   9999  3.45752E-01  1.93771E+01 -1.00000E+00  1.61266E-01
      21    -1     0     0   501   502  0.000000000E+00  0.000000000E+00  7.322904268E+01  7.322904268E+01  0.000000000E+00  0.00000E+00  9.000E+00
      21    -1     0     0   511   503  0.000000000E+00  0.000000000E+00 -1.592382712E+03  1.592382712E+03  0.000000000E+00  0.00000E+00  9.000E+00
      25     1     1     2     0     0  1.053352593E+02 -2.806810204E+01 -3.914111173E+02  4.251009852E+02  1.249993986E+02  0.00000E+00  9.000E+00
       5     1     1     2   501     0 -1.075455816E+01 -4.315178143E-01  5.207970951E+01  5.339199726E+01  4.750000000E+00  0.00000E+00  9.000E+00
      -5     1     1     2     0   503 -9.590076567E+01  4.783169504E+01 -1.087921605E+03  1.093197516E+03  4.750000000E+00  0.00000E+00  9.000E+00
      21     1     1     2   511   502  1.320064551E+00 -1.933207518E+01 -9.190065677E+01  9.392125647E+01  1.907348633E-06  0.00000E+00  9.000E+00
#rwgt            1           9   1.7520050794867330E-003           8      302628           0
</event>
<event>
      6   9999  3.45752E-01  3.46724E+01 -1.00000E+00  1.43883E-01
      21    -1     0     0   512   502  0.000000000E+00  0.000000000E+00  2.740522686E+02  2.740522686E+02  0.000000000E+00  0.00000E+00  9.000E+00
      21    -1     0     0   502   503  0.000000000E+00  0.000000000E+00 -2.864283203E+03  2.864283203E+03  0.000000000E+00  0.00000E+00  9.000E+00
      25     1     1     2     0     0  4.944590570E+01 -1.398808090E+01 -2.798136348E+03  2.801398079E+03  1.249944547E+02  0.00000E+00  9.000E+00
       5     1     1     2   501     0 -1.295549372E+01  4.082491768E+00  1.246692947E+02  1.254970402E+02  4.750000000E+00  0.00000E+00  9.000E+00
      -5     1     1     2     0   503 -3.838027876E+00 -1.756102005E+00 -6.189739136E+01  6.222269610E+01  4.750000000E+00  0.00000E+00  9.000E+00
      21     1     1     2   512   501 -3.265238411E+01  1.166169114E+01  1.451335099E+02  1.492176562E+02  4.672030912E-06  0.00000E+00  9.000E+00
#rwgt            1           9   5.1638155695255266E-004           8      305999           0
</event>
<event>
      6   9999  3.45752E-01  3.08507E+01 -1.00000E+00  1.47057E-01
      21    -1     0     0   501   502  0.000000000E+00  0.000000000E+00  3.694343255E+01  3.694343255E+01  0.000000000E+00  0.00000E+00  9.000E+00
      21    -1     0     0   502   511  0.000000000E+00  0.000000000E+00 -1.430989162E+03  1.430989162E+03  0.000000000E+00  0.00000E+00  9.000E+00
      25     1     1     2     0     0 -1.600836677E+01  1.186995750E+02 -2.367919949E+02  2.933288158E+02  1.250019537E+02  0.00000E+00  9.000E+00
       5     1     1     2   501     0  3.681151630E-01  2.113287414E+00  4.165722194E+00  6.672123640E+00  4.750000000E+00  0.00000E+00  9.000E+00
      -5     1     1     2     0   503  5.046235230E+00 -9.183812212E+01 -8.391881704E+02  8.442268967E+02  4.750000000E+00  0.00000E+00  9.000E+00
      21     1     1     2   503   511  1.059401637E+01 -2.897474033E+01 -3.222312859E+02  3.237047581E+02  3.814697266E-06  0.00000E+00  9.000E+00
#rwgt            1           9   5.2429186435696738E-002           8      308731           0
</event>
<event>
      6   9999  3.45752E-01  1.08134E+01 -1.00000E+00  1.83686E-01
       2    -1     0     0   501     0  0.000000000E+00  0.000000000E+00  3.802333079E+03  3.802333079E+03  0.000000000E+00  0.00000E+00  9.000E+00
      21    -1     0     0   512   502  0.000000000E+00  0.000000000E+00 -1.345406456E+01  1.345406456E+01  0.000000000E+00  0.00000E+00  9.000E+00
      25     1     1     2     0     0  7.225022464E+01  6.250284183E+01  2.270368832E+03  2.275813574E+03  1.250043529E+02  0.00000E+00  9.000E+00
       5     1     1     2   501     0 -1.940216821E+01  3.385927249E+01  7.718811225E+02  7.728815719E+02  4.750000000E+00  0.00000E+00  9.000E+00
      -5     1     1     2     0   502 -6.363913145E+01 -9.705665641E+01  7.472849256E+02  7.562587231E+02  4.750000000E+00  0.00000E+00  9.000E+00
       2     1     1     2   512     0  1.079107502E+01  6.945420910E-01 -6.558656199E-01  1.083327506E+01  4.873158165E-07  0.00000E+00  9.000E+00
#rwgt            1           4   3.9725976207679177E-004           8      310356           0
</event>
<event>
      6   9999  3.45752E-01  1.02404E+01 -1.00000E+00  1.86113E-01
      21    -1     0     0   501   502  0.000000000E+00  0.000000000E+00  1.054074817E+02  1.054074817E+02  0.000000000E+00  0.00000E+00  9.000E+00
      21    -1     0     0   502   511  0.000000000E+00  0.000000000E+00 -7.196391654E+01  7.196391654E+01  0.000000000E+00  0.00000E+00  9.000E+00
      25     1     1     2     0     0 -3.811044510E+00 -8.839734335E+00  3.120894720E+01  1.292101569E+02  1.250144043E+02  0.00000E+00  9.000E+00
       5     1     1     2   501     0 -1.172138810E+00 -6.122685073E-01  2.067191006E+01  2.125180340E+01  4.750000000E+00  0.00000E+00  9.000E+00
      -5     1     1     2     0   503 -1.499623928E-01  5.910000431E-01  1.043260607E+00  4.901291918E+00  4.750000000E+00  0.00000E+00  9.000E+00
      21     1     1     2   503   511  5.133145712E+00  8.861002799E+00 -1.948055275E+01  2.200814601E+01  2.384185791E-07  0.00000E+00  9.000E+00
#rwgt            1           9   4.7140327370345054E-003           8      310716           0
</event>
<event>
      6   9999  3.45752E-01  1.74575E+01 -1.00000E+00  1.64852E-01
      21    -1     0     0   501   502  0.000000000E+00  0.000000000E+00  9.147683760E+01  9.147683760E+01  0.000000000E+00  0.00000E+00  9.000E+00
      21    -1     0     0   502   512  0.000000000E+00  0.000000000E+00 -1.640780726E+03  1.640780726E+03  0.000000000E+00  0.00000E+00  9.000E+00
      25     1     1     2     0     0 -2.597616408E+01  1.633218649E+00 -9.864898885E+02  9.947183899E+02  1.249997865E+02  0.00000E+00  9.000E+00
       5     1     1     2   501     0  1.254510984E+01  8.818464521E+00  8.515199515E+01  8.665200445E+01  4.750000000E+00  0.00000E+00  9.000E+00
      -5     1     1     2     0   503  1.056632576E+00  1.862392148E+00 -5.968414810E+02  5.968642232E+02  4.750000000E+00  0.00000E+00  9.000E+00
      21     1     1     2   503   512  1.237442166E+01 -1.231407532E+01 -5.112451393E+01  5.402294593E+01  0.000000000E+00  0.00000E+00  9.000E+00
#rwgt            1           9  0.10587029403349926                8      312667           0
</event>
<event>
      6   9999  3.45752E-01  1.25651E+01 -1.00000E+00  1.77319E-01
      21    -1     0     0   501   502  0.000000000E+00  0.000000000E+00  8.552571369E+00  8.552571369E+00  0.000000000E+00  0.00000E+00  9.000E+00
      21    -1     0     0   511   503  0.000000000E+00  0.000000000E+00 -8.216843555E+02  8.216843555E+02  0.000000000E+00  0.00000E+00  9.000E+00
      25     1     1     2     0     0 -3.546513977E-01 -1.377270730E+01 -6.698539638E+02  6.815857569E+02  1.251598896E+02  0.00000E+00  9.000E+00
       5     1     1     2   501     0  6.945285551E-01 -1.826636884E-01 -6.865381448E+00  8.379242111E+00  4.750000000E+00  0.00000E+00  9.000E+00
      -5     1     1     2     0   503  9.627862098E+00  6.305170382E+00 -2.289637551E+01  2.606256729E+01  4.750000000E+00  0.00000E+00  9.000E+00
      21     1     1     2   511   502 -9.967739255E+00  7.650200602E+00 -1.135160634E+02  1.142093606E+02  1.907348633E-06  0.00000E+00  9.000E+00
#rwgt            1           9   3.3180456182198113E-004           8      315701           0
</event>
<event>
      6   9999  3.45752E-01  2.09925E+01 -1.00000E+00  1.58621E-01
      21    -1     0     0   501   502  0.000000000E+00  0.000000000E+00  1.132482233E+01  1.132482233E+01  0.000000000E+00  0.00000E+00  9.000E+00
      21    -1     0     0   512   503  0.000000000E+00  0.000000000E+00 -1.504116905E+03  1.504116905E+03  0.000000000E+00  0.00000E+00  9.000E+00
      25     1     1     2     0     0 -3.256823460E+01  8.161578935E+00 -7.525230057E+02  7.635727409E+02  1.250006214E+02  0.00000E+00  9.000E+00
       5     1     1     2   501     0 -1.564041783E+00  1.782876696E+00  2.677767020E+00  5.946243539E+00  4.750000000E+00  0.00000E+00  9.000E+00
      -5     1     1     2     0   503  1.702146254E+01  2.217209458E+00 -5.843169950E+01  6.108577749E+01  4.750000000E+00  0.00000E+00  9.000E+00
      21     1     1     2   512   502  1.711081384E+01 -1.216166509E+01 -6.845151448E+02  6.848369656E+02  0.000000000E+00  0.00000E+00  9.000E+00
#rwgt            1           9   8.5123931441995803E-005           8      317436           0
</event>
<event>
      6   9999  3.45752E-01  8.03333E+00 -1.00000E+00  1.97802E-01
      21    -1     0     0   501   502  0.000000000E+00  0.000000000E+00  1.091088369E+01  1.091088369E+01  0.000000000E+00  0.00000E+00  9.000E+00
      21    -1     0     0   511   503  0.000000000E+00  0.000000000E+00 -1.149002780E+03  1.149002780E+03  0.000000000E+00  0.00000E+00  9.000E+00
      25     1     1     2     0     0  4.863600098E+00  7.749527780E+00 -7.588063041E+02  7.690877962E+02  1.250012855E+02  0.00000E+00  9.000E+00
       5     1     1     2   501     0  1.641454661E-01  1.278496465E-01  4.182962618E+00  6.332690229E+00  4.750000000E+00  0.00000E+00  9.000E+00
      -5     1     1     2     0   503  1.438518176E+00 -3.110628698E+00 -1.785123430E+01  1.878761325E+01  4.750000000E+00  0.00000E+00  9.000E+00
      21     1     1     2   511   502 -6.466263741E+00 -4.766748728E+00 -3.656173210E+02  3.657055644E+02  0.000000000E+00  0.00000E+00  9.000E+00
#rwgt            1           9   6.7723012533293632E-005           8      319174           0
</event>
<event>
      6   9999  3.45752E-01  4.54566E+01 -1.00000E+00  1.37039E-01
      21    -1     0     0   501   502  0.000000000E+00  0.000000000E+00  1.207189768E+01  1.207189768E+01  0.000000000E+00  0.00000E+00  9.000E+00
       2    -1     0     0   502     0  0.000000000E+00  0.000000000E+00 -2.569577505E+03  2.569577505E+03  0.000000000E+00  0.00000E+00  9.000E+00
      25     1     1     2     0     0  7.802241407E+00 -1.116390810E+01 -4.754790650E+02  4.918251045E+02  1.250043372E+02  0.00000E+00  9.000E+00
       5     1     1     2   501     0 -1.393046595E+00 -3.552611068E+00 -4.223291402E+00  7.413522407E+00  4.750000000E+00  0.00000E+00  9.000E+00
      -5     1     1     2     0   503 -2.395479448E+01 -2.721742740E+01 -1.623102645E+02  1.663784992E+02  4.750000000E+00  0.00000E+00  9.000E+00
       2     1     1     2   503     0  1.754559967E+01  4.193394658E+01 -1.915492987E+03  1.916032277E+03  2.157918644E-05  0.00000E+00  9.000E+00
#rwgt            1           9   7.4836021388875664E-004           8      321964           0
</event>
<event>
      6   9999  3.45752E-01  6.07790E+00 -1.00000E+00  2.13280E-01
      21    -1     0     0   502   511  0.000000000E+00  0.000000000E+00  5.525704569E+00  5.525704569E+00  0.000000000E+00  0.00000E+00  9.000E+00
      21    -1     0     0   501   502  0.000000000E+00  0.000000000E+00 -1.403545494E+03  1.403545494E+03  0.000000000E+00  0.00000E+00  9.000E+00
      25     1     1     2     0     0  3.689236241E+01 -4.016394472E+00 -1.003592819E+03  1.012028489E+03  1.250037553E+02  0.00000E+00  9.000E+00
       5     1     1     2   501     0 -2.557164705E+01  6.054928689E+00 -3.238134545E+02  3.249127377E+02  4.750000000E+00  0.00000E+00  9.000E+00
      -5     1     1     2     0   503 -6.677714356E+00  1.883641412E+00 -4.703564984E+01  4.778132302E+01  4.750000000E+00  0.00000E+00  9.000E+00
      21     1     1     2   503   511 -4.643001003E+00 -3.922175628E+00 -2.357786553E+01  2.434864807E+01  3.371747881E-07  0.00000E+00  9.000E+00
#rwgt            1           9   5.3943811324903931E-002           8      322506           0
</event>
<event>
      6   9999  3.45752E-01  8.69437E+00 -1.00000E+00  1.93830E-01
      21    -1     0     0   501   502  0.000000000E+00  0.000000000E+00  3.366632738E+00  3.366632738E+00  0.000000000E+00  0.00000E+00  9.000E+00
      21    -1     0     0   502   512  0.000000000E+00  0.000000000E+00 -4.013169212E+03  4.013169212E+03  0.000000000E+00  0.00000E+00  9.000E+00
      25     1     1     2     0     0 -1.047821566E+01 -1.277774123E+01 -2.015151250E+03  2.019088491E+03  1.249428299E+02  0.00000E+00  9.000E+00
       5     1     1     2   501     0  1.872611878E+01 -3.518174408E+01 -3.966880757E+02  3.987134491E+02  4.750000000E+00  0.00000E+00  9.000E+00
      -5     1     1     2     0   503 -4.000859913E+00  4.037300034E+01 -1.278595507E+03  1.279247833E+03  4.750000000E+00  0.00000E+00  9.000E+00
      21     1     1     2   503   512 -4.247043208E+00  7.586484970E+00 -3.193677472E+02  3.194860718E+02  5.394796609E-06  0.00000E+00  9.000E+00
#rwgt            1           9   6.2937779577895590E-003           8      325738           0
</event>
<event>
      6   9999  3.45752E-01  2.43679E+01 -1.00000E+00  1.53927E-01
      21    -1     0     0   501   502  0.000000000E+00  0.000000000E+00  2.619599490E+01  2.619599490E+01  0.000000000E+00  0.00000E+00  9.000E+00
      -2    -1     0     0     0   503  0.000000000E+00  0.000000000E+00 -1.729903478E+03  1.729903478E+03  0.000000000E+00  0.00000E+00  9.000E+00
      25     1     1     2     0     0  6.145537250E+00  2.866181251E+01 -9.952498473E+02  1.003496281E+03  1.249930388E+02  0.00000E+00  9.000E+00
       5     1     1     2   501     0  4.055215768E+00 -4.007526149E+00  1.871785626E+01  2.013518522E+01  4.750000000E+00  0.00000E+00  9.000E+00
      -5     1     1     2     0   503  1.410685366E+01 -2.294053774E+01 -7.487648705E+01  7.971400382E+01  4.750000000E+00  0.00000E+00  9.000E+00
      -2     1     1     2     0   502 -2.430760668E+01 -1.713748621E+00 -6.522990055E+02  6.527540036E+02  0.000000000E+00  0.00000E+00  9.000E+00
#rwgt            1           9   2.1289724760904587E-004           8      328565           0
</event>
<event>
      6   9999 -3.45752E-01  5.67163E+00 -1.00000E+00  2.17520E-01
      21    -1     0     0   501   511  0.000000000E+00  0.000000000E+00  5.866686982E+01  5.866686982E+01  0.000000000E+00  0.00000E+00  9.000E+00
      21    -1     0     0   502   503  0.000000000E+00  0.000000000E+00 -1.044001043E+03  1.044001043E+03  0.000000000E+00  0.00000E+00  9.000E+00
      25     1     1     2     0     0 -4.526946592E+01  1.249118901E+01 -7.926106963E+01  1.552283051E+02  1.249326027E+02  0.00000E+00  9.000E+00
       5     1     1     2   501     0  2.504183120E+01 -1.054292784E+00 -1.524122426E+02  1.545323883E+02  4.750000000E+00  0.00000E+00  9.000E+00
      -5     1     1     2     0   503  1.940164259E+01 -5.825739239E+00 -7.727312437E+02  7.730113197E+02  4.750000000E+00  0.00000E+00  9.000E+00
      21     1     1     2   502   511  8.259921358E-01 -5.611156987E+00  1.907038246E+01  1.989589990E+01  1.168007728E-06  0.00000E+00  9.000E+00
#rwgt            1           9  -2.5534065326132849                8      330941           0
</event>
<event>
      6   9999  3.45752E-01  6.33678E+00 -1.00000E+00  2.10807E-01
      21    -1     0     0   501   502  0.000000000E+00  0.000000000E+00  2.240664126E+01  2.240664126E+01  0.000000000E+00  0.00000E+00  9.000E+00
       2    -1     0     0   502     0  0.000000000E+00  0.000000000E+00 -2.661645717E+03  2.661645717E+03  0.000000000E+00  0.00000E+00  9.000E+00
      25     1     1     2     0     0 -3.139469935E+00 -7.679051100E+01 -2.825373542E+02  3.183708567E+02  1.250040279E+02  0.00000E+00  9.000E+00
       5     1     1     2   501     0 -4.250760470E-01  3.656831883E-01 -1.323266273E-01  4.784811822E+00  4.750000000E+00  0.00000E+00  9.000E+00
      -5     1     1     2     0   503  9.686266656E+00  7.806170896E+01 -7.174195476E+02  7.217345939E+02  4.750000000E+00  0.00000E+00  9.000E+00
       2     1     1     2   503     0 -6.121720674E+00 -1.636881150E+00 -1.639149848E+03  1.639162096E+03  0.000000000E+00  0.00000E+00  9.000E+00
#rwgt            1           9   1.3741501516686457E-006           8      335860           0
</event>
<event>
      6   9999  3.45752E-01  2.37566E+01 -1.00000E+00  1.54707E-01
      21    -1     0     0   501   502  0.000000000E+00  0.000000000E+00  9.743730112E+02  9.743730112E+02  0.000000000E+00  0.00000E+00  9.000E+00
      21    -1     0     0   511   503  0.000000000E+00  0.000000000E+00 -7.262913601E+01  7.262913601E+01  0.000000000E+00  0.00000E+00  9.000E+00
      25     1     1     2     0     0 -7.748737744E+01 -5.935678996E+01  6.076547164E+02  6.280101400E+02  1.249998377E+02  0.00000E+00  9.000E+00
       5     1     1     2   501     0 -6.826133136E-01 -3.943346797E+00  2.882662319E+02  2.883331387E+02  4.750000000E+00  0.00000E+00  9.000E+00
      -5     1     1     2     0   503  8.606187348E+01  4.089272214E+01  2.666265204E+01  9.905715675E+01  4.750000000E+00  0.00000E+00  9.000E+00
      21     1     1     2   511   502 -7.891882720E+00  2.240741462E+01 -2.083972510E+01  3.160171175E+01  1.168007728E-06  0.00000E+00  9.000E+00
#rwgt            1           9   20.261460952447699                8      340050           0
</event>
<event>
      6   9999  3.45752E-01  2.39108E+01 -1.00000E+00  1.54507E-01
      21    -1     0     0   501   502  0.000000000E+00  0.000000000E+00  8.997213129E+00  8.997213129E+00  0.000000000E+00  0.00000E+00  9.000E+00
      21    -1     0     0   502   512  0.000000000E+00  0.000000000E+00 -1.027222877E+03  1.027222877E+03  0.000000000E+00  0.00000E+00  9.000E+00
      25     1     1     2     0     0 -3.074242046E+01  5.314868305E-01 -6.997842936E+02  7.115258556E+02  1.250024270E+02  0.00000E+00  9.000E+00
       5     1     1     2   501     0 -2.393259836E+00  1.483748826E+00 -2.058572960E+00  5.893167727E+00  4.750000000E+00  0.00000E+00  9.000E+00
      -5     1     1     2     0   503  9.560702146E+00  1.978139875E+00 -4.208115641E+01  4.345924858E+01  4.750000000E+00  0.00000E+00  9.000E+00
      21     1     1     2   503   512  2.357497815E+01 -3.993375532E+00 -2.743016414E+02  2.753418187E+02  3.814697266E-06  0.00000E+00  9.000E+00
#rwgt            1           9   4.1636295006700752E-004           8      341942           0
</event>
<event>
      6   9999  3.45752E-01  5.56002E+00 -1.00000E+00  2.18771E-01
      21    -1     0     0   501   502  0.000000000E+00  0.000000000E+00  5.546583486E+03  5.546583486E+03  0.000000000E+00  0.00000E+00  9.000E+00
      21    -1     0     0   502   511  0.000000000E+00  0.000000000E+00 -1.631054350E+00  1.631054350E+00  0.000000000E+00  0.00000E+00  9.000E+00
      25     1     1     2     0     0 -2.881187188E-01  8.394471788E+00  2.955531697E+03  2.958185725E+03  1.249984696E+02  0.00000E+00  9.000E+00
       5     1     1     2   501     0 -8.082865945E-01  5.823107613E-01  2.268211456E+03  2.268216648E+03  4.750000000E+00  0.00000E+00  9.000E+00
      -5     1     1     2     0   503 -3.551310494E+00 -5.925142748E+00  2.893461835E+02  2.894676071E+02  4.750000000E+00  0.00000E+00  9.000E+00
      21     1     1     2   503   511  4.647715808E+00 -3.051639801E+00  3.186309512E+01  3.234456057E+01  3.371747881E-07  0.00000E+00  9.000E+00
#rwgt            1           9   6.7822788021858231E-003           8      343228           0
</event>
<event>
      6   9999  3.45752E-01  1.23984E+01 -1.00000E+00  1.77867E-01
      21    -1     0     0   501   512  0.000000000E+00  0.000000000E+00  1.726487100E+01  1.726487100E+01  0.000000000E+00  0.00000E+00  9.000E+00
      21    -1     0     0   502   503  0.000000000E+00  0.000000000E+00 -9.481710747E+02  9.481710747E+02  0.000000000E+00  0.00000E+00  9.000E+00
      25     1     1     2     0     0 -2.381717670E+01 -8.220370049E+00 -7.841724288E+02  7.944723293E+02  1.250002061E+02  0.00000E+00  9.000E+00
       5     1     1     2   501     0 -8.551366795E-01 -2.964989542E+00  9.704970264E+00  1.123705342E+01  4.750000000E+00  0.00000E+00  9.000E+00
      -5     1     1     2     0   503  1.231290061E+01  1.020290388E+01 -1.217745858E+02  1.229118343E+02  4.750000000E+00  0.00000E+00  9.000E+00
      21     1     1     2   502   512  1.235941276E+01  9.824557092E-01 -3.466415936E+01  3.681472868E+01  0.000000000E+00  0.00000E+00  9.000E+00
#rwgt            1           9   1.2180264525024601E-004           8      346331           0
</event>
<event>
      6   9999  3.45752E-01  9.17200E+00 -1.00000E+00  1.91236E-01
      21    -1     0     0   501   502  0.000000000E+00  0.000000000E+00  4.763837105E+01  4.763837105E+01  0.000000000E+00  0.00000E+00  9.000E+00
      21    -1     0     0   502   511  0.000000000E+00  0.000000000E+00 -1.450864956E+03  1.450864956E+03  0.000000000E+00  0.00000E+00  9.000E+00
      25     1     1     2     0     0  7.023131157E+01  2.056040310E+01 -1.575850449E+02  2.140376520E+02  1.249956111E+02  0.00000E+00  9.000E+00
       5     1     1     2   501     0 -1.092377446E+00 -2.993568918E+00  1.783633208E+01  1.873104336E+01  4.750000000E+00  0.00000E+00  9.000E+00
      -5     1     1     2     0   503 -6.554349465E+01 -9.128919899E+00 -1.121607078E+03  1.123567660E+03  4.750000000E+00  0.00000E+00  9.000E+00
      21     1     1     2   503   511 -3.595439471E+00 -8.437914288E+00 -1.418707939E+02  1.421669714E+02  1.907348633E-06  0.00000E+00  9.000E+00
#rwgt            1           9   2.4221890242893542E-004           8      348883           0
</event>
<event>
      6   9999  3.45752E-01  1.08175E+01 -1.00000E+00  1.83669E-01
      21    -1     0     0   501   502  0.000000000E+00  0.000000000E+00  4.647010931E+00  4.647010931E+00  0.000000000E+00  0.00000E+00  9.000E+00
      21    -1     0     0   512   503  0.000000000E+00  0.000000000E+00 -2.801948585E+03  2.801948585E+03  0.000000000E+00  0.00000E+00  9.000E+00
      25     1     1     2     0     0  4.854240336E+00  3.563664290E+00 -2.401061880E+03  2.404320850E+03  1.249973354E+02  0.00000E+00  9.000E+00
       5     1     1     2   501     0 -2.332959141E+00  3.362363811E+00 -7.773830774E-01  6.317832951E+00  4.750000000E+00  0.00000E+00  9.000E+00
      -5     1     1     2     0   503  9.736973658E-01  3.311372277E+00 -5.308187845E+01  5.340563260E+01  4.750000000E+00  0.00000E+00  9.000E+00
      21     1     1     2   512   502 -3.494978562E+00 -1.023740038E+01 -3.423804322E+02  3.425512802E+02  3.814697266E-06  0.00000E+00  9.000E+00
#rwgt            1           9   9.7656384102612153E-004           8      353060           0
</event>
<event>
      6   9999  3.45752E-01  9.51843E+00 -1.00000E+00  1.89480E-01
      21    -1     0     0   511   502  0.000000000E+00  0.000000000E+00  1.714726579E+01  1.714726579E+01  0.000000000E+00  0.00000E+00  9.000E+00
      21    -1     0     0   502   503  0.000000000E+00  0.000000000E+00 -8.180167539E+02  8.180167539E+02  0.000000000E+00  0.00000E+00  9.000E+00
      25     1     1     2     0     0  6.624515771E+00 -1.765389158E+01 -5.640606471E+02  5.780527534E+02  1.250001123E+02  0.00000E+00  9.000E+00
       5     1     1     2   501     0  1.726717400E-01 -4.429202781E-01  2.441584218E+00  5.361886552E+00  4.750000000E+00  0.00000E+00  9.000E+00
      -5     1     1     2     0   503 -1.059124219E+01  9.367225038E+00 -2.415069542E+02  2.419671274E+02  4.750000000E+00  0.00000E+00  9.000E+00
      21     1     1     2   511   501  3.794054681E+00  8.729586823E+00  2.256528970E+00  9.782252298E+00  2.149076030E-07  0.00000E+00  9.000E+00
#rwgt            1           9   3.2788759601875574E-004           8      355185           0
</event>
<event>
      6   9999  3.45752E-01  3.48582E+00 -1.00000E+00  2.60904E-01
       2    -1     0     0   501     0  0.000000000E+00  0.000000000E+00  3.665215967E+02  3.665215967E+02  0.000000000E+00  0.00000E+00  9.000E+00
      21    -1     0     0   502   503  0.000000000E+00  0.000000000E+00 -8.205369163E+02  8.205369163E+02  0.000000000E+00  0.00000E+00  9.000E+00
      25     1     1     2     0     0  1.090213083E+00 -1.061210105E+00 -6.898619496E+02  7.010885421E+02  1.249532695E+02  0.00000E+00  9.000E+00
       5     1     1     2   501     0 -1.813490386E+00  2.291156953E+00  4.332139958E+00  7.061733794E+00  4.750000000E+00  0.00000E+00  9.000E+00
      -5     1     1     2     0   503 -2.755445154E+00 -1.007574813E+00 -1.236253186E+02  1.237513216E+02  4.750000000E+00  0.00000E+00  9.000E+00
       2     1     1     2   502     0  3.478722457E+00 -2.223720351E-01  3.551398086E+02  3.551569155E+02  7.629394531E-06  0.00000E+00  9.000E+00
#rwgt            1           9   3.3238392635225045E-004           8      357604           0
</event>
<event>
      6   9999  3.45752E-01  1.09258E+01 -1.00000E+00  1.83232E-01
      21    -1     0     0   501   502  0.000000000E+00  0.000000000E+00  6.218947049E+01  6.218947049E+01  0.000000000E+00  0.00000E+00  9.000E+00
      21    -1     0     0   511   503  0.000000000E+00  0.000000000E+00 -1.520164198E+03  1.520164198E+03  0.000000000E+00  0.00000E+00  9.000E+00
      25     1     1     2     0     0 -6.322216006E+01  7.131527274E+00 -6.204984855E+01  1.533708718E+02  1.249981617E+02  0.00000E+00  9.000E+00
       5     1     1     2   501     0 -4.449654482E+00  1.578761953E+00  1.495619453E+01  1.638725631E+01  4.750000000E+00  0.00000E+00  9.000E+00
      -5     1     1     2     0   503  5.719487410E+01 -1.180966973E+01 -1.208928591E+03  1.210347728E+03  4.750000000E+00  0.00000E+00  9.000E+00
      21     1     1     2   511   502  1.047694044E+01  3.099380499E+00 -2.019524820E+02  2.022478120E+02  2.697398305E-06  0.00000E+00  9.000E+00
#rwgt            1           9   8.3606135605411497E-002           8      363205           0
</event>
<event>
      6   9999  3.45752E-01  3.24493E+00 -1.00000E+00  2.68291E-01
      21    -1     0     0   512   502  0.000000000E+00  0.000000000E+00  1.392202157E+02  1.392202157E+02  0.000000000E+00  0.00000E+00  9.000E+00
      21    -1     0     0   502   503  0.000000000E+00  0.000000000E+00 -9.124303153E+02  9.124303153E+02  0.000000000E+00  0.00000E+00  9.000E+00
      25     1     1     2     0     0 -2.004858174E+01 -6.369003085E+00 -5.775163827E+02  5.912644403E+02  1.250038252E+02  0.00000E+00  9.000E+00
       5     1     1     2   501     0 -2.094106930E+00  1.236211500E+00  2.233380510E+00  5.784806929E+00  4.750000000E+00  0.00000E+00  9.000E+00
      -5     1     1     2     0   503  1.900949181E+01  5.976989950E+00 -3.259220521E+02  3.265652029E+02  4.750000000E+00  0.00000E+00  9.000E+00
      21     1     1     2   512   501  3.133196858E+00 -8.441983646E-01  1.279949547E+02  1.280360809E+02  4.672030912E-06  0.00000E+00  9.000E+00
#rwgt            1           9  0.35581503985872476                8      367328           0
</event>
<event>
      6   9999  3.45752E-01  4.10461E+00 -1.00000E+00  2.45552E-01
      21    -1     0     0   501   511  0.000000000E+00  0.000000000E+00  1.922822658E+02  1.922822658E+02  0.000000000E+00  0.00000E+00  9.000E+00
      21    -1     0     0   502   503  0.000000000E+00  0.000000000E+00 -6.316000232E+01  6.316000232E+01  0.000000000E+00  0.00000E+00  9.000E+00
      25     1     1     2     0     0  6.227042653E+00 -3.136524089E+00  1.016453420E+01  1.256118485E+02  1.250056194E+02  0.00000E+00  9.000E+00
       5     1     1     2   501     0 -1.153418200E+00  9.373478611E-01  8.117047542E+01  8.132292159E+01  4.750000000E+00  0.00000E+00  9.000E+00
      -5     1     1     2     0   503 -1.383638934E+00  3.996908900E+00 -3.334564942E+00  7.181334194E+00  4.750000000E+00  0.00000E+00  9.000E+00
      21     1     1     2   502   511 -3.689985519E+00 -1.797732672E+00  4.112181881E+01  4.132616384E+01  4.768371582E-07  0.00000E+00  9.000E+00
#rwgt            1           9   566.24616885082082                8      374141           0
</event>
<event>
      6   9999  3.45752E-01  2.76845E+00 -1.00000E+00  2.86365E-01
      21    -1     0     0   501   502  0.000000000E+00  0.000000000E+00  8.911973256E+00  8.911973256E+00  0.000000000E+00  0.00000E+00  9.000E+00
      21    -1     0     0   512   503  0.000000000E+00  0.000000000E+00 -7.716171966E+02  7.716171966E+02  0.000000000E+00  0.00000E+00  9.000E+00
      25     1     1     2     0     0 -1.083842575E+00  2.544179174E+01 -5.569702817E+02  5.713930934E+02  1.250028521E+02  0.00000E+00  9.000E+00
       5     1     1     2   501     0 -4.341162213E-01 -2.294777999E-01 -8.988042173E+00  1.017784452E+01  4.750000000E+00  0.00000E+00  9.000E+00
      -5     1     1     2     0   503  4.157711803E+00 -2.604657679E+01 -1.799092189E+02  1.818944757E+02  4.750000000E+00  0.00000E+00  9.000E+00
      21     1     1     2   512   502 -2.639753007E+00  8.342628523E-01 -1.683768059E+01  1.706375627E+01  0.000000000E+00  0.00000E+00  9.000E+00
#rwgt            1           9   5.2851309714775651E-004           8      378868           0
</event>
<event>
      6   9999  3.45752E-01  2.04030E+01 -1.00000E+00  1.59552E-01
      21    -1     0     0   501   502  0.000000000E+00  0.000000000E+00  1.432600028E+02  1.432600028E+02  0.000000000E+00  0.00000E+00  9.000E+00
      21    -1     0     0   511   503  0.000000000E+00  0.000000000E+00 -2.410412300E+02  2.410412300E+02  0.000000000E+00  0.00000E+00  9.000E+00
      25     1     1     2     0     0 -1.090675812E+02 -1.355606839E+01  1.846029599E+01  1.674674791E+02  1.250002791E+02  0.00000E+00  9.000E+00
       5     1     1     2   501     0 -1.618805338E+00 -2.331937719E+00  3.118584278E+01  3.167298146E+01  4.750000000E+00  0.00000E+00  9.000E+00
      -5     1     1     2     0   503  9.066662133E+01  1.195215687E+01 -1.184304927E+02  1.497051581E+02  4.750000000E+00  0.00000E+00  9.000E+00
      21     1     1     2   511   502  2.001976521E+01  3.935849236E+00 -2.899687328E+01  3.545561406E+01  4.768371582E-07  0.00000E+00  9.000E+00
#rwgt            1           9   2.6983197635724619E-004           8      384471           0
</event>
<event>
      6   9999  3.45752E-01  8.15908E+00 -1.00000E+00  1.97008E-01
      21    -1     0     0   512   502  0.000000000E+00  0.000000000E+00  4.302379458E+01  4.302379458E+01  0.000000000E+00  0.00000E+00  9.000E+00
      21    -1     0     0   502   503  0.000000000E+00  0.000000000E+00 -8.243537708E+02  8.243537708E+02  0.000000000E+00  0.00000E+00  9.000E+00
      25     1     1     2     0     0 -1.014462860E+01  4.716327660E+01 -6.311537066E+02  6.452170702E+02  1.249911126E+02  0.00000E+00  9.000E+00
       5     1     1     2   501     0  7.708597010E+00 -1.282632800E+01 -3.715623908E+01  4.033715112E+01  4.750000000E+00  0.00000E+00  9.000E+00
      -5     1     1     2     0   503 -3.272770884E+00 -4.016619748E+01 -1.440926736E+02  1.496973465E+02  4.750000000E+00  0.00000E+00  9.000E+00
      21     1     1     2   512   501  5.708802473E+00  5.829248880E+00  3.107264309E+01  3.212599753E+01  1.752011592E-06  0.00000E+00  9.000E+00
#rwgt            1           9   9.7483604474263302E-006           8      386428           0
</event>
<event>
      6   9999  3.45752E-01  8.89630E+00 -1.00000E+00  1.92707E-01
      21    -1     0     0   501   511  0.000000000E+00  0.000000000E+00  2.270524346E+01  2.270524346E+01  0.000000000E+00  0.00000E+00  9.000E+00
      21    -1     0     0   502   503  0.000000000E+00  0.000000000E+00 -8.510437161E+02  8.510437161E+02  0.000000000E+00  0.00000E+00  9.000E+00
      25     1     1     2     0     0  1.109250808E+01  4.979197814E+00 -3.564157883E+02  3.778961266E+02  1.250017289E+02  0.00000E+00  9.000E+00
       5     1     1     2   501     0  4.823595266E-01  3.073300887E-01 -1.624698319E+00  5.052649515E+00  4.750000000E+00  0.00000E+00  9.000E+00
      -5     1     1     2     0   503 -1.130082024E+01  3.605553873E+00 -4.785174668E+02  4.786880373E+02  4.750000000E+00  0.00000E+00  9.000E+00
      21     1     1     2   502   511 -2.740473660E-01 -8.892081776E+00  8.219480726E+00  1.211214612E+01  4.298152060E-07  0.00000E+00  9.000E+00
#rwgt            1           9   1.8636307146588412E-003           8      389025           0
</event>
<event>
      6   9999 -3.45752E-01  3.13293E+00 -1.00000E+00  2.72078E-01
      21    -1     0     0   501   502  0.000000000E+00  0.000000000E+00  1.431724750E+01  1.431724750E+01  0.000000000E+00  0.00000E+00  9.000E+00
      21    -1     0     0   512   503  0.000000000E+00  0.000000000E+00 -9.855586361E+02  9.855586361E+02  0.000000000E+00  0.00000E+00  9.000E+00
      25     1     1     2     0     0  8.464820693E+00 -2.554805975E+01 -7.830299722E+02  7.934013364E+02  1.250015467E+02  0.00000E+00  9.000E+00
       5     1     1     2   501     0 -2.139175902E+00 -2.844508369E+00  6.720026675E+00  8.965966759E+00  4.750000000E+00  0.00000E+00  9.000E+00
      -5     1     1     2     0   503 -4.994476573E+00  2.555650235E+01 -1.395240776E+02  1.420127119E+02  4.750000000E+00  0.00000E+00  9.000E+00
      21     1     1     2   512   502 -1.331168219E+00  2.836065770E+00 -5.540736537E+01  5.549586845E+01  9.536743164E-07  0.00000E+00  9.000E+00
#rwgt            1           9  -1.5086627053796734E-002           8      391563           0
</event>
<event>
      6   9999  3.45752E-01  1.37809E+01 -1.00000E+00  1.73625E-01
      21    -1     0     0   501   511  0.000000000E+00  0.000000000E+00  2.804871544E+01  2.804871544E+01  0.000000000E+00  0.00000E+00  9.000E+00
      21    -1     0     0   502   503  0.000000000E+00  0.000000000E+00 -6.899197956E+02  6.899197956E+02  0.000000000E+00  0.00000E+00  9.000E+00
      25     1     1     2     0     0  5.078293830E+00  3.368703745E+00 -5.976667113E+02  6.106267295E+02  1.249894704E+02  0.00000E+00  9.000E+00
       5     1     1     2   501     0  2.835477120E+00 -2.821802519E-01 -1.148572612E+00  5.656966964E+00  4.750000000E+00  0.00000E+00  9.000E+00
      -5     1     1     2     0   503 -2.935474020E+00  9.763807191E+00 -7.946462436E+01  8.025670043E+01  4.750000000E+00  0.00000E+00  9.000E+00
      21     1     1     2   502   511 -4.978296930E+00 -1.285033068E+01  1.640882809E+01  2.142811420E+01  1.192092896E-06  0.00000E+00  9.000E+00
#rwgt            1           9   578.58750845104373                8      397624           0
</event>
<event>
      6   9999  3.45752E-01  1.35433E+01 -1.00000E+00  1.74308E-01
      -4    -1     0     0     0   502  0.000000000E+00  0.000000000E+00  3.467238652E+01  3.467238652E+01  0.000000000E+00  0.00000E+00  9.000E+00
      21    -1     0     0   502   503  0.000000000E+00  0.000000000E+00 -3.751448782E+03  3.751448782E+03  0.000000000E+00  0.00000E+00  9.000E+00
      25     1     1     2     0     0  6.342143363E+00  8.069987019E+01 -2.498383022E+03  2.502818165E+03  1.250133939E+02  0.00000E+00  9.000E+00
       5     1     1     2   501     0  1.289495273E+01  9.146540402E+00  9.040821860E+00  1.882121056E+01  4.750000000E+00  0.00000E+00  9.000E+00
      -5     1     1     2     0   503 -8.373563119E+00 -8.175902023E+01 -1.241923157E+03  1.244648683E+03  4.750000000E+00  0.00000E+00  9.000E+00
      -4     1     1     2     0   501 -1.086353297E+01 -8.087390357E+00  1.448896197E+01  1.983310995E+01  1.800020799E-06  0.00000E+00  9.000E+00
#rwgt            1           9   4.6709473833476053E-003           8      399765           0
</event>
<event>
      6   9999  3.45752E-01  4.00862E+01 -1.00000E+00  1.40132E-01
      21    -1     0     0   501   502  0.000000000E+00  0.000000000E+00  6.102679603E+01  6.102679603E+01  0.000000000E+00  0.00000E+00  9.000E+00
      21    -1     0     0   511   503  0.000000000E+00  0.000000000E+00 -1.681369682E+03  1.681369682E+03  0.000000000E+00  0.00000E+00  9.000E+00
      25     1     1     2     0     0 -3.192935465E+01  6.372710656E+01 -9.065614043E+02  9.179104078E+02  1.250012363E+02  0.00000E+00  9.000E+00
       5     1     1     2   501     0  1.131375455E+00  5.904684156E+00  5.225547817E+01  5.281422918E+01  4.750000000E+00  0.00000E+00  9.000E+00
      -5     1     1     2     0   503  4.109858451E+01 -3.089158579E+01 -4.951787676E+02  4.978633931E+02  4.750000000E+00  0.00000E+00  9.000E+00
      21     1     1     2   511   502 -1.030060532E+01 -3.874020492E+01 -2.708581926E+02  2.738084484E+02  3.814697266E-06  0.00000E+00  9.000E+00
#rwgt            1           9   2.4660248469900295E-002           8      402498           0
</event>
<event>
      6   9999 -3.45752E-01  9.12539E+00 -1.00000E+00  1.91480E-01
      21    -1     0     0   502   503  0.000000000E+00  0.000000000E+00  1.444445499E+01  1.444445499E+01  0.000000000E+00  0.00000E+00  9.000E+00
      21    -1     0     0   512   502  0.000000000E+00  0.000000000E+00 -1.849301760E+03  1.849301760E+03  0.000000000E+00  0.00000E+00  9.000E+00
      25     1     1     2     0     0  1.918749179E+00 -2.362264374E+01 -3.892754393E+02  4.095376211E+02  1.249959382E+02  0.00000E+00  9.000E+00
       5     1     1     2   501     0 -1.380436714E+01  3.568222312E+01 -4.771575686E+02  4.787125332E+02  4.750000000E+00  0.00000E+00  9.000E+00
      -5     1     1     2     0   503  3.013377829E+00 -9.925078251E+00 -5.744465489E+00  1.277297960E+01  4.750000000E+00  0.00000E+00  9.000E+00
      21     1     1     2   512   501  8.872240134E+00 -2.134501133E+00 -9.626798311E+02  9.627230806E+02  0.000000000E+00  0.00000E+00  9.000E+00
#rwgt            1           9  -3.6506380255476992E-002           8      404050           0
</event>
<event>
      6   9999 -3.45752E-01  1.68994E+01 -1.00000E+00  1.66003E-01
      21    -1     0     0   501   502  0.000000000E+00  0.000000000E+00  3.095367859E+01  3.095367859E+01  0.000000000E+00  0.00000E+00  9.000E+00
      21    -1     0     0   511   503  0.000000000E+00  0.000000000E+00 -1.707235982E+03  1.707235982E+03  0.000000000E+00  0.00000E+00  9.000E+00
      25     1     1     2     0     0  7.838739831E+00 -5.186638277E+01 -1.481746938E+03  1.487934951E+03  1.249994534E+02  0.00000E+00  9.000E+00
       5     1     1     2   501     0 -2.230826495E+00  3.961325680E+00  1.875698446E+01  1.987600699E+01  4.750000000E+00  0.00000E+00  9.000E+00
      -5     1     1     2     0   503 -2.062449285E+01  4.015325589E+01 -5.555935196E+01  7.174299795E+01  4.750000000E+00  0.00000E+00  9.000E+00
      21     1     1     2   511   502  1.501657951E+01  7.751801198E+00 -1.577329982E+02  1.586357047E+02  2.697398305E-06  0.00000E+00  9.000E+00
#rwgt            1           9  -1.3881185787770284E-002           8      407240           0
</event>
<event>
      6   9999  3.45752E-01  1.33456E+01 -1.00000E+00  1.74890E-01
      21    -1     0     0   501   502  0.000000000E+00  0.000000000E+00  2.034158165E+01  2.034158165E+01  0.000000000E+00  0.00000E+00  9.000E+00
       2    -1     0     0   502     0  0.000000000E+00  0.000000000E+00 -1.793353018E+03  1.793353018E+03  0.000000000E+00  0.00000E+00  9.000E+00
      25     1     1     2     0     0 -1.116277455E+01  1.274575962E+01 -9.226005025E+02  9.311839999E+02  1.249995698E+02  0.00000E+00  9.000E+00
       5     1     1     2   501     0 -1.298151390E+00 -1.196473189E+00  1.544494264E+01  1.625501456E+01  4.750000000E+00  0.00000E+00  9.000E+00
      -5     1     1     2     0   503  5.322182080E+00 -2.734424386E-01 -8.925121339E+01  8.953626072E+01  4.750000000E+00  0.00000E+00  9.000E+00
       2     1     1     2   503     0  7.138743861E+00 -1.127584399E+01 -7.766046631E+02  7.767193245E+02  0.000000000E+00  0.00000E+00  9.000E+00
#rwgt            1           9   2.3757605631979798E-004           8      409965           0
</event>
<event>
      6   9999  3.45752E-01  6.01675E+00 -1.00000E+00  2.13889E-01
      21    -1     0     0   501   502  0.000000000E+00  0.000000000E+00  1.980939272E+01  1.980939272E+01  0.000000000E+00  0.00000E+00  9.000E+00
      21    -1     0     0   511   503  0.000000000E+00  0.000000000E+00 -1.836796540E+03  1.836796540E+03  0.000000000E+00  0.00000E+00  9.000E+00
      25     1     1     2     0     0  1.248506528E+01 -2.258621298E+01 -4.426686850E+02  4.607009023E+02  1.249949712E+02  0.00000E+00  9.000E+00
       5     1     1     2   501     0 -4.140393667E+00  4.171724881E-01  9.389857165E+00  1.131586542E+01  4.750000000E+00  0.00000E+00  9.000E+00
      -5     1     1     2     0   503 -1.034220161E+01  2.784452732E+01 -5.257952514E+02  5.266549988E+02  4.750000000E+00  0.00000E+00  9.000E+00
      21     1     1     2   511   502  1.997529989E+00 -5.675486825E+00 -8.579130682E+02  8.579341664E+02  0.000000000E+00  0.00000E+00  9.000E+00
#rwgt            1           9   1.2904121731219076E-002           8      412928           0
</event>
<event>
      6   9999  3.45752E-01  2.42497E+01 -1.00000E+00  1.54075E-01
      21    -1     0     0   512   502  0.000000000E+00  0.000000000E+00  1.235000940E+02  1.235000940E+02  0.000000000E+00  0.00000E+00  9.000E+00
      21    -1     0     0   502   503  0.000000000E+00  0.000000000E+00 -1.690523121E+03  1.690523121E+03  0.000000000E+00  0.00000E+00  9.000E+00
      25     1     1     2     0     0  9.130509689E+00  3.662962927E+01 -1.164113137E+03  1.171407555E+03  1.249446599E+02  0.00000E+00  9.000E+00
       5     1     1     2   501     0 -1.415833121E+01 -9.390806008E+00  9.828474380E+01  9.985539016E+01  4.750000000E+00  0.00000E+00  9.000E+00
      -5     1     1     2     0   503 -1.496213462E+01 -1.351109157E+01 -5.146237837E+02  5.150404026E+02  4.750000000E+00  0.00000E+00  9.000E+00
      21     1     1     2   512   501  1.998995615E+01 -1.372773169E+01  1.342915004E+01  2.771986715E+01  8.596304120E-07  0.00000E+00  9.000E+00
#rwgt            1           9   2.9925769225083596E-004           8      417761           0
</event>
<event>
      6   9999  3.45752E-01  6.48673E+00 -1.00000E+00  2.09446E-01
      21    -1     0     0   501   502  0.000000000E+00  0.000000000E+00  9.706161371E+00  9.706161371E+00  0.000000000E+00  0.00000E+00  9.000E+00
      21    -1     0     0   511   503  0.000000000E+00  0.000000000E+00 -8.025677417E+02  8.025677417E+02  0.000000000E+00  0.00000E+00  9.000E+00
      25     1     1     2     0     0  1.091413215E+01  1.608053936E+00 -6.533015993E+02  6.652445759E+02  1.250026482E+02  0.00000E+00  9.000E+00
       5     1     1     2   501     0 -3.373766401E-01 -8.702562636E-01  5.417386037E-01  4.871052214E+00  4.750000000E+00  0.00000E+00  9.000E+00
      -5     1     1     2     0   503 -1.628884910E+01 -3.811827316E+00 -1.099419849E+02  1.113088459E+02  4.750000000E+00  0.00000E+00  9.000E+00
      21     1     1     2   511   502  5.712093590E+00  3.074029644E+00 -3.015973471E+01  3.084942899E+01  5.840038640E-07  0.00000E+00  9.000E+00
#rwgt            1           9   1.1446741463136019E-003           8      420673           0
</event>
<event>
      6   9999 -3.45752E-01  1.23488E+01 -1.00000E+00  1.78032E-01
      21    -1     0     0   501   502  0.000000000E+00  0.000000000E+00  1.267369659E+01  1.267369659E+01  0.000000000E+00  0.00000E+00  9.000E+00
      21    -1     0     0   502   512  0.000000000E+00  0.000000000E+00 -1.212819682E+03  1.212819682E+03  0.000000000E+00  0.00000E+00  9.000E+00
      25     1     1     2     0     0  3.143218489E+00 -2.900336024E+01 -7.132644750E+02  7.247218059E+02  1.249976399E+02  0.00000E+00  9.000E+00
       5     1     1     2   501     0 -1.581753585E+00  2.426003809E+00  2.177986281E+00  5.974409019E+00  4.750000000E+00  0.00000E+00  9.000E+00
      -5     1     1     2     0   503 -1.309538131E+01  3.098900168E+01 -1.013950350E+02  1.069360691E+02  4.750000000E+00  0.00000E+00  9.000E+00
      21     1     1     2   503   512  1.153391641E+01 -4.411645245E+00 -3.876644617E+02  3.878610946E+02  0.000000000E+00  0.00000E+00  9.000E+00
#rwgt            1           9  -1.9617801374651666E-003           8      423743           0
</event>
<event>
      6   9999  3.45752E-01  4.43271E+00 -1.00000E+00  2.38965E-01
      21    -1     0     0   501   502  0.000000000E+00  0.000000000E+00  1.739726590E+01  1.739726590E+01  0.000000000E+00  0.00000E+00  9.000E+00
      21    -1     0     0   511   503  0.000000000E+00  0.000000000E+00 -1.371653671E+03  1.371653671E+03  0.000000000E+00  0.00000E+00  9.000E+00
      25     1     1     2     0     0  1.110627120E+01  1.215740742E+01 -5.738472084E+02  5.875344839E+02  1.249999976E+02  0.00000E+00  9.000E+00
       5     1     1     2   501     0  2.047995456E+00  1.749113926E-01  9.660066285E+00  1.095920891E+01  4.750000000E+00  0.00000E+00  9.000E+00
      -5     1     1     2     0   503 -1.550257480E+01 -8.572751701E+00 -3.614229091E+02  3.618879711E+02  4.750000000E+00  0.00000E+00  9.000E+00
      21     1     1     2   511   502  2.348308142E+00 -3.759567114E+00 -4.286463538E+02  4.286692729E+02  5.394796609E-06  0.00000E+00  9.000E+00
#rwgt            1           9   3.8001467559036369E-003           8      426108           0
</event>
<event>
      6   9999 -3.45752E-01  1.55459E+01 -1.00000E+00  1.69037E-01
      21    -1     0     0   512   502  0.000000000E+00  0.000000000E+00  2.311483105E+02  2.311483105E+02  0.000000000E+00  0.00000E+00  9.000E+00
      21    -1     0     0   502   503  0.000000000E+00  0.000000000E+00 -1.215085895E+02  1.215085895E+02  0.000000000E+00  0.00000E+00  9.000E+00
      25     1     1     2     0     0 -1.392721872E+01 -1.441964562E+01 -7.931954037E+01  1.493959318E+02  1.250026454E+02  0.00000E+00  9.000E+00
       5     1     1     2   501     0 -4.346973995E+00 -3.123265692E+00  1.306727476E+02  1.308685617E+02  4.750000000E+00  0.00000E+00  9.000E+00
      -5     1     1     2     0   503  3.929561480E+00  2.353506737E+01  2.154563965E+01  3.249796820E+01  4.750000000E+00  0.00000E+00  9.000E+00
      21     1     1     2   512   501  1.434463123E+01 -5.992156055E+00  3.674087410E+01  3.989443832E+01  0.000000000E+00  0.00000E+00  9.000E+00
#rwgt            1           9  -5.6908250871211567E-003           8      431085           0
</event>
<event>
      6   9999 -3.45752E-01  1.49814E+01 -1.00000E+00  1.70418E-01
      21    -1     0     0   501   511  0.000000000E+00  0.000000000E+00  5.060119804E+01  5.060119804E+01  0.000000000E+00  0.00000E+00  9.000E+00
      21    -1     0     0   502   503  0.000000000E+00  0.000000000E+00 -1.217684041E+03  1.217684041E+03  0.000000000E+00  0.00000E+00  9.000E+00
      25     1     1     2     0     0  1.791059897E+01 -1.046472211E+01 -1.002775247E+03  1.010749371E+03  1.250031854E+02  0.00000E+00  9.000E+00
       5     1     1     2   501     0 -6.764268918E+00  2.837978354E+00  4.154196320E+01  4.245122685E+01  4.750000000E+00  0.00000E+00  9.000E+00
      -5     1     1     2     0   503 -2.130135743E+01 -3.387691669E+00 -1.958071152E+02  1.970487583E+02  4.750000000E+00  0.00000E+00  9.000E+00
      21     1     1     2   502   511  1.015502738E+01  1.101443543E+01 -1.004244408E+01  1.803588235E+01  2.665600750E-07  0.00000E+00  9.000E+00
#rwgt            1           9  -9.4817028613904510E-004           8      433556           0
</event>
<event>
      6   9999  3.45752E-01  5.58126E+00 -1.00000E+00  2.18530E-01
      21    -1     0     0   501   502  0.000000000E+00  0.000000000E+00  1.914664504E+01  1.914664504E+01  0.000000000E+00  0.00000E+00  9.000E+00
      21    -1     0     0   502   512  0.000000000E+00  0.000000000E+00 -1.085692257E+03  1.085692257E+03  0.000000000E+00  0.00000E+00  9.000E+00
      25     1     1     2     0     0 -2.373716123E+01 -3.547257064E+01 -7.864641278E+02  7.974782209E+02  1.249957301E+02  0.00000E+00  9.000E+00
       5     1     1     2   501     0 -2.194998784E+00  5.645406514E-01  8.646978074E+00  1.012271977E+01  4.750000000E+00  0.00000E+00  9.000E+00
      -5     1     1     2     0   503  2.619710988E+01  4.048299502E+01 -1.354094378E+02  1.438173835E+02  4.750000000E+00  0.00000E+00  9.000E+00
      21     1     1     2   503   512 -2.649498646E-01 -5.574965029E+00 -1.533190246E+02  1.534205780E+02  1.907348633E-06  0.00000E+00  9.000E+00
#rwgt            1           9   2.6219430842889294E-003           8      436671           0
</event>
<event>
      6   9999 -3.45752E-01  1.08968E+02 -1.00000E+00  1.18871E-01
      21    -1     0     0   511   502  0.000000000E+00  0.000000000E+00  8.249194174E+01  8.249194174E+01  0.000000000E+00  0.00000E+00  9.000E+00
      21    -1     0     0   502   503  0.000000000E+00  0.000000000E+00 -1.310293351E+03  1.310293351E+03  0.000000000E+00  0.00000E+00  9.000E+00
      25     1     1     2     0     0 -1.910846118E+00  1.130061129E+02 -1.039036551E+03  1.052615123E+03  1.250104384E+02  0.00000E+00  9.000E+00
       5     1     1     2   501     0  1.012019844E+02 -8.643842892E+01 -7.652258761E+01  1.535959392E+02  4.750000000E+00  0.00000E+00  9.000E+00
      -5     1     1     2     0   503  3.931879274E+00  8.346835974E+00 -6.829339046E+01  6.907734090E+01  4.750000000E+00  0.00000E+00  9.000E+00
      21     1     1     2   511   501 -1.032230175E+02 -3.491451999E+01 -4.394888040E+01  1.174968899E+02  2.132480600E-06  0.00000E+00  9.000E+00
#rwgt            1           9  -4.9245668092287162E-003           8      441263           0
</event>
<event>
      6   9999 -3.45752E-01  1.21321E+01 -1.00000E+00  1.78765E-01
      21    -1     0     0   501   502  0.000000000E+00  0.000000000E+00  9.800481553E+00  9.800481553E+00  0.000000000E+00  0.00000E+00  9.000E+00
      21    -1     0     0   512   503  0.000000000E+00  0.000000000E+00 -1.921650165E+03  1.921650165E+03  0.000000000E+00  0.00000E+00  9.000E+00
      25     1     1     2     0     0  3.758609112E+00  1.540106825E+01 -4.997103162E+02  5.153514482E+02  1.250015798E+02  0.00000E+00  9.000E+00
       5     1     1     2   501     0 -8.178399792E+00  3.967636669E+00 -1.608881096E+01  1.907985068E+01  4.750000000E+00  0.00000E+00  9.000E+00
      -5     1     1     2     0   503  1.541849294E+01 -1.424843163E+01 -2.557312924E+02  2.566355474E+02  4.750000000E+00  0.00000E+00  9.000E+00
      21     1     1     2   512   502 -1.099870226E+01 -5.120273295E+00 -1.140319263E+03  1.140383800E+03  0.000000000E+00  0.00000E+00  9.000E+00
#rwgt            1           9  -2.3720581507603682E-004           8      442100           0
</event>
<event>
      6   9999  3.45752E-01  2.29919E+01 -1.00000E+00  1.55723E-01
      21    -1     0     0   502   503  0.000000000E+00  0.000000000E+00  7.116627505E+00  7.116627505E+00  0.000000000E+00  0.00000E+00  9.000E+00
      21    -1     0     0   501   511  0.000000000E+00  0.000000000E+00 -1.838603994E+03  1.838603994E+03  0.000000000E+00  0.00000E+00  9.000E+00
      25     1     1     2     0     0  2.784932530E+01 -3.011967966E+01 -6.597350952E+02  6.727247039E+02  1.250014053E+02  0.00000E+00  9.000E+00
       5     1     1     2   501     0 -1.196295727E+01  1.472644416E+01 -3.967499254E+02  3.972317287E+02  4.750000000E+00  0.00000E+00  9.000E+00
      -5     1     1     2     0   503  1.653152054E+00  5.274883952E-01 -3.124866242E+01  3.165521377E+01  4.750000000E+00  0.00000E+00  9.000E+00
      21     1     1     2   502   511 -1.753952009E+01  1.486574710E+01 -7.437536837E+02  7.441089754E+02  1.078959322E-05  0.00000E+00  9.000E+00
#rwgt            1           9   32.849148992362942                8      444058           0
</event>
<event>
      6   9999  3.45752E-01  1.13511E+01 -1.00000E+00  1.81577E-01
      21    -1     0     0   512   502  0.000000000E+00  0.000000000E+00  2.447807175E+01  2.447807175E+01  0.000000000E+00  0.00000E+00  9.000E+00
      21    -1     0     0   502   503  0.000000000E+00  0.000000000E+00 -1.018610727E+03  1.018610727E+03  0.000000000E+00  0.00000E+00  9.000E+00
      25     1     1     2     0     0  4.126757176E-01  2.461084430E+01 -9.674031701E+02  9.757562159E+02  1.250017417E+02  0.00000E+00  9.000E+00
       5     1     1     2   501     0 -3.450603093E+00  2.350428403E-01  1.582715370E+01  1.688263016E+01  4.750000000E+00  0.00000E+00  9.000E+00
      -5     1     1     2     0   503  5.488780638E+00 -1.376250484E+01 -2.165934611E+01  2.666876499E+01  4.750000000E+00  0.00000E+00  9.000E+00
      21     1     1     2   512   501 -2.450853263E+00 -1.108338230E+01 -2.089729294E+01  2.378118788E+01  2.384185791E-07  0.00000E+00  9.000E+00
#rwgt            1           9   2.9874941191119112E-002           8      445021           0
</event>
<event>
      6   9999  3.45752E-01  6.43753E+00 -1.00000E+00  2.09887E-01
      21    -1     0     0   501   502  0.000000000E+00  0.000000000E+00  5.878079456E+00  5.878079456E+00  0.000000000E+00  0.00000E+00  9.000E+00
      21    -1     0     0   502   511  0.000000000E+00  0.000000000E+00 -2.404860217E+03  2.404860217E+03  0.000000000E+00  0.00000E+00  9.000E+00
      25     1     1     2     0     0 -1.985737412E+01 -1.135074210E+01 -1.499593432E+03  1.504958751E+03  1.248888528E+02  0.00000E+00  9.000E+00
       5     1     1     2   501     0  1.996815958E+00  2.781315621E+00 -2.299270676E-01  5.859893942E+00  4.750000000E+00  0.00000E+00  9.000E+00
      -5     1     1     2     0   503  2.428119206E+01  9.035515695E+00 -4.878816731E+02  4.885921677E+02  4.750000000E+00  0.00000E+00  9.000E+00
      21     1     1     2   503   511 -6.420633893E+00 -4.660892170E-01 -4.112771047E+02  4.113274834E+02  5.394796609E-06  0.00000E+00  9.000E+00
#rwgt            1           9   1.7365358145430228E-002           8      447862           0
</event>
<event>
      6   9999  3.45752E-01  3.01099E+01 -1.00000E+00  1.47735E-01
      21    -1     0     0   512   502  0.000000000E+00  0.000000000E+00  1.526310269E+02  1.526310269E+02  0.000000000E+00  0.00000E+00  9.000E+00
      21    -1     0     0   502   503  0.000000000E+00  0.000000000E+00 -1.106131648E+03  1.106131648E+03  0.000000000E+00  0.00000E+00  9.000E+00
      25     1     1     2     0     0 -1.849959986E+01 -1.851673467E+01 -1.045773448E+03  1.053542957E+03  1.250022146E+02  0.00000E+00  9.000E+00
       5     1     1     2   501     0 -2.261463703E+00 -1.614999675E+00 -9.969553582E+00  1.138757835E+01  4.750000000E+00  0.00000E+00  9.000E+00
      -5     1     1     2     0   503 -9.940970658E-01 -6.845323277E-01 -4.412677099E+01  4.439809942E+01  4.750000000E+00  0.00000E+00  9.000E+00
      21     1     1     2   512   501  2.175516063E+01  2.081626667E+01  1.463691511E+02  1.494340402E+02  4.672030912E-06  0.00000E+00  9.000E+00
#rwgt            1           9   2.8720407640966238E-003           8      451333           0
</event>
<event>
      6   9999  3.45752E-01  1.00633E+01 -1.00000E+00  1.86906E-01
      21    -1     0     0   511   502  0.000000000E+00  0.000000000E+00  6.726663916E+02  6.726663916E+02  0.000000000E+00  0.00000E+00  9.000E+00
      21    -1     0     0   502   503  0.000000000E+00  0.000000000E+00 -4.350726483E+02  4.350726483E+02  0.000000000E+00  0.00000E+00  9.000E+00
      25     1     1     2     0     0  8.292837766E+00 -8.770901636E+01 -2.052000419E+02  2.559180026E+02  1.250012967E+02  0.00000E+00  9.000E+00
       5     1     1     2   501     0  1.904992392E+01  4.030104649E+00  2.940164803E+02  2.946988200E+02  4.750000000E+00  0.00000E+00  9.000E+00
      -5     1     1     2     0   503 -2.271955618E+01  7.474046500E+01 -1.965968366E+02  2.116014981E+02  4.750000000E+00  0.00000E+00  9.000E+00
      21     1     1     2   511   501 -4.623205499E+00  8.938446715E+00  3.453741414E+02  3.455207192E+02  0.000000000E+00  0.00000E+00  9.000E+00
#rwgt            1           9   6.0961816362223985E-003           8      452012           0
</event>
<event>
      6   9999  3.45752E-01  2.77621E+01 -1.00000E+00  1.50049E-01
      21    -1     0     0   502   503  0.000000000E+00  0.000000000E+00  2.934190356E+03  2.934190356E+03  0.000000000E+00  0.00000E+00  9.000E+00
      21    -1     0     0   512   502  0.000000000E+00  0.000000000E+00 -9.967286051E+01  9.967286051E+01  0.000000000E+00  0.00000E+00  9.000E+00
      25     1     1     2     0     0 -2.985294576E+02  1.353109470E+02  2.108059333E+03  2.137044244E+03  1.249602291E+02  0.00000E+00  9.000E+00
       5     1     1     2   501     0  2.836708993E+02 -1.559697813E+02  7.390186871E+02  8.068252191E+02  4.750000000E+00  0.00000E+00  9.000E+00
      -5     1     1     2     0   503 -7.176048624E+00  3.770619030E+00  3.427988560E+01  3.554414577E+01  4.750000000E+00  0.00000E+00  9.000E+00
      21     1     1     2   512   501  2.203460694E+01  1.688821527E+01 -4.684041047E+01  5.444960763E+01  3.754619538E-06  0.00000E+00  9.000E+00
#rwgt            1           9   2.2100909031321230E-003           8      456729           0
</event>
<event>
      6   9999  3.45752E-01  6.83781E+00 -1.00000E+00  2.06445E-01
      21    -1     0     0   501   502  0.000000000E+00  0.000000000E+00  5.089283704E+01  5.089283704E+01  0.000000000E+00  0.00000E+00  9.000E+00
      21    -1     0     0   511   503  0.000000000E+00  0.000000000E+00 -1.412917927E+03  1.412917927E+03  0.000000000E+00  0.00000E+00  9.000E+00
      25     1     1     2     0     0  1.298684418E-01  8.412924175E+00 -1.229131780E+03  1.235500198E+03  1.250000469E+02  0.00000E+00  9.000E+00
       5     1     1     2   501     0 -2.141092025E+00 -1.099076056E+01  4.665318055E+01  4.821268348E+01  4.750000000E+00  0.00000E+00  9.000E+00
      -5     1     1     2     0   503 -1.624002338E+00 -3.213605883E+00 -4.719838056E+01  4.757325166E+01  4.750000000E+00  0.00000E+00  9.000E+00
      21     1     1     2   511   502  3.635225921E+00  5.791442269E+00 -1.323481105E+02  1.325246317E+02  1.907348633E-06  0.00000E+00  9.000E+00
#rwgt            1           9   1.5607809933972632                8      459406           0
</event>
<event>
      6   9999  3.45752E-01  9.25828E+00 -1.00000E+00  1.90790E-01
      21    -1     0     0   501   502  0.000000000E+00  0.000000000E+00  1.568785223E+01  1.568785223E+01  0.000000000E+00  0.00000E+00  9.000E+00
       2    -1     0     0   502     0  0.000000000E+00  0.000000000E+00 -1.504078424E+03  1.504078424E+03  0.000000000E+00  0.00000E+00  9.000E+00
      25     1     1     2     0     0  9.283200359E+00 -9.128527756E+00 -8.127624368E+02  8.224218391E+02  1.250015793E+02  0.00000E+00  9.000E+00
       5     1     1     2   501     0  5.093876686E+00  3.091686474E+00  8.287719527E+00  1.125854786E+01  4.750000000E+00  0.00000E+00  9.000E+00
      -5     1     1     2     0   503 -5.119656731E+00  6.162679099E+00 -1.954823641E+01  2.165376516E+01  4.750000000E+00  0.00000E+00  9.000E+00
       2     1     1     2   503     0 -9.257420313E+00 -1.258378181E-01 -6.643676185E+02  6.644321246E+02  0.000000000E+00  0.00000E+00  9.000E+00
#rwgt            1           9   1.5618097164303560E-004           8      464486           0
</event>
<event>
      6   9999 -3.45752E-01  6.94097E+01 -1.00000E+00  1.27583E-01
      21    -1     0     0   511   503  0.000000000E+00  0.000000000E+00  2.633102476E+01  2.633102476E+01  0.000000000E+00  0.00000E+00  9.000E+00
      21    -1     0     0   501   502  0.000000000E+00  0.000000000E+00 -1.130670138E+03  1.130670138E+03  0.000000000E+00  0.00000E+00  9.000E+00
      25     1     1     2     0     0  2.566101722E+01 -1.084934553E+02 -6.750866050E+02  6.955541582E+02  1.249973804E+02  0.00000E+00  9.000E+00
       5     1     1     2   501     0 -1.300005944E+00 -8.480493509E+00 -1.395091906E+02  1.398534431E+02  4.750000000E+00  0.00000E+00  9.000E+00
      -5     1     1     2     0   503  2.286931965E+01  6.611140370E+01 -1.478367949E+02  1.636215264E+02  4.750000000E+00  0.00000E+00  9.000E+00
      21     1     1     2   511   502 -4.723033092E+01  5.086254515E+01 -1.419065227E+02  1.579720350E+02  3.303624740E-06  0.00000E+00  9.000E+00
#rwgt            1           9  -2.4008343192025328E-002           8      467034           0
</event>
<event>
      6   9999  3.45752E-01  1.11425E+01 -1.00000E+00  1.82377E-01
      21    -1     0     0   512   502  0.000000000E+00  0.000000000E+00  7.393845993E+00  7.393845993E+00  0.000000000E+00  0.00000E+00  9.000E+00
      21    -1     0     0   502   503  0.000000000E+00  0.000000000E+00 -4.682425955E+03  4.682425955E+03  0.000000000E+00  0.00000E+00  9.000E+00
      25     1     1     2     0     0  9.828371038E+00 -5.731743117E+01 -3.965508428E+03  3.967904286E+03  1.250018012E+02  0.00000E+00  9.000E+00
       5     1     1     2   501     0 -2.715483724E+00 -4.095115467E-01 -8.806796651E+00  1.037611290E+01  4.750000000E+00  0.00000E+00  9.000E+00
      -5     1     1     2     0   503 -1.819848089E+01  5.885154156E+01 -6.970883367E+02  6.998209773E+02  4.750000000E+00  0.00000E+00  9.000E+00
      21     1     1     2   512   501  1.108559358E+01 -1.124598850E+00 -3.628547709E+00  1.171842422E+01  1.228781231E-06  0.00000E+00  9.000E+00
#rwgt            1           9   2.8223063203326484E-005           8      468203           0
</event>
<event>
      6   9999  3.45752E-01  3.30379E+01 -1.00000E+00  1.45178E-01
      21    -1     0     0   502   511  0.000000000E+00  0.000000000E+00  1.821881350E+01  1.821881350E+01  0.000000000E+00  0.00000E+00  9.000E+00
      21    -1     0     0   501   502  0.000000000E+00  0.000000000E+00 -7.609015181E+02  7.609015181E+02  0.000000000E+00  0.00000E+00  9.000E+00
      25     1     1     2     0     0 -8.600886620E+00  4.422219239E+01 -5.823174821E+02  5.972842709E+02  1.250010908E+02  0.00000E+00  9.000E+00
       5     1     1     2   501     0 -9.028478090E+00 -9.222734730E+00 -8.743652105E+01  8.851146799E+01  4.750000000E+00  0.00000E+00  9.000E+00
      -5     1     1     2     0   503  5.635730230E+00 -4.215408227E+00 -5.516356665E+01  5.581319474E+01  4.750000000E+00  0.00000E+00  9.000E+00
      21     1     1     2   503   511  1.199363448E+01 -3.078404943E+01 -1.776513481E+01  3.751139803E+01  4.129530925E-07  0.00000E+00  9.000E+00
#rwgt            1           9   8.8138511136515228E-004           8      470475           0
</event>
<event>
      6   9999  3.45752E-01  6.32759E+00 -1.00000E+00  2.10892E-01
      21    -1     0     0   501   502  0.000000000E+00  0.000000000E+00  2.508962369E+03  2.508962369E+03  0.000000000E+00  0.00000E+00  9.000E+00
      21    -1     0     0   512   503  0.000000000E+00  0.000000000E+00 -2.670661312E+01  2.670661312E+01  0.000000000E+00  0.00000E+00  9.000E+00
      25     1     1     2     0     0  9.441088823E+00  2.779816030E-01  1.466753424E+02  1.929460104E+02  1.250011817E+02  0.00000E+00  9.000E+00
       5     1     1     2   501     0  2.587241148E+00 -5.709830792E-01  2.318533514E+03  2.318539894E+03  4.750000000E+00  0.00000E+00  9.000E+00
      -5     1     1     2     0   503 -6.018321454E+00 -1.686434410E+00  1.592779167E+01  1.775728869E+01  4.750000000E+00  0.00000E+00  9.000E+00
      21     1     1     2   512   502 -6.010008517E+00  1.979435887E+00  1.119107827E+00  6.425789534E+00  1.460009660E-07  0.00000E+00  9.000E+00
#rwgt            1           9   1.1941798217569403E-003           8      471862           0
</event>
<event>
      6   9999  3.45752E-01  1.66878E+01 -1.00000E+00  1.66454E-01
      21    -1     0     0   501   502  0.000000000E+00  0.000000000E+00  1.246207858E+01  1.246207858E+01  0.000000000E+00  0.00000E+00  9.000E+00
      21    -1     0     0   502   511  0.000000000E+00  0.000000000E+00 -1.239666699E+03  1.239666699E+03  0.000000000E+00  0.00000E+00  9.000E+00
      25     1     1     2     0     0 -1.636447711E+01  1.125534491E+01 -7.039441815E+02  7.152323045E+02  1.250014393E+02  0.00000E+00  9.000E+00
       5     1     1     2   501     0 -3.594679205E+00 -4.711208289E+00  2.994184038E+00  8.163629106E+00  4.750000000E+00  0.00000E+00  9.000E+00
      -5     1     1     2     0   503  1.089663857E+01 -2.055672142E+01 -1.315781235E+02  1.337037046E+02  4.750000000E+00  0.00000E+00  9.000E+00
      21     1     1     2   503   511  9.062517754E+00  1.401258479E+01 -3.946764996E+02  3.950291395E+02  5.394796609E-06  0.00000E+00  9.000E+00
#rwgt            1           9   6.9408744983314233E-004           8      476959           0
</event>
<event>
      6   9999  3.45752E-01  1.04516E+01 -1.00000E+00  1.85196E-01
      -4    -1     0     0     0   502  0.000000000E+00  0.000000000E+00  1.242562614E+02  1.242562614E+02  0.000000000E+00  0.00000E+00  9.000E+00
      21    -1     0     0   502   503  0.000000000E+00  0.000000000E+00 -1.784944680E+02  1.784944680E+02  0.000000000E+00  0.00000E+00  9.000E+00
      25     1     1     2     0     0  8.508499477E+00  2.464248169E+00 -1.442612858E+02  1.910891217E+02  1.250010671E+02  0.00000E+00  9.000E+00
       5     1     1     2   501     0  2.257800887E-01  4.897681483E+00  4.136215896E+01  4.192170028E+01  4.750000000E+00  0.00000E+00  9.000E+00
      -5     1     1     2     0   503 -7.999970657E-01 -5.588236509E-01 -9.490033509E+00  1.065718139E+01  4.750000000E+00  0.00000E+00  9.000E+00
      -4     1     1     2     0   501 -7.934282500E+00 -6.803106002E+00  5.815095379E+01  5.908272604E+01  9.536743164E-07  0.00000E+00  9.000E+00
#rwgt            1           9   6.1200474928326627E-004           8      478485           0
</event>
<event>
      6   9999  3.45752E-01  6.84322E+00 -1.00000E+00  2.06400E-01
      21    -1     0     0   501   502  0.000000000E+00  0.000000000E+00  3.883904453E+01  3.883904453E+01  0.000000000E+00  0.00000E+00  9.000E+00
      21    -1     0     0   502   511  0.000000000E+00  0.000000000E+00 -2.374414759E+02  2.374414759E+02  0.000000000E+00  0.00000E+00  9.000E+00
      25     1     1     2     0     0  2.790558548E+00 -6.916756557E+00 -1.052792501E+02  1.635988610E+02  1.250009523E+02  0.00000E+00  9.000E+00
       5     1     1     2   501     0 -1.303706340E-01  7.875124167E-01  5.928338093E+00  7.638381036E+00  4.750000000E+00  0.00000E+00  9.000E+00
      -5     1     1     2     0   503 -7.620697655E+00  1.084336644E+01 -1.521847012E+01  2.073205154E+01  4.750000000E+00  0.00000E+00  9.000E+00
      21     1     1     2   503   511  4.960509741E+00 -4.714122300E+00 -8.403304926E+01  8.431122686E+01  1.348699152E-06  0.00000E+00  9.000E+00
#rwgt            1           9   6.7407627605813687E-005           8      480978           0
</event>
<event>
      6   9999  3.45752E-01  5.35689E+00 -1.00000E+00  2.21154E-01
      21    -1     0     0   512   502  0.000000000E+00  0.000000000E+00  1.712915400E+01  1.712915400E+01  0.000000000E+00  0.00000E+00  9.000E+00
      21    -1     0     0   502   503  0.000000000E+00  0.000000000E+00 -8.730085257E+02  8.730085257E+02  0.000000000E+00  0.00000E+00  9.000E+00
      25     1     1     2     0     0 -1.255124874E+01 -1.291128367E+00 -6.088197414E+02  6.216492354E+02  1.250083736E+02  0.00000E+00  9.000E+00
       5     1     1     2   501     0  1.525688549E+00 -1.172969412E+00  7.805397027E+00  9.337574928E+00  4.750000000E+00  0.00000E+00  9.000E+00
      -5     1     1     2     0   503  8.382499315E+00  7.123544779E+00 -2.532815932E+02  2.535648618E+02  4.750000000E+00  0.00000E+00  9.000E+00
      21     1     1     2   512   501  2.643060880E+00 -4.659447000E+00 -1.583434132E+00  5.586007592E+00  2.075491589E-07  0.00000E+00  9.000E+00
#rwgt            1           9   1.8327933454906811E-004           8      483797           0
</event>
<event>
      6   9999 -3.45752E-01  6.31052E+00 -1.00000E+00  2.11050E-01
      21    -1     0     0   501   502  0.000000000E+00  0.000000000E+00  1.915520620E+01  1.915520620E+01  0.000000000E+00  0.00000E+00  9.000E+00
      21    -1     0     0   511   503  0.000000000E+00  0.000000000E+00 -1.631038515E+03  1.631038515E+03  0.000000000E+00  0.00000E+00  9.000E+00
      25     1     1     2     0     0  5.986245633E+00 -6.570551935E+00 -9.446932229E+02  9.529681286E+02  1.249958457E+02  0.00000E+00  9.000E+00
       5     1     1     2   501     0 -3.095014681E-01  4.765010337E+00  1.392003276E+01  1.546385873E+01  4.750000000E+00  0.00000E+00  9.000E+00
      -5     1     1     2     0   503  6.327106723E-01  1.921296574E+00 -2.113458211E+01  2.175602823E+01  4.750000000E+00  0.00000E+00  9.000E+00
      21     1     1     2   511   502 -6.309454838E+00 -1.157549762E-01 -6.599755368E+02  6.600057059E+02  0.000000000E+00  0.00000E+00  9.000E+00
#rwgt            1           9  -6.7770139210243999E-004           8      487944           0
</event>
<event>
      6   9999 -3.45752E-01  8.31992E+00 -1.00000E+00  1.96020E-01
      21    -1     0     0   512   502  0.000000000E+00  0.000000000E+00  1.835098144E+01  1.835098144E+01  0.000000000E+00  0.00000E+00  9.000E+00
      21    -1     0     0   502   503  0.000000000E+00  0.000000000E+00 -3.249867618E+02  3.249867618E+02  0.000000000E+00  0.00000E+00  9.000E+00
      25     1     1     2     0     0 -4.748156237E-01  9.164234056E+00 -2.953258900E+02  3.208217023E+02  1.249998989E+02  0.00000E+00  9.000E+00
       5     1     1     2   501     0  1.150442693E-01  5.918789058E-01 -1.548175402E+00  5.032186692E+00  4.750000000E+00  0.00000E+00  9.000E+00
      -5     1     1     2     0   503 -3.251635824E+00 -2.260861826E+00 -4.242374507E+00  7.499658205E+00  4.750000000E+00  0.00000E+00  9.000E+00
      21     1     1     2   512   501  3.611407179E+00 -7.495251135E+00 -5.519340404E+00  9.984196006E+00  1.884864366E-07  0.00000E+00  9.000E+00
#rwgt            1           9  -3.8710061956140552E-004           8      492020           0
</event>
<event>
      6   9999 -3.45752E-01  1.04115E+01 -1.00000E+00  1.85368E-01
      21    -1     0     0   511   502  0.000000000E+00  0.000000000E+00  5.761296995E+01  5.761296995E+01  0.000000000E+00  0.00000E+00  9.000E+00
      21    -1     0     0   502   503  0.000000000E+00  0.000000000E+00 -3.704211042E+02  3.704211042E+02  0.000000000E+00  0.00000E+00  9.000E+00
      25     1     1     2     0     0  2.063675897E+00  3.999906815E+01 -3.300096233E+02  3.551556390E+02  1.249999688E+02  0.00000E+00  9.000E+00
       5     1     1     2   501     0 -5.288627057E+00  1.190821823E+00  2.672923925E+01  2.768397304E+01  4.750000000E+00  0.00000E+00  9.000E+00
      -5     1     1     2     0   503 -3.461397703E+00 -3.320918136E+01 -6.438720221E+00  3.433439411E+01  4.750000000E+00  0.00000E+00  9.000E+00
      21     1     1     2   511   501  6.686348862E+00 -7.980708617E+00 -3.089029918E+00  1.086006800E+01  2.269677253E-07  0.00000E+00  9.000E+00
#rwgt            1           9  -1.8078430361253407E-006           8      494383           0
</event>
<event>
      6   9999  3.45752E-01  3.42529E+01 -1.00000E+00  1.44208E-01
      21    -1     0     0   512   502  0.000000000E+00  0.000000000E+00  1.145026353E+03  1.145026353E+03  0.000000000E+00  0.00000E+00  9.000E+00
      21    -1     0     0   502   503  0.000000000E+00  0.000000000E+00 -1.131156910E+01  1.131156910E+01  0.000000000E+00  0.00000E+00  9.000E+00
      25     1     1     2     0     0  1.297037373E+01  2.455923338E+01  4.112908013E+02  4.307630653E+02  1.250012345E+02  0.00000E+00  9.000E+00
       5     1     1     2   501     0  1.291538013E+00  6.896570555E+00  3.519603188E+02  3.520622946E+02  4.750000000E+00  0.00000E+00  9.000E+00
      -5     1     1     2     0   503  5.697043954E-01 -5.804837619E-01  7.363084306E+00  8.799945170E+00  4.750000000E+00  0.00000E+00  9.000E+00
      21     1     1     2   512   501 -1.483161613E+01 -3.087532018E+01  3.631005798E+02  3.647126174E+02  0.000000000E+00  0.00000E+00  9.000E+00
#rwgt            1           9   2.3447535176227767E-002           8      498074           0
</event>
<event>
      6   9999 -3.45752E-01  2.27356E+01 -1.00000E+00  1.56074E-01
      21    -1     0     0   501   502  0.000000000E+00  0.000000000E+00  1.085725761E+01  1.085725761E+01  0.000000000E+00  0.00000E+00  9.000E+00
      21    -1     0     0   502   511  0.000000000E+00  0.000000000E+00 -1.098678380E+03  1.098678380E+03  0.000000000E+00  0.00000E+00  9.000E+00
      25     1     1     2     0     0 -2.116783468E+01 -1.523197370E+01 -5.952014630E+02  6.087445938E+02  1.250004344E+02  0.00000E+00  9.000E+00
       5     1     1     2   501     0  3.859634844E+01  2.941785757E+01 -1.699705871E+02  1.768266141E+02  4.750000000E+00  0.00000E+00  9.000E+00
      -5     1     1     2     0   503  9.148495678E-01 -7.534400831E-01 -2.683291425E+01  2.727585762E+01  4.750000000E+00  0.00000E+00  9.000E+00
      21     1     1     2   503   511 -1.834336333E+01 -1.343244379E+01 -2.958161584E+02  2.966885726E+02  3.814697266E-06  0.00000E+00  9.000E+00
#rwgt            1           9  -3.8899617675619563E-004           8      498994           0
</event>
<event>
      6   9999  3.45752E-01  7.97200E+01 -1.00000E+00  1.24772E-01
      21    -1     0     0   512   502  0.000000000E+00  0.000000000E+00  1.863304532E+01  1.863304532E+01  0.000000000E+00  0.00000E+00  9.000E+00
       1    -1     0     0   501     0  0.000000000E+00  0.000000000E+00 -4.535366308E+03  4.535366308E+03  0.000000000E+00  0.00000E+00  9.000E+00
      25     1     1     2     0     0  6.837781983E+01  1.037680966E+02 -1.122379037E+03  1.136135504E+03  1.250033459E+02  0.00000E+00  9.000E+00
       5     1     1     2   501     0  1.233946386E+01 -1.649804822E+00 -9.209086112E-01  1.335645151E+01  4.750000000E+00  0.00000E+00  9.000E+00
      -5     1     1     2     0   502 -4.277522495E+00 -1.247511358E+02 -3.023615038E+03  3.026194245E+03  4.750000000E+00  0.00000E+00  9.000E+00
       1     1     1     2   512     0 -7.643976120E+01  2.263284402E+01 -3.698182791E+02  3.783131537E+02  7.629394531E-06  0.00000E+00  9.000E+00
#rwgt            1           1   1.3271604822054739E-003           8      501005           0
</event>
<event>
      6   9999  3.45752E-01  4.16289E+00 -1.00000E+00  2.44316E-01
      21    -1     0     0   501   502  0.000000000E+00  0.000000000E+00  2.595673032E+01  2.595673032E+01  0.000000000E+00  0.00000E+00  9.000E+00
      21    -1     0     0   502   511  0.000000000E+00  0.000000000E+00 -1.102169406E+03  1.102169406E+03  0.000000000E+00  0.00000E+00  9.000E+00
      25     1     1     2     0     0  1.157016306E+01  5.239605616E+01 -5.410910037E+02  5.579802367E+02  1.252328030E+02  0.00000E+00  9.000E+00
       5     1     1     2   501     0  2.203914730E+00  2.965649238E+00  1.538295456E+01  1.651817504E+01  4.750000000E+00  0.00000E+00  9.000E+00
      -5     1     1     2     0   503 -1.590481738E+01 -5.178544849E+01 -5.211117351E+02  5.239415033E+02  4.750000000E+00  0.00000E+00  9.000E+00
      21     1     1     2   503   511  2.130739592E+00 -3.576256916E+00 -2.939289102E+01  2.968622083E+01  3.371747881E-07  0.00000E+00  9.000E+00
#rwgt            1           9   2.8636939238749055E-003           8      501291           0
</event>
<event>
      6   9999  3.45752E-01  3.35303E+01 -1.00000E+00  1.44779E-01
      21    -1     0     0   501   502  0.000000000E+00  0.000000000E+00  4.943871026E+01  4.943871026E+01  0.000000000E+00  0.00000E+00  9.000E+00
      21    -1     0     0   502   512  0.000000000E+00  0.000000000E+00 -2.628015252E+02  2.628015252E+02  0.000000000E+00  0.00000E+00  9.000E+00
      25     1     1     2     0     0 -3.399666248E+01 -2.832555238E+01 -6.723339197E+01  1.486700718E+02  1.249974051E+02  0.00000E+00  9.000E+00
       5     1     1     2   501     0 -8.956462046E-01 -1.294291141E-01 -1.304290011E+00  5.008253833E+00  4.750000000E+00  0.00000E+00  9.000E+00
      -5     1     1     2     0   503  1.374436868E+00  2.754231349E+01 -9.045070442E+01  9.468030703E+01  4.750000000E+00  0.00000E+00  9.000E+00
      21     1     1     2   503   512  3.351787181E+01  9.126679990E-01 -5.437442854E+01  6.388160277E+01  1.168007728E-06  0.00000E+00  9.000E+00
#rwgt            1           9  0.79164715851503031                8      507378           0
</event>
<event>
      6   9999  3.45752E-01  7.31641E+00 -1.00000E+00  2.02722E-01
      21    -1     0     0   501   502  0.000000000E+00  0.000000000E+00  3.554599165E+01  3.554599165E+01  0.000000000E+00  0.00000E+00  9.000E+00
      21    -1     0     0   502   511  0.000000000E+00  0.000000000E+00 -1.335453142E+03  1.335453142E+03  0.000000000E+00  0.00000E+00  9.000E+00
      25     1     1     2     0     0 -2.821109649E-01  1.486571645E+01 -1.110683912E+03  1.117795391E+03  1.250068569E+02  0.00000E+00  9.000E+00
       5     1     1     2   501     0  1.633104728E+00 -2.902613998E+00  3.081166926E+01  3.135304868E+01  4.750000000E+00  0.00000E+00  9.000E+00
      -5     1     1     2     0   503  5.750564743E+00 -1.372313169E+01 -7.389013894E+01  7.552290030E+01  4.750000000E+00  0.00000E+00  9.000E+00
      21     1     1     2   503   511 -7.101558506E+00  1.760029241E+00 -1.461447679E+02  1.463277930E+02  0.000000000E+00  0.00000E+00  9.000E+00
#rwgt            1           9   3.0167641673548968E-003           8      508755           0
</event>
<event>
      6   9999 -3.45752E-01  3.61476E+01 -1.00000E+00  1.42785E-01
      21    -1     0     0   501   502  0.000000000E+00  0.000000000E+00  3.403335578E+01  3.403335578E+01  0.000000000E+00  0.00000E+00  9.000E+00
      21    -1     0     0   512   503  0.000000000E+00  0.000000000E+00 -1.352229716E+03  1.352229716E+03  0.000000000E+00  0.00000E+00  9.000E+00
      25     1     1     2     0     0  5.079162323E+01 -6.357395396E+01 -1.116628367E+03  1.126545805E+03  1.250004182E+02  0.00000E+00  9.000E+00
       5     1     1     2   501     0  5.120327671E+00  3.787670136E+00  1.927146957E+01  2.084505313E+01  4.750000000E+00  0.00000E+00  9.000E+00
      -5     1     1     2     0   503 -3.795023838E+01  2.841710839E+01 -7.691492797E+01  9.047773918E+01  4.750000000E+00  0.00000E+00  9.000E+00
      21     1     1     2   512   502 -1.796171252E+01  3.136917543E+01 -1.439245351E+02  1.483944746E+02  0.000000000E+00  0.00000E+00  9.000E+00
#rwgt            1           9  -2.0004194012260054E-002           8      513040           0
</event>
<event>
      6   9999  3.45752E-01  1.96726E+00 -1.00000E+00  3.35684E-01
      21    -1     0     0   501   511  0.000000000E+00  0.000000000E+00  1.086941355E+02  1.086941355E+02  0.000000000E+00  0.00000E+00  9.000E+00
      21    -1     0     0   502   503  0.000000000E+00  0.000000000E+00 -4.299333580E+02  4.299333580E+02  0.000000000E+00  0.00000E+00  9.000E+00
      25     1     1     2     0     0  6.625444331E+00  1.211727212E-01 -2.936961713E+02  3.192602063E+02  1.250029083E+02  0.00000E+00  9.000E+00
       5     1     1     2   501     0 -6.923597297E-02 -3.781055641E-01 -3.334639191E+00  5.816362778E+00  4.750000000E+00  0.00000E+00  9.000E+00
      -5     1     1     2     0   503 -5.659868103E+00 -1.494266036E+00 -1.187499147E+02  1.189889562E+02  4.750000000E+00  0.00000E+00  9.000E+00
      21     1     1     2   502   511 -8.963402542E-01  1.751198879E+00  9.454150269E+01  9.456196833E+01  3.303624740E-06  0.00000E+00  9.000E+00
#rwgt            1           9   7.8810490852422976E-002           8      514713           0
</event>
<event>
      6   9999  3.45752E-01  7.19325E+00 -1.00000E+00  2.03643E-01
      21    -1     0     0   501   512  0.000000000E+00  0.000000000E+00  1.785112574E+01  1.785112574E+01  0.000000000E+00  0.00000E+00  9.000E+00
      21    -1     0     0   502   503  0.000000000E+00  0.000000000E+00 -9.559593973E+02  9.559593973E+02  0.000000000E+00  0.00000E+00  9.000E+00
      25     1     1     2     0     0  5.680698112E+01  1.357688773E+01 -6.903600218E+02  7.040123873E+02  1.250004668E+02  0.00000E+00  9.000E+00
       5     1     1     2   501     0 -1.140258152E+00 -1.020825195E-01  6.471745877E+00  8.109044591E+00  4.750000000E+00  0.00000E+00  9.000E+00
      -5     1     1     2     0   503 -5.289614893E+01 -6.836524773E+00 -2.379382851E+02  2.438891770E+02  4.750000000E+00  0.00000E+00  9.000E+00
      21     1     1     2   502   512 -2.770574034E+00 -6.638280440E+00 -1.628171059E+01  1.779991425E+01  2.384185791E-07  0.00000E+00  9.000E+00
#rwgt            1           9   1.0327137934976643E-003           8      522453           0
</event>
<event>
      6   9999  3.45752E-01  5.18867E+00 -1.00000E+00  2.23241E-01
       2    -1     0     0   501     0  0.000000000E+00  0.000000000E+00  5.355935188E+02  5.355935188E+02  0.000000000E+00  0.00000E+00  9.000E+00
      21    -1     0     0   502   503  0.000000000E+00  0.000000000E+00 -2.568941626E+01  2.568941626E+01  0.000000000E+00  0.00000E+00  9.000E+00
      25     1     1     2     0     0  2.086926629E+01 -1.771152596E+00  1.400542632E+02  1.888929105E+02  1.250066869E+02  0.00000E+00  9.000E+00
       5     1     1     2   501     0  1.254034542E-01  5.596046704E-01  3.070470170E+01  3.107523274E+01  4.750000000E+00  0.00000E+00  9.000E+00
      -5     1     1     2     0   503 -1.855788578E+01  5.792420542E+00  9.363329608E+01  9.574812737E+01  4.750000000E+00  0.00000E+00  9.000E+00
       2     1     1     2   502     0 -2.436783956E+00 -4.580872617E+00  2.455118416E+02  2.455666644E+02  2.697398305E-06  0.00000E+00  9.000E+00
#rwgt            1           9   3.8210872800856648E-006           8      526037           0
</event>
<event>
      6   9999  3.45752E-01  3.07061E+01 -1.00000E+00  1.47187E-01
      21    -1     0     0   511   503  0.000000000E+00  0.000000000E+00  3.496466434E+01  3.496466434E+01  0.000000000E+00  0.00000E+00  9.000E+00
      21    -1     0     0   501   502  0.000000000E+00  0.000000000E+00 -6.978606009E+02  6.978606009E+02  0.000000000E+00  0.00000E+00  9.000E+00
      25     1     1     2     0     0  1.796049209E+00  2.191141711E+01 -5.273114891E+02  5.423698427E+02  1.249972150E+02  0.00000E+00  9.000E+00
       5     1     1     2   501     0 -1.185143591E+01  1.607680593E+00 -1.277136109E+02  1.283603135E+02  4.750000000E+00  0.00000E+00  9.000E+00
      -5     1     1     2     0   503  9.599001148E-01  5.809004880E+00 -2.556153713E+01  2.665746849E+01  4.750000000E+00  0.00000E+00  9.000E+00
      21     1     1     2   511   502  9.095486586E+00 -2.932810259E+01  1.769070061E+01  3.543764052E+01  1.305872339E-06  0.00000E+00  9.000E+00
#rwgt            1           9  0.24734779529102618                8      529639           0
</event>
<event>
      6   9999 -3.45752E-01  2.99092E+00 -1.00000E+00  2.77256E-01
      21    -1     0     0   501   502  0.000000000E+00  0.000000000E+00  1.160653105E+01  1.160653105E+01  0.000000000E+00  0.00000E+00  9.000E+00
      21    -1     0     0   502   512  0.000000000E+00  0.000000000E+00 -1.227978012E+03  1.227978012E+03  0.000000000E+00  0.00000E+00  9.000E+00
      25     1     1     2     0     0  1.613749336E+01 -6.334109026E+01 -9.995249506E+02  1.009433061E+03  1.250298539E+02  0.00000E+00  9.000E+00
       5     1     1     2   501     0 -2.294199428E-02  7.048347780E-01 -2.241218162E+00  5.299328000E+00  4.750000000E+00  0.00000E+00  9.000E+00
      -5     1     1     2     0   503 -1.698739869E+01  5.977552939E+01 -1.875969388E+02  1.976786776E+02  4.750000000E+00  0.00000E+00  9.000E+00
      21     1     1     2   503   512  8.728473320E-01  2.860726092E+00 -2.700837378E+01  2.717347733E+01  0.000000000E+00  0.00000E+00  9.000E+00
#rwgt            1           9  -1.6640829545781596E-002           8      530994           0
</event>
<event>
      6   9999  3.45752E-01  8.51912E+00 -1.00000E+00  1.94837E-01
      21    -1     0     0   502   511  0.000000000E+00  0.000000000E+00  4.194422980E+00  4.194422980E+00  0.000000000E+00  0.00000E+00  9.000E+00
      21    -1     0     0   501   502  0.000000000E+00  0.000000000E+00 -1.287938796E+03  1.287938796E+03  0.000000000E+00  0.00000E+00  9.000E+00
      25     1     1     2     0     0 -3.789062209E+00 -1.052955722E+01 -1.170948811E+03  1.177693469E+03  1.253617176E+02  0.00000E+00  9.000E+00
       5     1     1     2   501     0  1.891922897E+00  6.448450725E-01 -3.520651655E+01  3.558168777E+01  4.750000000E+00  0.00000E+00  9.000E+00
      -5     1     1     2     0   503  7.824097069E-01  1.438838206E+00 -4.008225217E+01  4.039593865E+01  4.750000000E+00  0.00000E+00  9.000E+00
      21     1     1     2   503   511  1.114729606E+00  8.445873937E+00 -3.750679281E+01  3.846212312E+01  8.259061849E-07  0.00000E+00  9.000E+00
#rwgt            1           9   1.6650843906167688E-004           8      536986           0
</event>
<event>
      6   9999  3.45752E-01  3.43163E+01 -1.00000E+00  1.44158E-01
      21    -1     0     0   501   512  0.000000000E+00  0.000000000E+00  4.963032551E+02  4.963032551E+02  0.000000000E+00  0.00000E+00  9.000E+00
      21    -1     0     0   502   503  0.000000000E+00  0.000000000E+00 -1.083730869E+03  1.083730869E+03  0.000000000E+00  0.00000E+00  9.000E+00
      25     1     1     2     0     0  9.304634372E+00 -1.599514419E+01 -9.235854390E+02  9.321898725E+02  1.250018972E+02  0.00000E+00  9.000E+00
       5     1     1     2   501     0  4.065646977E+00 -2.102296505E+01  1.634055879E+01  2.735088493E+01  4.750000000E+00  0.00000E+00  9.000E+00
      -5     1     1     2     0   503 -3.629603827E+00  4.113250711E+00 -1.496238237E+02  1.497996795E+02  4.750000000E+00  0.00000E+00  9.000E+00
      21     1     1     2   502   512 -9.740677522E+00  3.290485853E+01  4.694410898E+02  4.706936874E+02  5.394796609E-06  0.00000E+00  9.000E+00
#rwgt            1           9   4.8720799566172407E-005           8      539108           0
</event>
<event>
      6   9999  3.45752E-01  6.43078E+00 -1.00000E+00  2.09948E-01
      21    -1     0     0   511   502  0.000000000E+00  0.000000000E+00  3.523189969E+01  3.523189969E+01  0.000000000E+00  0.00000E+00  9.000E+00
      21    -1     0     0   502   503  0.000000000E+00  0.000000000E+00 -1.155857262E+03  1.155857262E+03  0.000000000E+00  0.00000E+00  9.000E+00
      25     1     1     2     0     0  6.311524676E+00  9.974294157E+00 -9.871074594E+02  9.950608001E+02  1.250021502E+02  0.00000E+00  9.000E+00
       5     1     1     2   501     0 -6.649084228E-01 -7.911366450E+00  2.720656229E+01  2.873658564E+01  4.750000000E+00  0.00000E+00  9.000E+00
      -5     1     1     2     0   503 -1.201448651E+01 -1.165625451E+00 -1.603246602E+02  1.608485802E+02  4.750000000E+00  0.00000E+00  9.000E+00
      21     1     1     2   511   501  6.367870254E+00 -8.973022568E-01 -3.998045435E-01  6.443195371E+00  1.276421674E-07  0.00000E+00  9.000E+00
#rwgt            1           9   1.7050807479027528E-004           8      541211           0
</event>
<event>
      6   9999  3.45752E-01  6.96832E+00 -1.00000E+00  2.05390E-01
      21    -1     0     0   501   502  0.000000000E+00  0.000000000E+00  9.256000459E+00  9.256000459E+00  0.000000000E+00  0.00000E+00  9.000E+00
      21    -1     0     0   512   503  0.000000000E+00  0.000000000E+00 -1.228542372E+03  1.228542372E+03  0.000000000E+00  0.00000E+00  9.000E+00
      25     1     1     2     0     0 -4.195790051E-01  1.311165407E+01 -5.730096582E+02  5.866327583E+02  1.250033325E+02  0.00000E+00  9.000E+00
       5     1     1     2   501     0  1.364822729E+00  1.170986879E+00 -8.605144854E-01  5.151401415E+00  4.750000000E+00  0.00000E+00  9.000E+00
      -5     1     1     2     0   503  4.591637725E+00 -1.005175609E+01 -1.310606401E+02  1.316114540E+02  4.750000000E+00  0.00000E+00  9.000E+00
      21     1     1     2   512   502 -5.536881450E+00 -4.230884857E+00 -5.143555585E+02  5.144027585E+02  0.000000000E+00  0.00000E+00  9.000E+00
#rwgt            1           9   1.2294128308376104E-002           8      545684           0
</event>
<event>
      6   9999 -3.45752E-01  1.00060E+01 -1.00000E+00  1.87166E-01
      21    -1     0     0   502   503  0.000000000E+00  0.000000000E+00  2.544633837E+01  2.544633837E+01  0.000000000E+00  0.00000E+00  9.000E+00
      21    -1     0     0   511   502  0.000000000E+00  0.000000000E+00 -1.787137026E+03  1.787137026E+03  0.000000000E+00  0.00000E+00  9.000E+00
      25     1     1     2     0     0  1.603200571E+01  8.984784274E+00 -9.792716043E+02  9.873885664E+02  1.250022185E+02  0.00000E+00  9.000E+00
       5     1     1     2   501     0  1.494105903E-01 -1.348239508E-01 -3.706824702E+00  6.028561221E+00  4.750000000E+00  0.00000E+00  9.000E+00
      -5     1     1     2     0   503 -6.219331358E+00 -7.913255132E+00  1.866231767E+01  2.172888148E+01  4.750000000E+00  0.00000E+00  9.000E+00
      21     1     1     2   511   501 -9.962084944E+00 -9.367051912E-01 -7.973745763E+02  7.974373552E+02  1.078959322E-05  0.00000E+00  9.000E+00
#rwgt            1           9  -1.6163051223998367E-003           8      548548           0
</event>
<event>
      6   9999  3.45752E-01  2.39173E+01 -1.00000E+00  1.54499E-01
      21    -1     0     0   501   512  0.000000000E+00  0.000000000E+00  4.736639323E+01  4.736639323E+01  0.000000000E+00  0.00000E+00  9.000E+00
      21    -1     0     0   502   503  0.000000000E+00  0.000000000E+00 -1.270597147E+03  1.270597147E+03  0.000000000E+00  0.00000E+00  9.000E+00
      25     1     1     2     0     0 -1.036346053E+02 -2.368861246E+01 -1.047847403E+03  1.060618151E+03  1.250016049E+02  0.00000E+00  9.000E+00
       5     1     1     2   501     0  4.250042163E+00  1.640761196E+00  1.523303739E+01  1.659406171E+01  4.750000000E+00  0.00000E+00  9.000E+00
      -5     1     1     2     0   503  1.181059705E+02  7.163421614E+00 -1.777758201E+02  2.136051020E+02  4.750000000E+00  0.00000E+00  9.000E+00
      21     1     1     2   502   512 -1.872140735E+01  1.488442965E+01 -1.284056759E+01  2.714622470E+01  2.920019320E-07  0.00000E+00  9.000E+00
#rwgt            1           9   9.6906195428059603E-006           8      551868           0
</event>
<event>
      6   9999 -3.45752E-01  6.68107E+00 -1.00000E+00  2.07754E-01
      21    -1     0     0   501   502  0.000000000E+00  0.000000000E+00  2.291354393E+01  2.291354393E+01  0.000000000E+00  0.00000E+00  9.000E+00
       2    -1     0     0   502     0  0.000000000E+00  0.000000000E+00 -1.379172693E+03  1.379172693E+03  0.000000000E+00  0.00000E+00  9.000E+00
      25     1     1     2     0     0 -2.602201768E+01 -7.122217866E+01 -7.007893074E+02  7.158767064E+02  1.249962449E+02  0.00000E+00  9.000E+00
       5     1     1     2   501     0 -7.912510151E-01 -1.683533944E-01  9.823404287E+00  1.094148952E+01  4.750000000E+00  0.00000E+00  9.000E+00
      -5     1     1     2     0   503  3.344340339E+01  7.221392955E+01 -3.156933029E+02  3.256042641E+02  4.750000000E+00  0.00000E+00  9.000E+00
       2     1     1     2   503     0 -6.630134696E+00 -8.233974899E-01 -3.495999435E+02  3.496637773E+02  6.607249480E-06  0.00000E+00  9.000E+00
#rwgt            1           9  -9.8415271284687963E-005           8      553896           0
</event>
<event>
      6   9999 -3.45752E-01  3.15452E+01 -1.00000E+00  1.46441E-01
      21    -1     0     0   502   503  0.000000000E+00  0.000000000E+00  7.937834131E+02  7.937834131E+02  0.000000000E+00  0.00000E+00  9.000E+00
      21    -1     0     0   511   502  0.000000000E+00  0.000000000E+00 -1.402555699E+02  1.402555699E+02  0.000000000E+00  0.00000E+00  9.000E+00
      25     1     1     2     0     0 -8.019653877E+00 -3.647612443E+00 -1.186062711E+01  1.258687160E+02  1.249985571E+02  0.00000E+00  9.000E+00
       5     1     1     2   501     0 -1.150611964E+01 -2.889747313E+00  3.187491418E+02  3.190052027E+02  4.750000000E+00  0.00000E+00  9.000E+00
      -5     1     1     2     0   503 -1.132898426E+01 -2.648327033E-02  4.143157429E+02  4.144978213E+02  4.750000000E+00  0.00000E+00  9.000E+00
      21     1     1     2   511   501  3.085475777E+01  6.563843026E+00 -6.767641438E+01  7.466724299E+01  9.536743164E-07  0.00000E+00  9.000E+00
#rwgt            1           9  -100.68693538495768                8      557924           0
</event>
<event>
      6   9999 -3.45752E-01  2.52176E+00 -1.00000E+00  2.98249E-01
      21    -1     0     0   501   502  0.000000000E+00  0.000000000E+00  3.292520184E+01  3.292520184E+01  0.000000000E+00  0.00000E+00  9.000E+00
      21    -1     0     0   502   512  0.000000000E+00  0.000000000E+00 -1.688493066E+03  1.688493066E+03  0.000000000E+00  0.00000E+00  9.000E+00
      25     1     1     2     0     0 -6.227220026E+01 -7.687539284E+00 -1.057125893E+03  1.066338496E+03  1.250028285E+02  0.00000E+00  9.000E+00
       5     1     1     2   501     0 -1.984664922E+00 -4.311963640E+00  1.705815582E+01  1.833235133E+01  4.750000000E+00  0.00000E+00  9.000E+00
      -5     1     1     2     0   503  6.335387361E+01  9.644963729E+00 -8.657925744E+01  1.078205405E+02  4.750000000E+00  0.00000E+00  9.000E+00
      21     1     1     2   503   512  9.029915751E-01  2.354539195E+00 -5.289208695E+02  5.289268810E+02  7.629394531E-06  0.00000E+00  9.000E+00
#rwgt            1           9  -3.1637387659469957E-005           8      559849           0
</event>
<event>
      6   9999  3.45752E-01  1.23320E+01 -1.00000E+00  1.78088E-01
      21    -1     0     0   501   502  0.000000000E+00  0.000000000E+00  1.030594864E+01  1.030594864E+01  0.000000000E+00  0.00000E+00  9.000E+00
      21    -1     0     0   511   503  0.000000000E+00  0.000000000E+00 -6.704655404E+02  6.704655404E+02  0.000000000E+00  0.00000E+00  9.000E+00
      25     1     1     2     0     0  1.425110029E+00 -1.371067119E+01 -4.229616234E+02  4.412606705E+02  1.249977242E+02  0.00000E+00  9.000E+00
       5     1     1     2   501     0  7.573309898E+00  7.352227903E+00 -5.170517226E+01  5.298488102E+01  4.750000000E+00  0.00000E+00  9.000E+00
      -5     1     1     2     0   503  1.499618493E+00 -1.122255918E-01 -2.148396226E+01  2.205412851E+01  4.750000000E+00  0.00000E+00  9.000E+00
      21     1     1     2   511   502 -1.049803842E+01  6.470668880E+00 -1.640088339E+02  1.644718090E+02  2.697398305E-06  0.00000E+00  9.000E+00
#rwgt            1           9   4.0579360332963048E-002           8      568437           0
</event>
<event>
      6   9999  3.45752E-01  2.06141E+01 -1.00000E+00  1.59214E-01
      21    -1     0     0   501   502  0.000000000E+00  0.000000000E+00  3.995666683E+01  3.995666683E+01  0.000000000E+00  0.00000E+00  9.000E+00
      21    -1     0     0   512   503  0.000000000E+00  0.000000000E+00 -1.360087783E+03  1.360087783E+03  0.000000000E+00  0.00000E+00  9.000E+00
      25     1     1     2     0     0 -3.281572723E+01  5.830247807E+01 -3.665775764E+02  3.930398397E+02  1.250005808E+02  0.00000E+00  9.000E+00
       5     1     1     2   501     0  3.112377717E+00 -6.764685763E+00  2.349630594E+01  2.510152906E+01  4.750000000E+00  0.00000E+00  9.000E+00
      -5     1     1     2     0   503  1.755461053E+01 -6.819163499E+01 -8.718995175E+02  8.747511615E+02  4.750000000E+00  0.00000E+00  9.000E+00
      21     1     1     2   512   502  1.214873898E+01  1.665384268E+01 -1.051503281E+02  1.071519194E+02  1.348699152E-06  0.00000E+00  9.000E+00
#rwgt            1           9   6.0435855106356201E-004           8      570034           0
</event>
<event>
      6   9999  3.45752E-01  7.17022E+01 -1.00000E+00  1.26912E-01
      21    -1     0     0   501   502  0.000000000E+00  0.000000000E+00  3.981570096E+01  3.981570096E+01  0.000000000E+00  0.00000E+00  9.000E+00
      21    -1     0     0   502   511  0.000000000E+00  0.000000000E+00 -1.633137371E+03  1.633137371E+03  0.000000000E+00  0.00000E+00  9.000E+00
      25     1     1     2     0     0 -1.510579373E+01 -1.081181457E+02 -6.563005319E+02  6.769585617E+02  1.249991510E+02  0.00000E+00  9.000E+00
       5     1     1     2   501     0  7.707377641E-01  9.747738213E+00  8.444400659E+00  1.376527658E+01  4.750000000E+00  0.00000E+00  9.000E+00
      -5     1     1     2     0   503  4.218806858E+01  1.644417043E+02 -4.388791443E+02  4.705936390E+02  4.750000000E+00  0.00000E+00  9.000E+00
      21     1     1     2   503   511 -2.785301262E+01 -6.607129688E+01 -5.065863943E+02  5.116355944E+02  7.629394531E-06  0.00000E+00  9.000E+00
#rwgt            1           9   3.0221911480709477E-004           8      572068           0
</event>
<event>
      6   9999  3.45752E-01  1.11026E+01 -1.00000E+00  1.82533E-01
      21    -1     0     0   502   503  0.000000000E+00  0.000000000E+00  6.924181261E+00  6.924181261E+00  0.000000000E+00  0.00000E+00  9.000E+00
      21    -1     0     0   501   512  0.000000000E+00  0.000000000E+00 -1.074745105E+03  1.074745105E+03  0.000000000E+00  0.00000E+00  9.000E+00
      25     1     1     2     0     0  4.402948893E+00  2.654771807E+00 -6.383352097E+02  6.504782391E+02  1.249946628E+02  0.00000E+00  9.000E+00
       5     1     1     2   501     0  8.559632892E-01  1.571474725E+00 -2.445043319E+01  2.497175182E+01  4.750000000E+00  0.00000E+00  9.000E+00
      -5     1     1     2     0   503 -1.745877644E-01  5.643781158E+00 -2.614206467E+01  2.716344588E+01  4.750000000E+00  0.00000E+00  9.000E+00
      21     1     1     2   502   512 -5.084324418E+00 -9.870027690E+00 -3.788932162E+02  3.790558496E+02  0.000000000E+00  0.00000E+00  9.000E+00
#rwgt            1           9   7.9869288345191447E-006           8      572696           0
</event>
<event>
      6   9999  3.45752E-01  3.93360E+00 -1.00000E+00  2.49364E-01
      21    -1     0     0   501   502  0.000000000E+00  0.000000000E+00  1.650628582E+01  1.650628582E+01  0.000000000E+00  0.00000E+00  9.000E+00
      21    -1     0     0   502   511  0.000000000E+00  0.000000000E+00 -9.211813136E+02  9.211813136E+02  0.000000000E+00  0.00000E+00  9.000E+00
      25     1     1     2     0     0 -1.627315706E+01  5.258151070E+01 -7.037689160E+02  7.169012698E+02  1.250084503E+02  0.00000E+00  9.000E+00
       5     1     1     2   501     0  1.477852460E+00 -2.383842120E-01  4.265729826E+00  6.557425247E+00  4.750000000E+00  0.00000E+00  9.000E+00
      -5     1     1     2     0   503  1.139486289E+01 -5.432054418E+01 -1.713137029E+02  1.801430313E+02  4.750000000E+00  0.00000E+00  9.000E+00
      21     1     1     2   503   511  3.400441712E+00  1.977417692E+00 -3.385813875E+01  3.408587309E+01  4.768371582E-07  0.00000E+00  9.000E+00
#rwgt            1           9   2.3790124788544643E-004           8      574797           0
</event>
<event>
      6   9999  3.45752E-01  8.96034E+00 -1.00000E+00  1.92360E-01
      21    -1     0     0   501   502  0.000000000E+00  0.000000000E+00  1.692422687E+02  1.692422687E+02  0.000000000E+00  0.00000E+00  9.000E+00
      21    -1     0     0   512   503  0.000000000E+00  0.000000000E+00 -5.823460169E+01  5.823460169E+01  0.000000000E+00  0.00000E+00  9.000E+00
      25     1     1     2     0     0  7.414818194E-01 -3.257847980E+00  6.387525244E+01  1.404132051E+02  1.249986276E+02  0.00000E+00  9.000E+00
       5     1     1     2   501     0  4.407548835E-02 -8.154943152E-01  5.059006254E+01  5.081912929E+01  4.750000000E+00  0.00000E+00  9.000E+00
      -5     1     1     2     0   503 -3.499327205E+00 -4.466161895E+00  1.444205677E+01  1.622736568E+01  4.750000000E+00  0.00000E+00  9.000E+00
      21     1     1     2   512   502  2.713769897E+00  8.539504191E+00 -1.789970476E+01  2.001717036E+01  3.371747881E-07  0.00000E+00  9.000E+00
#rwgt            1           9   8.3403196395917586E-003           8      580189           0
</event>
<event>
      6   9999  3.45752E-01  8.30754E+00 -1.00000E+00  1.96095E-01
      21    -1     0     0   501   502  0.000000000E+00  0.000000000E+00  7.778028618E+00  7.778028618E+00  0.000000000E+00  0.00000E+00  9.000E+00
       2    -1     0     0   502     0  0.000000000E+00  0.000000000E+00 -1.965163351E+03  1.965163351E+03  0.000000000E+00  0.00000E+00  9.000E+00
      25     1     1     2     0     0 -3.423808498E-01  4.897322290E+00 -6.596189153E+02  6.713765947E+02  1.250012701E+02  0.00000E+00  9.000E+00
       5     1     1     2   501     0 -5.543059379E-01  1.174010416E+00 -2.170885030E+00  5.381523701E+00  4.750000000E+00  0.00000E+00  9.000E+00
      -5     1     1     2     0   503 -1.294540051E+00  1.942011673E+00 -2.470220908E+01  2.526279629E+01  4.750000000E+00  0.00000E+00  9.000E+00
       2     1     1     2   503     0  2.191226839E+00 -8.013344378E+00 -1.270893313E+03  1.270920465E+03  2.157918644E-05  0.00000E+00  9.000E+00
#rwgt            1           9   9.9060639361577940E-005           8      582494           0
</event>
<event>
      6   9999  3.45752E-01  1.27805E+01 -1.00000E+00  1.76627E-01
      21    -1     0     0   511   502  0.000000000E+00  0.000000000E+00  4.067395343E+02  4.067395343E+02  0.000000000E+00  0.00000E+00  9.000E+00
      21    -1     0     0   502   503  0.000000000E+00  0.000000000E+00 -9.605980781E+02  9.605980781E+02  0.000000000E+00  0.00000E+00  9.000E+00
      25     1     1     2     0     0  1.286134800E+01 -1.667849644E+01 -6.937248039E+02  7.052116078E+02  1.250028865E+02  0.00000E+00  9.000E+00
       5     1     1     2   501     0 -9.625697063E-01 -5.629465853E+00  1.142602603E+01  1.362842607E+01  4.750000000E+00  0.00000E+00  9.000E+00
      -5     1     1     2     0   503 -6.190948263E+00  1.087285804E+01 -2.597512359E+02  2.600957784E+02  4.750000000E+00  0.00000E+00  9.000E+00
      21     1     1     2   511   501 -5.707830034E+00  1.143510425E+01  3.881914700E+02  3.884018001E+02  5.394796609E-06  0.00000E+00  9.000E+00
#rwgt            1           9   2.8863649753486519E-003           8      584761           0
</event>
<event>
      6   9999  3.45752E-01  2.41987E+01 -1.00000E+00  1.54140E-01
      21    -1     0     0   501   502  0.000000000E+00  0.000000000E+00  2.811378571E+02  2.811378571E+02  0.000000000E+00  0.00000E+00  9.000E+00
      21    -1     0     0   502   512  0.000000000E+00  0.000000000E+00 -3.208891776E+02  3.208891776E+02  0.000000000E+00  0.00000E+00  9.000E+00
      25     1     1     2     0     0 -6.929572014E+00 -1.363363187E+01 -2.497758912E+02  2.797253040E+02  1.249974199E+02  0.00000E+00  9.000E+00
       5     1     1     2   501     0  3.023615689E+00  8.339874377E-01  2.597398224E+02  2.598021856E+02  4.750000000E+00  0.00000E+00  9.000E+00
      -5     1     1     2     0   503 -2.556276030E+00 -1.052019158E+01 -8.003972967E+00  1.427708168E+01  4.750000000E+00  0.00000E+00  9.000E+00
      21     1     1     2   503   512  6.462232355E+00  2.331983602E+01 -4.171127872E+01  4.822246335E+01  4.768371582E-07  0.00000E+00  9.000E+00
#rwgt            1           9   1.8557529190686322                8      587175           0
</event>
<event>
      6   9999  3.45752E-01  4.50395E+00 -1.00000E+00  2.37645E-01
      21    -1     0     0   501   502  0.000000000E+00  0.000000000E+00  1.198988313E+02  1.198988313E+02  0.000000000E+00  0.00000E+00  9.000E+00
      21    -1     0     0   511   503  0.000000000E+00  0.000000000E+00 -3.998209621E+02  3.998209621E+02  0.000000000E+00  0.00000E+00  9.000E+00
      25     1     1     2     0     0  9.700420093E-01  6.624672206E+00 -3.701750994E+02  3.907678229E+02  1.250002398E+02  0.00000E+00  9.000E+00
       5     1     1     2   501     0  1.838942674E-01 -2.855181604E-01  1.078533530E+02  1.079584345E+02  4.750000000E+00  0.00000E+00  9.000E+00
      -5     1     1     2     0   503  2.400240656E+00 -3.572670916E+00 -7.085748894E+00  9.554866303E+00  4.750000000E+00  0.00000E+00  9.000E+00
      21     1     1     2   511   502 -3.554176933E+00 -2.766483129E+00 -1.051463554E+01  1.143866964E+01  1.192092896E-07  0.00000E+00  9.000E+00
#rwgt            1           9   8.3742042999586793E-006           8      590094           0
</event>
<event>
      6   9999  3.45752E-01  1.13797E+01 -1.00000E+00  1.81469E-01
      21    -1     0     0   501   512  0.000000000E+00  0.000000000E+00  2.109230069E+03  2.109230069E+03  0.000000000E+00  0.00000E+00  9.000E+00
      21    -1     0     0   502   503  0.000000000E+00  0.000000000E+00 -7.415324551E+00  7.415324551E+00  0.000000000E+00  0.00000E+00  9.000E+00
      25     1     1     2     0     0 -1.106177548E+01 -2.567798950E+00  5.636492780E+02  5.774550885E+02  1.249996569E+02  0.00000E+00  9.000E+00
       5     1     1     2   501     0 -1.087634268E-01 -6.723866077E-02  9.711844238E+02  9.711960481E+02  4.750000000E+00  0.00000E+00  9.000E+00
      -5     1     1     2     0   503 -6.395362222E-03  4.963221348E-01  1.227281421E+01  1.316931453E+01  4.750000000E+00  0.00000E+00  9.000E+00
      21     1     1     2   502   512  1.117693427E+01  2.138715476E+00  5.547082287E+02  5.548249426E+02  1.078959322E-05  0.00000E+00  9.000E+00
#rwgt            1           9   6.2697732589814856E-002           8      596360           0
</event>
<event>
      6   9999 -3.45752E-01  7.96399E+00 -1.00000E+00  1.98247E-01
      21    -1     0     0   501   502  0.000000000E+00  0.000000000E+00  2.713055650E+01  2.713055650E+01  0.000000000E+00  0.00000E+00  9.000E+00
      21    -1     0     0   502   511  0.000000000E+00  0.000000000E+00 -1.235243381E+03  1.235243381E+03  0.000000000E+00  0.00000E+00  9.000E+00
      25     1     1     2     0     0  1.995140390E+01  6.039210170E+01 -3.740340121E+02  3.994643828E+02  1.250003456E+02  0.00000E+00  9.000E+00
       5     1     1     2   501     0 -1.395253087E+00 -2.069060852E+00  1.275796242E+01  1.384037027E+01  4.750000000E+00  0.00000E+00  9.000E+00
      -5     1     1     2     0   503 -1.714223402E+01 -5.048556335E+01 -7.266803448E+02  7.286491160E+02  4.750000000E+00  0.00000E+00  9.000E+00
      21     1     1     2   503   511 -1.413916793E+00 -7.837477500E+00 -1.201564298E+02  1.204200682E+02  2.336015456E-06  0.00000E+00  9.000E+00
#rwgt            1           9  -2.4600917029121171E-002           8      599216           0
</event>
<event>
      6   9999  3.45752E-01  7.78904E+00 -1.00000E+00  1.99399E-01
      21    -1     0     0   501   502  0.000000000E+00  0.000000000E+00  9.667635638E+00  9.667635638E+00  0.000000000E+00  0.00000E+00  9.000E+00
       2    -1     0     0   502     0  0.000000000E+00  0.000000000E+00 -1.472282012E+03  1.472282012E+03  0.000000000E+00  0.00000E+00  9.000E+00
      25     1     1     2     0     0  1.573734901E+01  1.005538625E+01 -5.595598553E+02  5.736553561E+02  1.249978438E+02  0.00000E+00  9.000E+00
       5     1     1     2   501     0  6.837408941E+00 -3.441951952E+00 -9.051839898E+00  1.277088485E+01  4.750000000E+00  0.00000E+00  9.000E+00
      -5     1     1     2     0   503 -1.944454769E+01 -1.374581925E+01 -1.988432198E+02  2.003203099E+02  4.750000000E+00  0.00000E+00  9.000E+00
       2     1     1     2   503     0 -3.130210263E+00  7.132384946E+00 -6.951594615E+02  6.952030970E+02  7.629394531E-06  0.00000E+00  9.000E+00
#rwgt            1           9   1.8489245192344581                8      603050           0
</event>
<event>
      6   9999  3.45752E-01  1.92298E+01 -1.00000E+00  1.61523E-01
      -1    -1     0     0     0   511  0.000000000E+00  0.000000000E+00  4.025980744E+01  4.025980744E+01  0.000000000E+00  0.00000E+00  9.000E+00
       1    -1     0     0   501     0  0.000000000E+00  0.000000000E+00 -1.202724775E+03  1.202724775E+03  0.000000000E+00  0.00000E+00  9.000E+00
      25     1     1     2     0     0  3.504207267E+01  5.146888201E+00 -2.215067290E+02  2.567901747E+02  1.249861013E+02  0.00000E+00  9.000E+00
       5     1     1     2   501     0 -1.330419766E+02 -6.867860085E+01 -6.822043630E+02  6.984570661E+02  4.750000000E+00  0.00000E+00  9.000E+00
      -5     1     1     2     0   502  8.143296008E+01  5.376843807E+01 -2.459261816E+02  2.646216568E+02  4.750000000E+00  0.00000E+00  9.000E+00
      21     1     1     2   502   511  1.656694390E+01  9.763274575E+00 -1.282769417E+01  2.311568511E+01  6.951036328E-07  0.00000E+00  9.000E+00
#rwgt            1           1   2.2334634220505566E-004           8      605386           0
</event>
<event>
      6   9999 -3.45752E-01  1.82978E+01 -1.00000E+00  1.63216E-01
      21    -1     0     0   512   502  0.000000000E+00  0.000000000E+00  1.952691840E+01  1.952691840E+01  0.000000000E+00  0.00000E+00  9.000E+00
      21    -1     0     0   502   503  0.000000000E+00  0.000000000E+00 -1.530056427E+03  1.530056427E+03  0.000000000E+00  0.00000E+00  9.000E+00
      25     1     1     2     0     0 -1.218825217E+02 -6.484575422E+01 -1.091817205E+03  1.107586846E+03  1.249939634E+02  0.00000E+00  9.000E+00
       5     1     1     2   501     0  3.423724126E+00  2.304026701E+00 -9.967585852E+00  1.178752279E+01  4.750000000E+00  0.00000E+00  9.000E+00
      -5     1     1     2     0   503  1.025359298E+02  5.352662967E+01 -3.591838599E+02  3.773782250E+02  4.750000000E+00  0.00000E+00  9.000E+00
      21     1     1     2   512   501  1.592286772E+01  9.015097842E+00 -4.956085774E+01  5.283075170E+01  6.743495762E-07  0.00000E+00  9.000E+00
#rwgt            1           9  -2.8470414276245744E-002           8      605689           0
</event>
<event>
      6   9999  3.45752E-01  1.95022E+01 -1.00000E+00  1.61050E-01
      21    -1     0     0   501   502  0.000000000E+00  0.000000000E+00  5.383374159E+01  5.383374159E+01  0.000000000E+00  0.00000E+00  9.000E+00
      21    -1     0     0   511   503  0.000000000E+00  0.000000000E+00 -8.311939967E+02  8.311939967E+02  0.000000000E+00  0.00000E+00  9.000E+00
      25     1     1     2     0     0  5.146092415E+01 -1.812954322E+01 -5.144696559E+02  5.322408968E+02  1.249977533E+02  0.00000E+00  9.000E+00
       5     1     1     2   501     0 -6.044224380E-01 -2.792316036E+00  4.071697193E+01  4.109253775E+01  4.750000000E+00  0.00000E+00  9.000E+00
      -5     1     1     2     0   503 -5.074861389E+01  1.419957097E+00 -2.144422380E+02  2.204211288E+02  4.750000000E+00  0.00000E+00  9.000E+00
      21     1     1     2   511   502 -1.078878200E-01  1.950190216E+01 -8.916533320E+01  9.127317498E+01  9.536743164E-07  0.00000E+00  9.000E+00
#rwgt            1           9   4.4386991454934662E-003           8      607653           0
</event>
<event>
      6   9999  3.45752E-01  6.61843E+00 -1.00000E+00  2.08291E-01
      21    -1     0     0   512   502  0.000000000E+00  0.000000000E+00  2.090997129E+01  2.090997129E+01  0.000000000E+00  0.00000E+00  9.000E+00
      21    -1     0     0   502   503  0.000000000E+00  0.000000000E+00 -1.174077874E+03  1.174077874E+03  0.000000000E+00  0.00000E+00  9.000E+00
      25     1     1     2     0     0 -9.808200302E+00  5.147186377E+01 -1.056026604E+03  1.064686431E+03  1.249778197E+02  0.00000E+00  9.000E+00
       5     1     1     2   501     0 -1.361169845E+01 -2.849798873E+01 -2.306018548E+01  3.939223719E+01  4.750000000E+00  0.00000E+00  9.000E+00
      -5     1     1     2     0   503  1.745915408E+01 -2.009756619E+01 -7.844912571E+01  8.297928688E+01  4.750000000E+00  0.00000E+00  9.000E+00
      21     1     1     2   512   501  5.960744671E+00 -2.876308847E+00  4.368012032E+00  7.929890209E+00  5.462855929E-07  0.00000E+00  9.000E+00
#rwgt            1           9   9.8623619630129944E-002           8      610800           0
</event>
<event>
      6   9999  3.45752E-01  5.37242E+00 -1.00000E+00  2.20967E-01
      21    -1     0     0   501   502  0.000000000E+00  0.000000000E+00  1.141966290E+01  1.141966290E+01  0.000000000E+00  0.00000E+00  9.000E+00
      21    -1     0     0   502   511  0.000000000E+00  0.000000000E+00 -1.759871297E+03  1.759871297E+03  0.000000000E+00  0.00000E+00  9.000E+00
      25     1     1     2     0     0  1.188982307E+01  8.544575761E+00 -5.735588619E+02  5.872039062E+02  1.249971273E+02  0.00000E+00  9.000E+00
       5     1     1     2   501     0 -1.259320474E+00 -5.613095157E-01  3.002303151E+00  5.785955465E+00  4.750000000E+00  0.00000E+00  9.000E+00
      -5     1     1     2     0   503 -1.179563850E+01 -2.738715386E+00 -2.161634216E+02  2.165544388E+02  4.750000000E+00  0.00000E+00  9.000E+00
      21     1     1     2   503   511  1.165135906E+00 -5.244550859E+00 -9.617316540E+02  9.617466596E+02  1.525878906E-05  0.00000E+00  9.000E+00
#rwgt            1           9   1.5778463318152105E-002           8      614162           0
</event>
<event>
      6   9999  3.45752E-01  2.44380E+01 -1.00000E+00  1.53839E-01
      21    -1     0     0   501   502  0.000000000E+00  0.000000000E+00  2.731663204E+01  2.731663204E+01  0.000000000E+00  0.00000E+00  9.000E+00
      21    -1     0     0   512   503  0.000000000E+00  0.000000000E+00 -2.347731032E+03  2.347731032E+03  0.000000000E+00  0.00000E+00  9.000E+00
      25     1     1     2     0     0 -9.028378490E+01  3.690955216E+01 -3.129441830E+02  3.508165159E+02  1.249987571E+02  0.00000E+00  9.000E+00
       5     1     1     2   501     0 -2.840504040E+00  1.076645009E+00  5.165573170E+00  7.646781928E+00  4.750000000E+00  0.00000E+00  9.000E+00
      -5     1     1     2     0   503  7.079411135E+01 -2.805741310E+01 -7.836533859E+02  7.873590136E+02  4.750000000E+00  0.00000E+00  9.000E+00
      21     1     1     2   512   502  2.233017760E+01 -9.928784068E+00 -1.228982404E+03  1.229225352E+03  2.157918644E-05  0.00000E+00  9.000E+00
#rwgt            1           9   3.5122706353767075E-002           8      617980           0
</event>
<event>
      6   9999  3.45752E-01  1.13601E+01 -1.00000E+00  1.81543E-01
      21    -1     0     0   501   502  0.000000000E+00  0.000000000E+00  4.235131824E+01  4.235131824E+01  0.000000000E+00  0.00000E+00  9.000E+00
      21    -1     0     0   502   511  0.000000000E+00  0.000000000E+00 -2.584108900E+02  2.584108900E+02  0.000000000E+00  0.00000E+00  9.000E+00
      25     1     1     2     0     0  1.082488873E+01 -3.879344200E+00 -1.967663027E+02  2.333976923E+02  1.250011093E+02  0.00000E+00  9.000E+00
       5     1     1     2   501     0  1.562784940E+00  3.694697566E-01  2.210291233E+01  2.266451054E+01  4.750000000E+00  0.00000E+00  9.000E+00
      -5     1     1     2     0   503 -1.383745425E+00  6.874219997E-01 -8.069516504E+00  9.490358108E+00  4.750000000E+00  0.00000E+00  9.000E+00
      21     1     1     2   503   511 -1.100392825E+01  2.822452443E+00 -3.332666490E+01  3.520964737E+01  1.066240300E-06  0.00000E+00  9.000E+00
#rwgt            1           9   3.6793193955762566                8      619603           0
</event>
<event>
      6   9999  3.45752E-01  5.01270E+00 -1.00000E+00  2.25545E-01
      21    -1     0     0   501   512  0.000000000E+00  0.000000000E+00  6.889014483E+02  6.889014483E+02  0.000000000E+00  0.00000E+00  9.000E+00
      21    -1     0     0   502   503  0.000000000E+00  0.000000000E+00 -1.651936930E+01  1.651936930E+01  0.000000000E+00  0.00000E+00  9.000E+00
      25     1     1     2     0     0  1.719372160E+00  1.354127224E+01  3.131535193E+02  3.374544000E+02  1.249960927E+02  0.00000E+00  9.000E+00
       5     1     1     2   501     0 -3.629618794E+00  1.655612347E-01  2.618762340E+02  2.619445093E+02  4.750000000E+00  0.00000E+00  9.000E+00
      -5     1     1     2     0   503 -3.077853895E+00 -1.321079637E+01  7.844189652E+00  1.637351937E+01  4.750000000E+00  0.00000E+00  9.000E+00
      21     1     1     2   502   512  4.988100529E+00 -4.960371130E-01  8.950813606E+01  8.964838883E+01  9.536743164E-07  0.00000E+00  9.000E+00
#rwgt            1           9   1.7103489678568017E-002           8      621748           0
</event>
<event>
      6   9999  3.45752E-01  8.44029E+00 -1.00000E+00  1.95300E-01
      21    -1     0     0   501   502  0.000000000E+00  0.000000000E+00  3.201539040E+01  3.201539040E+01  0.000000000E+00  0.00000E+00  9.000E+00
      21    -1     0     0   502   511  0.000000000E+00  0.000000000E+00 -1.247715648E+03  1.247715648E+03  0.000000000E+00  0.00000E+00  9.000E+00
      25     1     1     2     0     0 -8.559512124E+00 -5.352294898E+00 -1.156101253E+03  1.162882947E+03  1.249989213E+02  0.00000E+00  9.000E+00
       5     1     1     2   501     0  1.030436061E+00  2.365573433E+00  2.753632144E+01  2.806188223E+01  4.750000000E+00  0.00000E+00  9.000E+00
      -5     1     1     2     0   503 -6.051284852E-01  5.239084909E+00 -5.861570944E+01  5.904386576E+01  4.750000000E+00  0.00000E+00  9.000E+00
      21     1     1     2   503   511  8.134204548E+00 -2.252363444E+00 -2.851961686E+01  2.974234306E+01  3.371747881E-07  0.00000E+00  9.000E+00
#rwgt            1           9   9.7181363980775577E-005           8      626037           0
</event>
<event>
      6   9999  3.45752E-01  9.93802E+00 -1.00000E+00  1.87479E-01
      21    -1     0     0   501   502  0.000000000E+00  0.000000000E+00  4.461538979E+01  4.461538979E+01  0.000000000E+00  0.00000E+00  9.000E+00
       4    -1     0     0   502     0  0.000000000E+00  0.000000000E+00 -8.947552023E+02  8.947552023E+02  0.000000000E+00  0.00000E+00  9.000E+00
      25     1     1     2     0     0 -1.374626504E+01 -4.563363748E+01 -1.751365082E+02  2.203813602E+02  1.249950349E+02  0.00000E+00  9.000E+00
       5     1     1     2   501     0  3.802578989E+00 -1.565944057E+00  1.969631138E+01  2.067411352E+01  4.750000000E+00  0.00000E+00  9.000E+00
      -5     1     1     2     0   503  1.808449656E+01  4.149945172E+01 -2.949055370E+02  2.983975398E+02  4.750000000E+00  0.00000E+00  9.000E+00
       4     1     1     2   503     0 -8.140810511E+00  5.700129822E+00 -3.997940787E+02  3.999175785E+02  5.394796609E-06  0.00000E+00  9.000E+00
#rwgt            1           9   2.1127242945953268E-002           8      629879           0
</event>
<event>
      6   9999  3.45752E-01  1.64801E+01 -1.00000E+00  1.66904E-01
      21    -1     0     0   502   503  0.000000000E+00  0.000000000E+00  1.483927029E+01  1.483927029E+01  0.000000000E+00  0.00000E+00  9.000E+00
      21    -1     0     0   511   502  0.000000000E+00  0.000000000E+00 -1.083492220E+03  1.083492220E+03  0.000000000E+00  0.00000E+00  9.000E+00
      25     1     1     2     0     0  2.106710215E+01  2.201004371E+01 -8.527868028E+02  8.624392068E+02  1.250111574E+02  0.00000E+00  9.000E+00
       5     1     1     2   501     0 -1.083267961E+01 -3.639522923E-01 -1.248584673E+01  1.720285666E+01  4.750000000E+00  0.00000E+00  9.000E+00
      -5     1     1     2     0   503  6.240500933E+00 -2.206061115E+01 -1.146813914E+01  2.607096338E+01  4.750000000E+00  0.00000E+00  9.000E+00
      21     1     1     2   511   501 -1.647492348E+01  4.145197267E-01 -1.919121605E+02  1.926184630E+02  2.697398305E-06  0.00000E+00  9.000E+00
#rwgt            1           9  0.30361428277606189                8      633191           0
</event>
<event>
      6   9999  3.45752E-01  5.36028E+00 -1.00000E+00  2.21113E-01
      21    -1     0     0   512   502  0.000000000E+00  0.000000000E+00  1.275271848E+01  1.275271848E+01  0.000000000E+00  0.00000E+00  9.000E+00
      21    -1     0     0   502   503  0.000000000E+00  0.000000000E+00 -9.401462324E+02  9.401462324E+02  0.000000000E+00  0.00000E+00  9.000E+00
      25     1     1     2     0     0  1.786072260E+01  1.405223446E+00 -8.065228730E+02  8.163482309E+02  1.249972372E+02  0.00000E+00  9.000E+00
       5     1     1     2   501     0 -1.263934703E-01 -2.662538785E+00  4.875958106E+00  7.310441542E+00  4.750000000E+00  0.00000E+00  9.000E+00
      -5     1     1     2     0   503 -2.303533893E+01  4.624006251E-01 -1.128176079E+02  1.152441574E+02  4.750000000E+00  0.00000E+00  9.000E+00
      21     1     1     2   512   501  5.301009806E+00  7.949147137E-01 -1.292899110E+01  1.399612108E+01  0.000000000E+00  0.00000E+00  9.000E+00
#rwgt            1           9   2.2422094637151134E-003           8      635264           0
</event>
<event>
      6   9999 -3.45752E-01  6.02876E+00 -1.00000E+00  2.13769E-01
      21    -1     0     0   511   503  0.000000000E+00  0.000000000E+00  4.087263218E+01  4.087263218E+01  0.000000000E+00  0.00000E+00  9.000E+00
      21    -1     0     0   501   502  0.000000000E+00  0.000000000E+00 -7.579547124E+02  7.579547124E+02  0.000000000E+00  0.00000E+00  9.000E+00
      25     1     1     2     0     0  1.645433319E+00 -4.624321459E+00 -4.543819545E+02  4.712873575E+02  1.249988838E+02  0.00000E+00  9.000E+00
       5     1     1     2   501     0 -8.776328688E+00  7.330106300E+00 -2.750266652E+02  2.753052551E+02  4.750000000E+00  0.00000E+00  9.000E+00
      -5     1     1     2     0   503  1.563867400E+00 -3.918857557E-01 -1.934999372E+01  1.998959761E+01  4.750000000E+00  0.00000E+00  9.000E+00
      21     1     1     2   511   502  5.567027968E+00 -2.313899085E+00  3.167653327E+01  3.224513435E+01  1.752011592E-06  0.00000E+00  9.000E+00
#rwgt            1           9  -7.7711236640367878E-003           8      639451           0
</event>
<event>
      6   9999  3.45752E-01  7.37517E+01 -1.00000E+00  1.26335E-01
      21    -1     0     0   501   512  0.000000000E+00  0.000000000E+00  3.813821030E+03  3.813821030E+03  0.000000000E+00  0.00000E+00  9.000E+00
      -2    -1     0     0     0   502  0.000000000E+00  0.000000000E+00 -8.195213755E+00  8.195213755E+00  0.000000000E+00  0.00000E+00  9.000E+00
      25     1     1     2     0     0 -3.770281955E+01  3.631002572E+01  2.405288632E+03  2.409102475E+03  1.249856397E+02  0.00000E+00  9.000E+00
       5     1     1     2   501     0 -7.971056969E+00  2.313940797E+00  8.714689162E+02  8.715213862E+02  4.750000000E+00  0.00000E+00  9.000E+00
      -5     1     1     2     0   502 -2.630664732E+01 -2.255774479E+01  2.688882922E+02  2.711537713E+02  4.750000000E+00  0.00000E+00  9.000E+00
      -2     1     1     2     0   512  7.198052384E+01 -1.606622172E+01  2.599799754E+02  2.702386110E+02  0.000000000E+00  0.00000E+00  9.000E+00
#rwgt            1           4   4.8459002366473659E-004           8      642857           0
</event>
<event>
      6   9999  3.45752E-01  3.89224E+02 -1.00000E+00  9.97455E-02
      21    -1     0     0   501   511  0.000000000E+00  0.000000000E+00  5.091932913E+02  5.091932913E+02  0.000000000E+00  0.00000E+00  9.000E+00
      21    -1     0     0   502   503  0.000000000E+00  0.000000000E+00 -1.980002598E+03  1.980002598E+03  0.000000000E+00  0.00000E+00  9.000E+00
      25     1     1     2     0     0  1.256734667E+02 -2.650375177E+01 -4.989331055E+02  5.301471159E+02  1.250018068E+02  0.00000E+00  9.000E+00
       5     1     1     2   501     0 -2.898670622E+02 -3.914823780E+02 -5.999749305E+02  7.728349408E+02  4.750000000E+00  0.00000E+00  9.000E+00
      -5     1     1     2     0   503  1.692304660E+02  2.879503660E+01 -6.727193912E+02  6.942924791E+02  4.750000000E+00  0.00000E+00  9.000E+00
      21     1     1     2   502   511 -5.036870419E+00  3.891910931E+02  3.008181200E+02  4.919213539E+02  7.629394531E-06  0.00000E+00  9.000E+00
#rwgt            1           9   1.8392463412306586E-002           8      642948           0
</event>
<event>
      6   9999  3.45752E-01  3.64936E+00 -1.00000E+00  2.56396E-01
       1    -1     0     0   501     0  0.000000000E+00  0.000000000E+00  1.142435483E+02  1.142435483E+02  0.000000000E+00  0.00000E+00  9.000E+00
      21    -1     0     0   502   503  0.000000000E+00  0.000000000E+00 -1.039884447E+03  1.039884447E+03  0.000000000E+00  0.00000E+00  9.000E+00
      25     1     1     2     0     0  3.296927495E+01 -9.334024688E+00 -3.625941197E+02  3.850631314E+02  1.250000895E+02  0.00000E+00  9.000E+00
       5     1     1     2   501     0  7.552640220E-01  3.462257983E+00  1.088469510E+01  1.239341525E+01  4.750000000E+00  0.00000E+00  9.000E+00
      -5     1     1     2     0   503 -3.725244045E+01  4.938091260E+00 -6.647256629E+02  6.658039490E+02  4.750000000E+00  0.00000E+00  9.000E+00
       1     1     1     2   502     0  3.527901478E+00  9.336754460E-01  9.079418866E+01  9.086749987E+01  1.907348633E-06  0.00000E+00  9.000E+00
#rwgt            1           9   3.6304760422654100E-004           8      644278           0
</event>
<event>
      6   9999  3.45752E-01  2.91928E+01 -1.00000E+00  1.48608E-01
      21    -1     0     0   501   502  0.000000000E+00  0.000000000E+00  4.325153205E+03  4.325153205E+03  0.000000000E+00  0.00000E+00  9.000E+00
      21    -1     0     0   511   503  0.000000000E+00  0.000000000E+00 -8.122885632E+02  8.122885632E+02  0.000000000E+00  0.00000E+00  9.000E+00
      25     1     1     2     0     0  1.224774531E+02 -4.955316436E+01  1.796040600E+03  1.805226525E+03  1.249989135E+02  0.00000E+00  9.000E+00
       5     1     1     2   501     0  2.350197364E+01  8.198008961E+01  2.019849483E+03  2.021654662E+03  4.750000000E+00  0.00000E+00  9.000E+00
      -5     1     1     2     0   503 -1.556439120E+02 -5.997355296E+01  4.896734287E+02  5.173243506E+02  4.750000000E+00  0.00000E+00  9.000E+00
      21     1     1     2   511   502  9.664485225E+00  2.754662770E+01 -7.926988696E+02  7.932362301E+02  1.525878906E-05  0.00000E+00  9.000E+00
#rwgt            1           9   1.2164783866917340E-003           8      650384           0
</event>
<event>
      6   9999 -3.45752E-01  4.29927E+01 -1.00000E+00  1.38392E-01
      21    -1     0     0   501   502  0.000000000E+00  0.000000000E+00  2.348561526E+03  2.348561526E+03  0.000000000E+00  0.00000E+00  9.000E+00
      21    -1     0     0   502   512  0.000000000E+00  0.000000000E+00 -8.795285370E+01  8.795285370E+01  0.000000000E+00  0.00000E+00  9.000E+00
      25     1     1     2     0     0 -3.510952155E+01  1.197362734E+00 -1.938919572E+01  1.312764263E+02  1.249937879E+02  0.00000E+00  9.000E+00
       5     1     1     2   501     0 -3.398446589E-01  9.622022853E-01  2.090170807E+03  2.090176453E+03  4.750000000E+00  0.00000E+00  9.000E+00
      -5     1     1     2     0   503 -4.686353100E+00 -1.757043736E+01  1.636516775E+02  1.647273997E+02  4.750000000E+00  0.00000E+00  9.000E+00
      21     1     1     2   503   512  4.013571931E+01  1.541087234E+01  2.617538360E+01  5.033410034E+01  1.430511475E-06  0.00000E+00  9.000E+00
#rwgt            1           9  -3.8090768778753052E-003           8      652751           0
</event>
<event>
      6   9999  3.45752E-01  1.14468E+02 -1.00000E+00  1.17993E-01
      -2    -1     0     0     0   502  0.000000000E+00  0.000000000E+00  5.293481000E+02  5.293481000E+02  0.000000000E+00  0.00000E+00  9.000E+00
      21    -1     0     0   502   503  0.000000000E+00  0.000000000E+00 -1.600015361E+03  1.600015361E+03  0.000000000E+00  0.00000E+00  9.000E+00
      25     1     1     2     0     0 -2.139450831E+01  4.623467007E+01 -1.186245874E+03  1.193895846E+03  1.249505793E+02  0.00000E+00  9.000E+00
       5     1     1     2   501     0 -5.567813445E+01  3.321724707E+01  6.778070947E+01  9.391606484E+01  4.750000000E+00  0.00000E+00  9.000E+00
      -5     1     1     2     0   503 -3.315816223E+00  2.038538501E+00 -3.894855973E+02  3.895340079E+02  4.750000000E+00  0.00000E+00  9.000E+00
      -2     1     1     2     0   501  8.038845899E+01 -8.149045563E+01  4.372835008E+02  4.520175425E+02  7.629394531E-06  0.00000E+00  9.000E+00
#rwgt            1           9   5.0200398638157603E-004           8      654397           0
</event>
<event>
      6   9999 -3.45752E-01  3.81335E+00 -1.00000E+00  2.52225E-01
       2    -1     0     0   501     0  0.000000000E+00  0.000000000E+00  8.537431905E+01  8.537431905E+01  0.000000000E+00  0.00000E+00  9.000E+00
      21    -1     0     0   502   503  0.000000000E+00  0.000000000E+00 -7.853313683E+02  7.853313683E+02  0.000000000E+00  0.00000E+00  9.000E+00
      25     1     1     2     0     0 -3.014738101E+00 -5.294553959E+00 -7.513951163E+02  7.617458129E+02  1.249997669E+02  0.00000E+00  9.000E+00
       5     1     1     2   501     0 -1.598523781E+00  6.308951222E+00  1.931024560E+01  2.092381965E+01  4.750000000E+00  0.00000E+00  9.000E+00
      -5     1     1     2     0   503  1.127721043E+00  5.324320348E-01 -2.767723059E+01  2.810955054E+01  4.750000000E+00  0.00000E+00  9.000E+00
       2     1     1     2   502     0  3.485540839E+00 -1.546829297E+00  5.980505199E+01  5.992650431E+01  2.523185073E-06  0.00000E+00  9.000E+00
#rwgt            1           9 -0.28467541448241790                8      655293           0
</event>
<event>
      6   9999  3.45752E-01  8.95639E+00 -1.00000E+00  1.92381E-01
      21    -1     0     0   502   503  0.000000000E+00  0.000000000E+00  3.480304592E+00  3.480304592E+00  0.000000000E+00  0.00000E+00  9.000E+00
      21    -1     0     0   511   502  0.000000000E+00  0.000000000E+00 -1.841414274E+03  1.841414274E+03  0.000000000E+00  0.00000E+00  9.000E+00
      25     1     1     2     0     0 -2.228584926E+01 -8.712604420E+00 -1.560762797E+03  1.565943093E+03  1.249987650E+02  0.00000E+00  9.000E+00
       5     1     1     2   501     0  1.048795415E+01  7.193465080E+00 -1.051222294E+02  1.059952298E+02  4.750000000E+00  0.00000E+00  9.000E+00
      -5     1     1     2     0   503  2.871547757E+00  7.861435354E-01 -2.439089035E+01  2.502682242E+01  4.750000000E+00  0.00000E+00  9.000E+00
      21     1     1     2   511   501  8.926347355E+00  7.329958041E-01 -1.476580529E+02  1.479294343E+02  1.907348633E-06  0.00000E+00  9.000E+00
#rwgt            1           9   1.4963114064012489E-002           8      661379           0
</event>
<event>
      6   9999  3.45752E-01  2.07216E+01 -1.00000E+00  1.59044E-01
      21    -1     0     0   501   512  0.000000000E+00  0.000000000E+00  5.319033359E+01  5.319033359E+01  0.000000000E+00  0.00000E+00  9.000E+00
      21    -1     0     0   502   503  0.000000000E+00  0.000000000E+00 -1.354471218E+03  1.354471218E+03  0.000000000E+00  0.00000E+00  9.000E+00
      25     1     1     2     0     0  4.506554996E+01  1.183723530E+01 -5.997827032E+02  6.144388470E+02  1.249991266E+02  0.00000E+00  9.000E+00
       5     1     1     2   501     0 -9.403454015E+00 -1.675672922E+00  4.074245682E+01  4.211582974E+01  4.750000000E+00  0.00000E+00  9.000E+00
      -5     1     1     2     0   503 -4.586840722E+01  7.872220266E+00 -7.166655456E+02  7.181907472E+02  4.750000000E+00  0.00000E+00  9.000E+00
      21     1     1     2   502   512  1.020631127E+01 -1.803378264E+01 -2.557509224E+01  3.291612749E+01  3.371747881E-07  0.00000E+00  9.000E+00
#rwgt            1           9   1.0355518083661985E-002           8      664105           0
</event>
<event>
      6   9999 -3.45752E-01  2.33814E+01 -1.00000E+00  1.55199E-01
      21    -1     0     0   501   502  0.000000000E+00  0.000000000E+00  3.506743158E+02  3.506743158E+02  0.000000000E+00  0.00000E+00  9.000E+00
      21    -1     0     0   502   511  0.000000000E+00  0.000000000E+00 -5.021573250E+01  5.021573250E+01  0.000000000E+00  0.00000E+00  9.000E+00
      25     1     1     2     0     0 -7.696388172E+00 -1.581574373E+01  9.899226720E+01  1.604162126E+02  1.249980807E+02  0.00000E+00  9.000E+00
       5     1     1     2   501     0  1.910400069E-01  5.868138122E+00  1.647807246E+02  1.649536943E+02  4.750000000E+00  0.00000E+00  9.000E+00
      -5     1     1     2     0   503 -2.580621159E+00  3.104178303E+01  4.103594476E+01  5.173744448E+01  4.750000000E+00  0.00000E+00  9.000E+00
      21     1     1     2   503   511  1.008596932E+01 -2.109417742E+01 -4.350353300E+00  2.378269690E+01  1.685873940E-07  0.00000E+00  9.000E+00
#rwgt            1           9  -1.2536677378357080E-002           8      666390           0
</event>
<event>
      6   9999  3.45752E-01  3.02447E+01 -1.00000E+00  1.47610E-01
      21    -1     0     0   501   502  0.000000000E+00  0.000000000E+00  9.905148908E+01  9.905148908E+01  0.000000000E+00  0.00000E+00  9.000E+00
      21    -1     0     0   512   503  0.000000000E+00  0.000000000E+00 -2.839402774E+03  2.839402774E+03  0.000000000E+00  0.00000E+00  9.000E+00
      25     1     1     2     0     0  6.979519598E+01 -7.321957278E+01 -1.016124085E+03  1.028768735E+03  1.249979164E+02  0.00000E+00  9.000E+00
       5     1     1     2   501     0 -1.441375595E+01 -3.935904059E+00  8.936426957E+01  9.072917324E+01  4.750000000E+00  0.00000E+00  9.000E+00
      -5     1     1     2     0   503 -6.542302678E+01  4.862635500E+01 -6.688890035E+02  6.738544029E+02  4.750000000E+00  0.00000E+00  9.000E+00
      21     1     1     2   512   502  1.004158675E+01  2.852912184E+01 -1.144702466E+03  1.145101952E+03  0.000000000E+00  0.00000E+00  9.000E+00
#rwgt            1           9  0.22990962385151148                8      667613           0
</event>
<event>
      6   9999  3.45752E-01  1.00702E+01 -1.00000E+00  1.86874E-01
      21    -1     0     0   501   511  0.000000000E+00  0.000000000E+00  2.004276641E+01  2.004276641E+01  0.000000000E+00  0.00000E+00  9.000E+00
      21    -1     0     0   502   503  0.000000000E+00  0.000000000E+00 -9.838499437E+02  9.838499437E+02  0.000000000E+00  0.00000E+00  9.000E+00
      25     1     1     2     0     0 -2.528175792E+01 -1.698627648E+01 -7.330973392E+02  7.443012325E+02  1.249996602E+02  0.00000E+00  9.000E+00
       5     1     1     2   501     0  1.228589200E-01 -1.239995317E+00  1.081915809E+01  1.188147148E+01  4.750000000E+00  0.00000E+00  9.000E+00
      -5     1     1     2     0   503  2.615893030E+01  2.824672184E+01 -2.252670403E+02  2.285825210E+02  4.750000000E+00  0.00000E+00  9.000E+00
      21     1     1     2   502   511 -1.000031303E+00 -1.002045004E+01 -1.626195588E+01  1.912748521E+01  2.384185791E-07  0.00000E+00  9.000E+00
#rwgt            1           9   2.6455693994761718E-004           8      670094           0
</event>
<event>
      6   9999 -3.45752E-01  4.24517E+01 -1.00000E+00  1.38704E-01
      21    -1     0     0   501   502  0.000000000E+00  0.000000000E+00  4.187724517E+01  4.187724517E+01  0.000000000E+00  0.00000E+00  9.000E+00
      21    -1     0     0   512   503  0.000000000E+00  0.000000000E+00 -1.502941117E+03  1.502941117E+03  0.000000000E+00  0.00000E+00  9.000E+00
      25     1     1     2     0     0  1.055065317E+01 -3.437122498E+01 -1.196696456E+03  1.203741899E+03  1.249778151E+02  0.00000E+00  9.000E+00
       5     1     1     2   501     0  3.242769418E+00  5.347896595E+00  1.522598538E+01  1.713209509E+01  4.750000000E+00  0.00000E+00  9.000E+00
      -5     1     1     2     0   503  1.912797206E+01  5.582494159E+01 -2.244250974E+01  6.331296993E+01  4.750000000E+00  0.00000E+00  9.000E+00
      21     1     1     2   512   502 -3.292139465E+01 -2.680161320E+01 -2.571508915E+02  2.606313981E+02  5.394796609E-06  0.00000E+00  9.000E+00
#rwgt            1           9  -6.0572238006300807E-005           8      673210           0
</event>
<event>
      6   9999  3.45752E-01  9.18071E+01 -1.00000E+00  1.22034E-01
      21    -1     0     0   511   502  0.000000000E+00  0.000000000E+00  7.687607278E+01  7.687607278E+01  0.000000000E+00  0.00000E+00  9.000E+00
      21    -1     0     0   502   503  0.000000000E+00  0.000000000E+00 -1.056264629E+03  1.056264629E+03  0.000000000E+00  0.00000E+00  9.000E+00
      25     1     1     2     0     0  3.256985314E+01  7.096783075E+01 -4.862962088E+02  5.081407652E+02  1.250032250E+02  0.00000E+00  9.000E+00
       5     1     1     2   501     0 -1.731289367E+01  1.506245964E+01 -3.620302975E+01  4.312581409E+01  4.750000000E+00  0.00000E+00  9.000E+00
      -5     1     1     2     0   503  7.479027191E+01 -6.814056664E+01 -4.772134959E+02  4.878442424E+02  4.750000000E+00  0.00000E+00  9.000E+00
      21     1     1     2   511   501 -9.004723138E+01 -1.788972376E+01  2.032417843E+01  9.402987996E+01  2.105655877E-06  0.00000E+00  9.000E+00
#rwgt            1           9  0.17197598945073139                8      674456           0
</event>
<event>
      6   9999 -3.45752E-01  5.47143E+01 -1.00000E+00  1.32727E-01
      21    -1     0     0   501   512  0.000000000E+00  0.000000000E+00  4.267866389E+01  4.267866389E+01  0.000000000E+00  0.00000E+00  9.000E+00
      21    -1     0     0   502   503  0.000000000E+00  0.000000000E+00 -1.323856482E+03  1.323856482E+03  0.000000000E+00  0.00000E+00  9.000E+00
      25     1     1     2     0     0  3.706046238E+01  1.805615627E+01 -1.159938370E+03  1.167381612E+03  1.249932108E+02  0.00000E+00  9.000E+00
       5     1     1     2   501     0 -7.563660616E+00 -1.985746196E+01 -1.382952231E+00  2.181748873E+01  4.750000000E+00  0.00000E+00  9.000E+00
      -5     1     1     2     0   503 -1.161144079E+01 -4.990723790E+01 -7.023600490E+00  5.193699467E+01  4.750000000E+00  0.00000E+00  9.000E+00
      21     1     1     2   502   512 -1.788536097E+01  5.170854359E+01 -1.128328950E+02  1.253990502E+02  1.907348633E-06  0.00000E+00  9.000E+00
#rwgt            1           9  -3.9887266870984351E-004           8      675232           0
</event>
<event>
      6   9999 -3.45752E-01  2.64028E+00 -1.00000E+00  2.92273E-01
       1    -1     0     0   501     0  0.000000000E+00  0.000000000E+00  7.275220433E+02  7.275220433E+02  0.000000000E+00  0.00000E+00  9.000E+00
      21    -1     0     0   502   503  0.000000000E+00  0.000000000E+00 -1.050924246E+03  1.050924246E+03  0.000000000E+00  0.00000E+00  9.000E+00
      25     1     1     2     0     0 -1.098212507E+01  1.265768345E+01 -9.036333502E+02  9.123946663E+02  1.250198845E+02  0.00000E+00  9.000E+00
       5     1     1     2   501     0  1.791875271E+00 -1.268513129E+00  2.464030117E+00  5.783933520E+00  4.750000000E+00  0.00000E+00  9.000E+00
      -5     1     1     2     0   503  1.065931080E+01 -9.195327466E+00 -1.408571691E+02  1.416385524E+02  4.750000000E+00  0.00000E+00  9.000E+00
       1     1     1     2   502     0 -1.469060997E+00 -2.193842850E+00  7.186242866E+02  7.186291369E+02  0.000000000E+00  0.00000E+00  9.000E+00
#rwgt            1           9  -1.6559071413314284E-002           8      677086           0
</event>
<event>
      6   9999  3.45752E-01  7.54952E+00 -1.00000E+00  2.01043E-01
      21    -1     0     0   501   511  0.000000000E+00  0.000000000E+00  5.980362032E+01  5.980362032E+01  0.000000000E+00  0.00000E+00  9.000E+00
      21    -1     0     0   502   503  0.000000000E+00  0.000000000E+00 -7.912224124E+02  7.912224124E+02  0.000000000E+00  0.00000E+00  9.000E+00
      25     1     1     2     0     0  4.097570654E+00 -1.259778509E+00 -7.617254317E+02  7.719253566E+02  1.249989832E+02  0.00000E+00  9.000E+00
       5     1     1     2   501     0 -2.852402097E+00  4.365693949E-03  1.850580745E+00  5.841520853E+00  4.750000000E+00  0.00000E+00  9.000E+00
      -5     1     1     2     0   503 -7.755690616E+00 -2.566665787E+00 -2.110622901E+01  2.312517921E+01  4.750000000E+00  0.00000E+00  9.000E+00
      21     1     1     2   502   511  6.510522059E+00  3.822078602E+00  4.956228783E+01  5.013397607E+01  1.507891493E-06  0.00000E+00  9.000E+00
#rwgt            1           9   4.8384791403201628E-005           8      683806           0
</event>
<event>
      6   9999  3.45752E-01  7.76347E+01 -1.00000E+00  1.25300E-01
      21    -1     0     0   512   503  0.000000000E+00  0.000000000E+00  1.026178358E+02  1.026178358E+02  0.000000000E+00  0.00000E+00  9.000E+00
      21    -1     0     0   501   502  0.000000000E+00  0.000000000E+00 -2.234506592E+03  2.234506592E+03  0.000000000E+00  0.00000E+00  9.000E+00
      25     1     1     2     0     0  1.857511024E+01  2.730574586E+02 -2.972674893E+02  4.229639432E+02  1.250005066E+02  0.00000E+00  9.000E+00
       5     1     1     2   501     0 -7.774873544E+01 -2.724294546E+02 -1.725634728E+03  1.748742534E+03  4.750000000E+00  0.00000E+00  9.000E+00
      -5     1     1     2     0   503 -6.446968710E+00  4.085802941E+01 -1.680235870E+01  4.489792568E+01  4.750000000E+00  0.00000E+00  9.000E+00
      21     1     1     2   512   502  6.562059391E+01 -4.148603344E+01 -9.218418028E+01  1.205200249E+02  2.336015456E-06  0.00000E+00  9.000E+00
#rwgt            1           9   11.479873220253591                8      686738           0
</event>
<event>
      6   9999  3.45752E-01  3.95301E+00 -1.00000E+00  2.48917E-01
      21    -1     0     0   501   502  0.000000000E+00  0.000000000E+00  9.178908897E+01  9.178908897E+01  0.000000000E+00  0.00000E+00  9.000E+00
      21    -1     0     0   502   511  0.000000000E+00  0.000000000E+00 -1.551414654E+03  1.551414654E+03  0.000000000E+00  0.00000E+00  9.000E+00
      25     1     1     2     0     0 -2.668575599E+02  1.828893619E+02 -7.630609133E+02  8.381809235E+02  1.249953083E+02  0.00000E+00  9.000E+00
       5     1     1     2   501     0  3.434783372E+00  1.949447734E+00  1.923210501E+01  2.019986254E+01  4.750000000E+00  0.00000E+00  9.000E+00
      -5     1     1     2     0   503  2.602741617E+02 -1.824487151E+02 -7.068165528E+02  7.750112094E+02  4.750000000E+00  0.00000E+00  9.000E+00
      21     1     1     2   503   511  3.148614835E+00 -2.390094526E+00 -8.980204220E+00  9.811747808E+00  0.000000000E+00  0.00000E+00  9.000E+00
#rwgt            1           9   7.8595488761653711E-005           8      688248           0
</event>
<event>
      6   9999 -3.45752E-01  1.38224E+01 -1.00000E+00  1.73507E-01
      21    -1     0     0   501   502  0.000000000E+00  0.000000000E+00  1.854891087E+01  1.854891087E+01  0.000000000E+00  0.00000E+00  9.000E+00
       2    -1     0     0   502     0  0.000000000E+00  0.000000000E+00 -2.551930285E+03  2.551930285E+03  0.000000000E+00  0.00000E+00  9.000E+00
      25     1     1     2     0     0 -6.248708745E+01 -3.963673813E+01 -1.879328867E+03  1.884934541E+03  1.250020994E+02  0.00000E+00  9.000E+00
       5     1     1     2   501     0 -1.358668562E+00 -3.498501508E+00  1.010976303E+01  1.178368794E+01  4.750000000E+00  0.00000E+00  9.000E+00
      -5     1     1     2     0   503  7.762492348E+01  4.204278626E+01 -4.197940253E+02  4.290021105E+02  4.750000000E+00  0.00000E+00  9.000E+00
       2     1     1     2   503     0 -1.377916747E+01  1.092453373E+00 -2.443682446E+02  2.447588566E+02  2.697398305E-06  0.00000E+00  9.000E+00
#rwgt            1           9  -1.1304468917771567E-002           8      696419           0
</event>
<event>
      6   9999 -3.45752E-01  7.26238E+00 -1.00000E+00  2.03123E-01
      21    -1     0     0   511   502  0.000000000E+00  0.000000000E+00  6.081053081E+01  6.081053081E+01  0.000000000E+00  0.00000E+00  9.000E+00
      21    -1     0     0   502   503  0.000000000E+00  0.000000000E+00 -1.692800327E+02  1.692800327E+02  0.000000000E+00  0.00000E+00  9.000E+00
      25     1     1     2     0     0  1.841774373E+01  3.484128487E+00 -1.276377113E+02  1.796322121E+02  1.249999754E+02  0.00000E+00  9.000E+00
       5     1     1     2   501     0 -2.719521546E-01  7.322130834E-01  5.579291707E+00  7.368927325E+00  4.750000000E+00  0.00000E+00  9.000E+00
      -5     1     1     2     0   503 -1.378252976E+01  1.589179682E+00 -1.043083299E+01  1.799578827E+01  4.750000000E+00  0.00000E+00  9.000E+00
      21     1     1     2   511   501 -4.363261815E+00 -5.805521252E+00  2.401975074E+01  2.509363577E+01  3.371747881E-07  0.00000E+00  9.000E+00
#rwgt            1           9  -7.4411860166296306E-002           8      699517           0
</event>
<event>
      6   9999  3.45752E-01  2.35179E+01 -1.00000E+00  1.55019E-01
      21    -1     0     0   501   502  0.000000000E+00  0.000000000E+00  2.876036549E+01  2.876036549E+01  0.000000000E+00  0.00000E+00  9.000E+00
       2    -1     0     0   502     0  0.000000000E+00  0.000000000E+00 -1.895742399E+03  1.895742399E+03  0.000000000E+00  0.00000E+00  9.000E+00
      25     1     1     2     0     0  1.484527031E+01  6.700681559E+01 -7.481869169E+02  7.616554311E+02  1.250001507E+02  0.00000E+00  9.000E+00
       5     1     1     2   501     0 -2.185219256E+00  6.068307300E-02  1.592160787E+01  1.675825059E+01  4.750000000E+00  0.00000E+00  9.000E+00
      -5     1     1     2     0   503 -3.081128710E+01 -8.202150075E+01 -3.437381557E+02  3.547609677E+02  4.750000000E+00  0.00000E+00  9.000E+00
       2     1     1     2   503     0  1.815123605E+01  1.495400209E+01 -7.909785692E+02  7.913281156E+02  1.525878906E-05  0.00000E+00  9.000E+00
#rwgt            1           9   2.3276154438575832E-004           8      702363           0
</event>
<event>
      6   9999  3.45752E-01  1.16672E+01 -1.00000E+00  1.80405E-01
      21    -1     0     0   501   511  0.000000000E+00  0.000000000E+00  6.256256598E+01  6.256256598E+01  0.000000000E+00  0.00000E+00  9.000E+00
      21    -1     0     0   502   503  0.000000000E+00  0.000000000E+00 -1.838956753E+03  1.838956753E+03  0.000000000E+00  0.00000E+00  9.000E+00
      25     1     1     2     0     0 -5.698384256E+01 -7.006482563E+01 -1.075874118E+02  1.880330668E+02  1.250005797E+02  0.00000E+00  9.000E+00
       5     1     1     2   501     0  5.027650982E+00 -9.987287882E-01  1.641191233E+01  1.783782778E+01  4.750000000E+00  0.00000E+00  9.000E+00
      -5     1     1     2     0   503  5.719345801E+01  8.148925784E+01 -1.679851711E+03  1.682805968E+03  4.750000000E+00  0.00000E+00  9.000E+00
      21     1     1     2   502   511 -5.237266436E+00 -1.042570342E+01 -5.366975853E+00  1.284245620E+01  2.064765462E-07  0.00000E+00  9.000E+00
#rwgt            1           9   1.5381308782577042E-003           8      704212           0
</event>
<event>
      6   9999  3.45752E-01  3.52970E+00 -1.00000E+00  2.59658E-01
      21    -1     0     0   512   502  0.000000000E+00  0.000000000E+00  3.885485400E+02  3.885485400E+02  0.000000000E+00  0.00000E+00  9.000E+00
      21    -1     0     0   502   503  0.000000000E+00  0.000000000E+00 -2.560686709E+03  2.560686709E+03  0.000000000E+00  0.00000E+00  9.000E+00
      25     1     1     2     0     0 -1.071350387E+00 -6.738814766E+00 -2.151425568E+03  2.155066348E+03  1.250297203E+02  0.00000E+00  9.000E+00
       5     1     1     2   501     0  3.069065546E-01 -1.386345059E-01 -1.412186621E+01  1.490312103E+01  4.750000000E+00  0.00000E+00  9.000E+00
      -5     1     1     2     0   503 -2.529507491E+00  8.145790647E+00 -3.928595490E+02  3.929808393E+02  4.750000000E+00  0.00000E+00  9.000E+00
      21     1     1     2   512   501  3.293951323E+00 -1.268341375E+00  3.862688140E+02  3.862849407E+02  5.394796609E-06  0.00000E+00  9.000E+00
#rwgt            1           9   4.6207037774127742E-003           8      708135           0
</event>
<event>
      6   9999 -3.45752E-01  2.16808E+01 -1.00000E+00  1.57581E-01
      21    -1     0     0   511   502  0.000000000E+00  0.000000000E+00  1.870661608E+02  1.870661608E+02  0.000000000E+00  0.00000E+00  9.000E+00
      21    -1     0     0   502   503  0.000000000E+00  0.000000000E+00 -9.985996427E+02  9.985996427E+02  0.000000000E+00  0.00000E+00  9.000E+00
      25     1     1     2     0     0 -6.798460088E+01  5.897439576E+01 -5.207358246E+02  5.430386074E+02  1.250009793E+02  0.00000E+00  9.000E+00
       5     1     1     2   501     0 -3.106821024E+01  4.373231418E+00 -6.725161086E+01  7.436195602E+01  4.750000000E+00  0.00000E+00  9.000E+00
      -5     1     1     2     0   503  7.855395178E+01 -5.628685249E+01 -3.892775812E+02  4.011215910E+02  4.750000000E+00  0.00000E+00  9.000E+00
      21     1     1     2   511   501  2.049885933E+01 -7.060774687E+00  1.657315348E+02  1.671436490E+02  3.814697266E-06  0.00000E+00  9.000E+00
#rwgt            1           9  -3.6820921807969881E-003           8      712698           0
</event>
<event>
      6   9999 -3.45752E-01  3.69312E+00 -1.00000E+00  2.55251E-01
      21    -1     0     0   501   512  0.000000000E+00  0.000000000E+00  7.588550519E+01  7.588550519E+01  0.000000000E+00  0.00000E+00  9.000E+00
      21    -1     0     0   502   503  0.000000000E+00  0.000000000E+00 -1.212312713E+03  1.212312713E+03  0.000000000E+00  0.00000E+00  9.000E+00
      25     1     1     2     0     0  1.182874939E+01  1.221058200E+02 -3.962242616E+02  4.332075058E+02  1.250013078E+02  0.00000E+00  9.000E+00
       5     1     1     2   501     0 -3.724227783E+00  6.456791642E-01  1.394338824E+01  1.520747677E+01  4.750000000E+00  0.00000E+00  9.000E+00
      -5     1     1     2     0   503 -1.134901009E+01 -1.209872816E+02 -7.922357010E+02  8.015152468E+02  4.750000000E+00  0.00000E+00  9.000E+00
      21     1     1     2   502   512  3.244488484E+00 -1.764217576E+00  3.808936630E+01  3.826798916E+01  2.523185073E-06  0.00000E+00  9.000E+00
#rwgt            1           9  -3.4675175862836373E-003           8      714548           0
</event>
<event>
      6   9999  3.45752E-01  1.56453E+02 -1.00000E+00  1.12716E-01
      21    -1     0     0   502   503  0.000000000E+00  0.000000000E+00  8.140729812E+02  8.140729812E+02  0.000000000E+00  0.00000E+00  9.000E+00
      21    -1     0     0   511   502  0.000000000E+00  0.000000000E+00 -6.879121988E+01  6.879121988E+01  0.000000000E+00  0.00000E+00  9.000E+00
      25     1     1     2     0     0  1.541167975E+02  1.417901428E+02  4.347683610E+02  4.985032332E+02  1.250020557E+02  0.00000E+00  9.000E+00
       5     1     1     2   501     0 -3.100817999E+01 -3.729038503E+01  3.601438092E+01  6.059437412E+01  4.750000000E+00  0.00000E+00  9.000E+00
      -5     1     1     2     0   503 -4.677442521E+00 -2.266858862E+00  4.783457468E+01  4.835003777E+01  4.750000000E+00  0.00000E+00  9.000E+00
      21     1     1     2   511   501 -1.184311749E+02 -1.022328989E+02  2.266644447E+02  2.754165560E+02  0.000000000E+00  0.00000E+00  9.000E+00
#rwgt            1           9   3.2713715017386660                8      721884           0
</event>
<event>
      6   9999  3.45752E-01  4.98861E+00 -1.00000E+00  2.29536E-01
      21    -1     0     0   501   502  0.000000000E+00  0.000000000E+00  1.352045205E+02  1.352045205E+02  0.000000000E+00  0.00000E+00  9.000E+00
       2    -1     0     0   502     0  0.000000000E+00  0.000000000E+00 -2.296435626E+03  2.296435626E+03  0.000000000E+00  0.00000E+00  9.000E+00
      25     1     1     2     0     0 -9.667630420E-01  4.165905290E+01 -1.475827487E+01  1.325887028E+02  1.250021844E+02  0.00000E+00  9.000E+00
       5     1     1     2   501     0  5.963638059E-01  6.029229935E-01  3.221200281E+01  3.257137994E+01  4.750000000E+00  0.00000E+00  9.000E+00
      -5     1     1     2     0   503 -4.604183593E+00 -4.188814438E+01  3.365225987E+01  5.413734607E+01  4.750000000E+00  0.00000E+00  9.000E+00
       2     1     1     2   503     0  4.974582829E+00 -3.738315198E-01 -2.212337093E+03  2.212342718E+03  3.051757812E-05  0.00000E+00  9.000E+00
#rwgt            1           9   4.4764520255198531E-002           8      722687           0
</event>
<event>
      6   9999  3.45752E-01  2.05922E+01 -1.00000E+00  1.59249E-01
      21    -1     0     0   511   502  0.000000000E+00  0.000000000E+00  2.721822117E+01  2.721822117E+01  0.000000000E+00  0.00000E+00  9.000E+00
      21    -1     0     0   502   503  0.000000000E+00  0.000000000E+00 -1.216573244E+03  1.216573244E+03  0.000000000E+00  0.00000E+00  9.000E+00
      25     1     1     2     0     0 -1.859132103E+01  1.117533839E+02 -7.690434545E+02  7.873287024E+02  1.249967791E+02  0.00000E+00  9.000E+00
       5     1     1     2   501     0 -3.006067649E+00  3.121339563E+00  9.010661908E+00  1.106949553E+01  4.750000000E+00  0.00000E+00  9.000E+00
      -5     1     1     2     0   503  1.632339475E+01 -9.496934069E+01 -3.773961149E+02  3.895330781E+02  4.750000000E+00  0.00000E+00  9.000E+00
      21     1     1     2   511   501  5.273993936E+00 -1.990538272E+01 -5.192611575E+01  5.586018950E+01  1.348699152E-06  0.00000E+00  9.000E+00
#rwgt            1           9   1.9139544840702461E-004           8      727397           0
</event>
<event>
      6   9999  3.45752E-01  4.60031E+01 -1.00000E+00  1.36752E-01
      21    -1     0     0   501   502  0.000000000E+00  0.000000000E+00  1.653160703E+03  1.653160703E+03  0.000000000E+00  0.00000E+00  9.000E+00
      21    -1     0     0   512   503  0.000000000E+00  0.000000000E+00 -7.766360226E+01  7.766360226E+01  0.000000000E+00  0.00000E+00  9.000E+00
      25     1     1     2     0     0 -8.249782912E+00 -3.289691982E+01  1.354368164E+03  1.360547546E+03  1.250049417E+02  0.00000E+00  9.000E+00
       5     1     1     2   501     0  7.729008170E-01 -1.356787883E+00  9.203287731E+01  9.216860233E+01  4.750000000E+00  0.00000E+00  9.000E+00
      -5     1     1     2     0   503  3.229154133E+01 -4.482829417E+00  1.949850056E+02  1.977487150E+02  4.750000000E+00  0.00000E+00  9.000E+00
      21     1     1     2   512   502 -2.481465924E+01  3.873653712E+01 -6.588894625E+01  8.035944163E+01  1.651812370E-06  0.00000E+00  9.000E+00
#rwgt            1           9   2.0226005456074475E-002           8      729963           0
</event>
<event>
      6   9999 -3.45752E-01  1.17175E+01 -1.00000E+00  1.80223E-01
      21    -1     0     0   501   511  0.000000000E+00  0.000000000E+00  5.587868448E+01  5.587868448E+01  0.000000000E+00  0.00000E+00  9.000E+00
      21    -1     0     0   502   503  0.000000000E+00  0.000000000E+00 -2.267718909E+03  2.267718909E+03  0.000000000E+00  0.00000E+00  9.000E+00
      25     1     1     2     0     0  5.308313790E+01  3.187607711E+01 -1.727043898E+03  1.732668355E+03  1.250003940E+02  0.00000E+00  9.000E+00
       5     1     1     2   501     0 -1.005291682E+00  4.483175621E+00 -4.751016876E-02  6.608648291E+00  4.750000000E+00  0.00000E+00  9.000E+00
      -5     1     1     2     0   503 -4.723528415E+01 -2.568923411E+01 -5.324613003E+02  5.351903471E+02  4.750000000E+00  0.00000E+00  9.000E+00
      21     1     1     2   502   511 -4.842562074E+00 -1.067001862E+01  4.771248379E+01  4.913024338E+01  2.611744678E-06  0.00000E+00  9.000E+00
#rwgt            1           9  -1.5153361342974938E-004           8      730523           0
</event>
<event>
      6   9999  3.45752E-01  2.06410E+01 -1.00000E+00  1.59172E-01
      21    -1     0     0   501   512  0.000000000E+00  0.000000000E+00  3.178562125E+02  3.178562125E+02  0.000000000E+00  0.00000E+00  9.000E+00
      21    -1     0     0   502   503  0.000000000E+00  0.000000000E+00 -1.474264828E+02  1.474264828E+02  0.000000000E+00  0.00000E+00  9.000E+00
      25     1     1     2     0     0  2.836882126E+01  1.544809663E+00 -1.004581588E+02  1.628581564E+02  1.249950438E+02  0.00000E+00  9.000E+00
       5     1     1     2   501     0  8.601536623E-01  2.080928840E-01  1.847305071E+02  1.847936847E+02  4.750000000E+00  0.00000E+00  9.000E+00
      -5     1     1     2     0   503 -1.057538658E+01 -1.059011332E+01 -1.043795929E+01  1.885478177E+01  4.750000000E+00  0.00000E+00  9.000E+00
      21     1     1     2   502   512 -1.865358835E+01  8.837210776E+00  9.659534067E+01  9.877607246E+01  1.348699152E-06  0.00000E+00  9.000E+00
#rwgt            1           9  0.38456660674465154                8      733223           0
</event>
<event>
      6   9999  3.45752E-01  2.81930E+01 -1.00000E+00  1.49605E-01
      21    -1     0     0   501   502  0.000000000E+00  0.000000000E+00  1.450261005E+02  1.450261005E+02  0.000000000E+00  0.00000E+00  9.000E+00
      21    -1     0     0   511   503  0.000000000E+00  0.000000000E+00 -3.452504841E+02  3.452504841E+02  0.000000000E+00  0.00000E+00  9.000E+00
      25     1     1     2     0     0 -2.043132222E+01  2.771379973E+00 -1.554695637E+02  2.005489889E+02  1.249959690E+02  0.00000E+00  9.000E+00
       5     1     1     2   501     0 -4.761069028E+00  5.529393695E+00  1.072063068E+02  1.075592705E+02  4.750000000E+00  0.00000E+00  9.000E+00
      -5     1     1     2     0   503  1.226834052E+01  1.675545776E+01  5.662847453E+00  2.204286472E+01  4.750000000E+00  0.00000E+00  9.000E+00
      21     1     1     2   511   502  1.292405073E+01 -2.505623143E+01 -1.576239742E+02  1.601254604E+02  1.907348633E-06  0.00000E+00  9.000E+00
#rwgt            1           9   2.2618605863066431E-002           8      735229           0
</event>
<event>
      6   9999  3.45752E-01  7.83159E+00 -1.00000E+00  1.99116E-01
      21    -1     0     0   512   502  0.000000000E+00  0.000000000E+00  3.729482237E+00  3.729482237E+00  0.000000000E+00  0.00000E+00  9.000E+00
      21    -1     0     0   502   503  0.000000000E+00  0.000000000E+00 -5.383296409E+03  5.383296409E+03  0.000000000E+00  0.00000E+00  9.000E+00
      25     1     1     2     0     0 -3.740539590E+00  3.379947367E+00 -4.446095900E+03  4.447855653E+03  1.250029839E+02  0.00000E+00  9.000E+00
       5     1     1     2   501     0  6.535204563E-01 -5.333538596E-01 -2.423999801E+01  2.471541136E+01  4.750000000E+00  0.00000E+00  9.000E+00
      -5     1     1     2     0   503  1.051953487E+01 -3.784927328E-01 -9.058515994E+02  9.059252102E+02  4.750000000E+00  0.00000E+00  9.000E+00
      21     1     1     2   512   501 -7.432515735E+00 -2.468100775E+00 -3.379429469E+00  8.529616352E+00  1.478747872E-06  0.00000E+00  9.000E+00
#rwgt            1           9   4.5317365056573883E-002           8      737103           0
</event>
<event>
      6   9999  3.45752E-01  1.24414E+01 -1.00000E+00  1.77725E-01
      21    -1     0     0   501   502  0.000000000E+00  0.000000000E+00  7.935999155E+01  7.935999155E+01  0.000000000E+00  0.00000E+00  9.000E+00
      21    -1     0     0   502   511  0.000000000E+00  0.000000000E+00 -1.691058425E+03  1.691058425E+03  0.000000000E+00  0.00000E+00  9.000E+00
      25     1     1     2     0     0 -9.825155529E+01  1.092251470E+02 -1.823593863E+02  2.654492704E+02  1.249994742E+02  0.00000E+00  9.000E+00
       5     1     1     2   501     0 -4.749775108E+00 -1.370559208E+00  3.227515222E+01  3.299525340E+01  4.750000000E+00  0.00000E+00  9.000E+00
      -5     1     1     2     0   503  1.121926289E+02 -1.162396481E+02 -1.334122265E+03  1.343876342E+03  4.750000000E+00  0.00000E+00  9.000E+00
      21     1     1     2   503   511 -9.191298489E+00  8.385060360E+00 -1.274919346E+02  1.280975511E+02  0.000000000E+00  0.00000E+00  9.000E+00
#rwgt            1           9  0.33583092091303185                8      739502           0
</event>
<event>
      6   9999  3.45752E-01  6.37173E+00 -1.00000E+00  2.10485E-01
      21    -1     0     0   501   502  0.000000000E+00  0.000000000E+00  5.655273045E+01  5.655273045E+01  0.000000000E+00  0.00000E+00  9.000E+00
      21    -1     0     0   512   503  0.000000000E+00  0.000000000E+00 -1.080866525E+03  1.080866525E+03  0.000000000E+00  0.00000E+00  9.000E+00
      25     1     1     2     0     0  1.074092081E+01 -7.434041840E+00 -3.508536536E+02  3.727017990E+02  1.250508391E+02  0.00000E+00  9.000E+00
       5     1     1     2   501     0  6.797476674E+00 -8.673248970E+00  4.458583876E+01  4.617239928E+01  4.750000000E+00  0.00000E+00  9.000E+00
      -5     1     1     2     0   503 -1.523945996E+01  1.016474435E+01 -4.139671277E+02  4.143994552E+02  4.750000000E+00  0.00000E+00  9.000E+00
      21     1     1     2   512   502 -2.298937526E+00  5.942546461E+00 -3.040788525E+02  3.041456025E+02  6.607249480E-06  0.00000E+00  9.000E+00
#rwgt            1           9   7.9950135989036148                8      743574           0
</event>
<event>
      6   9999 -3.45752E-01  2.08785E+01 -1.00000E+00  1.58798E-01
      21    -1     0     0   511   502  0.000000000E+00  0.000000000E+00  2.644842308E+01  2.644842308E+01  0.000000000E+00  0.00000E+00  9.000E+00
      21    -1     0     0   502   503  0.000000000E+00  0.000000000E+00 -1.121910073E+03  1.121910073E+03  0.000000000E+00  0.00000E+00  9.000E+00
      25     1     1     2     0     0 -5.571667569E+01 -1.938087537E+01 -1.002594615E+03  1.012075304E+03  1.249819711E+02  0.00000E+00  9.000E+00
       5     1     1     2   501     0 -2.267865958E+00 -3.435531277E+00  8.919980258E+00  1.091213265E+01  4.750000000E+00  0.00000E+00  9.000E+00
      -5     1     1     2     0   503  4.986382774E+01  3.581944470E+00 -5.705860822E+01  7.600972908E+01  4.750000000E+00  0.00000E+00  9.000E+00
      21     1     1     2   511   501  8.120713912E+00  1.923446218E+01 -4.472840775E+01  4.936133091E+01  0.000000000E+00  0.00000E+00  9.000E+00
#rwgt            1           9  -9.9355857169961068E-005           8      747948           0
</event>
<event>
      6   9999  3.45752E-01  1.42454E+01 -1.00000E+00  1.72337E-01
      21    -1     0     0   501   502  0.000000000E+00  0.000000000E+00  3.010510623E+01  3.010510623E+01  0.000000000E+00  0.00000E+00  9.000E+00
      21    -1     0     0   502   512  0.000000000E+00  0.000000000E+00 -1.303183428E+03  1.303183428E+03  0.000000000E+00  0.00000E+00  9.000E+00
      25     1     1     2     0     0  7.843120888E+00  1.818105084E+01 -1.155090246E+03  1.162004642E+03  1.250169924E+02  0.00000E+00  9.000E+00
       5     1     1     2   501     0  2.009368443E-01  5.017179927E-01  2.388682448E+01  2.436052093E+01  4.750000000E+00  0.00000E+00  9.000E+00
      -5     1     1     2     0   503  6.200022950E+00 -1.849191851E+01 -4.884275912E+01  5.280690252E+01  4.750000000E+00  0.00000E+00  9.000E+00
      21     1     1     2   503   512 -1.424408068E+01 -1.908503159E-01 -9.303214135E+01  9.411646818E+01  0.000000000E+00  0.00000E+00  9.000E+00
#rwgt            1           9   2.8851946731125723E-004           8      750246           0
</event>
<event>
      6   9999  3.45752E-01  7.46956E+00 -1.00000E+00  2.01609E-01
      21    -1     0     0   501   511  0.000000000E+00  0.000000000E+00  1.243659630E+01  1.243659630E+01  0.000000000E+00  0.00000E+00  9.000E+00
      21    -1     0     0   502   503  0.000000000E+00  0.000000000E+00 -8.981761895E+02  8.981761895E+02  0.000000000E+00  0.00000E+00  9.000E+00
      25     1     1     2     0     0  9.788389013E+00 -1.354359084E+01 -7.440955822E+02  7.547075818E+02  1.250042288E+02  0.00000E+00  9.000E+00
       5     1     1     2   501     0 -1.078445044E+00 -5.113168480E-01  3.747171172E+00  6.166707422E+00  4.750000000E+00  0.00000E+00  9.000E+00
      -5     1     1     2     0   503 -9.863040568E+00  2.143492789E+01 -1.338101371E+02  1.359575338E+02  4.750000000E+00  0.00000E+00  9.000E+00
      21     1     1     2   502   511  1.153096599E+00 -7.380020203E+00 -1.158104514E+01  1.378096283E+01  0.000000000E+00  0.00000E+00  9.000E+00
#rwgt            1           9   2.2551060096145529E-003           8      752930           0
</event>
<event>
      6   9999  3.45752E-01  5.80381E+00 -1.00000E+00  2.16089E-01
      21    -1     0     0   501   502  0.000000000E+00  0.000000000E+00  2.168613824E+01  2.168613824E+01  0.000000000E+00  0.00000E+00  9.000E+00
      21    -1     0     0   502   512  0.000000000E+00  0.000000000E+00 -1.132948753E+03  1.132948753E+03  0.000000000E+00  0.00000E+00  9.000E+00
      25     1     1     2     0     0 -5.925169556E+01 -1.639592403E+01 -7.859518301E+02  7.982004138E+02  1.249961266E+02  0.00000E+00  9.000E+00
       5     1     1     2   501     0  3.022596759E+00 -3.122112865E+00  1.045013356E+01  1.227401610E+01  4.750000000E+00  0.00000E+00  9.000E+00
      -5     1     1     2     0   503  6.114148130E+01  1.642729208E+01 -2.410067955E+02  2.492287597E+02  4.750000000E+00  0.00000E+00  9.000E+00
      21     1     1     2   503   512 -4.912382498E+00  3.090744817E+00 -9.475412268E+01  9.493170161E+01  1.348699152E-06  0.00000E+00  9.000E+00
#rwgt            1           9   4.6447004097589475E-004           8      755992           0
</event>
<event>
      6   9999 -3.45752E-01  1.05279E+01 -1.00000E+00  1.84871E-01
      21    -1     0     0   501   511  0.000000000E+00  0.000000000E+00  1.578265333E+01  1.578265333E+01  0.000000000E+00  0.00000E+00  9.000E+00
      21    -1     0     0   502   503  0.000000000E+00  0.000000000E+00 -8.408244176E+02  8.408244176E+02  0.000000000E+00  0.00000E+00  9.000E+00
      25     1     1     2     0     0  1.588898161E+01  1.339336088E+01 -5.304610104E+02  5.453857404E+02  1.249995219E+02  0.00000E+00  9.000E+00
       5     1     1     2   501     0  3.711806671E-01 -1.167458223E-02  6.243618621E+00  7.853864327E+00  4.750000000E+00  0.00000E+00  9.000E+00
      -5     1     1     2     0   503 -2.031145487E+01 -3.664475721E+00 -2.693016002E+02  2.701331115E+02  4.750000000E+00  0.00000E+00  9.000E+00
      21     1     1     2   502   511  4.051292600E+00 -9.717210575E+00 -3.152277238E+01  3.323435469E+01  6.743495762E-07  0.00000E+00  9.000E+00
#rwgt            1           9  -1.7203661372710340E-002           8      761839           0
</event>
<event>
      6   9999  3.45752E-01  6.50507E+01 -1.00000E+00  1.28944E-01
      -2    -1     0     0     0   503  0.000000000E+00  0.000000000E+00  2.884766844E+02  2.884766844E+02  0.000000000E+00  0.00000E+00  9.000E+00
      21    -1     0     0   501   502  0.000000000E+00  0.000000000E+00 -1.857692408E+03  1.857692408E+03  0.000000000E+00  0.00000E+00  9.000E+00
      25     1     1     2     0     0 -1.620635677E+02 -3.475797915E+02 -9.563951766E+02  1.038001383E+03  1.252151192E+02  0.00000E+00  9.000E+00
       5     1     1     2   501     0 -1.380089674E+02 -7.742084976E+00 -2.866245576E+02  3.182492961E+02  4.750000000E+00  0.00000E+00  9.000E+00
      -5     1     1     2     0   503  2.468724528E+02  3.178873616E+02 -4.779167717E+02  6.248402882E+02  4.750000000E+00  0.00000E+00  9.000E+00
      -2     1     1     2     0   502  5.320008226E+01  3.743451492E+01  1.517207821E+02  1.650781251E+02  4.264961200E-06  0.00000E+00  9.000E+00
#rwgt            1           9  0.15705243650382419                8      764552           0
</event>
<event>
      6   9999  3.45752E-01  4.69733E+00 -1.00000E+00  2.34238E-01
       2    -1     0     0   501     0  0.000000000E+00  0.000000000E+00  9.113356608E+00  9.113356608E+00  0.000000000E+00  0.00000E+00  9.000E+00
      21    -1     0     0   502   503  0.000000000E+00  0.000000000E+00 -1.938673968E+03  1.938673968E+03  0.000000000E+00  0.00000E+00  9.000E+00
      25     1     1     2     0     0 -2.865631249E+00 -9.695067034E-02 -1.880038118E+03  1.884190827E+03  1.249940992E+02  0.00000E+00  9.000E+00
       5     1     1     2   501     0 -1.757361829E+00  2.573403954E+00 -2.589271771E+00  6.243200846E+00  4.750000000E+00  0.00000E+00  9.000E+00
      -5     1     1     2     0   503  1.486406845E+00  1.020221358E+00 -5.093177800E+01  5.118455594E+01  4.750000000E+00  0.00000E+00  9.000E+00
       2     1     1     2   502     0  3.136586233E+00 -3.496674642E+00  3.998556763E+00  6.168740790E+00  5.900558792E-07  0.00000E+00  9.000E+00
#rwgt            1           9   1.7359182837253559E-002           8      766053           0
</event>
<event>
      6   9999  3.45752E-01  9.07580E+01 -1.00000E+00  1.22252E-01
      21    -1     0     0   501   502  0.000000000E+00  0.000000000E+00  5.999316996E+02  5.999316996E+02  0.000000000E+00  0.00000E+00  9.000E+00
      21    -1     0     0   502   511  0.000000000E+00  0.000000000E+00 -5.635011285E+02  5.635011285E+02  0.000000000E+00  0.00000E+00  9.000E+00
      25     1     1     2     0     0 -1.713774252E+02  1.464806491E+02  2.687626403E+02  3.724043509E+02  1.249993652E+02  0.00000E+00  9.000E+00
       5     1     1     2   501     0  4.177781375E+01 -5.030087068E+01  6.108852871E+01  8.960989986E+01  4.750000000E+00  0.00000E+00  9.000E+00
      -5     1     1     2     0   503  1.972823812E+02 -3.571438891E+01  1.489657889E+02  2.498183826E+02  4.750000000E+00  0.00000E+00  9.000E+00
      21     1     1     2   503   511 -6.768276972E+01 -6.046538956E+01 -4.423863868E+02  4.516001947E+02  0.000000000E+00  0.00000E+00  9.000E+00
#rwgt            1           9   4.6260152646604143E-004           8      769858           0
</event>
<event>
      6   9999  3.45752E-01  1.63725E+01 -1.00000E+00  1.67141E-01
      21    -1     0     0   501   502  0.000000000E+00  0.000000000E+00  1.829066195E+01  1.829066195E+01  0.000000000E+00  0.00000E+00  9.000E+00
      21    -1     0     0   512   503  0.000000000E+00  0.000000000E+00 -2.256571188E+03  2.256571188E+03  0.000000000E+00  0.00000E+00  9.000E+00
      25     1     1     2     0     0  4.092819709E+01 -1.689820585E+01 -1.548021751E+03  1.553691514E+03  1.250012467E+02  0.00000E+00  9.000E+00
       5     1     1     2   501     0 -2.932946102E+00 -9.552733761E-01  1.353259710E+01  1.466998311E+01  4.750000000E+00  0.00000E+00  9.000E+00
      -5     1     1     2     0   503 -4.391746484E+01  2.589606876E+00 -4.460400089E+02  4.482295191E+02  4.750000000E+00  0.00000E+00  9.000E+00
      21     1     1     2   512   502  5.922213854E+00  1.526387235E+01 -2.577513627E+02  2.582708334E+02  3.814697266E-06  0.00000E+00  9.000E+00
#rwgt            1           9   9.3548095424759688E-004           8      770701           0
</event>
<event>
      6   9999  3.45752E-01  1.65954E+01 -1.00000E+00  1.66653E-01
      21    -1     0     0   501   511  0.000000000E+00  0.000000000E+00  2.739036813E+01  2.739036813E+01  0.000000000E+00  0.00000E+00  9.000E+00
      21    -1     0     0   502   503  0.000000000E+00  0.000000000E+00 -7.615193444E+02  7.615193444E+02  0.000000000E+00  0.00000E+00  9.000E+00
      25     1     1     2     0     0 -9.114833376E+00 -5.532142693E+00 -5.614289716E+02  5.752681778E+02  1.249692016E+02  0.00000E+00  9.000E+00
       5     1     1     2   501     0 -1.543705305E+00 -2.317109778E-01 -2.649393363E+00  5.658489307E+00  4.750000000E+00  0.00000E+00  9.000E+00
      -5     1     1     2     0   503 -5.087133391E+00  1.100609167E+01 -1.851135460E+02  1.855710118E+02  4.750000000E+00  0.00000E+00  9.000E+00
      21     1     1     2   502   511  1.574567207E+01 -5.242237998E+00  1.506293481E+01  2.241203367E+01  8.429369702E-07  0.00000E+00  9.000E+00
#rwgt            1           9   7.0179924297488221E-004           8      772744           0
</event>
<event>
      6   9999 -3.45752E-01  2.76444E+00 -1.00000E+00  2.86542E-01
      21    -1     0     0   501   502  0.000000000E+00  0.000000000E+00  1.535847090E+01  1.535847090E+01  0.000000000E+00  0.00000E+00  9.000E+00
      21    -1     0     0   502   512  0.000000000E+00  0.000000000E+00 -3.796148290E+03  3.796148290E+03  0.000000000E+00  0.00000E+00  9.000E+00
      25     1     1     2     0     0  4.483931095E+00 -1.188184831E+00 -3.579271134E+03  3.581452022E+03  1.248808209E+02  0.00000E+00  9.000E+00
       5     1     1     2   501     0  4.107743541E+00  1.175556517E+01  1.084854591E+01  1.718488632E+01  4.750000000E+00  0.00000E+00  9.000E+00
      -5     1     1     2     0   503 -6.727195980E+00 -8.526335874E+00 -1.711155382E+02  1.715256350E+02  4.750000000E+00  0.00000E+00  9.000E+00
      21     1     1     2   503   512 -1.864478656E+00 -2.041044466E+00 -4.125169314E+01  4.134421762E+01  6.743495762E-07  0.00000E+00  9.000E+00
#rwgt            1           9  -1.3140721859987924E-004           8      774338           0
</event>
<event>
      6   9999  3.45752E-01  1.32152E+01 -1.00000E+00  1.75282E-01
      21    -1     0     0   511   502  0.000000000E+00  0.000000000E+00  3.983240442E+01  3.983240442E+01  0.000000000E+00  0.00000E+00  9.000E+00
      21    -1     0     0   502   503  0.000000000E+00  0.000000000E+00 -9.059457233E+02  9.059457233E+02  0.000000000E+00  0.00000E+00  9.000E+00
      25     1     1     2     0     0  4.976083649E+01 -4.166151873E+00 -4.047380033E+02  4.265330869E+02  1.249965008E+02  0.00000E+00  9.000E+00
       5     1     1     2   501     0  2.365966308E+00  1.418694572E+01 -2.360553543E+02  2.365408210E+02  4.750000000E+00  0.00000E+00  9.000E+00
      -5     1     1     2     0   503 -5.440446464E+01  2.996648831E+00 -2.493511631E+02  2.552790448E+02  4.750000000E+00  0.00000E+00  9.000E+00
      21     1     1     2   511   501  2.277661846E+00 -1.301744268E+01  2.403120187E+01  2.742517494E+01  1.011524364E-06  0.00000E+00  9.000E+00
#rwgt            1           9   2.0062704038873548E-004           8      783251           0
</event>
<event>
      6   9999  3.45752E-01  4.74517E+00 -1.00000E+00  2.33432E-01
       1    -1     0     0   501     0  0.000000000E+00  0.000000000E+00  2.278746832E+02  2.278746832E+02  0.000000000E+00  0.00000E+00  9.000E+00
      21    -1     0     0   502   503  0.000000000E+00  0.000000000E+00 -9.172071498E+02  9.172071498E+02  0.000000000E+00  0.00000E+00  9.000E+00
      25     1     1     2     0     0  7.526381653E+00 -3.666877089E+00 -6.120855847E+02  6.247796825E+02  1.250231833E+02  0.00000E+00  9.000E+00
       5     1     1     2   501     0  1.098788338E+00  3.636330680E+00  8.777239004E+00  1.067860764E+01  4.750000000E+00  0.00000E+00  9.000E+00
      -5     1     1     2     0   503 -4.156089320E+00 -1.564422576E+00 -2.977617533E+02  2.978327462E+02  4.750000000E+00  0.00000E+00  9.000E+00
       1     1     1     2   502     0 -4.469080672E+00  1.594968985E+00  2.117376324E+02  2.117907967E+02  3.814697266E-06  0.00000E+00  9.000E+00
#rwgt            1           9   7.2649283448344848                8      786197           0
</event>
<event>
      6   9999  3.45752E-01  8.91625E+00 -1.00000E+00  1.92599E-01
      21    -1     0     0   501   502  0.000000000E+00  0.000000000E+00  8.068239099E+01  8.068239099E+01  0.000000000E+00  0.00000E+00  9.000E+00
      21    -1     0     0   502   511  0.000000000E+00  0.000000000E+00 -1.449622980E+02  1.449622980E+02  0.000000000E+00  0.00000E+00  9.000E+00
      25     1     1     2     0     0  1.099707464E+01  1.848945754E+00 -6.375950625E+01  1.407833529E+02  1.250212925E+02  0.00000E+00  9.000E+00
       5     1     1     2   501     0  1.728895990E-01 -1.153393400E+00  3.007373484E+01  3.046887320E+01  4.750000000E+00  0.00000E+00  9.000E+00
      -5     1     1     2     0   503 -7.059750804E+00 -8.607920835E+00  8.178546090E+00  1.460778897E+01  4.750000000E+00  0.00000E+00  9.000E+00
      21     1     1     2   503   511 -4.110213434E+00  7.912368481E+00 -3.877268172E+01  3.978467390E+01  6.743495762E-07  0.00000E+00  9.000E+00
#rwgt            1           9   3.1238777945985911E-003           8      790515           0
</event>
<event>
      6   9999 -3.45752E-01  8.96550E+00 -1.00000E+00  1.92332E-01
       1    -1     0     0   501     0  0.000000000E+00  0.000000000E+00  2.502689127E+03  2.502689127E+03  0.000000000E+00  0.00000E+00  9.000E+00
      21    -1     0     0   502   503  0.000000000E+00  0.000000000E+00 -1.300212387E+02  1.300212387E+02  0.000000000E+00  0.00000E+00  9.000E+00
      25     1     1     2     0     0 -1.167037994E-01 -3.513619588E+00 -9.596999011E+01  1.576315058E+02  1.250003739E+02  0.00000E+00  9.000E+00
       5     1     1     2   501     0  1.826987865E+00 -8.770850531E-01  2.524386521E+01  2.576669156E+01  4.750000000E+00  0.00000E+00  9.000E+00
      -5     1     1     2     0   503 -9.196491446E-01 -4.539862808E+00  7.784643622E-01  6.680165838E+00  4.750000000E+00  0.00000E+00  9.000E+00
       1     1     1     2   502     0 -7.906349207E-01  8.930567449E+00  2.442615549E+03  2.442632002E+03  0.000000000E+00  0.00000E+00  9.000E+00
#rwgt            1           9  -4.8019568132742019E-003           8      793062           0
</event>
<event>
      6   9999  3.45752E-01  3.16779E+02 -1.00000E+00  1.02404E-01
      21    -1     0     0   511   502  0.000000000E+00  0.000000000E+00  3.130832523E+02  3.130832523E+02  0.000000000E+00  0.00000E+00  9.000E+00
       2    -1     0     0   501     0  0.000000000E+00  0.000000000E+00 -1.867849231E+03  1.867849231E+03  0.000000000E+00  0.00000E+00  9.000E+00
      25     1     1     2     0     0  1.756359759E+02 -1.640489024E+02 -5.975057228E+02  6.560472620E+02  1.249995314E+02  0.00000E+00  9.000E+00
       5     1     1     2   501     0  3.766064452E+01  2.075927909E+00 -7.781768684E+01  8.660709271E+01  4.750000000E+00  0.00000E+00  9.000E+00
      -5     1     1     2     0   502 -5.172553874E+02  7.276390828E+01 -9.760945385E+02  1.107082126E+03  4.750000000E+00  0.00000E+00  9.000E+00
       2     1     1     2   511     0  3.039587670E+02  8.920906624E+01  9.665196913E+01  3.311960034E+02  7.262967211E-06  0.00000E+00  9.000E+00
#rwgt            1           3   2.1583651827289900E-004           8      795594           0
</event>
<event>
      6   9999  3.45752E-01  1.44200E+01 -1.00000E+00  1.71869E-01
      21    -1     0     0   501   502  0.000000000E+00  0.000000000E+00  5.352248454E+02  5.352248454E+02  0.000000000E+00  0.00000E+00  9.000E+00
      21    -1     0     0   512   503  0.000000000E+00  0.000000000E+00 -1.392438500E+01  1.392438500E+01  0.000000000E+00  0.00000E+00  9.000E+00
      25     1     1     2     0     0 -2.541163892E+01  1.215006796E+01  3.575274186E+02  3.797952605E+02  1.250008374E+02  0.00000E+00  9.000E+00
       5     1     1     2   501     0 -9.946175055E-01  3.705972564E-01  8.064591101E+01  8.079264861E+01  4.750000000E+00  0.00000E+00  9.000E+00
      -5     1     1     2     0   503  1.476500717E+01 -4.010857511E+00  4.738734849E+01  5.002215221E+01  4.750000000E+00  0.00000E+00  9.000E+00
      21     1     1     2   512   502  1.164124925E+01 -8.509807701E+00  3.573978235E+01  3.853916909E+01  4.768371582E-07  0.00000E+00  9.000E+00
#rwgt            1           9   6.9814002900252681E-003           8      796173           0
</event>
<event>
      6   9999  3.45752E-01  2.62029E+01 -1.00000E+00  1.51743E-01
      21    -1     0     0   511   502  0.000000000E+00  0.000000000E+00  9.818633380E+01  9.818633380E+01  0.000000000E+00  0.00000E+00  9.000E+00
      21    -1     0     0   502   503  0.000000000E+00  0.000000000E+00 -8.287125629E+02  8.287125629E+02  0.000000000E+00  0.00000E+00  9.000E+00
      25     1     1     2     0     0  3.603490077E+01 -1.189925714E+02 -7.016067289E+02  7.234191482E+02  1.250020631E+02  0.00000E+00  9.000E+00
       5     1     1     2   501     0 -2.510355476E+00 -6.807746576E-01  5.377655671E+01  5.404855123E+01  4.750000000E+00  0.00000E+00  9.000E+00
      -5     1     1     2     0   503 -2.557455128E+01  9.470559229E+01 -6.694077838E+01  1.188563721E+02  4.750000000E+00  0.00000E+00  9.000E+00
      21     1     1     2   511   501 -7.949994019E+00  2.496775375E+01 -1.575527851E+01  3.057482515E+01  4.129530925E-07  0.00000E+00  9.000E+00
#rwgt            1           9   1.0268801474356192E-003           8      797570           0
</event>
<event>
      6   9999 -3.45752E-01  2.81746E+01 -1.00000E+00  1.49623E-01
      21    -1     0     0   501   512  0.000000000E+00  0.000000000E+00  4.557682684E+01  4.557682684E+01  0.000000000E+00  0.00000E+00  9.000E+00
      21    -1     0     0   502   503  0.000000000E+00  0.000000000E+00 -1.277759240E+03  1.277759240E+03  0.000000000E+00  0.00000E+00  9.000E+00
      25     1     1     2     0     0  2.762127324E+01 -9.000841661E-01 -1.581230425E+02  2.034476667E+02  1.249972465E+02  0.00000E+00  9.000E+00
       5     1     1     2   501     0  2.077069062E+00 -4.166211250E+00  1.694913872E+01  1.820734290E+01  4.750000000E+00  0.00000E+00  9.000E+00
      -5     1     1     2     0   503 -1.919635160E+00  3.596104499E-01 -1.059105802E+03  1.059118254E+03  4.750000000E+00  0.00000E+00  9.000E+00
      21     1     1     2   502   512 -2.777870715E+01  4.706684966E+00 -3.190270754E+01  4.256280304E+01  0.000000000E+00  0.00000E+00  9.000E+00
#rwgt            1           9  -5.8896846761278831E-005           8      799581           0
</event>
<event>
      6   9999  3.45752E-01  1.41354E+01 -1.00000E+00  1.72636E-01
      21    -1     0     0   501   502  0.000000000E+00  0.000000000E+00  2.357771626E+01  2.357771626E+01  0.000000000E+00  0.00000E+00  9.000E+00
      21    -1     0     0   502   511  0.000000000E+00  0.000000000E+00 -1.236973367E+03  1.236973367E+03  0.000000000E+00  0.00000E+00  9.000E+00
      25     1     1     2     0     0 -2.952494210E+01  5.761305756E+01 -3.387966474E+02  3.668774747E+02  1.249997062E+02  0.00000E+00  9.000E+00
       5     1     1     2   501     0 -4.409204785E+00 -2.497854404E+00  6.279182192E+00  9.363278938E+00  4.750000000E+00  0.00000E+00  9.000E+00
      -5     1     1     2     0   503  2.066505698E+01 -5.998779886E+01 -7.052180854E+02  7.080824042E+02  4.750000000E+00  0.00000E+00  9.000E+00
      21     1     1     2   503   511  1.326908991E+01  4.872595706E+00 -1.756601003E+02  1.762279257E+02  1.907348633E-06  0.00000E+00  9.000E+00
#rwgt            1           9   9.5105220646185551E-004           8      801324           0
</event>
<event>
      6   9999  3.45752E-01  1.16567E+01 -1.00000E+00  1.80443E-01
      21    -1     0     0   512   502  0.000000000E+00  0.000000000E+00  1.248645572E+01  1.248645572E+01  0.000000000E+00  0.00000E+00  9.000E+00
      21    -1     0     0   502   503  0.000000000E+00  0.000000000E+00 -9.050758328E+02  9.050758328E+02  0.000000000E+00  0.00000E+00  9.000E+00
      25     1     1     2     0     0  8.924895925E+00  8.287011327E+00 -8.198872941E+02  8.294509752E+02  1.250016672E+02  0.00000E+00  9.000E+00
       5     1     1     2   501     0  2.545550965E+00  6.546893453E-01  3.106361710E+00  6.254632757E+00  4.750000000E+00  0.00000E+00  9.000E+00
      -5     1     1     2     0   503 -2.447386770E-01 -1.208200646E+01 -6.385007936E+01  6.515696364E+01  4.750000000E+00  0.00000E+00  9.000E+00
      21     1     1     2   512   501 -1.122570821E+01  3.140305790E+00 -1.195836526E+01  1.669971692E+01  4.129530925E-07  0.00000E+00  9.000E+00
#rwgt            1           9   2.0926633062913793                8      803827           0
</event>
<event>
      6   9999 -3.45752E-01  3.32996E+01 -1.00000E+00  1.44965E-01
      21    -1     0     0   502   503  0.000000000E+00  0.000000000E+00  1.483115741E+01  1.483115741E+01  0.000000000E+00  0.00000E+00  9.000E+00
      21    -1     0     0   511   502  0.000000000E+00  0.000000000E+00 -1.053595195E+03  1.053595195E+03  0.000000000E+00  0.00000E+00  9.000E+00
      25     1     1     2     0     0 -2.667136829E+01 -4.832485785E+01 -3.463308530E+02  3.723127221E+02  1.250001981E+02  0.00000E+00  9.000E+00
       5     1     1     2   501     0  4.201909497E+00  6.144922916E+00 -3.616207586E+02  3.617285607E+02  4.750000000E+00  0.00000E+00  9.000E+00
      -5     1     1     2     0   503  7.801956709E+00  1.228470910E+01 -9.270699631E+01  9.396240882E+01  4.750000000E+00  0.00000E+00  9.000E+00
      21     1     1     2   511   501  1.466750209E+01  2.989522583E+01 -2.381054300E+02  2.404226611E+02  2.697398305E-06  0.00000E+00  9.000E+00
#rwgt            1           9 -0.79149036593739042                8      806087           0
</event>
<event>
      6   9999  3.45752E-01  1.31849E+01 -1.00000E+00  1.75373E-01
      21    -1     0     0   501   512  0.000000000E+00  0.000000000E+00  1.521163825E+01  1.521163825E+01  0.000000000E+00  0.00000E+00  9.000E+00
      21    -1     0     0   502   503  0.000000000E+00  0.000000000E+00 -9.329937432E+02  9.329937432E+02  0.000000000E+00  0.00000E+00  9.000E+00
      25     1     1     2     0     0  1.943874657E+00  1.241152205E+01 -7.644754810E+02  7.747205042E+02  1.249450840E+02  0.00000E+00  9.000E+00
       5     1     1     2   501     0 -2.091519193E+00  7.480268985E-01  8.378550613E+00  9.884159405E+00  4.750000000E+00  0.00000E+00  9.000E+00
      -5     1     1     2     0   503 -1.678171398E+00 -1.016420986E-01 -1.144223998E+02  1.145332907E+02  4.750000000E+00  0.00000E+00  9.000E+00
      21     1     1     2   502   512  1.825815933E+00 -1.305790685E+01 -4.726277468E+01  4.906742714E+01  0.000000000E+00  0.00000E+00  9.000E+00
#rwgt            1           9   1.2737443301864270E-004           8      807193           0
</event>
<event>
      6   9999  3.45752E-01  1.79460E+01 -1.00000E+00  1.63888E-01
      21    -1     0     0   511   502  0.000000000E+00  0.000000000E+00  3.913113466E+01  3.913113466E+01  0.000000000E+00  0.00000E+00  9.000E+00
      21    -1     0     0   502   503  0.000000000E+00  0.000000000E+00 -9.314326586E+02  9.314326586E+02  0.000000000E+00  0.00000E+00  9.000E+00
      25     1     1     2     0     0  1.049115549E+01  9.894634899E+00 -8.429852420E+02  8.523309989E+02  1.250441731E+02  0.00000E+00  9.000E+00
       5     1     1     2   501     0  1.613009856E+00  1.621818193E+00 -8.359337827E-01  5.337919102E+00  4.750000000E+00  0.00000E+00  9.000E+00
      -5     1     1     2     0   503  1.864330294E+00 -2.496168573E-01 -7.809774946E+01  7.826467279E+01  4.750000000E+00  0.00000E+00  9.000E+00
      21     1     1     2   511   501 -1.396849564E+01 -1.126683623E+01  2.961740129E+01  3.463020254E+01  8.259061849E-07  0.00000E+00  9.000E+00
#rwgt            1           9   22.338789679295395                8      809273           0
</event>
<event>
      6   9999  3.45752E-01  8.06248E+00 -1.00000E+00  1.97616E-01
      21    -1     0     0   501   502  0.000000000E+00  0.000000000E+00  3.606653608E+02  3.606653608E+02  0.000000000E+00  0.00000E+00  9.000E+00
      21    -1     0     0   512   503  0.000000000E+00  0.000000000E+00 -1.081469796E+02  1.081469796E+02  0.000000000E+00  0.00000E+00  9.000E+00
      25     1     1     2     0     0  4.149623915E+00 -9.412627603E+00  1.295148162E+02  1.802910090E+02  1.249997735E+02  0.00000E+00  9.000E+00
       5     1     1     2   501     0  8.933950843E-01 -1.879656754E+00  1.656701665E+02  1.657513132E+02  4.750000000E+00  0.00000E+00  9.000E+00
      -5     1     1     2     0   503 -8.196512048E+00  3.872107718E+00  3.919665555E+01  4.051069407E+01  4.750000000E+00  0.00000E+00  9.000E+00
      21     1     1     2   512   502  3.153493049E+00  7.420176639E+00 -8.186325708E+01  8.225932409E+01  9.536743164E-07  0.00000E+00  9.000E+00
#rwgt            1           9   3.1994294290476960E-004           8      810687           0
</event>
<event>
      6   9999  3.45752E-01  1.23983E+01 -1.00000E+00  1.77867E-01
      21    -1     0     0   511   502  0.000000000E+00  0.000000000E+00  6.289324087E+02  6.289324087E+02  0.000000000E+00  0.00000E+00  9.000E+00
      21    -1     0     0   502   503  0.000000000E+00  0.000000000E+00 -7.586936247E+02  7.586936247E+02  0.000000000E+00  0.00000E+00  9.000E+00
      25     1     1     2     0     0 -6.930193419E+00 -1.434441158E+01 -5.383475017E+02  5.528985912E+02  1.250001193E+02  0.00000E+00  9.000E+00
       5     1     1     2   501     0  1.618327154E+00  1.121979196E+01 -4.397234487E+01  4.565777402E+01  4.750000000E+00  0.00000E+00  9.000E+00
      -5     1     1     2     0   503 -2.558565805E+00  1.270449554E+01 -1.679104138E+02  1.684767640E+02  4.750000000E+00  0.00000E+00  9.000E+00
      21     1     1     2   511   501  7.870432070E+00 -9.579875921E+00  6.204690443E+02  6.205929041E+02  1.321449896E-05  0.00000E+00  9.000E+00
#rwgt            1           9   1.5097155123291934                8      813760           0
</event>
<event>
      6   9999  3.45752E-01  1.19229E+01 -1.00000E+00  1.79491E-01
       1    -1     0     0   501     0  0.000000000E+00  0.000000000E+00  1.875078491E+02  1.875078491E+02  0.000000000E+00  0.00000E+00  9.000E+00
      21    -1     0     0   502   503  0.000000000E+00  0.000000000E+00 -3.445293695E+02  3.445293695E+02  0.000000000E+00  0.00000E+00  9.000E+00
      25     1     1     2     0     0 -5.611268791E+00 -3.692517210E+00 -3.082116119E+02  3.326619591E+02  1.249978414E+02  0.00000E+00  9.000E+00
       5     1     1     2   501     0  3.607600223E+00 -8.437735004E+00  4.488883543E+01  4.606278538E+01  4.750000000E+00  0.00000E+00  9.000E+00
      -5     1     1     2     0   503  2.629483238E-01  3.351166568E-01 -2.298655418E+01  2.347606479E+01  4.750000000E+00  0.00000E+00  9.000E+00
       1     1     1     2   502     0  1.740720244E+00  1.179513556E+01  1.292878101E+02  1.298364093E+02  3.814697266E-06  0.00000E+00  9.000E+00
#rwgt            1           9   5.0744625273688290E-004           8      815977           0
</event>
<event>
      6   9999 -3.45752E-01  1.12825E+01 -1.00000E+00  1.81838E-01
      21    -1     0     0   501   511  0.000000000E+00  0.000000000E+00  2.791760953E+01  2.791760953E+01  0.000000000E+00  0.00000E+00  9.000E+00
      21    -1     0     0   502   503  0.000000000E+00  0.000000000E+00 -9.404151202E+02  9.404151202E+02  0.000000000E+00  0.00000E+00  9.000E+00
      25     1     1     2     0     0  1.623747592E+01  1.321547302E+01 -8.344404929E+02  8.440109831E+02  1.250011964E+02  0.00000E+00  9.000E+00
       5     1     1     2   501     0 -1.470499825E+00 -2.728705282E-01  1.504642084E+01  1.584910434E+01  4.750000000E+00  0.00000E+00  9.000E+00
      -5     1     1     2     0   503 -7.122949019E+00 -4.644215814E+00 -9.626427255E+01  9.675576372E+01  4.750000000E+00  0.00000E+00  9.000E+00
      21     1     1     2   502   511 -7.644027073E+00 -8.298386681E+00  3.160833948E+00  1.171687854E+01  4.064494877E-07  0.00000E+00  9.000E+00
#rwgt            1           9 -0.43873821569508936                8      818637           0
</event>
<event>
      6   9999  3.45752E-01  1.60379E+01 -1.00000E+00  1.67891E-01
      21    -1     0     0   501   502  0.000000000E+00  0.000000000E+00  8.454457349E+01  8.454457349E+01  0.000000000E+00  0.00000E+00  9.000E+00
      21    -1     0     0   512   503  0.000000000E+00  0.000000000E+00 -1.749789823E+02  1.749789823E+02  0.000000000E+00  0.00000E+00  9.000E+00
      25     1     1     2     0     0 -1.596528376E+01  6.631304305E+00 -3.460930260E+01  1.308477759E+02  1.249978886E+02  0.00000E+00  9.000E+00
       5     1     1     2   501     0  3.990689667E-01 -2.605488857E-01  4.945343863E+00  6.873577503E+00  4.750000000E+00  0.00000E+00  9.000E+00
      -5     1     1     2     0   503  2.480866829E+01 -1.947773113E+01  2.118566303E+01  3.829160287E+01  4.750000000E+00  0.00000E+00  9.000E+00
      21     1     1     2   512   502 -9.242453491E+00  1.310697571E+01 -8.195611306E+01  8.351059949E+01  0.000000000E+00  0.00000E+00  9.000E+00
#rwgt            1           9   1.9224447073299539E-002           8      821257           0
</event>
<event>
      6   9999  3.45752E-01  2.15791E+01 -1.00000E+00  1.57731E-01
      21    -1     0     0   501   502  0.000000000E+00  0.000000000E+00  1.005281544E+02  1.005281544E+02  0.000000000E+00  0.00000E+00  9.000E+00
       2    -1     0     0   502     0  0.000000000E+00  0.000000000E+00 -2.134627685E+03  2.134627685E+03  0.000000000E+00  0.00000E+00  9.000E+00
      25     1     1     2     0     0 -6.988750435E+01 -3.391507724E-01 -8.582198987E+01  1.669568115E+02  1.249991387E+02  0.00000E+00  9.000E+00
       5     1     1     2   501     0 -2.578863181E+00 -3.735874261E+00  5.778583134E+01  5.815816448E+01  4.750000000E+00  0.00000E+00  9.000E+00
      -5     1     1     2     0   503  5.571323556E+01  1.767619343E+01 -4.472570666E+02  4.510852010E+02  4.750000000E+00  0.00000E+00  9.000E+00
       2     1     1     2   503     0  1.675313197E+01 -1.360116840E+01 -1.558806306E+03  1.558955662E+03  2.157918644E-05  0.00000E+00  9.000E+00
#rwgt            1           9   4.3367170745377659E-002           8      822816           0
</event>
<event>
      6   9999 -3.45752E-01  2.52459E+01 -1.00000E+00  1.52854E-01
      21    -1     0     0   502   511  0.000000000E+00  0.000000000E+00  8.730936899E+01  8.730936899E+01  0.000000000E+00  0.00000E+00  9.000E+00
      21    -1     0     0   501   502  0.000000000E+00  0.000000000E+00 -7.075741413E+02  7.075741413E+02  0.000000000E+00  0.00000E+00  9.000E+00
      25     1     1     2     0     0 -1.289825031E+00  2.532272086E+01 -6.513775355E+02  6.637569911E+02  1.250509722E+02  0.00000E+00  9.000E+00
       5     1     1     2   501     0 -9.831213237E-01 -1.245139436E+00 -3.646368261E+01  3.680597165E+01  4.750000000E+00  0.00000E+00  9.000E+00
      -5     1     1     2     0   503 -1.604318624E+00  8.687661625E-01 -1.082144375E+01  1.195804071E+01  4.750000000E+00  0.00000E+00  9.000E+00
      21     1     1     2   503   511  3.877264978E+00 -2.494634759E+01  7.839788956E+01  8.236250681E+01  2.523185073E-06  0.00000E+00  9.000E+00
#rwgt            1           9  -3.7716118409217979E-002           8      825006           0
</event>
<event>
      6   9999 -3.45752E-01  1.77080E+01 -1.00000E+00  1.64353E-01
      21    -1     0     0   512   503  0.000000000E+00  0.000000000E+00  3.441956362E+01  3.441956362E+01  0.000000000E+00  0.00000E+00  9.000E+00
      21    -1     0     0   501   502  0.000000000E+00  0.000000000E+00 -6.573692963E+02  6.573692963E+02  0.000000000E+00  0.00000E+00  9.000E+00
      25     1     1     2     0     0 -4.522265904E+01 -2.661103110E+01 -5.676770908E+02  5.836442201E+02  1.250202400E+02  0.00000E+00  9.000E+00
       5     1     1     2   501     0  8.582726155E-01  8.358335067E-01  4.703848586E-01  4.921281484E+00  4.750000000E+00  0.00000E+00  9.000E+00
      -5     1     1     2     0   503  5.875610212E+01  3.609274353E+01 -4.577067374E+01  8.290043876E+01  4.750000000E+00  0.00000E+00  9.000E+00
      21     1     1     2   512   502 -1.439171570E+01 -1.031754594E+01 -9.972353024E+00  2.032291957E+01  3.371747881E-07  0.00000E+00  9.000E+00
#rwgt            1           9  -7.5565117137332447E-004           8      826295           0
</event>
<event>
      6   9999  3.45752E-01  5.33472E+00 -1.00000E+00  2.21423E-01
      21    -1     0     0   511   503  0.000000000E+00  0.000000000E+00  7.283480157E+01  7.283480157E+01  0.000000000E+00  0.00000E+00  9.000E+00
      21    -1     0     0   501   502  0.000000000E+00  0.000000000E+00 -7.703376870E+02  7.703376870E+02  0.000000000E+00  0.00000E+00  9.000E+00
      25     1     1     2     0     0  5.658071354E+00  9.259311769E+00 -4.222339156E+02  4.404837358E+02  1.250067734E+02  0.00000E+00  9.000E+00
       5     1     1     2   501     0 -2.480809032E+00  3.555159693E+00 -9.515548902E+01  9.537254932E+01  4.750000000E+00  0.00000E+00  9.000E+00
      -5     1     1     2     0   503 -7.144534421E+00 -9.247968931E+00 -2.434393779E+02  2.437659995E+02  4.750000000E+00  0.00000E+00  9.000E+00
      21     1     1     2   511   502  3.967272099E+00 -3.566502531E+00  6.332589706E+01  6.355020398E+01  2.780414531E-06  0.00000E+00  9.000E+00
#rwgt            1           9   1.2100635178138770E-005           8      828112           0
</event>
<event>
      6   9999  3.45752E-01  1.16409E+01 -1.00000E+00  1.80501E-01
      21    -1     0     0   501   502  0.000000000E+00  0.000000000E+00  2.285185028E+02  2.285185028E+02  0.000000000E+00  0.00000E+00  9.000E+00
      21    -1     0     0   502   512  0.000000000E+00  0.000000000E+00 -2.982359535E+02  2.982359535E+02  0.000000000E+00  0.00000E+00  9.000E+00
      25     1     1     2     0     0 -6.842663068E+01  7.802661336E+01 -1.360883286E+02  2.119305471E+02  1.249966696E+02  0.00000E+00  9.000E+00
       5     1     1     2   501     0 -5.301854092E-01 -5.764043578E-01  5.173897129E+01  5.196245749E+01  4.750000000E+00  0.00000E+00  9.000E+00
      -5     1     1     2     0   503  7.093748746E+01 -6.597909262E+01  1.214400784E+02  1.554207931E+02  4.750000000E+00  0.00000E+00  9.000E+00
      21     1     1     2   503   512 -1.980671374E+00 -1.147111638E+01 -1.068081718E+02  1.074406586E+02  0.000000000E+00  0.00000E+00  9.000E+00
#rwgt            1           9   2.4362560453499213E-004           8      831720           0
</event>
<event>
      6   9999  3.45752E-01  2.79945E+01 -1.00000E+00  1.49808E-01
      21    -1     0     0   501   502  0.000000000E+00  0.000000000E+00  9.354033054E+01  9.354033054E+01  0.000000000E+00  0.00000E+00  9.000E+00
      21    -1     0     0   511   503  0.000000000E+00  0.000000000E+00 -1.854494916E+03  1.854494916E+03  0.000000000E+00  0.00000E+00  9.000E+00
      25     1     1     2     0     0  1.726476292E+02 -2.918880662E+02 -6.187175226E+02  7.165485278E+02  1.249982913E+02  0.00000E+00  9.000E+00
       5     1     1     2   501     0 -4.464503157E-01  2.461090738E+00  5.684370341E+00  7.818622109E+00  4.750000000E+00  0.00000E+00  9.000E+00
      -5     1     1     2     0   503 -1.697986535E+02  3.173182299E+02 -8.320766255E+02  9.065850843E+02  4.750000000E+00  0.00000E+00  9.000E+00
      21     1     1     2   511   502 -2.402525397E+00 -2.789125444E+01 -3.158448080E+02  3.170830127E+02  3.814697266E-06  0.00000E+00  9.000E+00
#rwgt            1           9   7.1571631789873384E-005           8      834887           0
</event>
<event>
      6   9999  3.45752E-01  8.27126E+00 -1.00000E+00  1.96316E-01
      21    -1     0     0   501   502  0.000000000E+00  0.000000000E+00  7.983725180E+02  7.983725180E+02  0.000000000E+00  0.00000E+00  9.000E+00
      21    -1     0     0   502   512  0.000000000E+00  0.000000000E+00 -8.852742571E+01  8.852742571E+01  0.000000000E+00  0.00000E+00  9.000E+00
      25     1     1     2     0     0 -5.485304428E+00 -7.517078562E+00  2.499933980E+02  2.796581246E+02  1.250014904E+02  0.00000E+00  9.000E+00
       5     1     1     2   501     0  1.008620994E+00  5.384239904E-01  5.282974723E+02  5.283200630E+02  4.750000000E+00  0.00000E+00  9.000E+00
      -5     1     1     2     0   503 -1.363114294E+00  1.121140754E+00  3.718328555E+00  6.285181335E+00  4.750000000E+00  0.00000E+00  9.000E+00
      21     1     1     2   503   512  5.839797728E+00  5.857513817E+00 -7.216410659E+01  7.263657471E+01  2.336015456E-06  0.00000E+00  9.000E+00
#rwgt            1           9   2.1821955365104221E-004           8      837459           0
</event>
<event>
      6   9999  3.45752E-01  1.32846E+01 -1.00000E+00  1.75073E-01
      21    -1     0     0   501   502  0.000000000E+00  0.000000000E+00  1.472791361E+03  1.472791361E+03  0.000000000E+00  0.00000E+00  9.000E+00
       3    -1     0     0   502     0  0.000000000E+00  0.000000000E+00 -2.021173288E+01  2.021173288E+01  0.000000000E+00  0.00000E+00  9.000E+00
      25     1     1     2     0     0  2.866357748E+01 -4.658479271E+01  4.137364109E+02  4.356539731E+02  1.249992919E+02  0.00000E+00  9.000E+00
       5     1     1     2   501     0  4.808281438E+00 -4.959620667E+00  9.242501153E+02  9.242881344E+02  4.750000000E+00  0.00000E+00  9.000E+00
      -5     1     1     2     0   503 -2.194219484E+01  4.494543381E+01  1.058202359E+02  1.171410976E+02  4.750000000E+00  0.00000E+00  9.000E+00
       3     1     1     2   503     0 -1.152966407E+01  6.598979572E+00  8.772866605E+00  1.591988924E+01  6.078504936E-07  0.00000E+00  9.000E+00
#rwgt            1           9   1.8057812664647246                8      841681           0
</event>
<event>
      6   9999  3.45752E-01  2.12871E+01 -1.00000E+00  1.58170E-01
      21    -1     0     0   502   503  0.000000000E+00  0.000000000E+00  6.034234774E+02  6.034234774E+02  0.000000000E+00  0.00000E+00  9.000E+00
      21    -1     0     0   511   502  0.000000000E+00  0.000000000E+00 -2.145085551E+02  2.145085551E+02  0.000000000E+00  0.00000E+00  9.000E+00
      25     1     1     2     0     0 -3.134046149E+01 -1.527576855E+01  3.556656368E+02  3.785960032E+02  1.249852581E+02  0.00000E+00  9.000E+00
       5     1     1     2   501     0 -3.360206141E-01 -1.526896484E+00  6.680764549E+01  6.699453947E+01  4.750000000E+00  0.00000E+00  9.000E+00
      -5     1     1     2     0   503  2.416372186E+01 -3.114652786E+00  1.679184747E+02  1.697432272E+02  4.750000000E+00  0.00000E+00  9.000E+00
      21     1     1     2   511   501  7.512760246E+00  1.991731782E+01 -2.014768348E+02  2.025982627E+02  6.031565972E-06  0.00000E+00  9.000E+00
#rwgt            1           9   5.7698937596751502E-005           8      844168           0
</event>
<event>
      6   9999  3.45752E-01  3.25411E+00 -1.00000E+00  2.67991E-01
      21    -1     0     0   512   502  0.000000000E+00  0.000000000E+00  7.884035168E+01  7.884035168E+01  0.000000000E+00  0.00000E+00  9.000E+00
      21    -1     0     0   502   503  0.000000000E+00  0.000000000E+00 -1.546700402E+02  1.546700402E+02  0.000000000E+00  0.00000E+00  9.000E+00
      25     1     1     2     0     0 -5.559679837E-01  7.139462189E+00 -1.209937809E+02  1.741141578E+02  1.249998556E+02  0.00000E+00  9.000E+00
       5     1     1     2   501     0 -1.734909275E-02 -4.796721011E-01  4.967758097E+00  6.889956954E+00  4.750000000E+00  0.00000E+00  9.000E+00
      -5     1     1     2     0   503 -1.441345469E+00 -9.215247914E+00 -1.595424680E+00  1.058801921E+01  4.750000000E+00  0.00000E+00  9.000E+00
      21     1     1     2   512   501  2.014662545E+00  2.555457826E+00  4.179175898E+01  4.191825794E+01  4.768371582E-07  0.00000E+00  9.000E+00
#rwgt            1           9  0.61765615499619020                8      845557           0
</event>
<event>
      6   9999  3.45752E-01  6.51518E+00 -1.00000E+00  2.09193E-01
      21    -1     0     0   501   502  0.000000000E+00  0.000000000E+00  1.558452034E+01  1.558452034E+01  0.000000000E+00  0.00000E+00  9.000E+00
       2    -1     0     0   502     0  0.000000000E+00  0.000000000E+00 -2.454397169E+03  2.454397169E+03  0.000000000E+00  0.00000E+00  9.000E+00
      25     1     1     2     0     0  4.061404921E+01  1.592966362E+01 -3.912980595E+02  4.130871988E+02  1.249944290E+02  0.00000E+00  9.000E+00
       5     1     1     2   501     0 -7.789616754E-01  2.055430071E+00  1.870467368E+00  5.558122187E+00  4.750000000E+00  0.00000E+00  9.000E+00
      -5     1     1     2     0   503 -4.110908317E+01 -1.159568860E+01 -4.755906677E+02  4.775284939E+02  4.750000000E+00  0.00000E+00  9.000E+00
       2     1     1     2   503     0  1.273995639E+00 -6.389405094E+00 -1.573794389E+03  1.573807874E+03  0.000000000E+00  0.00000E+00  9.000E+00
#rwgt            1           9   6.1789107362753885E-002           8      850600           0
</event>
<event>
      6   9999 -3.45752E-01  1.43102E+02 -1.00000E+00  1.14172E-01
      21    -1     0     0   511   502  0.000000000E+00  0.000000000E+00  2.214632941E+03  2.214632941E+03  0.000000000E+00  0.00000E+00  9.000E+00
      21    -1     0     0   502   503  0.000000000E+00  0.000000000E+00 -3.908501730E+03  3.908501730E+03  0.000000000E+00  0.00000E+00  9.000E+00
      25     1     1     2     0     0  6.543267754E+02  9.041637770E+02  1.129043703E+03  1.592488546E+03  1.249976825E+02  0.00000E+00  9.000E+00
       5     1     1     2   501     0 -1.200934813E+03  7.903437765E+02 -1.498355640E+03  2.076530736E+03  4.750000000E+00  0.00000E+00  9.000E+00
      -5     1     1     2     0   503  6.431543415E+02 -1.588880633E+03 -1.464066001E+03  2.254262849E+03  4.750000000E+00  0.00000E+00  9.000E+00
      21     1     1     2   511   501 -9.654630413E+01 -1.056269201E+02  1.395091488E+02  1.998525398E+02  1.907348633E-06  0.00000E+00  9.000E+00
#rwgt            1           9  -2.1572295618802685E-003           8      853860           0
</event>
<event>
      6   9999  3.45752E-01  3.02532E+02 -1.00000E+00  1.03017E-01
       3    -1     0     0   501     0  0.000000000E+00  0.000000000E+00  6.661231919E+02  6.661231919E+02  0.000000000E+00  0.00000E+00  9.000E+00
      21    -1     0     0   512   502  0.000000000E+00  0.000000000E+00 -3.405286671E+02  3.405286671E+02  0.000000000E+00  0.00000E+00  9.000E+00
      25     1     1     2     0     0  9.234550596E+01 -1.805541433E+02 -1.134421941E+02  2.638592541E+02  1.250003337E+02  0.00000E+00  9.000E+00
       5     1     1     2   501     0  1.889007096E+02  8.725361070E+01  9.717672614E+00  2.083594642E+02  4.750000000E+00  0.00000E+00  9.000E+00
      -5     1     1     2     0   502  7.280406998E+00  2.316950700E+00 -2.780189048E-01  9.000687813E+00  4.750000000E+00  0.00000E+00  9.000E+00
       3     1     1     2   512     0 -2.885266225E+02  9.098358189E+01  4.295970653E+02  5.254324529E+02  0.000000000E+00  0.00000E+00  9.000E+00
#rwgt            1           8   1.4771386682307910E-005           8      855883           0
</event>
<event>
      6   9999 -3.45752E-01  1.36809E+01 -1.00000E+00  1.73910E-01
       4    -1     0     0   501     0  0.000000000E+00  0.000000000E+00  1.879186823E+01  1.879186823E+01  0.000000000E+00  0.00000E+00  9.000E+00
      21    -1     0     0   502   503  0.000000000E+00  0.000000000E+00 -4.310305504E+03  4.310305504E+03  0.000000000E+00  0.00000E+00  9.000E+00
      25     1     1     2     0     0  1.542674655E+00 -8.478125232E+00 -3.861817930E+03  3.863850101E+03  1.250024862E+02  0.00000E+00  9.000E+00
       5     1     1     2   501     0  2.097444235E+00  4.318893540E+00 -3.203755525E+00  7.475203221E+00  4.750000000E+00  0.00000E+00  9.000E+00
      -5     1     1     2     0   503  1.641825274E+00  1.677934118E+01 -4.389317685E+02  4.392811193E+02  4.750000000E+00  0.00000E+00  9.000E+00
       4     1     1     2   502     0 -5.281944164E+00 -1.262010949E+01  1.243981827E+01  1.849094850E+01  2.540025205E-06  0.00000E+00  9.000E+00
#rwgt            1           9 -0.98825265982096067                8      856666           0
</event>
<event>
      6   9999  3.45752E-01  3.21954E+01 -1.00000E+00  1.45881E-01
      21    -1     0     0   501   511  0.000000000E+00  0.000000000E+00  6.289936348E+01  6.289936348E+01  0.000000000E+00  0.00000E+00  9.000E+00
      21    -1     0     0   502   503  0.000000000E+00  0.000000000E+00 -1.461843209E+03  1.461843209E+03  0.000000000E+00  0.00000E+00  9.000E+00
      25     1     1     2     0     0  1.148349526E+02  1.185117998E+02 -3.269430159E+02  3.869740233E+02  1.250001842E+02  0.00000E+00  9.000E+00
       5     1     1     2   501     0  2.674869153E+00  2.817901153E+00  2.258937525E+01  2.340807267E+01  4.750000000E+00  0.00000E+00  9.000E+00
      -5     1     1     2     0   503 -1.287247568E+02 -9.115070254E+01 -1.031802749E+03  1.043799784E+03  4.750000000E+00  0.00000E+00  9.000E+00
      21     1     1     2   502   511  1.121493504E+01 -3.017899840E+01 -6.278745544E+01  7.056069212E+01  9.536743164E-07  0.00000E+00  9.000E+00
#rwgt            1           9   6.0617925279189851E-004           8      858586           0
</event>
<event>
      6   9999 -3.45752E-01  3.66588E+00 -1.00000E+00  2.55961E-01
      21    -1     0     0   512   502  0.000000000E+00  0.000000000E+00  1.573067028E+02  1.573067028E+02  0.000000000E+00  0.00000E+00  9.000E+00
      21    -1     0     0   502   503  0.000000000E+00  0.000000000E+00 -9.920475244E+02  9.920475244E+02  0.000000000E+00  0.00000E+00  9.000E+00
      25     1     1     2     0     0  1.024854462E+01  1.836890539E+00 -9.325554851E+02  9.409519587E+02  1.249897954E+02  0.00000E+00  9.000E+00
       5     1     1     2   501     0 -1.365317922E+00  1.531024512E+00  1.470529374E+01  1.558897986E+01  4.750000000E+00  0.00000E+00  9.000E+00
      -5     1     1     2     0   503 -5.436778414E+00 -4.617196600E+00 -5.449268163E+01  5.516241397E+01  4.750000000E+00  0.00000E+00  9.000E+00
      21     1     1     2   512   501 -3.446448285E+00  1.249281549E+00  1.376020514E+02  1.376508746E+02  3.303624740E-06  0.00000E+00  9.000E+00
#rwgt            1           9  -1.7094013960873509E-004           8      860517           0
</event>
<event>
      6   9999  3.45752E-01  6.93403E+00 -1.00000E+00  2.05664E-01
      21    -1     0     0   511   503  0.000000000E+00  0.000000000E+00  2.673139827E+01  2.673139827E+01  0.000000000E+00  0.00000E+00  9.000E+00
      21    -1     0     0   501   502  0.000000000E+00  0.000000000E+00 -7.633865529E+02  7.633865529E+02  0.000000000E+00  0.00000E+00  9.000E+00
      25     1     1     2     0     0  1.864282854E+01 -9.396300154E+00 -4.931199990E+02  5.091523234E+02  1.250316340E+02  0.00000E+00  9.000E+00
       5     1     1     2   501     0 -6.770165066E+00  1.130115929E+01 -1.532473406E+02  1.538858709E+02  4.750000000E+00  0.00000E+00  9.000E+00
      -5     1     1     2     0   503 -1.452928761E+01 -8.309785715E+00 -1.073037974E+02  1.087051985E+02  4.750000000E+00  0.00000E+00  9.000E+00
      21     1     1     2   511   502  2.656624136E+00  6.404926575E+00  1.701598247E+01  1.837455838E+01  8.596304120E-07  0.00000E+00  9.000E+00
#rwgt            1           9   1.0686777487780909E-004           8      866684           0
</event>
<event>
      6   9999  3.45752E-01  2.06650E+01 -1.00000E+00  1.59134E-01
      -1    -1     0     0     0   502  0.000000000E+00  0.000000000E+00  2.523973554E+02  2.523973554E+02  0.000000000E+00  0.00000E+00  9.000E+00
      21    -1     0     0   502   503  0.000000000E+00  0.000000000E+00 -7.514103775E+02  7.514103775E+02  0.000000000E+00  0.00000E+00  9.000E+00
      25     1     1     2     0     0  1.337164977E+01  1.137282562E+00 -6.430432882E+02  6.552146660E+02  1.249859736E+02  0.00000E+00  9.000E+00
       5     1     1     2   501     0  3.147715697E+00  3.844685206E-01 -2.723267084E+00  6.327291186E+00  4.750000000E+00  0.00000E+00  9.000E+00
      -5     1     1     2     0   503  3.426787684E+00  3.881329411E+00 -9.719243825E+01  9.744608840E+01  4.750000000E+00  0.00000E+00  9.000E+00
      -1     1     1     2     0   501 -1.994615315E+01 -5.403080493E+00  2.439459714E+02  2.448196873E+02  2.697398305E-06  0.00000E+00  9.000E+00
#rwgt            1           9   7.2518098251933387E-004           8      869534           0
</event>
<event>
      6   9999  3.45752E-01  1.17868E+02 -1.00000E+00  1.17477E-01
      21    -1     0     0   502   503  0.000000000E+00  0.000000000E+00  1.146570696E+02  1.146570696E+02  0.000000000E+00  0.00000E+00  9.000E+00
      21    -1     0     0   501   511  0.000000000E+00  0.000000000E+00 -2.188396301E+03  2.188396301E+03  0.000000000E+00  0.00000E+00  9.000E+00
      25     1     1     2     0     0 -2.967338434E+02 -3.166722135E+02 -9.137826113E+02  1.019291741E+03  1.249989143E+02  0.00000E+00  9.000E+00
       5     1     1     2   501     0 -1.134988002E+01  4.438369263E+01 -1.194218509E+02  1.279955973E+02  4.750000000E+00  0.00000E+00  9.000E+00
      -5     1     1     2     0   503  3.192783735E+02  1.549529584E+02 -5.765062972E+02  6.770016044E+02  4.750000000E+00  0.00000E+00  9.000E+00
      21     1     1     2   502   511 -1.119465007E+01  1.173355625E+02 -4.640284719E+02  4.787644276E+02  0.000000000E+00  0.00000E+00  9.000E+00
#rwgt            1           9   4.0146775397795096E-003           8      871421           0
</event>
<event>
      6   9999  3.45752E-01  1.73605E+01 -1.00000E+00  1.65048E-01
      21    -1     0     0   501   502  0.000000000E+00  0.000000000E+00  8.623933072E+01  8.623933072E+01  0.000000000E+00  0.00000E+00  9.000E+00
      21    -1     0     0   512   503  0.000000000E+00  0.000000000E+00 -4.263895308E+02  4.263895308E+02  0.000000000E+00  0.00000E+00  9.000E+00
      25     1     1     2     0     0  1.612696466E+01 -3.287885729E+00 -2.573134316E+02  2.865401800E+02  1.249967339E+02  0.00000E+00  9.000E+00
       5     1     1     2   501     0  8.898956877E-01 -1.643296079E+00  7.042079872E+01  7.060555027E+01  4.750000000E+00  0.00000E+00  9.000E+00
      -5     1     1     2     0   503 -3.471276224E+00 -5.927140367E+00 -3.658626001E+01  3.752729238E+01  4.750000000E+00  0.00000E+00  9.000E+00
      21     1     1     2   512   502 -1.354558413E+01  1.085832218E+01 -1.166713071E+02  1.179558388E+02  1.907348633E-06  0.00000E+00  9.000E+00
#rwgt            1           9  0.10163637857051169                8      872702           0
</event>
<event>
      6   9999 -3.45752E-01  1.24581E+01 -1.00000E+00  1.77670E-01
       2    -1     0     0   502     0  0.000000000E+00  0.000000000E+00  4.634890215E+02  4.634890215E+02  0.000000000E+00  0.00000E+00  9.000E+00
      21    -1     0     0   501   502  0.000000000E+00  0.000000000E+00 -9.565115645E+02  9.565115645E+02  0.000000000E+00  0.00000E+00  9.000E+00
      25     1     1     2     0     0 -5.682660648E+01  5.669834246E+01 -4.434835694E+02  4.677078426E+02  1.250159368E+02  0.00000E+00  9.000E+00
       5     1     1     2   501     0  6.921952638E+01 -7.119170079E+01 -4.714135483E+02  4.817809638E+02  4.750000000E+00  0.00000E+00  9.000E+00
      -5     1     1     2     0   503 -2.633488332E+00  6.750145468E+00 -2.345706275E+01  2.500591965E+01  4.750000000E+00  0.00000E+00  9.000E+00
       2     1     1     2   503     0 -9.759431569E+00  7.743212859E+00  4.453316375E+02  4.455058599E+02  0.000000000E+00  0.00000E+00  9.000E+00
#rwgt            1           9  -1.2875849473780055E-003           8      875093           0
</event>
<event>
      6   9999  3.45752E-01  3.18186E+00 -1.00000E+00  2.70393E-01
      21    -1     0     0   502   503  0.000000000E+00  0.000000000E+00  7.071730826E+00  7.071730826E+00  0.000000000E+00  0.00000E+00  9.000E+00
      21    -1     0     0   511   502  0.000000000E+00  0.000000000E+00 -7.410952246E+02  7.410952246E+02  0.000000000E+00  0.00000E+00  9.000E+00
      25     1     1     2     0     0  1.002791182E+01  1.398672485E+00 -6.293047026E+02  6.416797504E+02  1.250039121E+02  0.00000E+00  9.000E+00
       5     1     1     2   501     0 -6.857939168E+00 -1.396826426E-01 -3.091453138E+01  3.202064320E+01  4.750000000E+00  0.00000E+00  9.000E+00
      -5     1     1     2     0   503 -9.018195256E-01 -3.490516524E+00 -3.269571833E+01  3.323506403E+01  4.750000000E+00  0.00000E+00  9.000E+00
      21     1     1     2   511   501 -2.268153126E+00  2.231526681E+00 -4.110854144E+01  4.123149779E+01  4.768371582E-07  0.00000E+00  9.000E+00
#rwgt            1           9   2.4592974262913993E-006           8      877554           0
</event>
<event>
      6   9999  3.45752E-01  4.83515E+01 -1.00000E+00  1.35571E-01
      21    -1     0     0   501   512  0.000000000E+00  0.000000000E+00  3.863411043E+01  3.863411043E+01  0.000000000E+00  0.00000E+00  9.000E+00
      21    -1     0     0   502   503  0.000000000E+00  0.000000000E+00 -1.295576353E+03  1.295576353E+03  0.000000000E+00  0.00000E+00  9.000E+00
      25     1     1     2     0     0 -4.644344078E+01  1.416911953E+01 -1.134254510E+03  1.142153513E+03  1.249943848E+02  0.00000E+00  9.000E+00
       5     1     1     2   501     0 -9.502821211E-01 -1.012106117E+00  2.934976086E+01  2.976404471E+01  4.750000000E+00  0.00000E+00  9.000E+00
      -5     1     1     2     0   503  2.612373648E+00  5.077533317E+00 -3.268573562E+01  3.351903420E+01  4.750000000E+00  0.00000E+00  9.000E+00
      21     1     1     2   502   512  4.478134925E+01 -1.823454673E+01 -1.193517574E+02  1.287738713E+02  1.348699152E-06  0.00000E+00  9.000E+00
#rwgt            1           9   2.4341658509106326E-003           8      882679           0
</event>
<event>
      6   9999  3.45752E-01  1.04806E+01 -1.00000E+00  1.85071E-01
      21    -1     0     0   502   511  0.000000000E+00  0.000000000E+00  1.925188410E+02  1.925188410E+02  0.000000000E+00  0.00000E+00  9.000E+00
      21    -1     0     0   501   502  0.000000000E+00  0.000000000E+00 -3.378449405E+01  3.378449405E+01  0.000000000E+00  0.00000E+00  9.000E+00
      25     1     1     2     0     0 -1.330725969E+01 -2.835204739E-01  9.481724600E+01  1.574559596E+02  1.249996221E+02  0.00000E+00  9.000E+00
       5     1     1     2   501     0 -7.459474790E-01  4.175524015E-01  3.197191676E+01  3.233414215E+01  4.750000000E+00  0.00000E+00  9.000E+00
      -5     1     1     2     0   503  3.981139834E+00  2.763791592E+00  1.656964920E+01  1.790541240E+01  4.750000000E+00  0.00000E+00  9.000E+00
      21     1     1     2   503   511  1.007206734E+01 -2.897823520E+00  1.537553495E+01  1.860782085E+01  2.384185791E-07  0.00000E+00  9.000E+00
#rwgt            1           9   5.8452673247766916E-004           8      883740           0
</event>
<event>
      6   9999  3.45752E-01  1.15015E+01 -1.00000E+00  1.81013E-01
      21    -1     0     0   501   502  0.000000000E+00  0.000000000E+00  1.832438525E+03  1.832438525E+03  0.000000000E+00  0.00000E+00  9.000E+00
      21    -1     0     0   512   503  0.000000000E+00  0.000000000E+00 -1.182675102E+01  1.182675102E+01  0.000000000E+00  0.00000E+00  9.000E+00
      25     1     1     2     0     0 -2.156900465E+01  6.348171389E+00  5.451767447E+02  5.597750561E+02  1.249996372E+02  0.00000E+00  9.000E+00
       5     1     1     2   501     0  4.760382692E+00  1.710668503E+00  8.744111032E+02  8.744386356E+02  4.750000000E+00  0.00000E+00  9.000E+00
      -5     1     1     2     0   503  2.575482406E+01 -8.304065047E-01  3.970040891E+02  3.978678296E+02  4.750000000E+00  0.00000E+00  9.000E+00
      21     1     1     2   512   502 -8.946202100E+00 -7.228433388E+00  4.019836592E+00  1.218375424E+01  8.107108181E-07  0.00000E+00  9.000E+00
#rwgt            1           9   1.0566267322812228                8      885839           0
</event>
<event>
      6   9999  3.45752E-01  8.02178E+00 -1.00000E+00  1.97876E-01
      21    -1     0     0   501   511  0.000000000E+00  0.000000000E+00  1.879954810E+01  1.879954810E+01  0.000000000E+00  0.00000E+00  9.000E+00
      21    -1     0     0   502   503  0.000000000E+00  0.000000000E+00 -9.413484545E+02  9.413484545E+02  0.000000000E+00  0.00000E+00  9.000E+00
      25     1     1     2     0     0 -3.681346580E+01 -9.737137727E+00 -7.801640912E+02  7.910288496E+02  1.249823530E+02  0.00000E+00  9.000E+00
       5     1     1     2   501     0  2.899228222E+00  2.380774996E+00  7.282960273E+00  9.469827042E+00  4.750000000E+00  0.00000E+00  9.000E+00
      -5     1     1     2     0   503  4.161740335E+01  5.118019638E+00 -1.433680946E+02  1.494495749E+02  4.750000000E+00  0.00000E+00  9.000E+00
      21     1     1     2   502   511 -7.703165781E+00  2.238343093E+00 -6.299680885E+00  1.019975108E+01  2.230201594E-07  0.00000E+00  9.000E+00
#rwgt            1           9   1.0714961251820657E-005           8      888868           0
</event>
<event>
      6   9999  3.45752E-01  8.39374E+00 -1.00000E+00  1.95577E-01
      21    -1     0     0   501   512  0.000000000E+00  0.000000000E+00  1.318973813E+02  1.318973813E+02  0.000000000E+00  0.00000E+00  9.000E+00
      21    -1     0     0   502   503  0.000000000E+00  0.000000000E+00 -9.235672881E+02  9.235672881E+02  0.000000000E+00  0.00000E+00  9.000E+00
      25     1     1     2     0     0 -4.318449828E+00 -2.762809659E+00 -8.120637204E+02  8.216442156E+02  1.250017955E+02  0.00000E+00  9.000E+00
       5     1     1     2   501     0 -1.538476485E+00  1.047132798E+00  1.539607648E+01  1.621928074E+01  4.750000000E+00  0.00000E+00  9.000E+00
      -5     1     1     2     0   503 -6.887775462E-01 -3.538718756E+00 -1.060595902E+02  1.062270969E+02  4.750000000E+00  0.00000E+00  9.000E+00
      21     1     1     2   502   512  6.545703859E+00  5.254395617E+00  1.110573273E+02  1.113740763E+02  3.814697266E-06  0.00000E+00  9.000E+00
#rwgt            1           9   1.6479410713389677E-003           8      892638           0
</event>
<event>
      6   9999  3.45752E-01  4.57086E+01 -1.00000E+00  1.36906E-01
      21    -1     0     0   501   511  0.000000000E+00  0.000000000E+00  2.193808586E+02  2.193808586E+02  0.000000000E+00  0.00000E+00  9.000E+00
      21    -1     0     0   502   503  0.000000000E+00  0.000000000E+00 -9.782735336E+02  9.782735336E+02  0.000000000E+00  0.00000E+00  9.000E+00
      25     1     1     2     0     0  3.001942827E+02  5.703625907E+01 -4.859296210E+02  5.874710437E+02  1.249995536E+02  0.00000E+00  9.000E+00
       5     1     1     2   501     0 -1.120597970E+00 -3.356225948E+00  1.357147940E+01  1.480768535E+01  4.750000000E+00  0.00000E+00  9.000E+00
      -5     1     1     2     0   503 -2.847380064E+02 -9.708234131E+01 -3.839369134E+02  4.877815385E+02  4.750000000E+00  0.00000E+00  9.000E+00
      21     1     1     2   502   511 -1.433567828E+01  4.340230818E+01  9.740238001E+01  1.075941246E+02  1.348699152E-06  0.00000E+00  9.000E+00
#rwgt            1           9   7.5733953087785057E-004           8      895804           0
</event>
<event>
      6   9999  3.45752E-01  9.86968E+00 -1.00000E+00  1.87796E-01
      21    -1     0     0   501   502  0.000000000E+00  0.000000000E+00  1.963643307E+01  1.963643307E+01  0.000000000E+00  0.00000E+00  9.000E+00
      21    -1     0     0   502   512  0.000000000E+00  0.000000000E+00 -1.059148494E+03  1.059148494E+03  0.000000000E+00  0.00000E+00  9.000E+00
      25     1     1     2     0     0 -1.590472717E+01 -3.682765039E+01 -8.107277996E+02  8.212876831E+02  1.249986284E+02  0.00000E+00  9.000E+00
       5     1     1     2   501     0  2.112031707E+00 -6.554883298E-01  1.206947778E+01  1.315770257E+01  4.750000000E+00  0.00000E+00  9.000E+00
      -5     1     1     2     0   503  1.013048445E+01  2.831805013E+01 -1.586496091E+02  1.615450390E+02  4.750000000E+00  0.00000E+00  9.000E+00
      21     1     1     2   503   512  3.662211014E+00  9.165088592E+00 -8.220413021E+01  8.279450260E+01  9.536743164E-07  0.00000E+00  9.000E+00
#rwgt            1           9   6.8994650634513204E-004           8      898118           0
</event>
<event>
      6   9999 -3.45752E-01  3.01103E+01 -1.00000E+00  1.47735E-01
      21    -1     0     0   501   511  0.000000000E+00  0.000000000E+00  2.686757506E+01  2.686757506E+01  0.000000000E+00  0.00000E+00  9.000E+00
      21    -1     0     0   502   503  0.000000000E+00  0.000000000E+00 -1.035714424E+03  1.035714424E+03  0.000000000E+00  0.00000E+00  9.000E+00
      25     1     1     2     0     0 -1.458068031E+01  7.404342518E+01 -8.953058223E+02  9.071338825E+02  1.249973610E+02  0.00000E+00  9.000E+00
       5     1     1     2   501     0  1.288713623E+00  2.415218547E+00  3.931915195E+00  6.746593254E+00  4.750000000E+00  0.00000E+00  9.000E+00
      -5     1     1     2     0   503  3.056008860E+01 -5.179202868E+01 -8.695084036E+01  1.058269549E+02  4.750000000E+00  0.00000E+00  9.000E+00
      21     1     1     2   502   511 -1.726812191E+01 -2.466661504E+01 -3.052210133E+01  4.287456824E+01  9.536743164E-07  0.00000E+00  9.000E+00
#rwgt            1           9  -2.0396977747243902E-004           8      901198           0
</event>
<event>
      6   9999  3.45752E-01  4.67687E+00 -1.00000E+00  2.34587E-01
      21    -1     0     0   501   502  0.000000000E+00  0.000000000E+00  2.248823805E+01  2.248823805E+01  0.000000000E+00  0.00000E+00  9.000E+00
      21    -1     0     0   512   503  0.000000000E+00  0.000000000E+00 -5.793656018E+02  5.793656018E+02  0.000000000E+00  0.00000E+00  9.000E+00
      25     1     1     2     0     0 -1.325484643E+01 -6.354007769E+00 -5.061378365E+02  5.215542651E+02  1.250091098E+02  0.00000E+00  9.000E+00
       5     1     1     2   501     0  2.233008052E+00 -1.202415828E+00  1.133736315E+01  1.255111278E+01  4.750000000E+00  0.00000E+00  9.000E+00
      -5     1     1     2     0   503  1.289631141E+01  3.271628924E+00 -1.563674243E+01  2.107341020E+01  4.750000000E+00  0.00000E+00  9.000E+00
      21     1     1     2   512   502 -1.874473035E+00  4.284794673E+00 -4.644014791E+01  4.667505171E+01  6.743495762E-07  0.00000E+00  9.000E+00
#rwgt            1           9   1.1976374712483905E-002           8      902298           0
</event>
<event>
      6   9999 -3.45752E-01  5.78856E+00 -1.00000E+00  2.16251E-01
       3    -1     0     0   501     0  0.000000000E+00  0.000000000E+00  2.848513209E+01  2.848513209E+01  0.000000000E+00  0.00000E+00  9.000E+00
      21    -1     0     0   502   503  0.000000000E+00  0.000000000E+00 -8.278115148E+02  8.278115148E+02  0.000000000E+00  0.00000E+00  9.000E+00
      25     1     1     2     0     0  3.464061667E-01  3.312490737E+00 -7.928603073E+02  8.026605112E+02  1.250013467E+02  0.00000E+00  9.000E+00
       5     1     1     2   501     0 -2.330888785E+00  1.427553462E+00  1.423544434E+00  5.662148900E+00  4.750000000E+00  0.00000E+00  9.000E+00
      -5     1     1     2     0   503 -7.708825675E-01  3.506701054E-01 -2.729782159E+01  2.772094503E+01  4.750000000E+00  0.00000E+00  9.000E+00
       3     1     1     2   502     0  2.755365185E+00 -5.090714304E+00  1.940820173E+01  2.025304184E+01  1.143415337E-06  0.00000E+00  9.000E+00
#rwgt            1           9  -8.3857941120255648E-004           8      906865           0
</event>
<event>
      6   9999  3.45752E-01  5.89444E+00 -1.00000E+00  2.15137E-01
      21    -1     0     0   511   502  0.000000000E+00  0.000000000E+00  4.980207699E+02  4.980207699E+02  0.000000000E+00  0.00000E+00  9.000E+00
      21    -1     0     0   502   503  0.000000000E+00  0.000000000E+00 -6.659214369E+02  6.659214369E+02  0.000000000E+00  0.00000E+00  9.000E+00
      25     1     1     2     0     0  3.109512471E+00  5.476405658E+00 -6.362316985E+02  6.484251861E+02  1.249991511E+02  0.00000E+00  9.000E+00
       5     1     1     2   501     0  1.449126683E-01  7.518087615E-02 -6.101310561E+00  7.734024981E+00  4.750000000E+00  0.00000E+00  9.000E+00
      -5     1     1     2     0   503  2.587638331E+00 -6.335642267E+00 -1.561605497E+01  1.769914992E+01  4.750000000E+00  0.00000E+00  9.000E+00
      21     1     1     2   511   501 -5.842063470E+00  7.840557328E-01  4.900483970E+02  4.900838458E+02  7.629394531E-06  0.00000E+00  9.000E+00
#rwgt            1           9   4.3830984909152913E-003           8      910174           0
</event>
<event>
      6   9999  3.45752E-01  1.51233E+01 -1.00000E+00  1.70064E-01
      21    -1     0     0   501   512  0.000000000E+00  0.000000000E+00  2.762829315E+02  2.762829315E+02  0.000000000E+00  0.00000E+00  9.000E+00
      21    -1     0     0   502   503  0.000000000E+00  0.000000000E+00 -7.119644241E+02  7.119644241E+02  0.000000000E+00  0.00000E+00  9.000E+00
      25     1     1     2     0     0  8.078204860E+00  9.209744868E+00 -6.617472456E+02  6.735612173E+02  1.250008788E+02  0.00000E+00  9.000E+00
       5     1     1     2   501     0  5.596510492E-01  5.008591446E+00 -8.939424902E+00  1.130818355E+01  4.750000000E+00  0.00000E+00  9.000E+00
      -5     1     1     2     0   503 -1.276495265E+00 -1.007566794E+00 -3.378834435E+01  3.415932295E+01  4.750000000E+00  0.00000E+00  9.000E+00
      21     1     1     2   502   512 -7.361360644E+00 -1.321076952E+01  2.687935222E+02  2.692186317E+02  3.814697266E-06  0.00000E+00  9.000E+00
#rwgt            1           9   5.6556783353194388E-004           8      914290           0
</event>
<event>
      6   9999  3.45752E-01  6.22330E+01 -1.00000E+00  1.29891E-01
      21    -1     0     0   502   503  0.000000000E+00  0.000000000E+00  3.265859520E+03  3.265859520E+03  0.000000000E+00  0.00000E+00  9.000E+00
      21    -1     0     0   511   502  0.000000000E+00  0.000000000E+00 -5.403853362E+01  5.403853362E+01  0.000000000E+00  0.00000E+00  9.000E+00
      25     1     1     2     0     0  1.258557630E+02  1.665012414E+02  1.152845784E+03  1.178236238E+03  1.249995832E+02  0.00000E+00  9.000E+00
       5     1     1     2   501     0  4.838460891E+01  5.630765244E+01  8.839545323E+01  1.155332885E+02  4.750000000E+00  0.00000E+00  9.000E+00
      -5     1     1     2     0   503 -2.198453868E+02 -2.651542800E+02  1.904322970E+03  1.935227977E+03  4.750000000E+00  0.00000E+00  9.000E+00
      21     1     1     2   511   501  4.560501496E+01  4.234538618E+01  6.625677918E+01  9.090054954E+01  1.907348633E-06  0.00000E+00  9.000E+00
#rwgt            1           9  0.15566045882046450                8      915891           0
</event>
<event>
      6   9999  3.45752E-01  1.77760E+01 -1.00000E+00  1.64219E-01
      21    -1     0     0   501   512  0.000000000E+00  0.000000000E+00  5.430162356E+00  5.430162356E+00  0.000000000E+00  0.00000E+00  9.000E+00
      21    -1     0     0   502   503  0.000000000E+00  0.000000000E+00 -1.927035676E+03  1.927035676E+03  0.000000000E+00  0.00000E+00  9.000E+00
      25     1     1     2     0     0  1.825618163E+01 -6.380799405E-01 -1.386039552E+03  1.391785057E+03  1.250052295E+02  0.00000E+00  9.000E+00
       5     1     1     2   501     0 -3.304647881E+00 -4.705585086E-01 -5.445669973E+00  7.959896003E+00  4.750000000E+00  0.00000E+00  9.000E+00
      -5     1     1     2     0   503 -3.257722973E+01  3.415649693E+00 -4.040738854E+02  4.054271944E+02  4.750000000E+00  0.00000E+00  9.000E+00
      21     1     1     2   502   512  1.762569598E+01 -2.307011244E+00 -1.260464062E+02  1.272936919E+02  1.907348633E-06  0.00000E+00  9.000E+00
#rwgt            1           9   7.2072521701024971E-003           8      917260           0
</event>
<event>
      6   9999  3.45752E-01  3.62040E+00 -1.00000E+00  2.57168E-01
      21    -1     0     0   511   502  0.000000000E+00  0.000000000E+00  9.857090872E+00  9.857090872E+00  0.000000000E+00  0.00000E+00  9.000E+00
      21    -1     0     0   502   503  0.000000000E+00  0.000000000E+00 -7.599839735E+02  7.599839735E+02  0.000000000E+00  0.00000E+00  9.000E+00
      25     1     1     2     0     0 -6.761616685E+00  3.429555411E+00 -6.808218162E+02  6.922447069E+02  1.250076302E+02  0.00000E+00  9.000E+00
       5     1     1     2   501     0  2.794188498E-01  3.565125209E-01  1.705828909E-01  4.774596799E+00  4.750000000E+00  0.00000E+00  9.000E+00
      -5     1     1     2     0   503  2.976456433E+00 -2.882137691E+00 -6.886182818E+01  6.914969191E+01  4.750000000E+00  0.00000E+00  9.000E+00
      21     1     1     2   511   501  3.505741403E+00 -9.039302404E-01 -6.138212259E-01  3.672068785E+00  1.632340424E-07  0.00000E+00  9.000E+00
#rwgt            1           9  0.65683928428217431                8      918840           0
</event>
<event>
      6   9999  3.45752E-01  9.89776E+00 -1.00000E+00  1.87665E-01
      21    -1     0     0   501   502  0.000000000E+00  0.000000000E+00  8.373758371E+01  8.373758371E+01  0.000000000E+00  0.00000E+00  9.000E+00
      21    -1     0     0   512   503  0.000000000E+00  0.000000000E+00 -7.654656337E+01  7.654656337E+01  0.000000000E+00  0.00000E+00  9.000E+00
      25     1     1     2     0     0  2.475506025E+00  5.228733443E+00 -6.278694689E+00  1.252914375E+02  1.250002181E+02  0.00000E+00  9.000E+00
       5     1     1     2   501     0  2.713884756E-01  1.970930925E+00  1.831514063E+01  1.902538033E+01  4.750000000E+00  0.00000E+00  9.000E+00
      -5     1     1     2     0   503  4.708142814E-01  2.160462918E+00 -9.201209851E-01  5.319622988E+00  4.750000000E+00  0.00000E+00  9.000E+00
      21     1     1     2   512   502 -3.217708782E+00 -9.360127286E+00 -3.925304619E+00  1.064770628E+01  1.397852826E-07  0.00000E+00  9.000E+00
#rwgt            1           9   1.0065640822845013E-004           8      924285           0
</event>
<event>
      6   9999  3.45752E-01  1.28652E+01 -1.00000E+00  1.76360E-01
      21    -1     0     0   501   511  0.000000000E+00  0.000000000E+00  1.932142010E+01  1.932142010E+01  0.000000000E+00  0.00000E+00  9.000E+00
      21    -1     0     0   502   503  0.000000000E+00  0.000000000E+00 -9.676533434E+02  9.676533434E+02  0.000000000E+00  0.00000E+00  9.000E+00
      25     1     1     2     0     0 -1.351806273E+01  3.896415069E+01 -3.294993769E+02  3.548129137E+02  1.249856842E+02  0.00000E+00  9.000E+00
       5     1     1     2   501     0 -1.109366177E+00 -1.650579308E+00  2.694793971E+00  5.812015134E+00  4.750000000E+00  0.00000E+00  9.000E+00
      -5     1     1     2     0   503  1.805082900E+00 -3.836292561E+01 -6.001744760E+02  6.014207649E+02  4.750000000E+00  0.00000E+00  9.000E+00
      21     1     1     2   502   511  1.282234601E+01  1.049354232E+00 -2.135286430E+01  2.492906969E+01  6.743495762E-07  0.00000E+00  9.000E+00
#rwgt            1           9   3.1699390783103281E-005           8      926429           0
</event>
<event>
      6   9999  3.45752E-01  5.59661E+00 -1.00000E+00  2.18357E-01
      21    -1     0     0   512   502  0.000000000E+00  0.000000000E+00  3.992874002E+01  3.992874002E+01  0.000000000E+00  0.00000E+00  9.000E+00
      21    -1     0     0   502   503  0.000000000E+00  0.000000000E+00 -3.238485295E+02  3.238485295E+02  0.000000000E+00  0.00000E+00  9.000E+00
      25     1     1     2     0     0 -4.165185866E+01 -5.642893478E+01 -2.237785419E+02  2.657516046E+02  1.250119097E+02  0.00000E+00  9.000E+00
       5     1     1     2   501     0  2.270447431E+01  4.906424144E+01 -4.556603039E+01  7.086337959E+01  4.750000000E+00  0.00000E+00  9.000E+00
      -5     1     1     2     0   503  1.635018151E+01  2.407213457E+00 -1.219321799E+01  2.107985239E+01  4.750000000E+00  0.00000E+00  9.000E+00
      21     1     1     2   512   501  2.597202838E+00  4.957479889E+00 -2.381999214E+00  6.082432876E+00  1.712013080E-07  0.00000E+00  9.000E+00
#rwgt            1           9  0.12182037760755340                8      929089           0
</event>
<event>
      6   9999  3.45752E-01  1.05161E+01 -1.00000E+00  1.84921E-01
      21    -1     0     0   501   502  0.000000000E+00  0.000000000E+00  1.017793034E+03  1.017793034E+03  0.000000000E+00  0.00000E+00  9.000E+00
      21    -1     0     0   502   511  0.000000000E+00  0.000000000E+00 -1.671506200E+01  1.671506200E+01  0.000000000E+00  0.00000E+00  9.000E+00
      25     1     1     2     0     0  2.592514117E+01 -7.140035200E+00  3.338345730E+02  3.574715092E+02  1.249690551E+02  0.00000E+00  9.000E+00
       5     1     1     2   501     0  2.661800407E+00  2.797206454E+00  6.259742669E+02  6.260041971E+02  4.750000000E+00  0.00000E+00  9.000E+00
      -5     1     1     2     0   503 -1.868964590E+01  7.888146325E-01  2.946692214E+01  3.522480791E+01  4.750000000E+00  0.00000E+00  9.000E+00
      21     1     1     2   503   511 -9.897295678E+00  3.554014114E+00  1.180220983E+01  1.580758157E+01  2.920019320E-07  0.00000E+00  9.000E+00
#rwgt            1           9   8.7623581635856901E-002           8      932994           0
</event>
<event>
      6   9999  3.45752E-01  1.75598E+01 -1.00000E+00  1.64647E-01
      21    -1     0     0   501   502  0.000000000E+00  0.000000000E+00  1.692814890E+01  1.692814890E+01  0.000000000E+00  0.00000E+00  9.000E+00
      21    -1     0     0   512   503  0.000000000E+00  0.000000000E+00 -2.046880649E+03  2.046880649E+03  0.000000000E+00  0.00000E+00  9.000E+00
      25     1     1     2     0     0  3.356844230E+01 -8.956342764E+01 -7.358089496E+02  7.524543153E+02  1.249969538E+02  0.00000E+00  9.000E+00
       5     1     1     2   501     0 -2.971550344E+01  7.322514725E+01 -1.821936114E+02  1.986504666E+02  4.750000000E+00  0.00000E+00  9.000E+00
      -5     1     1     2     0   503  1.557506133E-01 -7.578596886E-01 -1.858267205E+01  1.919574979E+01  4.750000000E+00  0.00000E+00  9.000E+00
      21     1     1     2   512   502 -4.008689482E+00  1.709614008E+01 -1.093367267E+03  1.093508266E+03  1.525878906E-05  0.00000E+00  9.000E+00
#rwgt            1           9   7.5713820050115795E-003           8      935821           0
</event>
<event>
      6   9999  3.45752E-01  2.76132E+00 -1.00000E+00  2.86680E-01
      21    -1     0     0   501   502  0.000000000E+00  0.000000000E+00  2.657522157E+02  2.657522157E+02  0.000000000E+00  0.00000E+00  9.000E+00
      21    -1     0     0   502   511  0.000000000E+00  0.000000000E+00 -9.445862925E+01  9.445862925E+01  0.000000000E+00  0.00000E+00  9.000E+00
      25     1     1     2     0     0 -1.985235303E+00  3.782905808E+00  5.920694234E+01  1.383829087E+02  1.250044634E+02  0.00000E+00  9.000E+00
       5     1     1     2   501     0 -2.237222165E+00 -3.580258897E+00  1.641473387E+02  1.642703099E+02  4.750000000E+00  0.00000E+00  9.000E+00
      -5     1     1     2     0   503  2.735619662E+00 -2.529484862E+00 -6.488602171E-01  6.071690719E+00  4.750000000E+00  0.00000E+00  9.000E+00
      21     1     1     2   503   511  1.486837806E+00  2.326837952E+00 -5.141183433E+01  5.148593566E+01  0.000000000E+00  0.00000E+00  9.000E+00
#rwgt            1           9   3.2004731692223255E-004           8      938344           0
</event>
<event>
      6   9999  3.45752E-01  4.61811E+00 -1.00000E+00  2.35604E-01
      21    -1     0     0   501   502  0.000000000E+00  0.000000000E+00  4.694989835E+00  4.694989835E+00  0.000000000E+00  0.00000E+00  9.000E+00
      21    -1     0     0   502   512  0.000000000E+00  0.000000000E+00 -3.411741818E+03  3.411741818E+03  0.000000000E+00  0.00000E+00  9.000E+00
      25     1     1     2     0     0 -4.744887880E+01  1.632689537E+01 -1.965632565E+03  1.970241985E+03  1.249965335E+02  0.00000E+00  9.000E+00
       5     1     1     2   501     0  5.304138580E-01 -1.418958849E+00 -1.436318342E+00  5.188476988E+00  4.750000000E+00  0.00000E+00  9.000E+00
      -5     1     1     2     0   503  4.491764114E+01 -1.074577234E+01 -1.078498248E+03  1.079497151E+03  4.750000000E+00  0.00000E+00  9.000E+00
      21     1     1     2   503   512  2.000823804E+00 -4.162164188E+00 -3.614796970E+02  3.615091953E+02  3.814697266E-06  0.00000E+00  9.000E+00
#rwgt            1           9   3.0107025014201594E-003           8      945295           0
</event>
<event>
      6   9999  3.45752E-01  2.00568E+01 -1.00000E+00  1.60116E-01
      21    -1     0     0   501   502  0.000000000E+00  0.000000000E+00  1.574567879E+01  1.574567879E+01  0.000000000E+00  0.00000E+00  9.000E+00
      21    -1     0     0   502   511  0.000000000E+00  0.000000000E+00 -1.223912093E+03  1.223912093E+03  0.000000000E+00  0.00000E+00  9.000E+00
      25     1     1     2     0     0  7.661260446E+01  3.118280818E+01 -5.062425521E+02  5.279641986E+02  1.249912586E+02  0.00000E+00  9.000E+00
       5     1     1     2   501     0  6.439555056E-01  9.083722017E+00 -1.668606297E+01  1.959377151E+01  4.750000000E+00  0.00000E+00  9.000E+00
      -5     1     1     2     0   503 -5.767408075E+01 -3.593035617E+01 -3.695341832E+02  3.757597173E+02  4.750000000E+00  0.00000E+00  9.000E+00
      21     1     1     2   503   511 -1.958247921E+01 -4.336174034E+00 -3.157036156E+02  3.163400841E+02  3.814697266E-06  0.00000E+00  9.000E+00
#rwgt            1           9   2.5867227726252993                8      950767           0
</event>
<event>
      6   9999  3.45752E-01  4.47369E+01 -1.00000E+00  1.37424E-01
      21    -1     0     0   512   503  0.000000000E+00  0.000000000E+00  4.768894455E+01  4.768894455E+01  0.000000000E+00  0.00000E+00  9.000E+00
      21    -1     0     0   501   502  0.000000000E+00  0.000000000E+00 -8.712668319E+02  8.712668319E+02  0.000000000E+00  0.00000E+00  9.000E+00
      25     1     1     2     0     0  5.766645131E+00  5.022444751E-01 -6.845425261E+02  6.958858906E+02  1.250007850E+02  0.00000E+00  9.000E+00
       5     1     1     2   501     0 -1.435459625E+01  9.570434230E-01 -1.607985669E+01  2.209286438E+01  4.750000000E+00  0.00000E+00  9.000E+00
      -5     1     1     2     0   503 -2.891202906E+01 -2.585475653E+01 -1.456586648E+02  1.508090946E+02  4.750000000E+00  0.00000E+00  9.000E+00
      21     1     1     2   512   502  3.749998017E+01  2.439546863E+01  2.270316029E+01  5.016792690E+01  1.815741803E-06  0.00000E+00  9.000E+00
#rwgt            1           9   1.0214722485729081E-004           8      952342           0
</event>
<event>
      6   9999  3.45752E-01  2.91372E+00 -1.00000E+00  2.80269E-01
      21    -1     0     0   511   502  0.000000000E+00  0.000000000E+00  1.022763451E+02  1.022763451E+02  0.000000000E+00  0.00000E+00  9.000E+00
      21    -1     0     0   502   503  0.000000000E+00  0.000000000E+00 -1.860514177E+02  1.860514177E+02  0.000000000E+00  0.00000E+00  9.000E+00
      25     1     1     2     0     0 -8.383882833E+00  2.816693636E+00 -1.007152169E+02  1.607697105E+02  1.250004866E+02  0.00000E+00  9.000E+00
       5     1     1     2   501     0  4.062591249E-01  1.441194610E-01  3.434025085E+00  5.877146006E+00  4.750000000E+00  0.00000E+00  9.000E+00
      -5     1     1     2     0   503  6.263084196E+00 -6.049412850E-01 -5.376840356E+01  5.434331512E+01  4.750000000E+00  0.00000E+00  9.000E+00
      21     1     1     2   511   501  1.714539512E+00 -2.355871812E+00  6.727452276E+01  6.733759121E+01  9.536743164E-07  0.00000E+00  9.000E+00
#rwgt            1           9  0.35977025006955610                8      953111           0
</event>
<event>
      6   9999 -3.45752E-01  1.35107E+01 -1.00000E+00  1.74404E-01
      21    -1     0     0   501   502  0.000000000E+00  0.000000000E+00  3.147491677E+03  3.147491677E+03  0.000000000E+00  0.00000E+00  9.000E+00
      21    -1     0     0   502   512  0.000000000E+00  0.000000000E+00 -9.269659390E+00  9.269659390E+00  0.000000000E+00  0.00000E+00  9.000E+00
      25     1     1     2     0     0  3.376467321E+01  4.912294843E+01  1.679627215E+03  1.685326716E+03  1.250017651E+02  0.00000E+00  9.000E+00
       5     1     1     2   501     0  4.863135797E-01  3.590384930E+00  9.011863683E+02  9.012061697E+02  4.750000000E+00  0.00000E+00  9.000E+00
      -5     1     1     2     0   503 -3.279206957E+01 -3.928167178E+01  5.538877036E+02  5.562665910E+02  4.750000000E+00  0.00000E+00  9.000E+00
      21     1     1     2   503   512 -1.458917219E+00 -1.343166157E+01  3.520730330E+00  1.396185926E+01  7.551228678E-07  0.00000E+00  9.000E+00
#rwgt            1           9  -7.4002749158809077E-003           8      958384           0
</event>
<event>
      6   9999  3.45752E-01  3.00205E+01 -1.00000E+00  1.47819E-01
       1    -1     0     0   501     0  0.000000000E+00  0.000000000E+00  1.722701492E+02  1.722701492E+02  0.000000000E+00  0.00000E+00  9.000E+00
      21    -1     0     0   502   503  0.000000000E+00  0.000000000E+00 -1.543741617E+02  1.543741617E+02  0.000000000E+00  0.00000E+00  9.000E+00
      25     1     1     2     0     0 -1.032912917E+01 -1.753325106E+01 -1.177851472E+02  1.729514693E+02  1.249990560E+02  0.00000E+00  9.000E+00
       5     1     1     2   501     0 -3.233774888E+00 -7.682660558E-01  1.164493326E+01  1.300824752E+01  4.750000000E+00  0.00000E+00  9.000E+00
      -5     1     1     2     0   503 -1.384482925E+01  6.052234391E+00  3.179108381E+00  1.615481564E+01  4.750000000E+00  0.00000E+00  9.000E+00
       1     1     1     2   502     0  2.740773331E+01  1.224928273E+01  1.208570931E+02  1.245297784E+02  0.000000000E+00  0.00000E+00  9.000E+00
#rwgt            1           9  0.13128647682971872                8      960489           0
</event>
<event>
      6   9999  3.45752E-01  5.97599E+00 -1.00000E+00  2.14301E-01
      21    -1     0     0   501   502  0.000000000E+00  0.000000000E+00  1.912592677E+01  1.912592677E+01  0.000000000E+00  0.00000E+00  9.000E+00
      21    -1     0     0   502   511  0.000000000E+00  0.000000000E+00 -4.029571114E+02  4.029571114E+02  0.000000000E+00  0.00000E+00  9.000E+00
      25     1     1     2     0     0 -1.465663363E+01  1.345596993E+01 -3.029760988E+02  3.283539781E+02  1.250037536E+02  0.00000E+00  9.000E+00
       5     1     1     2   501     0  1.056213962E+00 -3.869003900E-02  1.482241736E+00  5.086907255E+00  4.750000000E+00  0.00000E+00  9.000E+00
      -5     1     1     2     0   503  1.847222041E+01 -9.956347315E+00 -3.613803035E+01  4.205795426E+01  4.750000000E+00  0.00000E+00  9.000E+00
      21     1     1     2   503   511 -4.871800742E+00 -3.460932573E+00 -4.619929722E+01  4.658419861E+01  9.536743164E-07  0.00000E+00  9.000E+00
#rwgt            1           9   1.2868852178117283E-002           8      961365           0
</event>
<event>
      6   9999  3.45752E-01  1.17315E+01 -1.00000E+00  1.80172E-01
      21    -1     0     0   501   502  0.000000000E+00  0.000000000E+00  1.219186205E+01  1.219186205E+01  0.000000000E+00  0.00000E+00  9.000E+00
       2    -1     0     0   502     0  0.000000000E+00  0.000000000E+00 -1.840488636E+03  1.840488636E+03  0.000000000E+00  0.00000E+00  9.000E+00
      25     1     1     2     0     0  3.994577082E+01 -8.632725771E+00 -8.372064593E+02  8.474723520E+02  1.249981733E+02  0.00000E+00  9.000E+00
       5     1     1     2   501     0 -6.302727363E-01 -2.517475511E-01  5.417108342E+00  7.236586443E+00  4.750000000E+00  0.00000E+00  9.000E+00
      -5     1     1     2     0   503 -3.947599602E+01 -2.845973173E+00 -6.191976709E+02  6.204794694E+02  4.750000000E+00  0.00000E+00  9.000E+00
       2     1     1     2   503     0  1.604979316E-01  1.173044649E+01 -3.773097522E+02  3.774920903E+02  0.000000000E+00  0.00000E+00  9.000E+00
#rwgt            1           9   9.7325582490587063E-004           8      965006           0
</event>
<event>
      6   9999  3.45752E-01  3.79993E+00 -1.00000E+00  2.52554E-01
      21    -1     0     0   511   502  0.000000000E+00  0.000000000E+00  2.277088674E+01  2.277088674E+01  0.000000000E+00  0.00000E+00  9.000E+00
      21    -1     0     0   502   503  0.000000000E+00  0.000000000E+00 -1.590492491E+03  1.590492491E+03  0.000000000E+00  0.00000E+00  9.000E+00
      25     1     1     2     0     0  1.530229794E+01 -1.871067628E+01 -1.107207773E+03  1.114504209E+03  1.250053190E+02  0.00000E+00  9.000E+00
       5     1     1     2   501     0  2.778823315E+00  6.599546939E-02  4.329392752E+00  7.002310763E+00  4.750000000E+00  0.00000E+00  9.000E+00
      -5     1     1     2     0   503 -2.105629760E+01  1.628082493E+01 -4.776416402E+02  4.784062415E+02  4.750000000E+00  0.00000E+00  9.000E+00
      21     1     1     2   511   501  2.975176342E+00  2.363855881E+00  1.279841642E+01  1.335061616E+01  1.815741803E-06  0.00000E+00  9.000E+00
#rwgt            1           9   2.8519765846664566                8      967687           0
</event>
<event>
      6   9999  3.45752E-01  6.80385E+00 -1.00000E+00  2.06724E-01
      21    -1     0     0   512   502  0.000000000E+00  0.000000000E+00  5.250254721E+01  5.250254721E+01  0.000000000E+00  0.00000E+00  9.000E+00
      21    -1     0     0   502   503  0.000000000E+00  0.000000000E+00 -1.021111206E+03  1.021111206E+03  0.000000000E+00  0.00000E+00  9.000E+00
      25     1     1     2     0     0  6.672393212E+00  4.504172129E+00 -9.219211275E+02  9.303915554E+02  1.250002905E+02  0.00000E+00  9.000E+00
       5     1     1     2   501     0 -2.037422738E+00 -1.545480138E+00  1.597523329E+01  1.686149991E+01  4.750000000E+00  0.00000E+00  9.000E+00
      -5     1     1     2     0   503  1.869639603E+00 -4.954286046E+00 -9.401244524E+01  9.428119039E+01  4.750000000E+00  0.00000E+00  9.000E+00
      21     1     1     2   512   501 -6.504610077E+00  1.995594055E+00  3.134968048E+01  3.207950770E+01  9.536743164E-07  0.00000E+00  9.000E+00
#rwgt            1           9  0.52358630188805610                8      973395           0
</event>
<event>
      6   9999  3.45752E-01  5.37939E+00 -1.00000E+00  2.20883E-01
      21    -1     0     0   501   511  0.000000000E+00  0.000000000E+00  4.925784488E+02  4.925784488E+02  0.000000000E+00  0.00000E+00  9.000E+00
      21    -1     0     0   502   503  0.000000000E+00  0.000000000E+00 -3.140331747E+03  3.140331747E+03  0.000000000E+00  0.00000E+00  9.000E+00
      25     1     1     2     0     0  5.779965492E+00 -1.963864575E+01 -2.631908866E+03  2.634953986E+03  1.249765605E+02  0.00000E+00  9.000E+00
       5     1     1     2   501     0 -8.743430756E-01  6.713783341E-01 -5.592315506E+00  7.419684455E+00  4.750000000E+00  0.00000E+00  9.000E+00
      -5     1     1     2     0   503 -5.642592608E-01  2.214380095E+01 -5.001231337E+02  5.006359732E+02  4.750000000E+00  0.00000E+00  9.000E+00
      21     1     1     2   502   511 -4.341363156E+00 -3.176533537E+00  4.898710173E+02  4.899005526E+02  1.705984480E-05  0.00000E+00  9.000E+00
#rwgt            1           9   2.0539059622519413E-003           8      976978           0
</event>
<event>
      6   9999  3.45752E-01  6.71043E+00 -1.00000E+00  2.07505E-01
      21    -1     0     0   512   502  0.000000000E+00  0.000000000E+00  3.021505792E+01  3.021505792E+01  0.000000000E+00  0.00000E+00  9.000E+00
      21    -1     0     0   502   503  0.000000000E+00  0.000000000E+00 -8.309960307E+02  8.309960307E+02  0.000000000E+00  0.00000E+00  9.000E+00
      25     1     1     2     0     0 -4.942233453E+00  7.063875734E+00 -8.122214665E+02  8.218303793E+02  1.250085506E+02  0.00000E+00  9.000E+00
       5     1     1     2   501     0  1.743794119E+00  5.872595713E-01  5.399231568E+00  7.422930234E+00  4.750000000E+00  0.00000E+00  9.000E+00
      -5     1     1     2     0   503 -2.291988651E-01 -1.882151768E+00 -1.181919910E+01  1.287831490E+01  4.750000000E+00  0.00000E+00  9.000E+00
      21     1     1     2   512   501  3.427638200E+00 -5.768983537E+00  1.786046128E+01  1.907946413E+01  5.331201500E-07  0.00000E+00  9.000E+00
#rwgt            1           9   1.1895874620479016E-004           8      981109           0
</event>
<event>
      6   9999  3.45752E-01  1.19938E+01 -1.00000E+00  1.79243E-01
      21    -1     0     0   501   502  0.000000000E+00  0.000000000E+00  1.068339065E+01  1.068339065E+01  0.000000000E+00  0.00000E+00  9.000E+00
      21    -1     0     0   502   511  0.000000000E+00  0.000000000E+00 -2.072773243E+03  2.072773243E+03  0.000000000E+00  0.00000E+00  9.000E+00
      25     1     1     2     0     0  1.334314706E+01 -4.448155412E+00 -1.213333665E+03  1.219836764E+03  1.250012953E+02  0.00000E+00  9.000E+00
       5     1     1     2   501     0 -5.359193558E+01 -1.836939627E+01 -1.149012376E+02  1.281966739E+02  4.750000000E+00  0.00000E+00  9.000E+00
      -5     1     1     2     0   503  3.219992281E+01  1.392556441E+01 -4.927575769E+02  4.940276798E+02  4.750000000E+00  0.00000E+00  9.000E+00
      21     1     1     2   503   511  8.048865718E+00  8.891987270E+00 -2.410973734E+02  2.413955160E+02  0.000000000E+00  0.00000E+00  9.000E+00
#rwgt            1           9   5848.7352688193823                8      984544           0
</event>
<event>
      6   9999  3.45752E-01  2.22528E+01 -1.00000E+00  1.56751E-01
      21    -1     0     0   501   502  0.000000000E+00  0.000000000E+00  3.484499029E+01  3.484499029E+01  0.000000000E+00  0.00000E+00  9.000E+00
      21    -1     0     0   502   512  0.000000000E+00  0.000000000E+00 -1.275895573E+03  1.275895573E+03  0.000000000E+00  0.00000E+00  9.000E+00
      25     1     1     2     0     0 -6.181156136E+01 -1.056221088E+01 -4.350296713E+02  4.569550377E+02  1.249994486E+02  0.00000E+00  9.000E+00
       5     1     1     2   501     0 -1.411063692E+00 -7.631654200E-01  2.055103000E+01  2.115374332E+01  4.750000000E+00  0.00000E+00  9.000E+00
      -5     1     1     2     0   503  6.626047392E+01 -1.071906024E+01 -7.464565704E+02  7.494833705E+02  4.750000000E+00  0.00000E+00  9.000E+00
      21     1     1     2   503   512 -3.037848871E+00  2.204443654E+01 -8.011537123E+01  8.314841198E+01  0.000000000E+00  0.00000E+00  9.000E+00
#rwgt            1           9   1.2500700173153186E-002           8      987316           0
</event>
<event>
      6   9999  3.45752E-01  9.78191E+00 -1.00000E+00  1.88208E-01
      21    -1     0     0   501   511  0.000000000E+00  0.000000000E+00  4.788928192E+01  4.788928192E+01  0.000000000E+00  0.00000E+00  9.000E+00
      21    -1     0     0   502   503  0.000000000E+00  0.000000000E+00 -8.673870133E+02  8.673870133E+02  0.000000000E+00  0.00000E+00  9.000E+00
      25     1     1     2     0     0 -1.351451712E+01  5.986655325E+00 -8.439221976E+02  8.532571225E+02  1.249982376E+02  0.00000E+00  9.000E+00
       5     1     1     2   501     0 -2.393122383E+00 -6.042559270E-01  6.137938543E+00  8.144258685E+00  4.750000000E+00  0.00000E+00  9.000E+00
      -5     1     1     2     0   503  6.241176752E+00 -6.880794764E+00 -1.550913642E+01  1.869206881E+01  4.750000000E+00  0.00000E+00  9.000E+00
      21     1     1     2   502   511  9.666462747E+00  1.498395366E+00  3.379566403E+01  3.518284522E+01  1.651812370E-06  0.00000E+00  9.000E+00
#rwgt            1           9   3.1733463429826821E-004           8      989346           0
</event>
<event>
      6   9999  3.45752E-01  1.00681E+01 -1.00000E+00  1.86884E-01
      21    -1     0     0   501   512  0.000000000E+00  0.000000000E+00  3.642510554E+01  3.642510554E+01  0.000000000E+00  0.00000E+00  9.000E+00
      21    -1     0     0   502   503  0.000000000E+00  0.000000000E+00 -1.187005073E+03  1.187005073E+03  0.000000000E+00  0.00000E+00  9.000E+00
      25     1     1     2     0     0  1.242068408E+01 -4.980286933E+01 -3.331622182E+02  3.595223639E+02  1.249986693E+02  0.00000E+00  9.000E+00
       5     1     1     2   501     0  3.019176775E+00  7.367271293E-01  2.000213883E+01  2.079197569E+01  4.750000000E+00  0.00000E+00  9.000E+00
      -5     1     1     2     0   503 -9.402577602E+00  4.100892374E+01 -8.287452153E+02  8.298260871E+02  4.750000000E+00  0.00000E+00  9.000E+00
      21     1     1     2   502   512 -6.037283252E+00  8.057218459E+00 -8.674672706E+00  1.328975188E+01  2.064765462E-07  0.00000E+00  9.000E+00
#rwgt            1           9   4.8329523914797000E-004           8      992552           0
</event>
<event>
      6   9999 -3.45752E-01  1.28746E+01 -1.00000E+00  1.76330E-01
      21    -1     0     0   501   502  0.000000000E+00  0.000000000E+00  3.922717018E+01  3.922717018E+01  0.000000000E+00  0.00000E+00  9.000E+00
      21    -1     0     0   511   503  0.000000000E+00  0.000000000E+00 -3.435568619E+03  3.435568619E+03  0.000000000E+00  0.00000E+00  9.000E+00
      25     1     1     2     0     0 -8.966670215E+01 -1.767358311E+01 -2.615202818E+02  3.039245094E+02  1.249991065E+02  0.00000E+00  9.000E+00
       5     1     1     2   501     0  4.434418332E+00 -6.071598909E-01  1.490237808E+01  1.626886848E+01  4.750000000E+00  0.00000E+00  9.000E+00
      -5     1     1     2     0   503  9.504300096E+01  9.943801792E+00 -9.430482150E+02  9.478895240E+02  4.750000000E+00  0.00000E+00  9.000E+00
      21     1     1     2   511   502 -9.810717145E+00  8.336941213E+00 -2.206675330E+03  2.206712887E+03  5.285799584E-05  0.00000E+00  9.000E+00
#rwgt            1           9  -5.7980140242402695E-004           8      996451           0
</event>
<event>
      6   9999  3.45752E-01  3.09460E+00 -1.00000E+00  2.73432E-01
      21    -1     0     0   501   512  0.000000000E+00  0.000000000E+00  1.685110362E+00  1.685110362E+00  0.000000000E+00  0.00000E+00  9.000E+00
      21    -1     0     0   502   503  0.000000000E+00  0.000000000E+00 -4.168394217E+03  4.168394217E+03  0.000000000E+00  0.00000E+00  9.000E+00
      25     1     1     2     0     0  2.720311298E+00 -6.182126275E+00 -4.045662594E+03  4.047598672E+03  1.249942809E+02  0.00000E+00  9.000E+00
       5     1     1     2   501     0  9.565218031E-01  2.053385750E-01 -1.359545657E+01  1.443454319E+01  4.750000000E+00  0.00000E+00  9.000E+00
      -5     1     1     2     0   503 -1.577510877E+00  3.703152691E+00 -9.543787455E+01  9.564074592E+01  4.750000000E+00  0.00000E+00  9.000E+00
      21     1     1     2   502   512 -2.099322223E+00  2.273635009E+00 -1.201318198E+01  1.240536623E+01  4.460403188E-07  0.00000E+00  9.000E+00
#rwgt            1           9   1.3515025888753094E-004           8      999641           0
</event>
<event>
      6   9999  3.45752E-01  2.80015E+00 -1.00000E+00  2.84984E-01
      21    -1     0     0   501   502  0.000000000E+00  0.000000000E+00  1.926116803E+01  1.926116803E+01  0.000000000E+00  0.00000E+00  9.000E+00
      21    -1     0     0   502   511  0.000000000E+00  0.000000000E+00 -3.244067352E+03  3.244067352E+03  0.000000000E+00  0.00000E+00  9.000E+00
      25     1     1     2     0     0  2.698533141E+00  5.432104064E+00 -8.945380824E+02  9.032495479E+02  1.249983000E+02  0.00000E+00  9.000E+00
       5     1     1     2   501     0  4.914704984E+00 -3.500346456E+00  1.374563238E+01  1.574521070E+01  4.750000000E+00  0.00000E+00  9.000E+00
      -5     1     1     2     0   503 -8.107992220E+00 -4.687856751E+00 -1.731132782E+02  1.734314998E+02  4.750000000E+00  0.00000E+00  9.000E+00
      21     1     1     2   503   511  4.947540956E-01  2.756099143E+00 -2.170900456E+03  2.170902262E+03  5.285799584E-05  0.00000E+00  9.000E+00
#rwgt            1           9  0.18525534459726867                8     1004340           0
</event>
<event>
      6   9999  3.45752E-01  1.97936E+01 -1.00000E+00  1.60555E-01
      21    -1     0     0   512   502  0.000000000E+00  0.000000000E+00  1.652363476E+01  1.652363476E+01  0.000000000E+00  0.00000E+00  9.000E+00
      21    -1     0     0   502   503  0.000000000E+00  0.000000000E+00 -7.766938666E+02  7.766938666E+02  0.000000000E+00  0.00000E+00  9.000E+00
      25     1     1     2     0     0  1.694093427E+01  1.113855115E+01 -5.053689451E+02  5.209933773E+02  1.250010636E+02  0.00000E+00  9.000E+00
       5     1     1     2   501     0  4.756729638E-01  7.159476121E-01 -3.972603503E+00  6.251633734E+00  4.750000000E+00  0.00000E+00  9.000E+00
      -5     1     1     2     0   503 -3.333639973E+00  2.054342246E+00 -2.453601756E+02  2.454373887E+02  4.750000000E+00  0.00000E+00  9.000E+00
      21     1     1     2   512   501 -1.408296726E+01 -1.390884101E+01 -5.468507573E+00  2.053510166E+01  8.280541891E-07  0.00000E+00  9.000E+00
#rwgt            1           9   2.1567607752740278E-004           8     1011676           0
</event>
<event>
      6   9999  3.45752E-01  2.43932E+01 -1.00000E+00  1.53895E-01
      21    -1     0     0   501   502  0.000000000E+00  0.000000000E+00  2.084197823E+02  2.084197823E+02  0.000000000E+00  0.00000E+00  9.000E+00
      21    -1     0     0   502   511  0.000000000E+00  0.000000000E+00 -9.045669276E+02  9.045669276E+02  0.000000000E+00  0.00000E+00  9.000E+00
      25     1     1     2     0     0 -1.363106865E+02  1.742692710E+01 -2.309150293E+02  2.963643329E+02  1.250030642E+02  0.00000E+00  9.000E+00
       5     1     1     2   501     0  2.628787728E+00  2.155506016E+00  4.613791017E+01  4.650619298E+01  4.750000000E+00  0.00000E+00  9.000E+00
      -5     1     1     2     0   503  1.320370734E+02  4.755239555E+00  9.528758046E+01  1.629683605E+02  4.750000000E+00  0.00000E+00  9.000E+00
      21     1     1     2   503   511  1.644825430E+00 -2.433767267E+01 -6.066576067E+02  6.071478234E+02  7.629394531E-06  0.00000E+00  9.000E+00
#rwgt            1           9   1.7943740852626041E-004           8     1013227           0
</event>
<event>
      6   9999  3.45752E-01  3.64999E+00 -1.00000E+00  2.56379E-01
      21    -1     0     0   502   512  0.000000000E+00  0.000000000E+00  1.682117726E+01  1.682117726E+01  0.000000000E+00  0.00000E+00  9.000E+00
      21    -1     0     0   501   502  0.000000000E+00  0.000000000E+00 -4.631610679E+03  4.631610679E+03  0.000000000E+00  0.00000E+00  9.000E+00
      25     1     1     2     0     0 -7.808860601E+00 -4.443375857E+00 -3.881228911E+03  3.883251581E+03  1.249970348E+02  0.00000E+00  9.000E+00
       5     1     1     2   501     0  6.501864203E+00 -5.093847284E-01 -5.871645218E+02  5.872199518E+02  4.750000000E+00  0.00000E+00  9.000E+00
      -5     1     1     2     0   503 -1.596448045E+00  2.740872837E+00 -1.619161284E+02  1.620168391E+02  4.750000000E+00  0.00000E+00  9.000E+00
      21     1     1     2   503   512  2.903444443E+00  2.211887748E+00  1.552005965E+01  1.594348420E+01  4.028497994E-06  0.00000E+00  9.000E+00
#rwgt            1           9  0.21355593036854609                8     1015335           0
</event>
<event>
      6   9999 -3.45752E-01  4.69651E+01 -1.00000E+00  1.36259E-01
      21    -1     0     0   501   511  0.000000000E+00  0.000000000E+00  1.455319684E+02  1.455319684E+02  0.000000000E+00  0.00000E+00  9.000E+00
      21    -1     0     0   502   503  0.000000000E+00  0.000000000E+00 -8.804395210E+02  8.804395210E+02  0.000000000E+00  0.00000E+00  9.000E+00
      25     1     1     2     0     0  1.214208046E+02 -4.230753425E+01 -7.982631155E+02  8.181573258E+02  1.249978760E+02  0.00000E+00  9.000E+00
       5     1     1     2   501     0 -1.140409703E+02  1.041208874E+01  4.851613347E+01  1.244593597E+02  4.750000000E+00  0.00000E+00  9.000E+00
      -5     1     1     2     0   503 -2.358243440E+01 -1.218624960E+01 -1.171621691E+01  2.940183889E+01  4.750000000E+00  0.00000E+00  9.000E+00
      21     1     1     2   502   511  1.620260015E+01  4.408169510E+01  2.655564632E+01  5.395296513E+01  1.348699152E-06  0.00000E+00  9.000E+00
#rwgt            1           9  -1180.2038861556939                8     1019359           0
</event>
<event>
      6   9999  3.45752E-01  9.99536E+00 -1.00000E+00  1.87215E-01
      21    -1     0     0   501   502  0.000000000E+00  0.000000000E+00  4.711362733E+02  4.711362733E+02  0.000000000E+00  0.00000E+00  9.000E+00
       2    -1     0     0   502     0  0.000000000E+00  0.000000000E+00 -1.533338501E+03  1.533338501E+03  0.000000000E+00  0.00000E+00  9.000E+00
      25     1     1     2     0     0 -8.270526173E+00  5.729391366E+00  4.356469257E+01  1.327556610E+02  1.249998223E+02  0.00000E+00  9.000E+00
       5     1     1     2   501     0  1.089265823E-01  1.138094813E+00  3.770468038E+02  3.770784559E+02  4.750000000E+00  0.00000E+00  9.000E+00
      -5     1     1     2     0   503 -4.594594212E-01 -1.809358495E+00  4.792352272E+00  7.001001458E+00  4.750000000E+00  0.00000E+00  9.000E+00
       2     1     1     2   503     0  8.621059011E+00 -5.058127684E+00 -1.487606076E+03  1.487639656E+03  0.000000000E+00  0.00000E+00  9.000E+00
#rwgt            1           9   9.9556586868565321E-005           8     1020872           0
</event>
<event>
      6   9999 -3.45752E-01  3.11763E+01 -1.00000E+00  1.46766E-01
      21    -1     0     0   502   511  0.000000000E+00  0.000000000E+00  2.872588073E+02  2.872588073E+02  0.000000000E+00  0.00000E+00  9.000E+00
      21    -1     0     0   501   502  0.000000000E+00  0.000000000E+00 -1.295310179E+02  1.295310179E+02  0.000000000E+00  0.00000E+00  9.000E+00
      25     1     1     2     0     0  1.072613844E+00 -6.801654328E+01  4.724010365E-02  1.423115351E+02  1.250006805E+02  0.00000E+00  9.000E+00
       5     1     1     2   501     0  1.881121275E+01  5.288554884E+01 -3.552468671E+01  6.659811459E+01  4.750000000E+00  0.00000E+00  9.000E+00
      -5     1     1     2     0   503  1.031440550E+01  7.383080693E+00  1.467073378E+00  1.362393649E+01  4.750000000E+00  0.00000E+00  9.000E+00
      21     1     1     2   503   511 -3.019823208E+01  7.747913750E+00  1.917381626E+02  1.942562390E+02  2.697398305E-06  0.00000E+00  9.000E+00
#rwgt            1           9 -0.51652706747098065                8     1024049           0
</event>
<event>
      6   9999  3.45752E-01  3.04355E+01 -1.00000E+00  1.47434E-01
      21    -1     0     0   502   503  0.000000000E+00  0.000000000E+00  1.660976452E+01  1.660976452E+01  0.000000000E+00  0.00000E+00  9.000E+00
      21    -1     0     0   501   512  0.000000000E+00  0.000000000E+00 -1.143444999E+03  1.143444999E+03  0.000000000E+00  0.00000E+00  9.000E+00
      25     1     1     2     0     0 -7.698973771E+01 -3.085939530E+01 -4.270304076E+02  4.526149928E+02  1.250025627E+02  0.00000E+00  9.000E+00
       5     1     1     2   501     0  9.713888421E+00  4.706928123E+00 -1.584184339E+02  1.588567830E+02  4.750000000E+00  0.00000E+00  9.000E+00
      -5     1     1     2     0   503  5.767047045E+01 -2.727587820E+00 -3.369696832E+02  3.419129316E+02  4.750000000E+00  0.00000E+00  9.000E+00
      21     1     1     2   502   512  9.605378845E+00  2.888005499E+01 -2.044167101E+02  2.066700565E+02  2.697398305E-06  0.00000E+00  9.000E+00
#rwgt            1           9   7.0724842996458828E-002           8     1025382           0
</event>
<event>
      6   9999  3.45752E-01  9.86208E+00 -1.00000E+00  1.87831E-01
      21    -1     0     0   501   502  0.000000000E+00  0.000000000E+00  8.062296862E+02  8.062296862E+02  0.000000000E+00  0.00000E+00  9.000E+00
      21    -1     0     0   502   511  0.000000000E+00  0.000000000E+00 -1.093580876E+01  1.093580876E+01  0.000000000E+00  0.00000E+00  9.000E+00
      25     1     1     2     0     0 -2.821856575E+01 -1.610267342E+01  6.059936973E+02  6.196051462E+02  1.250063700E+02  0.00000E+00  9.000E+00
       5     1     1     2   501     0  3.314133422E+01  2.424430207E+01  1.303839783E+02  1.367796715E+02  4.750000000E+00  0.00000E+00  9.000E+00
      -5     1     1     2     0   503  4.626774689E-01  1.201855328E-01  2.535270050E+01  2.579826423E+01  4.750000000E+00  0.00000E+00  9.000E+00
      21     1     1     2   503   511 -5.385445941E+00 -8.261814183E+00  3.356350139E+01  3.498241311E+01  6.743495762E-07  0.00000E+00  9.000E+00
#rwgt            1           9   4.7640001456526488E-003           8     1026443           0
</event>
<event>
      6   9999  3.45752E-01  2.57039E+01 -1.00000E+00  1.52315E-01
      21    -1     0     0   501   512  0.000000000E+00  0.000000000E+00  1.338021165E+01  1.338021165E+01  0.000000000E+00  0.00000E+00  9.000E+00
      21    -1     0     0   502   503  0.000000000E+00  0.000000000E+00 -8.901355816E+02  8.901355816E+02  0.000000000E+00  0.00000E+00  9.000E+00
      25     1     1     2     0     0  2.107815614E+01 -6.109391018E+01 -6.719823058E+02  6.865575890E+02  1.249973967E+02  0.00000E+00  9.000E+00
       5     1     1     2   501     0 -9.728674157E+00  2.082324068E+01 -5.296629141E+01  5.793310779E+01  4.750000000E+00  0.00000E+00  9.000E+00
      -5     1     1     2     0   503  1.073987737E+00  1.776844878E+01 -9.359325885E+01  9.538936955E+01  4.750000000E+00  0.00000E+00  9.000E+00
      21     1     1     2   502   512 -1.242346972E+01  2.250222071E+01 -5.821351394E+01  6.363572693E+01  6.743495762E-07  0.00000E+00  9.000E+00
#rwgt            1           9   7.8283920336318243E-004           8     1028501           0
</event>
<event>
      6   9999  3.45752E-01  5.41808E+00 -1.00000E+00  2.20421E-01
      21    -1     0     0   511   502  0.000000000E+00  0.000000000E+00  4.408074839E+01  4.408074839E+01  0.000000000E+00  0.00000E+00  9.000E+00
      21    -1     0     0   502   503  0.000000000E+00  0.000000000E+00 -8.558275318E+02  8.558275318E+02  0.000000000E+00  0.00000E+00  9.000E+00
      25     1     1     2     0     0  9.997581586E+00 -1.381133135E+01 -8.192353990E+02  8.288925654E+02  1.250021661E+02  0.00000E+00  9.000E+00
       5     1     1     2   501     0  2.781995597E+00 -4.188403760E+00  1.593227184E+00  7.098105270E+00  4.750000000E+00  0.00000E+00  9.000E+00
      -5     1     1     2     0   503 -1.534594052E+01  1.322800369E+01 -2.501323158E+01  3.253770468E+01  4.750000000E+00  0.00000E+00  9.000E+00
      21     1     1     2   511   501  2.566363336E+00  4.771731426E+00  3.090861995E+01  3.137990486E+01  3.371747881E-07  0.00000E+00  9.000E+00
#rwgt            1           9   9.4480585942394272E-005           8     1029526           0
</event>
<event>
      6   9999 -3.45752E-01  1.56346E+01 -1.00000E+00  1.68826E-01
      21    -1     0     0   501   512  0.000000000E+00  0.000000000E+00  1.015917642E+01  1.015917642E+01  0.000000000E+00  0.00000E+00  9.000E+00
      21    -1     0     0   502   503  0.000000000E+00  0.000000000E+00 -6.278454435E+03  6.278454435E+03  0.000000000E+00  0.00000E+00  9.000E+00
      25     1     1     2     0     0 -1.940087117E+01 -1.927266045E+01 -1.882486689E+03  1.886830372E+03  1.249995603E+02  0.00000E+00  9.000E+00
       5     1     1     2   501     0 -5.415014114E+00  4.174029321E+00 -8.102962133E+00  1.161746074E+01  4.750000000E+00  0.00000E+00  9.000E+00
      -5     1     1     2     0   503  1.034975254E+01  2.102925234E+01 -4.374042365E+03  4.374107739E+03  4.749999998E+00  0.00000E+00  9.000E+00
      21     1     1     2   502   512  1.446613275E+01 -5.930621210E+00 -3.663242731E+00  1.605803885E+01  1.397852826E-07  0.00000E+00  9.000E+00
#rwgt            1           9  -5.1106081088186548E-005           8     1034006           0
</event>
<event>
      6   9999  3.45752E-01  3.03091E+01 -1.00000E+00  1.47551E-01
      21    -1     0     0   501   502  0.000000000E+00  0.000000000E+00  4.947630974E+01  4.947630974E+01  0.000000000E+00  0.00000E+00  9.000E+00
      21    -1     0     0   511   503  0.000000000E+00  0.000000000E+00 -3.998483791E+02  3.998483791E+02  0.000000000E+00  0.00000E+00  9.000E+00
      25     1     1     2     0     0  1.224206280E+01  3.066839428E+01 -1.745083088E+02  2.171862011E+02  1.250051103E+02  0.00000E+00  9.000E+00
       5     1     1     2   501     0  3.751023986E+00  4.665733606E+00  1.984058794E+01  2.126148350E+01  4.750000000E+00  0.00000E+00  9.000E+00
      -5     1     1     2     0   503  1.488366012E-01 -9.681114616E+00  1.909456813E+00  1.095238138E+01  4.750000000E+00  0.00000E+00  9.000E+00
      21     1     1     2   511   502 -1.614192339E+01 -2.565301327E+01 -1.976138053E+02  1.999246228E+02  3.814697266E-06  0.00000E+00  9.000E+00
#rwgt            1           9   37.727956350683087                8     1035953           0
</event>
<event>
      6   9999  3.45752E-01  9.12624E+00 -1.00000E+00  1.91476E-01
      21    -1     0     0   501   502  0.000000000E+00  0.000000000E+00  2.933007296E+01  2.933007296E+01  0.000000000E+00  0.00000E+00  9.000E+00
      21    -1     0     0   502   512  0.000000000E+00  0.000000000E+00 -1.309560287E+03  1.309560287E+03  0.000000000E+00  0.00000E+00  9.000E+00
      25     1     1     2     0     0  3.221950452E+01 -6.216346651E+01 -7.137858135E+02  7.280244719E+02  1.250082038E+02  0.00000E+00  9.000E+00
       5     1     1     2   501     0 -6.858104412E+00  1.599831638E+00  1.808875778E+01  1.998396145E+01  4.750000000E+00  0.00000E+00  9.000E+00
      -5     1     1     2     0   503 -3.186772959E+01  6.696331876E+01 -4.550702020E+02  4.610977006E+02  4.750000000E+00  0.00000E+00  9.000E+00
      21     1     1     2   503   512  6.506329480E+00 -6.399683883E+00 -1.294629559E+02  1.297842257E+02  1.907348633E-06  0.00000E+00  9.000E+00
#rwgt            1           9   3.7528080141763266E-003           8     1036936           0
</event>
<event>
      6   9999  3.45752E-01  1.39738E+01 -1.00000E+00  1.73083E-01
      21    -1     0     0   501   502  0.000000000E+00  0.000000000E+00  2.142388130E+02  2.142388130E+02  0.000000000E+00  0.00000E+00  9.000E+00
      21    -1     0     0   511   503  0.000000000E+00  0.000000000E+00 -1.184824771E+03  1.184824771E+03  0.000000000E+00  0.00000E+00  9.000E+00
      25     1     1     2     0     0 -9.510068404E+01  6.215570254E+01 -1.249742830E+02  2.101193193E+02  1.249963418E+02  0.00000E+00  9.000E+00
       5     1     1     2   501     0  4.209746213E+00 -3.753577095E+00  1.284847759E+02  1.286961982E+02  4.750000000E+00  0.00000E+00  9.000E+00
      -5     1     1     2     0   503  8.187158795E+01 -6.907538523E+01 -2.378019227E+01  1.098290754E+02  4.750000000E+00  0.00000E+00  9.000E+00
      21     1     1     2   511   502  9.019349878E+00  1.067325979E+01 -9.503162583E+02  9.504189907E+02  0.000000000E+00  0.00000E+00  9.000E+00
#rwgt            1           9   3.9295284173274020E-002           8     1040545           0
</event>
<event>
      6   9999  3.45752E-01  1.54699E+01 -1.00000E+00  1.69219E-01
      21    -1     0     0   501   512  0.000000000E+00  0.000000000E+00  3.621167465E+01  3.621167465E+01  0.000000000E+00  0.00000E+00  9.000E+00
      21    -1     0     0   502   503  0.000000000E+00  0.000000000E+00 -1.233526088E+03  1.233526088E+03  0.000000000E+00  0.00000E+00  9.000E+00
      25     1     1     2     0     0 -2.124169676E+00 -6.365305788E+00 -1.059097359E+03  1.066469215E+03  1.249973693E+02  0.00000E+00  9.000E+00
       5     1     1     2   501     0  7.866131546E+00 -6.281285072E+00  2.932258469E+01  3.136410433E+01  4.750000000E+00  0.00000E+00  9.000E+00
      -5     1     1     2     0   503 -9.084063011E+00 -2.457994458E+00 -1.393568314E+02  1.397549673E+02  4.750000000E+00  0.00000E+00  9.000E+00
      21     1     1     2   502   512  3.342101141E+00  1.510458532E+01 -2.818280806E+01  3.214947601E+01  0.000000000E+00  0.00000E+00  9.000E+00
#rwgt            1           9   3.6373428859207580E-004           8     1043558           0
</event>
<event>
      6   9999  3.45752E-01  3.55254E+00 -1.00000E+00  2.59020E-01
      21    -1     0     0   501   502  0.000000000E+00  0.000000000E+00  8.845663625E+02  8.845663625E+02  0.000000000E+00  0.00000E+00  9.000E+00
      21    -1     0     0   511   503  0.000000000E+00  0.000000000E+00 -1.593864844E+02  1.593864844E+02  0.000000000E+00  0.00000E+00  9.000E+00
      25     1     1     2     0     0 -1.939829034E+01 -4.175429739E+00  4.309346808E+02  4.491363886E+02  1.250002743E+02  0.00000E+00  9.000E+00
       5     1     1     2   501     0  1.013659935E+00 -5.454101238E-01  3.949550544E+02  3.949852940E+02  4.750000000E+00  0.00000E+00  9.000E+00
      -5     1     1     2     0   503  1.855739146E+01  8.269178258E+00  4.734251314E+01  5.173617822E+01  4.750000000E+00  0.00000E+00  9.000E+00
      21     1     1     2   511   502 -1.727610548E-01 -3.548338395E+00 -1.480523703E+02  1.480949861E+02  3.814697266E-06  0.00000E+00  9.000E+00
#rwgt            1           9   2.4445514217168391E-003           8     1046120           0
</event>
<event>
      6   9999  3.45752E-01  1.88908E+01 -1.00000E+00  1.62125E-01
      21    -1     0     0   512   502  0.000000000E+00  0.000000000E+00  8.166141750E+01  8.166141750E+01  0.000000000E+00  0.00000E+00  9.000E+00
      21    -1     0     0   502   503  0.000000000E+00  0.000000000E+00 -1.733876022E+03  1.733876022E+03  0.000000000E+00  0.00000E+00  9.000E+00
      25     1     1     2     0     0  1.307826432E+02 -4.228641314E+01 -2.564783542E+02  3.166996699E+02  1.250011769E+02  0.00000E+00  9.000E+00
       5     1     1     2   501     0 -1.368879078E+01 -2.840980818E+00  3.420584222E+01  3.725662769E+01  4.750000000E+00  0.00000E+00  9.000E+00
      -5     1     1     2     0   503 -1.354921013E+02  4.084180296E+01 -1.435044835E+03  1.442013316E+03  4.750000000E+00  0.00000E+00  9.000E+00
      21     1     1     2   512   501  1.839824892E+01  4.285590996E+00  5.102742081E+00  1.956782640E+01  2.384185791E-07  0.00000E+00  9.000E+00
#rwgt            1           9   3.2763135761514635E-002           8     1051867           0
</event>
<event>
      6   9999  3.45752E-01  5.15433E+00 -1.00000E+00  2.23681E-01
      21    -1     0     0   501   502  0.000000000E+00  0.000000000E+00  6.753899364E+00  6.753899364E+00  0.000000000E+00  0.00000E+00  9.000E+00
      21    -1     0     0   502   511  0.000000000E+00  0.000000000E+00 -1.172006756E+03  1.172006756E+03  0.000000000E+00  0.00000E+00  9.000E+00
      25     1     1     2     0     0  2.455774940E+01  6.382333374E+00 -7.816216490E+02  7.919599986E+02  1.249976797E+02  0.00000E+00  9.000E+00
       5     1     1     2   501     0  3.230126835E-01  7.148349480E-01 -5.681412355E+00  7.446896840E+00  4.750000000E+00  0.00000E+00  9.000E+00
      -5     1     1     2     0   503 -2.056063714E+01 -4.285828401E+00 -1.724267693E+02  1.737661112E+02  4.750000000E+00  0.00000E+00  9.000E+00
      21     1     1     2   503   511 -4.320124946E+00 -2.811339922E+00 -2.055230261E+02  2.055876489E+02  3.814697266E-06  0.00000E+00  9.000E+00
#rwgt            1           9   8.5279915668131524E-003           8     1054660           0
</event>
<event>
      6   9999  3.45752E-01  9.95694E+00 -1.00000E+00  1.87391E-01
      21    -1     0     0   501   502  0.000000000E+00  0.000000000E+00  3.201618904E+01  3.201618904E+01  0.000000000E+00  0.00000E+00  9.000E+00
      21    -1     0     0   512   503  0.000000000E+00  0.000000000E+00 -3.012325797E+02  3.012325797E+02  0.000000000E+00  0.00000E+00  9.000E+00
      25     1     1     2     0     0 -5.965654774E+00 -2.388586267E+01 -2.533020683E+02  2.835367082E+02  1.250000145E+02  0.00000E+00  9.000E+00
       5     1     1     2   501     0 -6.891916789E-01 -1.534360983E-01  1.127098051E+00  4.932684647E+00  4.750000000E+00  0.00000E+00  9.000E+00
      -5     1     1     2     0   503 -3.178663294E+00  2.560224539E+01 -1.440683788E+00  2.627198011E+01  4.750000000E+00  0.00000E+00  9.000E+00
      21     1     1     2   512   502  9.833509747E+00 -1.562946621E+00 -1.560073665E+01  1.850739582E+01  0.000000000E+00  0.00000E+00  9.000E+00
#rwgt            1           9   2.5377741246897698E-005           8     1058397           0
</event>
<event>
      6   9999  3.45752E-01  6.03054E+00 -1.00000E+00  2.13751E-01
      21    -1     0     0   501   511  0.000000000E+00  0.000000000E+00  3.263922031E+01  3.263922031E+01  0.000000000E+00  0.00000E+00  9.000E+00
      21    -1     0     0   502   503  0.000000000E+00  0.000000000E+00 -1.205650159E+03  1.205650159E+03  0.000000000E+00  0.00000E+00  9.000E+00
      25     1     1     2     0     0  3.846536913E+01  4.453310951E+01 -2.329775531E+02  2.708641793E+02  1.250043236E+02  0.00000E+00  9.000E+00
       5     1     1     2   501     0 -1.929820356E+00  1.958932286E+00  8.269166606E+00  9.924879781E+00  4.750000000E+00  0.00000E+00  9.000E+00
      -5     1     1     2     0   503 -3.097523618E+01 -4.415744397E+01 -9.497550650E+02  9.512973201E+02  4.750000000E+00  0.00000E+00  9.000E+00
      21     1     1     2   502   511 -5.560312591E+00 -2.334597820E+00  1.452512439E+00  6.203000522E+00  9.185692672E-08  0.00000E+00  9.000E+00
#rwgt            1           9   3.7706816373772457E-003           8     1060878           0
</event>
<event>
      6   9999  3.45752E-01  1.19046E+01 -1.00000E+00  1.79556E-01
      21    -1     0     0   501   512  0.000000000E+00  0.000000000E+00  1.866219080E+02  1.866219080E+02  0.000000000E+00  0.00000E+00  9.000E+00
      21    -1     0     0   502   503  0.000000000E+00  0.000000000E+00 -7.203151012E+02  7.203151012E+02  0.000000000E+00  0.00000E+00  9.000E+00
      25     1     1     2     0     0 -9.113513416E+00 -3.842196246E+00 -5.845837457E+02  5.978805533E+02  1.250007268E+02  0.00000E+00  9.000E+00
       5     1     1     2   501     0 -6.617250748E-01 -4.228080533E+00 -3.960336290E+01  4.011612392E+01  4.750000000E+00  0.00000E+00  9.000E+00
      -5     1     1     2     0   503  1.352351524E+01 -3.228863575E+00 -8.841918440E+01  8.963161102E+01  4.750000000E+00  0.00000E+00  9.000E+00
      21     1     1     2   502   512 -3.748276744E+00  1.129914035E+01  1.789130998E+02  1.793087210E+02  3.814697266E-06  0.00000E+00  9.000E+00
#rwgt            1           9   9.1563870630744667E-005           8     1065480           0
</event>
<event>
      6   9999  3.45752E-01  5.37564E+00 -1.00000E+00  2.20928E-01
      21    -1     0     0   501   511  0.000000000E+00  0.000000000E+00  1.218541524E+02  1.218541524E+02  0.000000000E+00  0.00000E+00  9.000E+00
      21    -1     0     0   502   503  0.000000000E+00  0.000000000E+00 -2.446306470E+02  2.446306470E+02  0.000000000E+00  0.00000E+00  9.000E+00
      25     1     1     2     0     0 -6.409289883E+01 -1.168343294E+01  3.780878232E+01  1.459448665E+02  1.250039910E+02  0.00000E+00  9.000E+00
       5     1     1     2   501     0 -7.813950449E-01  1.673670487E+00  2.284021424E+01  2.340191525E+01  4.750000000E+00  0.00000E+00  9.000E+00
      -5     1     1     2     0   503  5.949907460E+01  1.007714913E+01 -1.816597491E+02  1.914798051E+02  4.750000000E+00  0.00000E+00  9.000E+00
      21     1     1     2   502   511  5.375219272E+00 -6.738667998E-02 -1.765742010E+00  5.658212442E+00  6.664001875E-08  0.00000E+00  9.000E+00
#rwgt            1           9   10.045579743682849                8     1067459           0
</event>
<event>
      6   9999 -3.45752E-01  1.16032E+01 -1.00000E+00  1.80639E-01
      21    -1     0     0   512   502  0.000000000E+00  0.000000000E+00  2.764188846E+01  2.764188846E+01  0.000000000E+00  0.00000E+00  9.000E+00
      21    -1     0     0   502   503  0.000000000E+00  0.000000000E+00 -2.572714126E+03  2.572714126E+03  0.000000000E+00  0.00000E+00  9.000E+00
      25     1     1     2     0     0  4.142226746E-01  2.685029678E+01 -1.971662713E+03  1.975806575E+03  1.250466244E+02  0.00000E+00  9.000E+00
       5     1     1     2   501     0 -2.922067718E+00 -4.277270456E+01 -4.733576654E+02  4.753189294E+02  4.750000000E+00  0.00000E+00  9.000E+00
      -5     1     1     2     0   503  1.579920166E+00  4.356418024E+00 -1.231780663E+02  1.233566903E+02  4.750000000E+00  0.00000E+00  9.000E+00
      21     1     1     2   512   501  9.279248770E-01  1.156598975E+01  2.312620639E+01  2.587382046E+01  3.739449296E-06  0.00000E+00  9.000E+00
#rwgt            1           9  -3.0068619248340271E-003           8     1072990           0
</event>
<event>
      6   9999  3.45752E-01  5.50469E+00 -1.00000E+00  2.19406E-01
      21    -1     0     0   501   502  0.000000000E+00  0.000000000E+00  1.078882761E+01  1.078882761E+01  0.000000000E+00  0.00000E+00  9.000E+00
      21    -1     0     0   511   503  0.000000000E+00  0.000000000E+00 -8.967364860E+02  8.967364860E+02  0.000000000E+00  0.00000E+00  9.000E+00
      25     1     1     2     0     0  1.134000562E+01  6.104875224E+00 -7.728423112E+02  7.829917628E+02  1.249999898E+02  0.00000E+00  9.000E+00
       5     1     1     2   501     0 -5.353997726E-01  1.696527278E+00  3.352485695E+00  6.080009709E+00  4.750000000E+00  0.00000E+00  9.000E+00
      -5     1     1     2     0   503 -8.271666957E+00 -2.914087884E+00 -2.629740972E+01  2.812523138E+01  4.750000000E+00  0.00000E+00  9.000E+00
      21     1     1     2   511   502 -2.532938891E+00 -4.887314619E+00 -9.016042315E+01  9.032830966E+01  1.348699152E-06  0.00000E+00  9.000E+00
#rwgt            1           9   6.5931362878199429E-005           8     1074876           0
</event>
<event>
      6   9999  3.45752E-01  5.85609E+00 -1.00000E+00  2.15537E-01
      21    -1     0     0   501   502  0.000000000E+00  0.000000000E+00  1.039284842E+01  1.039284842E+01  0.000000000E+00  0.00000E+00  9.000E+00
       2    -1     0     0   502     0  0.000000000E+00  0.000000000E+00 -1.375328042E+03  1.375328042E+03  0.000000000E+00  0.00000E+00  9.000E+00
      25     1     1     2     0     0  5.541054834E+00 -1.093318400E+01 -7.587802141E+02  7.691059511E+02  1.250052515E+02  0.00000E+00  9.000E+00
       5     1     1     2   501     0  8.613778984E-01 -1.998350923E+00  2.513551762E+00  5.797915208E+00  4.750000000E+00  0.00000E+00  9.000E+00
      -5     1     1     2     0   503 -7.846873571E+00  7.256382671E+00 -3.122091325E+01  3.333971264E+01  4.750000000E+00  0.00000E+00  9.000E+00
       2     1     1     2   503     0  1.444440839E+00  5.675152256E+00 -5.774476185E+02  5.774773120E+02  0.000000000E+00  0.00000E+00  9.000E+00
#rwgt            1           9   6.2097432995033316E-004           8     1078375           0
</event>
<event>
      6   9999  3.45752E-01  1.79844E+00 -1.00000E+00  3.51821E-01
      21    -1     0     0   501   511  0.000000000E+00  0.000000000E+00  2.742232968E+02  2.742232968E+02  0.000000000E+00  0.00000E+00  9.000E+00
      21    -1     0     0   502   503  0.000000000E+00  0.000000000E+00 -7.797873479E+02  7.797873479E+02  0.000000000E+00  0.00000E+00  9.000E+00
      25     1     1     2     0     0  1.659584245E+00 -3.480874363E+00 -7.288948151E+02  7.395460648E+02  1.250034389E+02  0.00000E+00  9.000E+00
       5     1     1     2   501     0  7.546636091E-01 -7.941662701E-01  2.802801090E+00  5.623025091E+00  4.750000000E+00  0.00000E+00  9.000E+00
      -5     1     1     2     0   503 -8.800146970E-01  3.336689764E+00 -4.395856608E+01  4.434891156E+01  4.750000000E+00  0.00000E+00  9.000E+00
      21     1     1     2   502   511 -1.534233157E+00  9.383508694E-01  2.644865290E+02  2.644926434E+02  6.607249480E-06  0.00000E+00  9.000E+00
#rwgt            1           9   4.8521473517367658E-003           8     1081906           0
</event>
<event>
      6   9999  3.45752E-01  4.65582E+00 -1.00000E+00  2.34949E-01
      21    -1     0     0   501   502  0.000000000E+00  0.000000000E+00  4.868220360E+01  4.868220360E+01  0.000000000E+00  0.00000E+00  9.000E+00
      21    -1     0     0   512   503  0.000000000E+00  0.000000000E+00 -1.270448029E+03  1.270448029E+03  0.000000000E+00  0.00000E+00  9.000E+00
      25     1     1     2     0     0 -2.468491871E+01  1.895137525E+01 -9.999051345E+02  1.008168513E+03  1.249998952E+02  0.00000E+00  9.000E+00
       5     1     1     2   501     0  7.236695870E+00 -6.613170955E+00  4.335015607E+01  4.469790072E+01  4.750000000E+00  0.00000E+00  9.000E+00
      -5     1     1     2     0   503  1.281242318E+01 -1.276948631E+01 -2.273060569E+02  2.280741633E+02  4.750000000E+00  0.00000E+00  9.000E+00
      21     1     1     2   512   502  4.635799659E+00  4.312820136E-01 -3.790478965E+01  3.818965463E+01  6.743495762E-07  0.00000E+00  9.000E+00
#rwgt            1           9   2.7335201188673447E-004           8     1089941           0
</event>
<event>
      6   9999  3.45752E-01  9.26094E+00 -1.00000E+00  1.90776E-01
      21    -1     0     0   511   502  0.000000000E+00  0.000000000E+00  1.184435864E+01  1.184435864E+01  0.000000000E+00  0.00000E+00  9.000E+00
      21    -1     0     0   502   503  0.000000000E+00  0.000000000E+00 -8.451229519E+02  8.451229519E+02  0.000000000E+00  0.00000E+00  9.000E+00
      25     1     1     2     0     0 -8.790232684E+00  4.270942893E+00 -7.229844047E+02  7.337760691E+02  1.250014439E+02  0.00000E+00  9.000E+00
       5     1     1     2   501     0 -1.590161052E+00  4.363674730E+00  3.575532295E+00  7.544348912E+00  4.750000000E+00  0.00000E+00  9.000E+00
      -5     1     1     2     0   503  4.826096258E+00 -1.224165595E+00 -8.608149190E+01  8.635609727E+01  4.750000000E+00  0.00000E+00  9.000E+00
      21     1     1     2   511   501  5.554297477E+00 -7.410452027E+00 -2.778822899E+01  2.929079531E+01  3.371747881E-07  0.00000E+00  9.000E+00
#rwgt            1           9   9.0189914048323676E-004           8     1096310           0
</event>
<event>
      6   9999  3.45752E-01  4.12524E+00 -1.00000E+00  2.45111E-01
      21    -1     0     0   512   503  0.000000000E+00  0.000000000E+00  2.287235893E+00  2.287235893E+00  0.000000000E+00  0.00000E+00  9.000E+00
      21    -1     0     0   501   502  0.000000000E+00  0.000000000E+00 -2.268538197E+03  2.268538197E+03  0.000000000E+00  0.00000E+00  9.000E+00
      25     1     1     2     0     0  9.915193436E+00 -3.561399252E+00 -1.990484062E+03  1.994433489E+03  1.250085957E+02  0.00000E+00  9.000E+00
       5     1     1     2   501     0 -6.077067830E+00 -7.129916149E-01 -1.696158924E+02  1.697926753E+02  4.750000000E+00  0.00000E+00  9.000E+00
      -5     1     1     2     0   503 -2.761369789E+00  2.921508945E-01 -6.930175179E+01  6.951982319E+01  4.750000000E+00  0.00000E+00  9.000E+00
      21     1     1     2   512   502 -1.076755817E+00  3.982239972E+00 -3.684925493E+01  3.707944481E+01  6.743495762E-07  0.00000E+00  9.000E+00
#rwgt            1           9  0.29920288277411727                8     1098913           0
</event>
<event>
      6   9999 -3.45752E-01  1.16504E+01 -1.00000E+00  1.80466E-01
      21    -1     0     0   501   502  0.000000000E+00  0.000000000E+00  9.795690417E+00  9.795690417E+00  0.000000000E+00  0.00000E+00  9.000E+00
      21    -1     0     0   502   511  0.000000000E+00  0.000000000E+00 -8.276639571E+02  8.276639571E+02  0.000000000E+00  0.00000E+00  9.000E+00
      25     1     1     2     0     0  1.762383821E+01 -5.164119075E+00 -6.070446852E+02  6.200528045E+02  1.249998509E+02  0.00000E+00  9.000E+00
       5     1     1     2   501     0 -5.534826741E-02 -1.765495230E+01 -3.947574647E+01  4.350399365E+01  4.750000000E+00  0.00000E+00  9.000E+00
      -5     1     1     2     0   503 -9.933951486E+00  1.401879310E+01 -1.137795500E+02  1.151675234E+02  4.750000000E+00  0.00000E+00  9.000E+00
      21     1     1     2   503   511 -7.634538455E+00  8.800278276E+00 -5.756828504E+01  5.873532598E+01  6.743495762E-07  0.00000E+00  9.000E+00
#rwgt            1           9  -6.9552705430157319E-002           8     1102504           0
</event>
<event>
      6   9999  3.45752E-01  6.21205E+00 -1.00000E+00  2.11978E-01
      21    -1     0     0   501   502  0.000000000E+00  0.000000000E+00  1.170820827E+01  1.170820827E+01  0.000000000E+00  0.00000E+00  9.000E+00
      21    -1     0     0   512   503  0.000000000E+00  0.000000000E+00 -2.858392019E+03  2.858392019E+03  0.000000000E+00  0.00000E+00  9.000E+00
      25     1     1     2     0     0 -7.424189808E+00  1.472515657E+01 -5.695793284E+02  5.833681403E+02  1.250033076E+02  0.00000E+00  9.000E+00
       5     1     1     2   501     0  1.850634394E-01 -1.491497399E+00  2.963054777E+00  5.796637524E+00  4.750000000E+00  0.00000E+00  9.000E+00
      -5     1     1     2     0   503  1.324498344E+01 -1.482087176E+01 -2.428316225E+02  2.436900639E+02  4.750000000E+00  0.00000E+00  9.000E+00
      21     1     1     2   512   502 -6.005857072E+00  1.587212592E+00 -2.037235915E+03  2.037245386E+03  3.737624730E-05  0.00000E+00  9.000E+00
#rwgt            1           9   2.5686048079320048E-004           8     1104540           0
</event>
<event>
      6   9999  3.45752E-01  1.69364E+01 -1.00000E+00  1.65925E-01
      21    -1     0     0   501   502  0.000000000E+00  0.000000000E+00  3.694422663E+02  3.694422663E+02  0.000000000E+00  0.00000E+00  9.000E+00
      21    -1     0     0   511   503  0.000000000E+00  0.000000000E+00 -1.402062268E+02  1.402062268E+02  0.000000000E+00  0.00000E+00  9.000E+00
      25     1     1     2     0     0 -5.270502654E+01 -2.831584222E+01  2.819781788E+01  1.414366935E+02  1.250184570E+02  0.00000E+00  9.000E+00
       5     1     1     2   501     0  1.558652002E+00  3.160930666E+00  9.329843029E+01  9.348572336E+01  4.750000000E+00  0.00000E+00  9.000E+00
      -5     1     1     2     0   503  5.232180110E+01  4.205050416E+01  1.843594205E+02  1.962569087E+02  4.750000000E+00  0.00000E+00  9.000E+00
      21     1     1     2   511   502 -1.175426557E+00 -1.689559260E+01 -7.661962919E+01  7.846916753E+01  1.348699152E-06  0.00000E+00  9.000E+00
#rwgt            1           9   1.5199818724263896E-004           8     1108490           0
</event>
<event>
      6   9999 -3.45752E-01  2.35881E+01 -1.00000E+00  1.54926E-01
      21    -1     0     0   501   502  0.000000000E+00  0.000000000E+00  1.562438783E+01  1.562438783E+01  0.000000000E+00  0.00000E+00  9.000E+00
      21    -1     0     0   512   503  0.000000000E+00  0.000000000E+00 -1.445485081E+03  1.445485081E+03  0.000000000E+00  0.00000E+00  9.000E+00
      25     1     1     2     0     0  5.520328743E+01 -6.619278146E+00 -1.030221792E+03  1.039266501E+03  1.250068091E+02  0.00000E+00  9.000E+00
       5     1     1     2   501     0  1.572430061E+00 -1.164428725E+00  2.543365116E+00  5.732332568E+00  4.750000000E+00  0.00000E+00  9.000E+00
      -5     1     1     2     0   503 -4.092317375E+01 -9.683240268E+00 -6.174049335E+01  7.485267070E+01  4.750000000E+00  0.00000E+00  9.000E+00
      21     1     1     2   512   502 -1.585254375E+01  1.746694714E+01 -3.404417730E+02  3.412579642E+02  3.814697266E-06  0.00000E+00  9.000E+00
#rwgt            1           9  -4.8377598335016316E-004           8     1110658           0
</event>
<event>
      6   9999  3.45752E-01  3.19679E+00 -1.00000E+00  2.69889E-01
      21    -1     0     0   511   502  0.000000000E+00  0.000000000E+00  4.299137524E+01  4.299137524E+01  0.000000000E+00  0.00000E+00  9.000E+00
      21    -1     0     0   502   503  0.000000000E+00  0.000000000E+00 -4.097391719E+03  4.097391719E+03  0.000000000E+00  0.00000E+00  9.000E+00
      25     1     1     2     0     0  3.644910811E+00  3.676676032E+00 -3.797626781E+03  3.799686770E+03  1.249943376E+02  0.00000E+00  9.000E+00
       5     1     1     2   501     0  1.745726371E-01 -1.227774156E-01 -5.530587645E+01  5.550989118E+01  4.750000000E+00  0.00000E+00  9.000E+00
      -5     1     1     2     0   503 -2.042338053E+00 -8.966051706E-01 -2.432376844E+02  2.432942841E+02  4.750000000E+00  0.00000E+00  9.000E+00
      21     1     1     2   511   501 -1.777145395E+00 -2.657293446E+00  4.176999745E+01  4.189214892E+01  6.307962682E-06  0.00000E+00  9.000E+00
#rwgt            1           9   4.6988352453165813E-005           8     1111944           0
</event>
<event>
      6   9999  3.45752E-01  2.19035E+00 -1.00000E+00  3.18324E-01
      21    -1     0     0   501   502  0.000000000E+00  0.000000000E+00  4.025549369E+00  4.025549369E+00  0.000000000E+00  0.00000E+00  9.000E+00
      21    -1     0     0   502   512  0.000000000E+00  0.000000000E+00 -2.719221167E+03  2.719221167E+03  0.000000000E+00  0.00000E+00  9.000E+00
      25     1     1     2     0     0  1.091786716E+01 -1.777351589E+00 -2.413871798E+03  2.417131452E+03  1.250001573E+02  0.00000E+00  9.000E+00
       5     1     1     2   501     0 -1.037193938E+00 -4.085319258E-01 -7.345120339E-01  4.934032583E+00  4.750000000E+00  0.00000E+00  9.000E+00
      -5     1     1     2     0   503 -8.412930363E+00  3.811722255E+00 -9.263806210E+01  9.321845136E+01  4.750000000E+00  0.00000E+00  9.000E+00
      21     1     1     2   503   512 -1.467742857E+00 -1.625838740E+00 -2.079512455E+02  2.079627807E+02  2.697398305E-06  0.00000E+00  9.000E+00
#rwgt            1           9   3.2200919325791687E-002           8     1116451           0
</event>
<event>
      6   9999  3.45752E-01  2.24328E+01 -1.00000E+00  1.56496E-01
      21    -1     0     0   511   502  0.000000000E+00  0.000000000E+00  7.442890815E+01  7.442890815E+01  0.000000000E+00  0.00000E+00  9.000E+00
      21    -1     0     0   502   503  0.000000000E+00  0.000000000E+00 -1.417400201E+03  1.417400201E+03  0.000000000E+00  0.00000E+00  9.000E+00
      25     1     1     2     0     0 -1.740091063E+01  8.978306063E+01 -9.514475138E+02  9.639715619E+02  1.250000441E+02  0.00000E+00  9.000E+00
       5     1     1     2   501     0 -5.351904400E+00  2.249195822E+00  4.737910307E+00  8.871981550E+00  4.750000000E+00  0.00000E+00  9.000E+00
      -5     1     1     2     0   503  1.063643405E+01 -7.315308713E+01 -4.524557712E+02  4.584793292E+02  4.750000000E+00  0.00000E+00  9.000E+00
      21     1     1     2   511   501  1.211638098E+01 -1.887916932E+01  5.619408226E+01  6.050623607E+01  1.784161275E-06  0.00000E+00  9.000E+00
#rwgt            1           9   2.0445761637834507E-002           8     1123819           0
</event>
<event>
      6   9999  3.45752E-01  9.92531E+00 -1.00000E+00  1.87537E-01
      21    -1     0     0   502   503  0.000000000E+00  0.000000000E+00  9.212675495E+01  9.212675495E+01  0.000000000E+00  0.00000E+00  9.000E+00
      21    -1     0     0   501   512  0.000000000E+00  0.000000000E+00 -5.283113084E+02  5.283113084E+02  0.000000000E+00  0.00000E+00  9.000E+00
      25     1     1     2     0     0 -1.867199461E+01 -5.279829229E+01 -8.244535369E+01  1.598703025E+02  1.249998969E+02  0.00000E+00  9.000E+00
       5     1     1     2   501     0  1.159362301E+02  6.165601362E+01 -3.000477375E+02  3.275574464E+02  4.750000000E+00  0.00000E+00  9.000E+00
      -5     1     1     2     0   503 -1.071585138E+02 -9.641958036E+00 -3.753708378E+01  1.140504695E+02  4.750000000E+00  0.00000E+00  9.000E+00
      21     1     1     2   502   512  9.894278366E+00  7.842367104E-01 -1.615437854E+01  1.895984487E+01  0.000000000E+00  0.00000E+00  9.000E+00
#rwgt            1           9   2.1968447685396995E-002           8     1125655           0
</event>
<event>
      6   9999  3.45752E-01  1.46910E+01 -1.00000E+00  1.71158E-01
      21    -1     0     0   501   502  0.000000000E+00  0.000000000E+00  1.627399736E+01  1.627399736E+01  0.000000000E+00  0.00000E+00  9.000E+00
      21    -1     0     0   511   503  0.000000000E+00  0.000000000E+00 -1.021589955E+03  1.021589955E+03  0.000000000E+00  0.00000E+00  9.000E+00
      25     1     1     2     0     0 -6.253464273E+01  2.131866504E+01 -6.860994063E+02  7.005148497E+02  1.249943692E+02  0.00000E+00  9.000E+00
       5     1     1     2   501     0 -1.273440767E+00  1.948228607E+00  2.046373180E+00  5.671630214E+00  4.750000000E+00  0.00000E+00  9.000E+00
      -5     1     1     2     0   503  6.034345197E+01 -8.990230488E+00 -1.903927271E+02  1.999852732E+02  4.750000000E+00  0.00000E+00  9.000E+00
      21     1     1     2   511   502  3.464631521E+00 -1.427666316E+01 -1.308701978E+02  1.316921996E+02  3.303624740E-06  0.00000E+00  9.000E+00
#rwgt            1           9   1.1209607425669905E-004           8     1129193           0
</event>
<event>
      6   9999 -3.45752E-01  1.55905E+01 -1.00000E+00  1.68931E-01
      21    -1     0     0   501   502  0.000000000E+00  0.000000000E+00  5.969512402E+01  5.969512402E+01  0.000000000E+00  0.00000E+00  9.000E+00
      21    -1     0     0   502   512  0.000000000E+00  0.000000000E+00 -2.194311128E+03  2.194311128E+03  0.000000000E+00  0.00000E+00  9.000E+00
      25     1     1     2     0     0  1.712924696E+02  5.050517203E+01 -9.827105062E+02  1.006593776E+03  1.249768319E+02  0.00000E+00  9.000E+00
       5     1     1     2   501     0 -6.853847744E-01 -9.443767791E-01  2.834703831E+01  2.876592917E+01  4.750000000E+00  0.00000E+00  9.000E+00
      -5     1     1     2     0   503 -1.583643702E+02 -5.921379981E+01 -3.548703188E+02  3.931170989E+02  4.750000000E+00  0.00000E+00  9.000E+00
      21     1     1     2   503   512 -1.224271469E+01  9.653004562E+00 -8.253822171E+02  8.255294476E+02  2.157918644E-05  0.00000E+00  9.000E+00
#rwgt            1           9  -2.6611757558941138E-004           8     1131448           0
</event>
<event>
      6   9999  3.45752E-01  3.52406E+01 -1.00000E+00  1.43453E-01
      21    -1     0     0   501   502  0.000000000E+00  0.000000000E+00  7.236979084E+01  7.236979084E+01  0.000000000E+00  0.00000E+00  9.000E+00
      21    -1     0     0   502   511  0.000000000E+00  0.000000000E+00 -1.884383362E+03  1.884383362E+03  0.000000000E+00  0.00000E+00  9.000E+00
      25     1     1     2     0     0 -1.507036459E+02 -1.579245335E+01 -1.858449288E+02  2.704034990E+02  1.249748943E+02  0.00000E+00  9.000E+00
       5     1     1     2   501     0  1.002412765E+00  2.523588657E-01  2.362915074E+01  2.412400840E+01  4.750000000E+00  0.00000E+00  9.000E+00
      -5     1     1     2     0   503  1.648978209E+02 -1.625560662E+01 -1.264344275E+03  1.275164516E+03  4.750000000E+00  0.00000E+00  9.000E+00
      21     1     1     2   503   511 -1.519658770E+01  3.179570110E+01 -3.854535182E+02  3.870611290E+02  0.000000000E+00  0.00000E+00  9.000E+00
#rwgt            1           9   4.8884679831325540E-005           8     1134539           0
</event>
<event>
      6   9999 -3.45752E-01  2.63867E+01 -1.00000E+00  1.51536E-01
      21    -1     0     0   501   502  0.000000000E+00  0.000000000E+00  2.108540261E+01  2.108540261E+01  0.000000000E+00  0.00000E+00  9.000E+00
      21    -1     0     0   512   503  0.000000000E+00  0.000000000E+00 -1.468474305E+03  1.468474305E+03  0.000000000E+00  0.00000E+00  9.000E+00
      25     1     1     2     0     0  7.593750950E+00  6.672767450E+01 -6.633860138E+02  6.783901477E+02  1.249877656E+02  0.00000E+00  9.000E+00
       5     1     1     2   501     0  4.383040940E+00  4.836010362E+00  1.017220983E+01  1.298593073E+01  4.750000000E+00  0.00000E+00  9.000E+00
      -5     1     1     2     0   503 -8.032245907E+00 -4.547345936E+01 -3.287636698E+02  3.320247966E+02  4.750000000E+00  0.00000E+00  9.000E+00
      21     1     1     2   512   502 -3.944545983E+00 -2.609022551E+01 -4.654114284E+02  4.661588324E+02  5.394796609E-06  0.00000E+00  9.000E+00
#rwgt            1           9  -1.2100209174680112E-004           8     1136499           0
</event>
<event>
      6   9999 -3.45752E-01  2.24361E+00 -1.00000E+00  3.14699E-01
      21    -1     0     0   511   502  0.000000000E+00  0.000000000E+00  3.257358691E+01  3.257358691E+01  0.000000000E+00  0.00000E+00  9.000E+00
      21    -1     0     0   502   503  0.000000000E+00  0.000000000E+00 -1.018274631E+03  1.018274631E+03  0.000000000E+00  0.00000E+00  9.000E+00
      25     1     1     2     0     0 -3.184495416E+00  8.521293214E-01 -9.675810617E+02  9.756269170E+02  1.249956127E+02  0.00000E+00  9.000E+00
       5     1     1     2   501     0  2.842463084E-01  1.218656547E-01 -8.385040578E+00  9.641942371E+00  4.750000000E+00  0.00000E+00  9.000E+00
      -5     1     1     2     0   503  7.084797505E-01 -4.944628717E-01 -3.745689766E+01  3.776675945E+01  4.750000000E+00  0.00000E+00  9.000E+00
      21     1     1     2   511   501  2.191769357E+00 -4.795321044E-01  2.772195608E+01  2.781259881E+01  5.840038640E-07  0.00000E+00  9.000E+00
#rwgt            1           9  -2.6181480940050064E-004           8     1138097           0
</event>
<event>
      6   9999  3.45752E-01  1.28267E+01 -1.00000E+00  1.76481E-01
      21    -1     0     0   502   512  0.000000000E+00  0.000000000E+00  2.269214549E+01  2.269214549E+01  0.000000000E+00  0.00000E+00  9.000E+00
      21    -1     0     0   501   502  0.000000000E+00  0.000000000E+00 -7.587642947E+02  7.587642947E+02  0.000000000E+00  0.00000E+00  9.000E+00
      25     1     1     2     0     0 -1.276419324E+01  9.027355253E+00 -6.189775007E+02  6.316667362E+02  1.250012059E+02  0.00000E+00  9.000E+00
       5     1     1     2   501     0 -6.551565497E-01  1.540590603E-01 -3.008704948E+01  3.046713001E+01  4.750000000E+00  0.00000E+00  9.000E+00
      -5     1     1     2     0   503  2.489774130E+01 -3.456923933E+00 -9.870314779E+01  1.019643160E+02  4.750000000E+00  0.00000E+00  9.000E+00
      21     1     1     2   503   512 -1.147839151E+01 -5.724490380E+00  1.169554875E+01  1.735825804E+01  1.294944345E-06  0.00000E+00  9.000E+00
#rwgt            1           9   4.9438851172150029                8     1144374           0
</event>
<event>
      6   9999  3.45752E-01  3.01473E+01 -1.00000E+00  1.47701E-01
      21    -1     0     0   501   502  0.000000000E+00  0.000000000E+00  1.623689440E+02  1.623689440E+02  0.000000000E+00  0.00000E+00  9.000E+00
      21    -1     0     0   502   511  0.000000000E+00  0.000000000E+00 -1.004620527E+03  1.004620527E+03  0.000000000E+00  0.00000E+00  9.000E+00
      25     1     1     2     0     0  2.409908585E+01 -8.773614093E+01 -2.826875088E+02  3.222038108E+02  1.249986867E+02  0.00000E+00  9.000E+00
       5     1     1     2   501     0  1.525583489E+00  7.289740144E-01  1.056665599E+02  1.057867818E+02  4.750000000E+00  0.00000E+00  9.000E+00
      -5     1     1     2     0   503 -5.612617315E+00  1.095544313E+02 -4.602023597E+01  1.190550273E+02  4.750000000E+00  0.00000E+00  9.000E+00
      21     1     1     2   503   511 -2.001205202E+01 -2.254726442E+01 -6.192103979E+02  6.199438509E+02  0.000000000E+00  0.00000E+00  9.000E+00
#rwgt            1           9   8.4319974438348457E-003           8     1146294           0
</event>
<event>
      6   9999  3.45752E-01  8.82239E+00 -1.00000E+00  1.93114E-01
      21    -1     0     0   502   503  0.000000000E+00  0.000000000E+00  1.690023581E+01  1.690023581E+01  0.000000000E+00  0.00000E+00  9.000E+00
      21    -1     0     0   501   512  0.000000000E+00  0.000000000E+00 -1.084610714E+03  1.084610714E+03  0.000000000E+00  0.00000E+00  9.000E+00
      25     1     1     2     0     0  1.856626616E+01 -1.542412980E+01 -3.319207256E+02  3.554975523E+02  1.249981263E+02  0.00000E+00  9.000E+00
       5     1     1     2   501     0 -2.729844515E+00  4.251047048E+01 -5.557355719E+02  5.573860247E+02  4.750000000E+00  0.00000E+00  9.000E+00
      -5     1     1     2     0   503 -1.073655215E+01 -1.988732555E+01 -2.790211484E+01  3.621974299E+01  4.750000000E+00  0.00000E+00  9.000E+00
      21     1     1     2   502   512 -5.099869499E+00 -7.199015132E+00 -1.521520659E+02  1.524076299E+02  2.697398305E-06  0.00000E+00  9.000E+00
#rwgt            1           9   2.5975559554826361E-002           8     1148339           0
</event>
<event>
      6   9999  3.45752E-01  2.77825E+01 -1.00000E+00  1.50028E-01
      21    -1     0     0   511   502  0.000000000E+00  0.000000000E+00  1.859718146E+01  1.859718146E+01  0.000000000E+00  0.00000E+00  9.000E+00
      21    -1     0     0   502   503  0.000000000E+00  0.000000000E+00 -3.609123150E+03  3.609123150E+03  0.000000000E+00  0.00000E+00  9.000E+00
      25     1     1     2     0     0  7.540876994E+01 -4.314751082E+01 -2.709562454E+03  2.713835331E+03  1.250013029E+02  0.00000E+00  9.000E+00
       5     1     1     2   501     0  9.371352373E+00  3.241554124E+01 -6.582343936E+01  7.412069366E+01  4.750000000E+00  0.00000E+00  9.000E+00
      -5     1     1     2     0   503 -5.891303167E+01  2.086913113E+01 -8.088546621E+02  8.112796637E+02  4.750000000E+00  0.00000E+00  9.000E+00
      21     1     1     2   511   501 -2.586709065E+01 -1.013716155E+01 -6.285413013E+00  2.848464217E+01  1.873521047E-06  0.00000E+00  9.000E+00
#rwgt            1           9   6.0653627626498514E-004           8     1151471           0
</event>
<event>
      6   9999  3.45752E-01  4.98696E+01 -1.00000E+00  1.34848E-01
      21    -1     0     0   501   512  0.000000000E+00  0.000000000E+00  1.785908247E+01  1.785908247E+01  0.000000000E+00  0.00000E+00  9.000E+00
      21    -1     0     0   502   503  0.000000000E+00  0.000000000E+00 -3.059221529E+03  3.059221529E+03  0.000000000E+00  0.00000E+00  9.000E+00
      25     1     1     2     0     0  8.860471320E+00 -2.502138749E+01 -8.364886760E+02  8.461923984E+02  1.249947689E+02  0.00000E+00  9.000E+00
       5     1     1     2   501     0 -2.101974499E+01  7.899907249E+00 -1.100921546E+03  1.101160774E+03  4.750000000E+00  0.00000E+00  9.000E+00
      -5     1     1     2     0   503 -1.065227171E+01 -2.722498918E+01 -1.067609622E+03  1.068020383E+03  4.750000000E+00  0.00000E+00  9.000E+00
      21     1     1     2   502   512  2.281154538E+01  4.434646943E+01 -3.634260235E+01  6.170705550E+01  4.211311753E-06  0.00000E+00  9.000E+00
#rwgt            1           9   6.4685187206988868E-004           8     1153054           0
</event>
<event>
      6   9999  3.45752E-01  4.41149E+00 -1.00000E+00  2.39365E-01
      21    -1     0     0   501   502  0.000000000E+00  0.000000000E+00  1.623131861E+01  1.623131861E+01  0.000000000E+00  0.00000E+00  9.000E+00
      21    -1     0     0   511   503  0.000000000E+00  0.000000000E+00 -8.863492591E+02  8.863492591E+02  0.000000000E+00  0.00000E+00  9.000E+00
      25     1     1     2     0     0  1.538093855E+00  4.498448838E+01 -7.047664553E+02  7.171796080E+02  1.249994552E+02  0.00000E+00  9.000E+00
       5     1     1     2   501     0 -1.261819762E+00 -1.050492112E+00  4.882168497E+00  7.006696228E+00  4.750000000E+00  0.00000E+00  9.000E+00
      -5     1     1     2     0   503 -8.986641969E-01 -4.830135841E+01 -1.490277489E+02  1.567343653E+02  4.750000000E+00  0.00000E+00  9.000E+00
      21     1     1     2   511   502  6.223901044E-01  4.367362141E+00 -2.120590480E+01  2.165990812E+01  4.129530925E-07  0.00000E+00  9.000E+00
#rwgt            1           9   3.3707958864470384E-004           8     1153936           0
</event>
<event>
      6   9999  3.45752E-01  8.05873E+00 -1.00000E+00  1.97640E-01
      21    -1     0     0   512   502  0.000000000E+00  0.000000000E+00  8.619516615E+02  8.619516615E+02  0.000000000E+00  0.00000E+00  9.000E+00
      21    -1     0     0   502   503  0.000000000E+00  0.000000000E+00 -6.693623642E+00  6.693623642E+00  0.000000000E+00  0.00000E+00  9.000E+00
      25     1     1     2     0     0  1.584114490E+01 -3.085855007E+00  7.195460932E+02  7.305019578E+02  1.250042632E+02  0.00000E+00  9.000E+00
       5     1     1     2   501     0  2.275885192E-01  5.157536764E-02  3.737283103E+01  3.767420146E+01  4.750000000E+00  0.00000E+00  9.000E+00
      -5     1     1     2     0   503 -8.908595876E+00  6.732322156E+00  4.924799691E+01  5.072095171E+01  4.750000000E+00  0.00000E+00  9.000E+00
      21     1     1     2   512   501 -7.160137540E+00 -3.698042516E+00  4.909111679E+01  4.974817419E+01  6.743495762E-07  0.00000E+00  9.000E+00
#rwgt            1           9   9.8469619090515680E-003           8     1158706           0
</event>
<event>
      6   9999  3.45752E-01  2.52267E+01 -1.00000E+00  1.52877E-01
      21    -1     0     0   511   502  0.000000000E+00  0.000000000E+00  3.181068085E+03  3.181068085E+03  0.000000000E+00  0.00000E+00  9.000E+00
      21    -1     0     0   502   503  0.000000000E+00  0.000000000E+00 -6.183929873E+00  6.183929873E+00  0.000000000E+00  0.00000E+00  9.000E+00
      25     1     1     2     0     0 -2.974904437E+01  5.336406843E+01  8.859658459E+02  8.968238129E+02  1.249989675E+02  0.00000E+00  9.000E+00
       5     1     1     2   501     0  1.426366696E+01 -3.369925929E+01  1.485191679E+03  1.485650019E+03  4.750000000E+00  0.00000E+00  9.000E+00
      -5     1     1     2     0   503  7.005123732E-01  7.752239605E-01  1.796479505E+01  1.861150319E+01  4.750000000E+00  0.00000E+00  9.000E+00
      21     1     1     2   511   501  1.478486504E+01 -2.044003310E+01  7.857618344E+02  7.861666793E+02  0.000000000E+00  0.00000E+00  9.000E+00
#rwgt            1           9   6.3897953022598672                8     1161244           0
</event>
<event>
      6   9999  3.45752E-01  3.29931E+01 -1.00000E+00  1.45215E-01
      21    -1     0     0   501   512  0.000000000E+00  0.000000000E+00  3.678953510E+02  3.678953510E+02  0.000000000E+00  0.00000E+00  9.000E+00
      21    -1     0     0   502   503  0.000000000E+00  0.000000000E+00 -1.469413932E+03  1.469413932E+03  0.000000000E+00  0.00000E+00  9.000E+00
      25     1     1     2     0     0 -4.470202554E+01 -2.462235071E+01 -3.110927221E+02  3.391287475E+02  1.250003777E+02  0.00000E+00  9.000E+00
       5     1     1     2   501     0  1.823070388E+01 -1.684772528E+01  4.707775723E+01  5.343296863E+01  4.750000000E+00  0.00000E+00  9.000E+00
      -5     1     1     2     0   503  5.420897671E+01  2.360481238E+01 -1.139455592E+03  1.140998426E+03  4.750000000E+00  0.00000E+00  9.000E+00
      21     1     1     2   502   512 -2.773765505E+01  1.786526361E+01  3.019519754E+02  3.037491409E+02  7.629394531E-06  0.00000E+00  9.000E+00
#rwgt            1           9   9.1159902918770078E-005           8     1162633           0
</event>
<event>
      6   9999  3.45752E-01  1.39532E+01 -1.00000E+00  1.73140E-01
      21    -1     0     0   501   511  0.000000000E+00  0.000000000E+00  2.534439907E+01  2.534439907E+01  0.000000000E+00  0.00000E+00  9.000E+00
      21    -1     0     0   502   503  0.000000000E+00  0.000000000E+00 -1.034341428E+03  1.034341428E+03  0.000000000E+00  0.00000E+00  9.000E+00
      25     1     1     2     0     0 -6.655034065E+01 -9.966179912E+00 -8.926475900E+02  9.038669441E+02  1.250098401E+02  0.00000E+00  9.000E+00
       5     1     1     2   501     0 -7.240308620E-01 -9.936246290E-01  5.849684786E+00  7.634973653E+00  4.750000000E+00  0.00000E+00  9.000E+00
      -5     1     1     2     0   503  6.653353574E+01 -2.973702615E+00 -1.136729778E+02  1.318319486E+02  4.750000000E+00  0.00000E+00  9.000E+00
      21     1     1     2   502   511  7.408357807E-01  1.393350716E+01 -8.526146166E+00  1.635196098E+01  2.665600750E-07  0.00000E+00  9.000E+00
#rwgt            1           9   1.4096520168299402E-003           8     1164676           0
</event>
<event>
      6   9999  3.45752E-01  6.24043E+00 -1.00000E+00  2.11708E-01
      21    -1     0     0   501   512  0.000000000E+00  0.000000000E+00  3.283124878E+01  3.283124878E+01  0.000000000E+00  0.00000E+00  9.000E+00
      21    -1     0     0   502   503  0.000000000E+00  0.000000000E+00 -1.147562433E+03  1.147562433E+03  0.000000000E+00  0.00000E+00  9.000E+00
      25     1     1     2     0     0 -2.922994581E+01  4.817816627E+00 -8.304473599E+02  8.403247229E+02  1.250008852E+02  0.00000E+00  9.000E+00
       5     1     1     2   501     0 -2.081708862E+00  4.967467838E+00  2.467945936E+01  2.570306330E+01  4.750000000E+00  0.00000E+00  9.000E+00
      -5     1     1     2     0   503  3.175130513E+01 -1.601020922E+01 -3.047081777E+02  3.068128228E+02  4.750000000E+00  0.00000E+00  9.000E+00
      21     1     1     2   502   512 -4.396504585E-01  6.224924755E+00 -4.255105904E+00  7.553072685E+00  2.308477966E-07  0.00000E+00  9.000E+00
#rwgt            1           9   2.5257951812261937E-005           8     1167021           0
</event>
<event>
      6   9999 -3.45752E-01  2.41971E+01 -1.00000E+00  1.54142E-01
      21    -1     0     0   501   502  0.000000000E+00  0.000000000E+00  2.516006963E+01  2.516006963E+01  0.000000000E+00  0.00000E+00  9.000E+00
      21    -1     0     0   511   503  0.000000000E+00  0.000000000E+00 -1.862748978E+03  1.862748978E+03  0.000000000E+00  0.00000E+00  9.000E+00
      25     1     1     2     0     0  5.650173247E+01 -1.589552781E+02 -8.592230563E+02  8.845050331E+02  1.250026675E+02  0.00000E+00  9.000E+00
       5     1     1     2   501     0 -4.663140608E-01  4.886995455E-01  4.885025214E-01  4.822593780E+00  4.750000000E+00  0.00000E+00  9.000E+00
      -5     1     1     2     0   503 -7.974789952E+01  1.536480913E+02 -8.704061754E+02  8.874665831E+02  4.750000000E+00  0.00000E+00  9.000E+00
      21     1     1     2   511   502  2.371248112E+01  4.818487304E+00 -1.084481797E+02  1.111148381E+02  1.907348633E-06  0.00000E+00  9.000E+00
#rwgt            1           9  -2.7906407096922359E-004           8     1171859           0
</event>
<event>
      6   9999  3.45752E-01  5.37172E+00 -1.00000E+00  2.20975E-01
      -2    -1     0     0     0   502  0.000000000E+00  0.000000000E+00  2.634171147E+02  2.634171147E+02  0.000000000E+00  0.00000E+00  9.000E+00
      21    -1     0     0   502   503  0.000000000E+00  0.000000000E+00 -1.187968013E+03  1.187968013E+03  0.000000000E+00  0.00000E+00  9.000E+00
      25     1     1     2     0     0  5.017333747E+01  4.683062762E+01 -1.097104661E+03  1.106333792E+03  1.250014036E+02  0.00000E+00  9.000E+00
       5     1     1     2   501     0 -2.962125111E+01 -3.237687117E+01  9.548760276E+00  4.515995601E+01  4.750000000E+00  0.00000E+00  9.000E+00
      -5     1     1     2     0   503 -2.356616166E+01 -1.890019018E+01 -6.499420763E+01  7.182889871E+01  4.750000000E+00  0.00000E+00  9.000E+00
      -2     1     1     2     0   501  3.014075294E+00  4.446433732E+00  2.279992100E+02  2.280624809E+02  5.394796609E-06  0.00000E+00  9.000E+00
#rwgt            1           9  0.16523718767264753                8     1173914           0
</event>
<event>
      6   9999  3.45752E-01  4.92283E+01 -1.00000E+00  1.35150E-01
      21    -1     0     0   501   502  0.000000000E+00  0.000000000E+00  3.864516452E+01  3.864516452E+01  0.000000000E+00  0.00000E+00  9.000E+00
      -3    -1     0     0     0   503  0.000000000E+00  0.000000000E+00 -1.246412764E+03  1.246412764E+03  0.000000000E+00  0.00000E+00  9.000E+00
      25     1     1     2     0     0 -4.909838860E+00 -5.972789189E+01 -2.153335559E+02  2.560924227E+02  1.249930442E+02  0.00000E+00  9.000E+00
       5     1     1     2   501     0 -4.981564253E+00 -5.290891195E+00  1.328617731E+01  1.587118519E+01  4.750000000E+00  0.00000E+00  9.000E+00
      -5     1     1     2     0   503 -2.540379310E+01  3.070151230E+01 -1.314551785E+02  1.374443961E+02  4.750000000E+00  0.00000E+00  9.000E+00
      -3     1     1     2     0   502  3.529519621E+01  3.431727079E+01 -8.742650428E+02  8.756499250E+02  1.078959322E-05  0.00000E+00  9.000E+00
#rwgt            1           9   7.0551777101962527E-003           8     1179727           0
</event>
<event>
      6   9999  3.45752E-01  1.00701E+01 -1.00000E+00  1.86875E-01
      21    -1     0     0   501   502  0.000000000E+00  0.000000000E+00  1.249423171E+03  1.249423171E+03  0.000000000E+00  0.00000E+00  9.000E+00
      21    -1     0     0   502   511  0.000000000E+00  0.000000000E+00 -5.220085924E+01  5.220085924E+01  0.000000000E+00  0.00000E+00  9.000E+00
      25     1     1     2     0     0 -1.978513401E+01  3.781321114E+01  7.793708824E+02  7.904835590E+02  1.249959770E+02  0.00000E+00  9.000E+00
       5     1     1     2   501     0 -3.423419147E+00 -2.319598897E+00  4.150392213E+02  4.150870005E+02  4.750000000E+00  0.00000E+00  9.000E+00
      -5     1     1     2     0   503  1.500105592E+01 -4.132825966E+01  3.870910312E+01  5.877085918E+01  4.750000000E+00  0.00000E+00  9.000E+00
      21     1     1     2   503   511  8.207497238E+00  5.834647412E+00 -3.589689453E+01  3.728261201E+01  6.743495762E-07  0.00000E+00  9.000E+00
#rwgt            1           9   1.1723273103775745E-003           8     1180573           0
</event>
<event>
      6   9999  3.45752E-01  3.20917E+01 -1.00000E+00  1.45969E-01
      21    -1     0     0   512   503  0.000000000E+00  0.000000000E+00  2.319505178E+02  2.319505178E+02  0.000000000E+00  0.00000E+00  9.000E+00
      21    -1     0     0   501   502  0.000000000E+00  0.000000000E+00 -2.734546614E+02  2.734546614E+02  0.000000000E+00  0.00000E+00  9.000E+00
      25     1     1     2     0     0  1.540944794E+01 -3.975100082E+00 -2.345954735E+02  2.662813571E+02  1.249698862E+02  0.00000E+00  9.000E+00
       5     1     1     2   501     0  1.963901304E+00  4.789185994E-01 -1.039594811E+00  5.265883471E+00  4.750000000E+00  0.00000E+00  9.000E+00
      -5     1     1     2     0   503  1.416999661E+01  9.403570596E+00 -1.445396676E+01  2.281875542E+01  4.750000000E+00  0.00000E+00  9.000E+00
      21     1     1     2   512   502 -3.154334586E+01 -5.907389114E+00  2.085848914E+02  2.110391832E+02  2.697398305E-06  0.00000E+00  9.000E+00
#rwgt            1           9   4.4146001333683973E-002           8     1183409           0
</event>
<event>
      6   9999  3.45752E-01  2.30227E+00 -1.00000E+00  3.10902E-01
      21    -1     0     0   501   511  0.000000000E+00  0.000000000E+00  1.626766841E+01  1.626766841E+01  0.000000000E+00  0.00000E+00  9.000E+00
      21    -1     0     0   502   503  0.000000000E+00  0.000000000E+00 -7.657315724E+02  7.657315724E+02  0.000000000E+00  0.00000E+00  9.000E+00
      25     1     1     2     0     0  6.618747764E+00  5.176962412E+00 -5.974023056E+02  6.103972728E+02  1.249988289E+02  0.00000E+00  9.000E+00
       5     1     1     2   501     0 -6.460007337E-01  2.335160485E-01  4.349174732E-01  4.819076665E+00  4.750000000E+00  0.00000E+00  9.000E+00
      -5     1     1     2     0   503 -4.230362149E+00 -3.905639719E+00 -1.593645501E+02  1.595392501E+02  4.750000000E+00  0.00000E+00  9.000E+00
      21     1     1     2   502   511 -1.742384881E+00 -1.504838742E+00  6.868034205E+00  7.243641250E+00  1.460009660E-07  0.00000E+00  9.000E+00
#rwgt            1           9   2.2049728211491863E-003           8     1184169           0
</event>
<event>
      6   9999  3.45752E-01  5.15100E+00 -1.00000E+00  2.23724E-01
      21    -1     0     0   512   502  0.000000000E+00  0.000000000E+00  3.739570075E+00  3.739570075E+00  0.000000000E+00  0.00000E+00  9.000E+00
      21    -1     0     0   502   503  0.000000000E+00  0.000000000E+00 -1.740358891E+03  1.740358891E+03  0.000000000E+00  0.00000E+00  9.000E+00
      25     1     1     2     0     0  1.551733522E+00  5.077753873E+00 -1.618810833E+03  1.623638544E+03  1.250016642E+02  0.00000E+00  9.000E+00
       5     1     1     2   501     0  1.764051807E-01 -8.603105917E-01 -6.478616372E+00  8.081226590E+00  4.750000000E+00  0.00000E+00  9.000E+00
      -5     1     1     2     0   503  3.407625477E+00 -4.613367255E+00 -9.412870831E+01  9.442283250E+01  4.750000000E+00  0.00000E+00  9.000E+00
      21     1     1     2   512   501 -5.135764180E+00  3.959239730E-01 -1.720116261E+01  1.795585767E+01  7.152557373E-07  0.00000E+00  9.000E+00
#rwgt            1           9   5.9223670535842453E-005           8     1190830           0
</event>
<event>
      6   9999  3.45752E-01  4.70706E+00 -1.00000E+00  2.34073E-01
      21    -1     0     0   502   503  0.000000000E+00  0.000000000E+00  8.927193514E+00  8.927193514E+00  0.000000000E+00  0.00000E+00  9.000E+00
      21    -1     0     0   501   511  0.000000000E+00  0.000000000E+00 -8.955742862E+02  8.955742862E+02  0.000000000E+00  0.00000E+00  9.000E+00
      25     1     1     2     0     0 -3.798755253E+00 -4.116611178E+00 -4.713898850E+02  4.877145297E+02  1.250026472E+02  0.00000E+00  9.000E+00
       5     1     1     2   501     0  1.469818881E+00 -1.460250649E+00 -2.421921055E+02  2.422475411E+02  4.750000000E+00  0.00000E+00  9.000E+00
      -5     1     1     2     0   503  7.034001836E+00  5.713723131E+00 -3.687977217E+01  3.827275675E+01  4.750000000E+00  0.00000E+00  9.000E+00
      21     1     1     2   502   511 -4.705065464E+00 -1.368613033E-01 -1.361853300E+02  1.362666521E+02  1.907348633E-06  0.00000E+00  9.000E+00
#rwgt            1           9   5.7506008752115055E-004           8     1194946           0
</event>
<event>
      6   9999 -3.45752E-01  1.16908E+01 -1.00000E+00  1.80320E-01
      21    -1     0     0   501   502  0.000000000E+00  0.000000000E+00  1.571742600E+02  1.571742600E+02  0.000000000E+00  0.00000E+00  9.000E+00
      21    -1     0     0   512   503  0.000000000E+00  0.000000000E+00 -1.841671247E+02  1.841671247E+02  0.000000000E+00  0.00000E+00  9.000E+00
      25     1     1     2     0     0 -5.245499027E+01 -5.220601917E+00 -1.294064063E+02  1.874853578E+02  1.250038428E+02  0.00000E+00  9.000E+00
       5     1     1     2   501     0 -4.547375305E+00  1.361093501E+00  7.258566721E+01  7.289562937E+01  4.750000000E+00  0.00000E+00  9.000E+00
      -5     1     1     2     0   503  4.558297884E+01  6.364055897E+00  4.312792702E+01  6.325258695E+01  4.750000000E+00  0.00000E+00  9.000E+00
      21     1     1     2   512   502  1.141938673E+01 -2.504547481E+00 -1.330005267E+01  1.770781049E+01  3.371747881E-07  0.00000E+00  9.000E+00
#rwgt            1           9  -3.8423655002914403                8     1199225           0
</event>
<event>
      6   9999  3.45752E-01  3.56720E+00 -1.00000E+00  2.58614E-01
      21    -1     0     0   501   502  0.000000000E+00  0.000000000E+00  3.496057250E+01  3.496057250E+01  0.000000000E+00  0.00000E+00  9.000E+00
       2    -1     0     0   502     0  0.000000000E+00  0.000000000E+00 -2.391800832E+03  2.391800832E+03  0.000000000E+00  0.00000E+00  9.000E+00
      25     1     1     2     0     0 -6.065120911E+00 -6.270252678E+01 -4.453599165E+02  4.668394115E+02  1.250007536E+02  0.00000E+00  9.000E+00
       5     1     1     2   501     0 -3.687420979E-01 -5.636662091E+00  2.203906844E+01  2.324200869E+01  4.750000000E+00  0.00000E+00  9.000E+00
      -5     1     1     2     0   503  2.976923100E+00  6.745914587E+01 -7.245254213E+02  7.276807315E+02  4.750000000E+00  0.00000E+00  9.000E+00
       2     1     1     2   503     0  3.456939909E+00  8.800430023E-01 -1.208993991E+03  1.208999253E+03  0.000000000E+00  0.00000E+00  9.000E+00
#rwgt            1           9   3.9137206384386378E-003           8     1202004           0
</event>
<event>
      6   9999  3.45752E-01  5.41505E+00 -1.00000E+00  2.20457E-01
      21    -1     0     0   501   502  0.000000000E+00  0.000000000E+00  3.632407355E+01  3.632407355E+01  0.000000000E+00  0.00000E+00  9.000E+00
      21    -1     0     0   511   503  0.000000000E+00  0.000000000E+00 -1.645280052E+02  1.645280052E+02  0.000000000E+00  0.00000E+00  9.000E+00
      25     1     1     2     0     0  4.875719097E+00  2.037493240E+00 -1.240259044E+02  1.761709975E+02  1.250034856E+02  0.00000E+00  9.000E+00
       5     1     1     2   501     0  2.835340235E-01 -6.422375856E-01  7.230816313E+00  8.679865506E+00  4.750000000E+00  0.00000E+00  9.000E+00
      -5     1     1     2     0   503  1.391996190E-01 -2.775810022E-01 -2.037505768E+00  5.177871908E+00  4.750000000E+00  0.00000E+00  9.000E+00
      21     1     1     2   511   502 -5.298452739E+00 -1.117674652E+00 -9.371337865E+00  1.082334382E+01  0.000000000E+00  0.00000E+00  9.000E+00
#rwgt            1           9   6.2133072756690036E-003           8     1209123           0
</event>
<event>
      6   9999  3.45752E-01  2.93904E+00 -1.00000E+00  2.79264E-01
      21    -1     0     0   501   502  0.000000000E+00  0.000000000E+00  5.164220734E+00  5.164220734E+00  0.000000000E+00  0.00000E+00  9.000E+00
      21    -1     0     0   502   512  0.000000000E+00  0.000000000E+00 -2.534765173E+03  2.534765173E+03  0.000000000E+00  0.00000E+00  9.000E+00
      25     1     1     2     0     0 -2.357557640E+01 -1.485934881E+01 -2.162302289E+03  2.166091538E+03  1.249990121E+02  0.00000E+00  9.000E+00
       5     1     1     2   501     0 -2.321464996E+00 -4.082496452E-01 -6.579173267E-02  5.303083636E+00  4.750000000E+00  0.00000E+00  9.000E+00
      -5     1     1     2     0   503  2.390583577E+01  1.310586696E+01 -3.124448930E+02  3.136680194E+02  4.750000000E+00  0.00000E+00  9.000E+00
      21     1     1     2   503   512  1.991205628E+00  2.161731498E+00 -5.478797817E+01  5.486675255E+01  6.743495762E-07  0.00000E+00  9.000E+00
#rwgt            1           9   2.0687803167712375E-004           8     1212352           0
</event>
<event>
      6   9999  3.45752E-01  1.48762E+01 -1.00000E+00  1.70684E-01
      21    -1     0     0   501   502  0.000000000E+00  0.000000000E+00  8.701097227E+01  8.701097227E+01  0.000000000E+00  0.00000E+00  9.000E+00
      21    -1     0     0   511   503  0.000000000E+00  0.000000000E+00 -1.565073795E+03  1.565073795E+03  0.000000000E+00  0.00000E+00  9.000E+00
      25     1     1     2     0     0  1.917501223E+01  5.678511824E+01 -1.330845372E+03  1.338045818E+03  1.249999083E+02  0.00000E+00  9.000E+00
       5     1     1     2   501     0 -3.697960473E+00 -9.802084130E+00  8.029637321E+01  8.111612550E+01  4.750000000E+00  0.00000E+00  9.000E+00
      -5     1     1     2     0   503 -9.431074746E+00 -3.339087604E+01 -1.615674732E+02  1.653194080E+02  4.750000000E+00  0.00000E+00  9.000E+00
      21     1     1     2   511   502 -6.045977011E+00 -1.359215806E+01 -6.594635104E+01  6.760341570E+01  1.348699152E-06  0.00000E+00  9.000E+00
#rwgt            1           9   1.4850591393614931E-004           8     1219252           0
</event>
<event>
      6   9999  3.45752E-01  5.42486E+00 -1.00000E+00  2.20341E-01
      21    -1     0     0   501   502  0.000000000E+00  0.000000000E+00  3.357387056E+02  3.357387056E+02  0.000000000E+00  0.00000E+00  9.000E+00
      21    -1     0     0   512   503  0.000000000E+00  0.000000000E+00 -7.847737633E+01  7.847737633E+01  0.000000000E+00  0.00000E+00  9.000E+00
      25     1     1     2     0     0  3.422555905E+00 -1.184943942E+00  2.876866879E+02  3.136895065E+02  1.249974323E+02  0.00000E+00  9.000E+00
       5     1     1     2   501     0  1.896913044E-01  8.634554696E-02  1.635493765E+01  1.703202642E+01  4.750000000E+00  0.00000E+00  9.000E+00
      -5     1     1     2     0   503  1.812563928E+00  1.075552677E+00  1.787347235E+01  1.861358954E+01  4.750000000E+00  0.00000E+00  9.000E+00
      21     1     1     2   512   502 -5.424811138E+00  2.304571818E-02 -6.465376864E+01  6.488095950E+01  1.907348633E-06  0.00000E+00  9.000E+00
#rwgt            1           9   4.3340721837077302E-005           8     1222671           0
</event>
<event>
      6   9999  3.45752E-01  8.87556E+00 -1.00000E+00  1.92821E-01
      21    -1     0     0   501   502  0.000000000E+00  0.000000000E+00  3.853619966E+02  3.853619966E+02  0.000000000E+00  0.00000E+00  9.000E+00
      21    -1     0     0   511   503  0.000000000E+00  0.000000000E+00 -3.305398657E+01  3.305398657E+01  0.000000000E+00  0.00000E+00  9.000E+00
      25     1     1     2     0     0  1.130749727E+00  7.893750997E+00  2.059805971E+02  2.410721236E+02  1.249966900E+02  0.00000E+00  9.000E+00
       5     1     1     2   501     0 -1.968349037E+00  1.980981095E+00  1.521372065E+02  1.522369560E+02  4.750000000E+00  0.00000E+00  9.000E+00
      -5     1     1     2     0   503 -8.147248382E-01 -1.154329761E+00  7.571838756E+00  9.049392018E+00  4.750000000E+00  0.00000E+00  9.000E+00
      21     1     1     2   511   502  1.652324147E+00 -8.720402331E+00 -1.338163230E+01  1.605751148E+01  7.152557373E-07  0.00000E+00  9.000E+00
#rwgt            1           9  0.40616457092288516                8     1226174           0
</event>
<event>
      6   9999  3.45752E-01  3.24569E+00 -1.00000E+00  2.68266E-01
      21    -1     0     0   501   512  0.000000000E+00  0.000000000E+00  2.783872107E+01  2.783872107E+01  0.000000000E+00  0.00000E+00  9.000E+00
      21    -1     0     0   502   503  0.000000000E+00  0.000000000E+00 -9.330906164E+02  9.330906164E+02  0.000000000E+00  0.00000E+00  9.000E+00
      25     1     1     2     0     0 -1.583597513E+01  1.094817916E+01 -3.816073088E+02  4.020170789E+02  1.249918112E+02  0.00000E+00  9.000E+00
       5     1     1     2   501     0 -1.620323982E+00  2.142593726E+00  5.225717307E+00  7.555579332E+00  4.750000000E+00  0.00000E+00  9.000E+00
      -5     1     1     2     0   503  1.653933789E+01 -9.977309214E+00 -5.396921522E+02  5.400585876E+02  4.750000000E+00  0.00000E+00  9.000E+00
      21     1     1     2   502   512  9.169612184E-01 -3.113463673E+00  1.082184834E+01  1.129809167E+01  5.591411304E-07  0.00000E+00  9.000E+00
#rwgt            1           9  0.41289015902858711                8     1228579           0
</event>
<event>
      6   9999  3.45752E-01  6.35994E+00 -1.00000E+00  2.10593E-01
      21    -1     0     0   501   502  0.000000000E+00  0.000000000E+00  1.948073513E+02  1.948073513E+02  0.000000000E+00  0.00000E+00  9.000E+00
      21    -1     0     0   502   511  0.000000000E+00  0.000000000E+00 -1.780245654E+02  1.780245654E+02  0.000000000E+00  0.00000E+00  9.000E+00
      25     1     1     2     0     0 -1.546521310E+00  9.360781647E+00  1.139564883E+02  1.694356983E+02  1.250294312E+02  0.00000E+00  9.000E+00
       5     1     1     2   501     0  1.644997615E-01 -1.233219872E+00  3.728994187E+01  3.761183532E+01  4.750000000E+00  0.00000E+00  9.000E+00
      -5     1     1     2     0   503 -1.017994117E+00 -1.401728160E+01  1.206246969E+01  1.912030780E+01  4.750000000E+00  0.00000E+00  9.000E+00
      21     1     1     2   503   511  2.400015666E+00  5.889719824E+00 -1.465261140E+02  1.466640753E+02  2.697398305E-06  0.00000E+00  9.000E+00
#rwgt            1           9  0.12471787257279160                8     1234473           0
</event>
<event>
      6   9999 -3.45752E-01  6.54657E+00 -1.00000E+00  2.08916E-01
      21    -1     0     0   501   502  0.000000000E+00  0.000000000E+00  6.855127517E+01  6.855127517E+01  0.000000000E+00  0.00000E+00  9.000E+00
      21    -1     0     0   502   512  0.000000000E+00  0.000000000E+00 -5.655906994E+02  5.655906994E+02  0.000000000E+00  0.00000E+00  9.000E+00
      25     1     1     2     0     0 -1.692299366E+01  5.302998935E+00 -4.791234326E+02  4.954529963E+02  1.248995533E+02  0.00000E+00  9.000E+00
       5     1     1     2   501     0  2.882028749E+00 -5.496337182E+00  5.865197000E+01  5.917036334E+01  4.750000000E+00  0.00000E+00  9.000E+00
      -5     1     1     2     0   503  8.139718119E+00 -2.640889546E+00 -1.719114533E+01  1.978199399E+01  4.750000000E+00  0.00000E+00  9.000E+00
      21     1     1     2   503   512  5.901246789E+00  2.834227793E+00 -5.937681628E+01  5.973662087E+01  9.536743164E-07  0.00000E+00  9.000E+00
#rwgt            1           9  -1.1027887459721413                8     1238073           0
</event>
<event>
      6   9999  3.45752E-01  3.72066E+01 -1.00000E+00  1.42034E-01
      21    -1     0     0   501   502  0.000000000E+00  0.000000000E+00  1.904339920E+01  1.904339920E+01  0.000000000E+00  0.00000E+00  9.000E+00
      21    -1     0     0   511   503  0.000000000E+00  0.000000000E+00 -9.995967715E+02  9.995967715E+02  0.000000000E+00  0.00000E+00  9.000E+00
      25     1     1     2     0     0  8.786006587E+01 -2.416506985E+00 -5.841783921E+02  6.038337260E+02  1.250021768E+02  0.00000E+00  9.000E+00
       5     1     1     2   501     0  2.606010651E+00  2.620495153E+00  7.451244941E-01  6.064321633E+00  4.750000000E+00  0.00000E+00  9.000E+00
      -5     1     1     2     0   503 -5.710249977E+01  1.626416302E+01 -2.468128423E+02  2.538983263E+02  4.750000000E+00  0.00000E+00  9.000E+00
      21     1     1     2   511   502 -3.336357676E+01 -1.646815119E+01 -1.503072625E+02  1.548437968E+02  3.814697266E-06  0.00000E+00  9.000E+00
#rwgt            1           9   9.7974694949891014E-004           8     1242180           0
</event>
<event>
      6   9999  3.45752E-01  2.60557E+01 -1.00000E+00  1.51910E-01
      21    -1     0     0   501   502  0.000000000E+00  0.000000000E+00  4.801392704E+01  4.801392704E+01  0.000000000E+00  0.00000E+00  9.000E+00
      21    -1     0     0   502   512  0.000000000E+00  0.000000000E+00 -1.888485368E+03  1.888485368E+03  0.000000000E+00  0.00000E+00  9.000E+00
      25     1     1     2     0     0  2.333955308E+01 -1.479797326E+02 -3.867382690E+02  4.331677064E+02  1.250001488E+02  0.00000E+00  9.000E+00
       5     1     1     2   501     0  1.073540536E+01  4.855858461E-01  1.853188928E+01  2.194261019E+01  4.750000000E+00  0.00000E+00  9.000E+00
      -5     1     1     2     0   503 -1.009351909E+01  1.373064618E+02 -1.271229114E+03  1.278671563E+03  4.750000000E+00  0.00000E+00  9.000E+00
      21     1     1     2   503   512 -2.398143935E+01  1.018768497E+01 -2.010359471E+02  2.027174151E+02  3.814697266E-06  0.00000E+00  9.000E+00
#rwgt            1           9   2.3315788593517572E-002           8     1243180           0
</event>
<event>
      6   9999  3.45752E-01  1.31227E+01 -1.00000E+00  1.75562E-01
      21    -1     0     0   501   502  0.000000000E+00  0.000000000E+00  1.330503391E+02  1.330503391E+02  0.000000000E+00  0.00000E+00  9.000E+00
      21    -1     0     0   502   511  0.000000000E+00  0.000000000E+00 -1.152336972E+02  1.152336972E+02  0.000000000E+00  0.00000E+00  9.000E+00
      25     1     1     2     0     0 -1.597303211E-01  1.027033974E+01 -4.634167751E+01  1.337118420E+02  1.250032009E+02  0.00000E+00  9.000E+00
       5     1     1     2   501     0 -6.786145548E-01  5.345818009E-01  8.408739457E+01  8.422587916E+01  4.750000000E+00  0.00000E+00  9.000E+00
      -5     1     1     2     0   503 -1.315640048E+00  2.139832355E+00  1.170035921E+00  5.499206788E+00  4.750000000E+00  0.00000E+00  9.000E+00
      21     1     1     2   503   511  2.153984924E+00 -1.294475389E+01 -2.109911107E+01  2.484710833E+01  2.384185791E-07  0.00000E+00  9.000E+00
#rwgt            1           9   2.9646648760888106E-004           8     1245598           0
</event>
<event>
      6   9999  3.45752E-01  8.94980E+01 -1.00000E+00  1.22519E-01
      21    -1     0     0   512   503  0.000000000E+00  0.000000000E+00  3.210582434E+02  3.210582434E+02  0.000000000E+00  0.00000E+00  9.000E+00
      21    -1     0     0   501   502  0.000000000E+00  0.000000000E+00 -2.895675455E+02  2.895675455E+02  0.000000000E+00  0.00000E+00  9.000E+00
      25     1     1     2     0     0 -6.115551621E+01  7.543132868E+01  2.555259424E+01  1.603390212E+02  1.250031365E+02  0.00000E+00  9.000E+00
       5     1     1     2   501     0  9.380844284E+01 -1.977724329E+02 -1.254634939E+02  2.523442291E+02  4.750000000E+00  0.00000E+00  9.000E+00
      -5     1     1     2     0   503  5.039033436E+00  4.116715142E+01  3.573846410E+00  4.189822302E+01  4.750000000E+00  0.00000E+00  9.000E+00
      21     1     1     2   512   502 -3.769196006E+01  8.117395275E+01  1.278277512E+02  1.560443156E+02  1.907348633E-06  0.00000E+00  9.000E+00
#rwgt            1           9   4.0799918993006505                8     1247858           0
</event>
<event>
      6   9999  3.45752E-01  7.29713E+00 -1.00000E+00  2.02864E-01
      21    -1     0     0   502   503  0.000000000E+00  0.000000000E+00  2.789841011E+03  2.789841011E+03  0.000000000E+00  0.00000E+00  9.000E+00
      21    -1     0     0   511   502  0.000000000E+00  0.000000000E+00 -1.321692648E+01  1.321692648E+01  0.000000000E+00  0.00000E+00  9.000E+00
      25     1     1     2     0     0 -5.356577864E+01  4.495791491E+01  1.756600688E+03  1.762430612E+03  1.250007166E+02  0.00000E+00  9.000E+00
       5     1     1     2   501     0 -1.059789423E+01  9.804823495E+00  3.754512291E+01  4.050492168E+01  4.750000000E+00  0.00000E+00  9.000E+00
      -5     1     1     2     0   503  6.966000780E+01 -4.996290260E+01  9.875249315E+02  9.912501506E+02  4.750000000E+00  0.00000E+00  9.000E+00
      21     1     1     2   511   501 -5.496334922E+00 -4.799835797E+00 -5.046657699E+00  8.872253106E+00  1.028935701E-06  0.00000E+00  9.000E+00
#rwgt            1           9   531.09598690097641                8     1248823           0
</event>
<event>
      6   9999  3.45752E-01  4.64264E+00 -1.00000E+00  2.35177E-01
      21    -1     0     0   501   502  0.000000000E+00  0.000000000E+00  3.078212315E+01  3.078212315E+01  0.000000000E+00  0.00000E+00  9.000E+00
      21    -1     0     0   502   512  0.000000000E+00  0.000000000E+00 -1.181641454E+03  1.181641454E+03  0.000000000E+00  0.00000E+00  9.000E+00
      25     1     1     2     0     0 -7.327310077E+01  3.385242431E+01 -3.291723125E+02  3.612417685E+02  1.250050804E+02  0.00000E+00  9.000E+00
       5     1     1     2   501     0 -1.130634009E+00 -3.811916998E+00  1.206235700E+01  1.355994104E+01  4.750000000E+00  0.00000E+00  9.000E+00
      -5     1     1     2     0   503  6.989047654E+01 -2.895211022E+01 -7.885551361E+02  7.921897933E+02  4.750000000E+00  0.00000E+00  9.000E+00
      21     1     1     2   503   512  4.513258247E+00 -1.088397093E+00 -4.519423893E+01  4.543207392E+01  0.000000000E+00  0.00000E+00  9.000E+00
#rwgt            1           9   9.7716193318390075E-005           8     1252330           0
</event>
<event>
      6   9999 -3.45752E-01  4.37879E+00 -1.00000E+00  2.39988E-01
      21    -1     0     0   501   502  0.000000000E+00  0.000000000E+00  8.389805661E+00  8.389805661E+00  0.000000000E+00  0.00000E+00  9.000E+00
      21    -1     0     0   511   503  0.000000000E+00  0.000000000E+00 -7.674392019E+02  7.674392019E+02  0.000000000E+00  0.00000E+00  9.000E+00
      25     1     1     2     0     0 -4.941433340E+00  1.442777350E+01 -6.623868413E+02  6.742496956E+02  1.249949842E+02  0.00000E+00  9.000E+00
       5     1     1     2   501     0 -1.093461583E+00 -1.381857426E+01 -3.019696693E+01  3.356438536E+01  4.750000000E+00  0.00000E+00  9.000E+00
      -5     1     1     2     0   503  6.993367582E+00 -4.881806370E+00 -3.904472133E+01  4.024663946E+01  4.750000000E+00  0.00000E+00  9.000E+00
      21     1     1     2   511   502 -9.584726592E-01  4.272607134E+00 -2.742086663E+01  2.776828710E+01  3.371747881E-07  0.00000E+00  9.000E+00
#rwgt            1           9  -2.6517658268172977E-003           8     1258101           0
</event>
<event>
      6   9999  3.45752E-01  3.89097E+00 -1.00000E+00  2.50361E-01
      21    -1     0     0   501   512  0.000000000E+00  0.000000000E+00  6.414375521E+01  6.414375521E+01  0.000000000E+00  0.00000E+00  9.000E+00
      21    -1     0     0   502   503  0.000000000E+00  0.000000000E+00 -6.678275911E+02  6.678275911E+02  0.000000000E+00  0.00000E+00  9.000E+00
      25     1     1     2     0     0 -4.183601845E+00  4.799753008E+00 -6.013109065E+02  6.141997913E+02  1.250041489E+02  0.00000E+00  9.000E+00
       5     1     1     2   501     0 -1.447000318E+00 -1.048324801E+00 -1.661047273E+01  1.736845125E+01  4.750000000E+00  0.00000E+00  9.000E+00
      -5     1     1     2     0   503  2.751259965E+00 -1.134358643E+00 -4.283394157E+01  4.319913484E+01  4.750000000E+00  0.00000E+00  9.000E+00
      21     1     1     2   502   512  2.879342199E+00 -2.617069565E+00  5.707148491E+01  5.720396887E+01  1.168007728E-06  0.00000E+00  9.000E+00
#rwgt            1           9   4.4587414119802996E-004           8     1262357           0
</event>
<event>
      6   9999  3.45752E-01  3.06068E+01 -1.00000E+00  1.47278E-01
      21    -1     0     0   511   502  0.000000000E+00  0.000000000E+00  1.946882298E+01  1.946882298E+01  0.000000000E+00  0.00000E+00  9.000E+00
      21    -1     0     0   502   503  0.000000000E+00  0.000000000E+00 -8.821227449E+02  8.821227449E+02  0.000000000E+00  0.00000E+00  9.000E+00
      25     1     1     2     0     0 -2.570618794E+01 -5.225833240E+01 -6.063544366E+02  6.218378043E+02  1.249992428E+02  0.00000E+00  9.000E+00
       5     1     1     2   501     0  3.804033801E+01  1.872907958E+01 -1.016348538E+02  1.102272732E+02  4.750000000E+00  0.00000E+00  9.000E+00
      -5     1     1     2     0   503  7.284571388E+00  1.003707633E+01 -1.287189815E+02  1.294022665E+02  4.750000000E+00  0.00000E+00  9.000E+00
      21     1     1     2   511   501 -1.961872146E+01  2.349217649E+01 -2.594565005E+01  4.012422391E+01  1.011524364E-06  0.00000E+00  9.000E+00
#rwgt            1           9  0.34732342268975358                8     1266713           0
</event>
<event>
      6   9999  3.45752E-01  5.80786E+00 -1.00000E+00  2.16046E-01
      21    -1     0     0   512   502  0.000000000E+00  0.000000000E+00  3.019500579E+01  3.019500579E+01  0.000000000E+00  0.00000E+00  9.000E+00
      21    -1     0     0   502   503  0.000000000E+00  0.000000000E+00 -8.687038489E+02  8.687038489E+02  0.000000000E+00  0.00000E+00  9.000E+00
      25     1     1     2     0     0 -6.308140738E-02  3.388129373E+00 -8.070997859E+02  8.167289483E+02  1.249985088E+02  0.00000E+00  9.000E+00
       5     1     1     2   501     0 -1.252290511E-01  2.722115586E+00  3.935910227E+00  6.743847929E+00  4.750000000E+00  0.00000E+00  9.000E+00
      -5     1     1     2     0   503 -2.571774591E+00 -1.000140220E+00 -5.482456096E+01  5.509908611E+01  4.750000000E+00  0.00000E+00  9.000E+00
      21     1     1     2   512   501  2.760085050E+00 -5.110104739E+00  1.947959354E+01  2.032697234E+01  1.507891493E-06  0.00000E+00  9.000E+00
#rwgt            1           9   9.5747141464582759E-003           8     1267956           0
</event>
<event>
      6   9999 -3.45752E-01  4.72893E+00 -1.00000E+00  2.33704E-01
      21    -1     0     0   501   511  0.000000000E+00  0.000000000E+00  5.886856281E+01  5.886856281E+01  0.000000000E+00  0.00000E+00  9.000E+00
      21    -1     0     0   502   503  0.000000000E+00  0.000000000E+00 -1.054467620E+03  1.054467620E+03  0.000000000E+00  0.00000E+00  9.000E+00
      25     1     1     2     0     0 -2.224816915E+00  1.611223085E+00 -9.678202668E+02  9.758629762E+02  1.249997344E+02  0.00000E+00  9.000E+00
       5     1     1     2   501     0 -4.061612765E+00 -1.636117476E+00  5.419418097E+00  8.432447519E+00  4.750000000E+00  0.00000E+00  9.000E+00
      -5     1     1     2     0   503  4.077712548E+00 -4.156530270E+00 -8.082811852E+01  8.117666985E+01  4.750000000E+00  0.00000E+00  9.000E+00
      21     1     1     2   502   511  2.208717131E+00  4.181424661E+00  4.762990987E+01  4.786408944E+01  1.651812370E-06  0.00000E+00  9.000E+00
#rwgt            1           9  -1.0173922966001880                8     1271642           0
</event>
<event>
      6   9999  3.45752E-01  4.20273E+00 -1.00000E+00  2.43488E-01
      21    -1     0     0   501   512  0.000000000E+00  0.000000000E+00  3.273531654E+02  3.273531654E+02  0.000000000E+00  0.00000E+00  9.000E+00
      21    -1     0     0   502   503  0.000000000E+00  0.000000000E+00 -1.057349289E+03  1.057349289E+03  0.000000000E+00  0.00000E+00  9.000E+00
      25     1     1     2     0     0  5.768369104E+00 -2.769411526E+00 -9.336125208E+02  9.419651975E+02  1.250006022E+02  0.00000E+00  9.000E+00
       5     1     1     2   501     0 -3.192589346E+00  1.275933866E+00  8.597741036E+00  1.040693446E+01  4.750000000E+00  0.00000E+00  9.000E+00
      -5     1     1     2     0   503 -2.222068543E+00 -2.694342746E+00 -1.185685072E+02  1.187149969E+02  4.750000000E+00  0.00000E+00  9.000E+00
      21     1     1     2   502   512 -3.537112154E-01  4.187820405E+00  3.135871638E+02  3.136153253E+02  7.629394531E-06  0.00000E+00  9.000E+00
#rwgt            1           9   8.8153951028891123E-003           8     1275757           0
</event>
<event>
      6   9999  3.45752E-01  2.50414E+01 -1.00000E+00  1.53099E-01
      -4    -1     0     0     0   502  0.000000000E+00  0.000000000E+00  7.139378944E+01  7.139378944E+01  0.000000000E+00  0.00000E+00  9.000E+00
      21    -1     0     0   502   503  0.000000000E+00  0.000000000E+00 -9.176898934E+02  9.176898934E+02  0.000000000E+00  0.00000E+00  9.000E+00
      25     1     1     2     0     0 -2.093132738E+01  4.394708880E+00 -8.921339558E+02  9.011014015E+02  1.249932271E+02  0.00000E+00  9.000E+00
       5     1     1     2   501     0 -4.504303165E+00 -1.872906784E-01  1.423696014E+01  1.567090804E+01  4.750000000E+00  0.00000E+00  9.000E+00
      -5     1     1     2     0   503  8.494732095E-01  5.458406506E-01 -1.697759648E+01  1.765844922E+01  4.750000000E+00  0.00000E+00  9.000E+00
      -4     1     1     2     0   501  2.458615734E+01 -4.753258852E+00  4.857848813E+01  5.465292409E+01  2.236564522E-06  0.00000E+00  9.000E+00
#rwgt            1           9   2.4081441670243385E-004           8     1281232           0
</event>
<event>
      6   9999  3.45752E-01  2.11713E+01 -1.00000E+00  1.58346E-01
      21    -1     0     0   511   502  0.000000000E+00  0.000000000E+00  2.308939043E+01  2.308939043E+01  0.000000000E+00  0.00000E+00  9.000E+00
      21    -1     0     0   502   503  0.000000000E+00  0.000000000E+00 -1.048576748E+03  1.048576748E+03  0.000000000E+00  0.00000E+00  9.000E+00
      25     1     1     2     0     0 -1.254906696E+01  6.158904787E+01 -8.578308719E+02  8.691658016E+02  1.249987836E+02  0.00000E+00  9.000E+00
       5     1     1     2   501     0  2.150353525E+01 -7.945183155E+01 -1.071164025E+02  1.351720450E+02  4.750000000E+00  0.00000E+00  9.000E+00
      -5     1     1     2     0   503 -1.060974412E+00 -1.781928564E+00 -2.821577498E+01  2.868786144E+01  4.750000000E+00  0.00000E+00  9.000E+00
      21     1     1     2   511   501 -7.893493880E+00  1.964471225E+01 -3.232430821E+01  3.864043046E+01  6.743495762E-07  0.00000E+00  9.000E+00
#rwgt            1           9   5.5527961005513590E-002           8     1282539           0
</event>
<event>
      6   9999  3.45752E-01  3.39148E+01 -1.00000E+00  1.44473E-01
      21    -1     0     0   501   502  0.000000000E+00  0.000000000E+00  7.441781535E+01  7.441781535E+01  0.000000000E+00  0.00000E+00  9.000E+00
      21    -1     0     0   512   503  0.000000000E+00  0.000000000E+00 -2.543152536E+03  2.543152536E+03  0.000000000E+00  0.00000E+00  9.000E+00
      25     1     1     2     0     0 -1.951534786E+02 -2.846359516E+00 -7.045625674E+02  7.417058313E+02  1.250045873E+02  0.00000E+00  9.000E+00
       5     1     1     2   501     0  3.411126976E+00 -2.985059397E+00  4.476566333E+01  4.524459614E+01  4.750000000E+00  0.00000E+00  9.000E+00
      -5     1     1     2     0   503  1.760594203E+02 -2.423943854E+01 -7.367852872E+02  7.579311260E+02  4.750000000E+00  0.00000E+00  9.000E+00
      21     1     1     2   512   502  1.568293130E+01  3.007085746E+01 -1.072152529E+03  1.072688798E+03  1.525878906E-05  0.00000E+00  9.000E+00
#rwgt            1           9   6.9453329088110997E-005           8     1284466           0
</event>
<event>
      6   9999 -3.45752E-01  4.87964E+00 -1.00000E+00  2.31239E-01
      21    -1     0     0   501   502  0.000000000E+00  0.000000000E+00  1.235457480E+01  1.235457480E+01  0.000000000E+00  0.00000E+00  9.000E+00
      21    -1     0     0   502   511  0.000000000E+00  0.000000000E+00 -8.597960224E+02  8.597960224E+02  0.000000000E+00  0.00000E+00  9.000E+00
      25     1     1     2     0     0  1.015218754E+01  7.462655105E+00 -7.877127589E+02  7.976691476E+02  1.250036817E+02  0.00000E+00  9.000E+00
       5     1     1     2   501     0 -2.238352264E-01  9.553535249E-01  5.692047015E+00  7.478282008E+00  4.750000000E+00  0.00000E+00  9.000E+00
      -5     1     1     2     0   503 -5.609100928E+00 -6.147550496E+00 -4.472640214E+01  4.574131545E+01  4.750000000E+00  0.00000E+00  9.000E+00
      21     1     1     2   503   511 -4.319251384E+00 -2.270458134E+00 -2.069433360E+01  2.126185213E+01  2.384185791E-07  0.00000E+00  9.000E+00
#rwgt            1           9  -1.2228795635889735E-003           8     1286217           0
</event>
<event>
      6   9999  3.45752E-01  8.78188E+00 -1.00000E+00  1.93339E-01
      21    -1     0     0   501   502  0.000000000E+00  0.000000000E+00  7.973578808E+00  7.973578808E+00  0.000000000E+00  0.00000E+00  9.000E+00
      21    -1     0     0   502   512  0.000000000E+00  0.000000000E+00 -8.161682546E+02  8.161682546E+02  0.000000000E+00  0.00000E+00  9.000E+00
      25     1     1     2     0     0 -7.992555978E+00 -9.320418956E+00 -6.533495489E+02  6.653129617E+02  1.249998114E+02  0.00000E+00  9.000E+00
       5     1     1     2   501     0 -1.475468680E-01 -8.205168103E-01 -2.588969105E+00  5.473598354E+00  4.750000000E+00  0.00000E+00  9.000E+00
      -5     1     1     2     0   503  6.674352314E+00  1.482240869E+00 -4.684976096E+01  4.758368017E+01  4.750000000E+00  0.00000E+00  9.000E+00
      21     1     1     2   503   512  1.465750532E+00  8.658694897E+00 -1.054063968E+02  1.057715931E+02  1.348699152E-06  0.00000E+00  9.000E+00
#rwgt            1           9   3.6131150964760265E-003           8     1290379           0
</event>
<event>
      6   9999  3.45752E-01  1.43603E+01 -1.00000E+00  1.72028E-01
       3    -1     0     0   501     0  0.000000000E+00  0.000000000E+00  1.154397821E+02  1.154397821E+02  0.000000000E+00  0.00000E+00  9.000E+00
      21    -1     0     0   502   503  0.000000000E+00  0.000000000E+00 -2.773717231E+03  2.773717231E+03  0.000000000E+00  0.00000E+00  9.000E+00
      25     1     1     2     0     0 -3.597565819E+01  4.291689192E+01 -1.611422404E+03  1.617233211E+03  1.249999500E+02  0.00000E+00  9.000E+00
       5     1     1     2   501     0 -4.619180058E+00 -9.560736289E-01 -3.567135641E-01  6.703778469E+00  4.750000000E+00  0.00000E+00  9.000E+00
      -5     1     1     2     0   503  2.666899884E+01 -3.845502187E+01 -1.154906930E+03  1.155864440E+03  4.750000000E+00  0.00000E+00  9.000E+00
       3     1     1     2   502     0  1.392583941E+01 -3.505796420E+00  1.084085981E+02  1.093555840E+02  5.878843310E-06  0.00000E+00  9.000E+00
#rwgt            1           9   7.9568712158743917                8     1293024           0
</event>
<event>
      6   9999  3.45752E-01  1.72688E+01 -1.00000E+00  1.65235E-01
      21    -1     0     0   501   511  0.000000000E+00  0.000000000E+00  5.466626518E+02  5.466626518E+02  0.000000000E+00  0.00000E+00  9.000E+00
      21    -1     0     0   502   503  0.000000000E+00  0.000000000E+00 -1.860621892E+01  1.860621892E+01  0.000000000E+00  0.00000E+00  9.000E+00
      25     1     1     2     0     0 -2.216808256E+01 -1.434363317E+01  2.202146749E+02  2.545915412E+02  1.250007444E+02  0.00000E+00  9.000E+00
       5     1     1     2   501     0 -1.157102741E+00 -5.157326097E-01  1.124977171E+02  1.126050786E+02  4.750000000E+00  0.00000E+00  9.000E+00
      -5     1     1     2     0   503  6.141843302E+00  1.314387606E+01  8.012609376E+01  8.156737778E+01  4.750000000E+00  0.00000E+00  9.000E+00
      21     1     1     2   502   511  1.718334200E+01  1.715489724E+00  1.152179471E+02  1.165048732E+02  2.336015456E-06  0.00000E+00  9.000E+00
#rwgt            1           9   5.4389274749521993E-005           8     1295250           0
</event>
<event>
      6   9999  3.45752E-01  4.91561E+00 -1.00000E+00  2.30670E-01
      21    -1     0     0   501   512  0.000000000E+00  0.000000000E+00  2.487337961E+01  2.487337961E+01  0.000000000E+00  0.00000E+00  9.000E+00
      21    -1     0     0   502   503  0.000000000E+00  0.000000000E+00 -9.630471220E+02  9.630471220E+02  0.000000000E+00  0.00000E+00  9.000E+00
      25     1     1     2     0     0 -3.626979714E+01 -2.078636253E+00 -5.214402593E+02  5.374435396E+02  1.250031812E+02  0.00000E+00  9.000E+00
       5     1     1     2   501     0  1.639528549E+00 -1.454153767E+00  8.748875158E+00  1.019352410E+01  4.750000000E+00  0.00000E+00  9.000E+00
      -5     1     1     2     0   503  3.693413323E+01  7.875074444E+00 -4.311238905E+02  4.328007838E+02  4.750000000E+00  0.00000E+00  9.000E+00
      21     1     1     2   502   512 -2.303864636E+00 -4.342284424E+00  5.641532265E+00  7.482654113E+00  5.623090942E-07  0.00000E+00  9.000E+00
#rwgt            1           9   1.8502414537732939E-004           8     1296723           0
</event>
<event>
      6   9999  3.45752E-01  1.94290E+01 -1.00000E+00  1.61177E-01
      21    -1     0     0   502   503  0.000000000E+00  0.000000000E+00  3.118294927E+01  3.118294927E+01  0.000000000E+00  0.00000E+00  9.000E+00
      21    -1     0     0   511   502  0.000000000E+00  0.000000000E+00 -1.333607043E+03  1.333607043E+03  0.000000000E+00  0.00000E+00  9.000E+00
      25     1     1     2     0     0  1.272302379E+02 -7.705715287E+01 -3.700951336E+02  4.179964066E+02  1.250009993E+02  0.00000E+00  9.000E+00
       5     1     1     2   501     0  4.664438961E+00  4.478878372E+00 -1.425710379E+02  1.427966410E+02  4.750000000E+00  0.00000E+00  9.000E+00
      -5     1     1     2     0   503 -1.151523804E+02  6.272028163E+01 -6.861405027E+02  6.985737301E+02  4.750000000E+00  0.00000E+00  9.000E+00
      21     1     1     2   511   501 -1.674229648E+01  9.857992872E+00 -1.036174197E+02  1.054232146E+02  1.907348633E-06  0.00000E+00  9.000E+00
#rwgt            1           9   2.1738683360401451E-004           8     1301645           0
</event>
<event>
      6   9999  3.45752E-01  2.90207E+00 -1.00000E+00  2.80736E-01
      21    -1     0     0   501   502  0.000000000E+00  0.000000000E+00  3.095674287E+01  3.095674287E+01  0.000000000E+00  0.00000E+00  9.000E+00
      21    -1     0     0   512   503  0.000000000E+00  0.000000000E+00 -1.935828725E+03  1.935828725E+03  0.000000000E+00  0.00000E+00  9.000E+00
      25     1     1     2     0     0  1.324504815E+01 -1.820155109E+01 -1.349142798E+02  1.852964799E+02  1.250047791E+02  0.00000E+00  9.000E+00
       5     1     1     2   501     0 -3.164578219E-01  1.932964841E+00  4.438092011E+00  6.789378420E+00  4.750000000E+00  0.00000E+00  9.000E+00
      -5     1     1     2     0   503 -1.448998327E+01  1.871481942E+01 -9.758726696E+02  9.761712113E+02  4.750000000E+00  0.00000E+00  9.000E+00
      21     1     1     2   512   502  1.561392934E+00 -2.446233171E+00 -7.985231245E+02  7.985283980E+02  1.078959322E-05  0.00000E+00  9.000E+00
#rwgt            1           9   1.9197864858302272E-002           8     1303757           0
</event>
<event>
      6   9999  3.45752E-01  7.85587E+00 -1.00000E+00  1.98955E-01
      21    -1     0     0   501   502  0.000000000E+00  0.000000000E+00  2.975080865E+01  2.975080865E+01  0.000000000E+00  0.00000E+00  9.000E+00
      21    -1     0     0   511   503  0.000000000E+00  0.000000000E+00 -1.298118398E+03  1.298118398E+03  0.000000000E+00  0.00000E+00  9.000E+00
      25     1     1     2     0     0 -1.937478557E+01  8.639454468E+01 -6.291740503E+02  6.475527947E+02  1.250009471E+02  0.00000E+00  9.000E+00
       5     1     1     2   501     0 -1.784491372E-01  1.336245236E+00  1.680034557E+01  1.751089680E+01  4.750000000E+00  0.00000E+00  9.000E+00
      -5     1     1     2     0   503  2.317611559E+01 -8.076018046E+01 -5.371377390E+02  5.436900332E+02  4.750000000E+00  0.00000E+00  9.000E+00
      21     1     1     2   511   502 -3.622880883E+00 -6.970609451E+00 -1.188561457E+02  1.191154820E+02  2.336015456E-06  0.00000E+00  9.000E+00
#rwgt            1           9   1.8842636337596373E-004           8     1311660           0
</event>
<event>
      6   9999  3.45752E-01  3.59485E+01 -1.00000E+00  1.42930E-01
      21    -1     0     0   501   502  0.000000000E+00  0.000000000E+00  8.420956008E+01  8.420956008E+01  0.000000000E+00  0.00000E+00  9.000E+00
      21    -1     0     0   512   503  0.000000000E+00  0.000000000E+00 -1.848451458E+03  1.848451458E+03  0.000000000E+00  0.00000E+00  9.000E+00
      25     1     1     2     0     0  4.284994606E+01  4.115955068E+01 -3.823853526E+01  1.435856229E+02  1.249976761E+02  0.00000E+00  9.000E+00
       5     1     1     2   501     0  1.216013290E+01  3.576522660E+00  2.844916520E+01  3.150520349E+01  4.750000000E+00  0.00000E+00  9.000E+00
      -5     1     1     2     0   503 -1.906462907E+01 -4.427114788E+01 -1.477586299E+03  1.478379934E+03  4.750000000E+00  0.00000E+00  9.000E+00
      21     1     1     2   512   502 -3.594544989E+01 -4.649254663E-01 -2.768662283E+02  2.791902576E+02  0.000000000E+00  0.00000E+00  9.000E+00
#rwgt            1           9   1.1902466026825425E-004           8     1315830           0
</event>
<event>
      6   9999  3.45752E-01  2.11323E+01 -1.00000E+00  1.58406E-01
      21    -1     0     0   511   502  0.000000000E+00  0.000000000E+00  1.042370695E+01  1.042370695E+01  0.000000000E+00  0.00000E+00  9.000E+00
      21    -1     0     0   502   503  0.000000000E+00  0.000000000E+00 -2.011166969E+03  2.011166969E+03  0.000000000E+00  0.00000E+00  9.000E+00
      25     1     1     2     0     0  1.887030956E+01  1.160354679E+00 -1.900484602E+03  1.904687188E+03  1.250364966E+02  0.00000E+00  9.000E+00
       5     1     1     2   501     0  1.775081130E+00  4.549511600E-01 -1.118330871E+01  1.228766810E+01  4.750000000E+00  0.00000E+00  9.000E+00
      -5     1     1     2     0   503  3.826730585E-01  4.810188512E-01 -8.227789317E+01  8.241718281E+01  4.750000000E+00  0.00000E+00  9.000E+00
      21     1     1     2   511   501 -2.102806375E+01 -2.096324690E+00 -6.797457507E+00  2.219863669E+01  1.690083370E-06  0.00000E+00  9.000E+00
#rwgt            1           9   7.9296654892973412E-004           8     1317756           0
</event>
<event>
      6   9999  3.45752E-01  6.77086E+01 -1.00000E+00  1.28100E-01
      21    -1     0     0   501   502  0.000000000E+00  0.000000000E+00  3.598423124E+02  3.598423124E+02  0.000000000E+00  0.00000E+00  9.000E+00
      21    -1     0     0   502   512  0.000000000E+00  0.000000000E+00 -1.165995098E+02  1.165995098E+02  0.000000000E+00  0.00000E+00  9.000E+00
      25     1     1     2     0     0  1.344082433E+02 -8.406422430E+00  5.187254360E+01  1.909204253E+02  1.249944167E+02  0.00000E+00  9.000E+00
       5     1     1     2   501     0  1.491371040E+01 -4.538930577E+00  1.135896779E+02  1.147527693E+02  4.750000000E+00  0.00000E+00  9.000E+00
      -5     1     1     2     0   503 -8.322690378E+01 -1.748279957E+00  5.229130564E+01  9.842112142E+01  4.750000000E+00  0.00000E+00  9.000E+00
      21     1     1     2   503   512 -6.609504994E+01  1.469363296E+01  2.548927552E+01  7.234750612E+01  1.469710828E-06  0.00000E+00  9.000E+00
#rwgt            1           9   5.1706097703176558E-002           8     1319314           0
</event>
<event>
      6   9999  3.45752E-01  2.27666E+01 -1.00000E+00  1.56031E-01
       2    -1     0     0   501     0  0.000000000E+00  0.000000000E+00  5.770903291E+02  5.770903291E+02  0.000000000E+00  0.00000E+00  9.000E+00
      21    -1     0     0   502   503  0.000000000E+00  0.000000000E+00 -1.113293302E+03  1.113293302E+03  0.000000000E+00  0.00000E+00  9.000E+00
      25     1     1     2     0     0  4.154367671E+01  4.632514768E+01 -3.526287014E+02  3.792684804E+02  1.250027312E+02  0.00000E+00  9.000E+00
       5     1     1     2   501     0  6.840736707E+00 -3.253724431E+00  1.947141691E+01  2.142617506E+01  4.750000000E+00  0.00000E+00  9.000E+00
      -5     1     1     2     0   503 -4.477003591E+01 -6.554929434E+01 -7.440090879E+02  7.482467183E+02  4.750000000E+00  0.00000E+00  9.000E+00
       2     1     1     2   502     0 -3.614377507E+00  2.247787109E+01  5.409633995E+02  5.414422573E+02  7.629394531E-06  0.00000E+00  9.000E+00
#rwgt            1           9   8.2477931086410508E-002           8     1320172           0
</event>
<event>
      6   9999 -3.45752E-01  1.81339E+01 -1.00000E+00  1.63527E-01
      21    -1     0     0   501   502  0.000000000E+00  0.000000000E+00  6.870758210E+01  6.870758210E+01  0.000000000E+00  0.00000E+00  9.000E+00
       2    -1     0     0   502     0  0.000000000E+00  0.000000000E+00 -3.685953210E+03  3.685953210E+03  0.000000000E+00  0.00000E+00  9.000E+00
      25     1     1     2     0     0  9.579393504E+00  5.509008548E+01 -3.528980045E+02  3.785362228E+02  1.250039524E+02  0.00000E+00  9.000E+00
       5     1     1     2   501     0  2.268431574E+00 -6.162442518E+00  3.018060958E+01  3.124985079E+01  4.750000000E+00  0.00000E+00  9.000E+00
      -5     1     1     2     0   503  2.593020999E+00 -5.989571066E+01 -1.080646631E+01  6.110288150E+01  4.750000000E+00  0.00000E+00  9.000E+00
       2     1     1     2   503     0 -1.444084608E+01  1.096806770E+01 -3.283721767E+03  3.283771837E+03  4.315837288E-05  0.00000E+00  9.000E+00
#rwgt            1           9  -1.8689015697826753E-005           8     1322614           0
</event>
<event>
      6   9999  3.45752E-01  3.95074E+00 -1.00000E+00  2.48969E-01
      -3    -1     0     0     0   502  0.000000000E+00  0.000000000E+00  3.860746498E+02  3.860746498E+02  0.000000000E+00  0.00000E+00  9.000E+00
      21    -1     0     0   502   503  0.000000000E+00  0.000000000E+00 -1.262533818E+02  1.262533818E+02  0.000000000E+00  0.00000E+00  9.000E+00
      25     1     1     2     0     0 -5.408421004E+00  6.398068219E+00 -7.901551778E+01  1.481147452E+02  1.249973575E+02  0.00000E+00  9.000E+00
       5     1     1     2   501     0  1.668349872E+00 -3.589045088E+00 -2.841214841E+00  6.804383713E+00  4.750000000E+00  0.00000E+00  9.000E+00
      -5     1     1     2     0   503  5.866978311E+00  5.203370190E-01 -6.031813324E+00  9.676644930E+00  4.750000000E+00  0.00000E+00  9.000E+00
      -3     1     1     2     0   501 -2.126907180E+00 -3.329360150E+00  3.477098139E+02  3.477322577E+02  6.607249480E-06  0.00000E+00  9.000E+00
#rwgt            1           9  0.75041238655059173                8     1325083           0
</event>
<event>
      6   9999  3.45752E-01  8.08441E+01 -1.00000E+00  1.24495E-01
      21    -1     0     0   511   503  0.000000000E+00  0.000000000E+00  3.664997047E+01  3.664997047E+01  0.000000000E+00  0.00000E+00  9.000E+00
      21    -1     0     0   501   502  0.000000000E+00  0.000000000E+00 -1.417638428E+03  1.417638428E+03  0.000000000E+00  0.00000E+00  9.000E+00
      25     1     1     2     0     0 -3.222094135E+01  4.737427321E+01 -5.888492808E+02  6.046912017E+02  1.250018522E+02  0.00000E+00  9.000E+00
       5     1     1     2   501     0 -2.688894874E+01 -2.038872551E+01 -3.184950016E+02  3.203128849E+02  4.750000000E+00  0.00000E+00  9.000E+00
      -5     1     1     2     0   503  1.254414303E+02  1.923013151E+01 -4.008868193E+02  4.205212893E+02  4.750000000E+00  0.00000E+00  9.000E+00
      21     1     1     2   511   502 -6.633154021E+01 -4.621567921E+01 -7.275735561E+01  1.087630223E+02  2.697398305E-06  0.00000E+00  9.000E+00
#rwgt            1           9   8.4490266484187303E-003           8     1329264           0
</event>
<event>
      6   9999  3.45752E-01  6.75477E+00 -1.00000E+00  2.07132E-01
      21    -1     0     0   501   502  0.000000000E+00  0.000000000E+00  1.179540927E+02  1.179540927E+02  0.000000000E+00  0.00000E+00  9.000E+00
      21    -1     0     0   502   512  0.000000000E+00  0.000000000E+00 -8.665183113E+02  8.665183113E+02  0.000000000E+00  0.00000E+00  9.000E+00
      25     1     1     2     0     0  1.011893169E+01 -5.324936854E+01 -2.820540695E+02  3.132353421E+02  1.249959736E+02  0.00000E+00  9.000E+00
       5     1     1     2   501     0 -1.002287778E+01  9.571073737E+00  1.008508478E+02  1.019093692E+02  4.750000000E+00  0.00000E+00  9.000E+00
      -5     1     1     2     0   503 -5.649262678E+00  3.983267290E+01 -4.809901913E+02  4.826931558E+02  4.750000000E+00  0.00000E+00  9.000E+00
      21     1     1     2   503   512  5.553208772E+00  3.845621900E+00 -8.637080562E+01  8.663453699E+01  9.536743164E-07  0.00000E+00  9.000E+00
#rwgt            1           9   5.7516538094960941E-003           8     1329822           0
</event>
<event>
      6   9999 -3.45752E-01  6.23786E+00 -1.00000E+00  2.11733E-01
      21    -1     0     0   501   502  0.000000000E+00  0.000000000E+00  6.506917053E+01  6.506917053E+01  0.000000000E+00  0.00000E+00  9.000E+00
      21    -1     0     0   502   511  0.000000000E+00  0.000000000E+00 -7.316018707E+02  7.316018707E+02  0.000000000E+00  0.00000E+00  9.000E+00
      25     1     1     2     0     0 -4.075634653E+01 -3.339732363E+01 -6.543423427E+02  6.682550379E+02  1.249977326E+02  0.00000E+00  9.000E+00
       5     1     1     2   501     0  1.884003956E+00  3.183902214E-01  4.271203884E+01  4.301780567E+01  4.750000000E+00  0.00000E+00  9.000E+00
      -5     1     1     2     0   503  4.497705087E+01  3.436091989E+01 -4.066922108E+01  6.985811309E+01  4.750000000E+00  0.00000E+00  9.000E+00
      21     1     1     2   503   511 -6.104708293E+00 -1.281986480E+00 -1.423317519E+01  1.554008458E+01  1.685873940E-07  0.00000E+00  9.000E+00
#rwgt            1           9  -3.9203639137570172E-004           8     1335204           0
</event>
<event>
      6   9999  3.45752E-01  8.77088E+00 -1.00000E+00  1.93400E-01
      21    -1     0     0   512   502  0.000000000E+00  0.000000000E+00  2.258592789E+02  2.258592789E+02  0.000000000E+00  0.00000E+00  9.000E+00
      21    -1     0     0   502   503  0.000000000E+00  0.000000000E+00 -4.036696368E+01  4.036696368E+01  0.000000000E+00  0.00000E+00  9.000E+00
      25     1     1     2     0     0 -3.571866373E+01  3.334370857E+00  9.341019115E+01  1.601048471E+02  1.249846282E+02  0.00000E+00  9.000E+00
       5     1     1     2   501     0 -6.298426991E-01 -4.356293730E-02  4.562216117E+01  4.587311510E+01  4.750000000E+00  0.00000E+00  9.000E+00
      -5     1     1     2     0   503  2.905809318E+01  1.585485117E+00  3.390784368E+01  4.493540814E+01  4.750000000E+00  0.00000E+00  9.000E+00
      21     1     1     2   512   501  7.290413250E+00 -4.876293037E+00  1.255211921E+01  1.531287222E+01  1.685873940E-07  0.00000E+00  9.000E+00
#rwgt            1           9   6.3408246076071409E-004           8     1340736           0
</event>
<event>
      6   9999  3.45752E-01  7.22894E+00 -1.00000E+00  2.03373E-01
      21    -1     0     0   511   502  0.000000000E+00  0.000000000E+00  1.851220202E+03  1.851220202E+03  0.000000000E+00  0.00000E+00  9.000E+00
      21    -1     0     0   502   503  0.000000000E+00  0.000000000E+00 -1.616206905E+01  1.616206905E+01  0.000000000E+00  0.00000E+00  9.000E+00
      25     1     1     2     0     0  3.376026324E+01 -2.050188460E+01  3.029230558E+02  3.300683931E+02  1.249907345E+02  0.00000E+00  9.000E+00
       5     1     1     2   501     0  2.862202789E+00  7.031596485E+00  1.243768028E+03  1.243800267E+03  4.750000000E+00  0.00000E+00  9.000E+00
      -5     1     1     2     0   503 -3.250194312E+01  1.940988893E+01  1.440948904E+02  1.490604577E+02  4.750000000E+00  0.00000E+00  9.000E+00
      21     1     1     2   511   501 -4.120522910E+00 -5.939600810E+00  1.442721591E+02  1.444531532E+02  2.697398305E-06  0.00000E+00  9.000E+00
#rwgt            1           9   1.3884794294883089E-002           8     1343327           0
</event>
<event>
      6   9999  3.45752E-01  1.78877E+01 -1.00000E+00  1.64001E-01
      21    -1     0     0   501   502  0.000000000E+00  0.000000000E+00  1.063231119E+03  1.063231119E+03  0.000000000E+00  0.00000E+00  9.000E+00
      21    -1     0     0   502   512  0.000000000E+00  0.000000000E+00 -2.707029111E+01  2.707029111E+01  0.000000000E+00  0.00000E+00  9.000E+00
      25     1     1     2     0     0  1.059297996E+01  8.408582865E+00  1.428983076E+02  1.903372011E+02  1.250016333E+02  0.00000E+00  9.000E+00
       5     1     1     2   501     0  6.468736864E+00 -3.141910125E+00  8.579841089E+02  8.580273945E+02  4.750000000E+00  0.00000E+00  9.000E+00
      -5     1     1     2     0   503  1.150117535E-01 -2.738630526E-01  6.596763916E+00  8.134372922E+00  4.750000000E+00  0.00000E+00  9.000E+00
      21     1     1     2   503   512 -1.717672857E+01 -4.992809688E+00  2.868164738E+01  3.380244147E+01  0.000000000E+00  0.00000E+00  9.000E+00
#rwgt            1           9   6.5840042249900629E-002           8     1347679           0
</event>
<event>
      6   9999  3.45752E-01  9.18242E+00 -1.00000E+00  1.91182E-01
      21    -1     0     0   501   502  0.000000000E+00  0.000000000E+00  9.562295514E+00  9.562295514E+00  0.000000000E+00  0.00000E+00  9.000E+00
      21    -1     0     0   511   503  0.000000000E+00  0.000000000E+00 -1.066441038E+03  1.066441038E+03  0.000000000E+00  0.00000E+00  9.000E+00
      25     1     1     2     0     0  6.409494574E+00  5.804610716E+00 -7.490112591E+02  7.594187859E+02  1.249970038E+02  0.00000E+00  9.000E+00
       5     1     1     2   501     0  1.834132843E+00 -1.966783791E+00  7.625386449E-01  5.511465046E+00  4.750000000E+00  0.00000E+00  9.000E+00
      -5     1     1     2     0   503  2.603170115E-01 -7.301893128E+00 -1.536548241E+01  1.766482261E+01  4.750000000E+00  0.00000E+00  9.000E+00
      21     1     1     2   511   502 -8.503944429E+00  3.464066204E+00 -2.932645397E+02  2.934082600E+02  5.394796609E-06  0.00000E+00  9.000E+00
#rwgt            1           9   1.2240335941773165E-005           8     1349837           0
</event>
<event>
      6   9999  3.45752E-01  7.65445E+00 -1.00000E+00  2.00313E-01
      21    -1     0     0   501   502  0.000000000E+00  0.000000000E+00  3.235175852E+02  3.235175852E+02  0.000000000E+00  0.00000E+00  9.000E+00
      21    -1     0     0   512   503  0.000000000E+00  0.000000000E+00 -1.251657548E+02  1.251657548E+02  0.000000000E+00  0.00000E+00  9.000E+00
      25     1     1     2     0     0 -9.694497070E+00  5.581594129E+01  1.350801560E+02  1.925616137E+02  1.249956957E+02  0.00000E+00  9.000E+00
       5     1     1     2   501     0  1.867903846E+00  4.590113830E+00  1.448271497E+02  1.449897376E+02  4.750000000E+00  0.00000E+00  9.000E+00
      -5     1     1     2     0   503  1.547926169E+01 -6.024109129E+01 -8.249043766E+01  1.034206528E+02  4.750000000E+00  0.00000E+00  9.000E+00
      21     1     1     2   512   502 -7.652668466E+00 -1.649638272E-01  9.349623173E-01  7.711335957E+00  2.384185791E-07  0.00000E+00  9.000E+00
#rwgt            1           9   446.82615884246752                8     1352324           0
</event>
<event>
      6   9999  3.45752E-01  1.03745E+01 -1.00000E+00  1.85527E-01
      21    -1     0     0   511   502  0.000000000E+00  0.000000000E+00  1.437243847E+01  1.437243847E+01  0.000000000E+00  0.00000E+00  9.000E+00
      21    -1     0     0   502   503  0.000000000E+00  0.000000000E+00 -8.259985952E+02  8.259985952E+02  0.000000000E+00  0.00000E+00  9.000E+00
      25     1     1     2     0     0 -2.501346477E+01  1.370241244E+00 -7.328200086E+02  7.438218208E+02  1.249727378E+02  0.00000E+00  9.000E+00
       5     1     1     2   501     0 -9.497073077E-01 -1.708886698E+00  3.553756672E+00  6.246112727E+00  4.750000000E+00  0.00000E+00  9.000E+00
      -5     1     1     2     0   503  2.214359254E+01 -9.307138100E+00 -7.004192392E+01  7.419834983E+01  4.750000000E+00  0.00000E+00  9.000E+00
      21     1     1     2   511   501  3.819579533E+00  9.645783553E+00 -1.231798087E+01  1.610475026E+01  5.331201500E-07  0.00000E+00  9.000E+00
#rwgt            1           9   3.6790145910893891E-002           8     1356662           0
</event>
<event>
      6   9999  3.45752E-01  2.30760E+01 -1.00000E+00  1.55608E-01
      21    -1     0     0   501   502  0.000000000E+00  0.000000000E+00  1.979946754E+01  1.979946754E+01  0.000000000E+00  0.00000E+00  9.000E+00
      21    -1     0     0   512   503  0.000000000E+00  0.000000000E+00 -1.309364097E+03  1.309364097E+03  0.000000000E+00  0.00000E+00  9.000E+00
      25     1     1     2     0     0 -3.658586526E+01  1.090771654E+02 -5.737508140E+02  5.983745367E+02  1.250029441E+02  0.00000E+00  9.000E+00
       5     1     1     2   501     0 -5.172784190E+00 -8.633112208E+00 -2.627365019E+01  2.853341054E+01  4.750000000E+00  0.00000E+00  9.000E+00
      -5     1     1     2     0   503  5.002670152E+01 -7.890016255E+01 -3.615711432E+02  3.734757832E+02  4.750000000E+00  0.00000E+00  9.000E+00
      21     1     1     2   512   502 -8.268052071E+00 -2.154389066E+01 -3.279690223E+02  3.287798344E+02  7.629394531E-06  0.00000E+00  9.000E+00
#rwgt            1           9   5.0384176690315332E-003           8     1358883           0
</event>
<event>
      6   9999  3.45752E-01  5.23855E+00 -1.00000E+00  2.22611E-01
      21    -1     0     0   501   511  0.000000000E+00  0.000000000E+00  5.214491800E+01  5.214491800E+01  0.000000000E+00  0.00000E+00  9.000E+00
      21    -1     0     0   502   503  0.000000000E+00  0.000000000E+00 -3.312886005E+02  3.312886005E+02  0.000000000E+00  0.00000E+00  9.000E+00
      25     1     1     2     0     0 -1.093900245E+00 -9.065603872E-01 -3.147853471E+02  3.386986614E+02  1.249998000E+02  0.00000E+00  9.000E+00
       5     1     1     2   501     0 -1.146581023E+00 -4.783492270E-01  1.867480201E+00  5.252946632E+00  4.750000000E+00  0.00000E+00  9.000E+00
      -5     1     1     2     0   503 -1.663287747E+00 -2.108361946E+00  1.568113155E-01  5.458828264E+00  4.750000000E+00  0.00000E+00  9.000E+00
      21     1     1     2   502   511  3.903769014E+00  3.493271560E+00  3.361737303E+01  3.402308228E+01  9.536743164E-07  0.00000E+00  9.000E+00
#rwgt            1           9   6.4409668942921362E-004           8     1360632           0
</event>
<event>
      6   9999  3.45752E-01  2.62119E+00 -1.00000E+00  2.93200E-01
      21    -1     0     0   501   502  0.000000000E+00  0.000000000E+00  2.151386322E+01  2.151386322E+01  0.000000000E+00  0.00000E+00  9.000E+00
      21    -1     0     0   512   503  0.000000000E+00  0.000000000E+00 -1.051892509E+03  1.051892509E+03  0.000000000E+00  0.00000E+00  9.000E+00
      25     1     1     2     0     0 -3.716948478E+01  8.227841151E+00 -8.924342467E+02  9.019490013E+02  1.249953928E+02  0.00000E+00  9.000E+00
       5     1     1     2   501     0 -3.949616032E+00  2.357501958E+00  1.116515535E+01  1.297615029E+01  4.750000000E+00  0.00000E+00  9.000E+00
      -5     1     1     2     0   503  3.867918656E+01 -1.154318231E+01 -8.397107024E+01  9.329001912E+01  4.750000000E+00  0.00000E+00  9.000E+00
      21     1     1     2   512   502  2.439914251E+00  9.578391992E-01 -6.513848434E+01  6.519120170E+01  9.536743164E-07  0.00000E+00  9.000E+00
#rwgt            1           9   6.3927673053085221E-004           8     1364017           0
</event>
<event>
      6   9999 -3.45752E-01  3.14146E+01 -1.00000E+00  1.46555E-01
       3    -1     0     0   501     0  0.000000000E+00  0.000000000E+00  1.561641512E+02  1.561641512E+02  0.000000000E+00  0.00000E+00  9.000E+00
      21    -1     0     0   502   503  0.000000000E+00  0.000000000E+00 -1.490472680E+03  1.490472680E+03  0.000000000E+00  0.00000E+00  9.000E+00
      25     1     1     2     0     0 -2.339647304E+02 -1.173604777E+02 -3.780533532E+02  4.765118175E+02  1.250047899E+02  0.00000E+00  9.000E+00
       5     1     1     2   501     0 -1.510062409E+00 -3.324579232E+00  1.620981012E+01  1.728159598E+01  4.750000000E+00  0.00000E+00  9.000E+00
      -5     1     1     2     0   503  2.085819898E+02  1.044475720E+02 -1.046618565E+03  1.072309995E+03  4.750000000E+00  0.00000E+00  9.000E+00
       3     1     1     2   502     0  2.689280301E+01  1.623748492E+01  7.415357969E+01  8.053342258E+01  3.814697266E-06  0.00000E+00  9.000E+00
#rwgt            1           9  -1.4047812554115333E-007           8     1371597           0
</event>
<event>
      6   9999 -3.45752E-01  4.68783E+00 -1.00000E+00  2.34400E-01
      21    -1     0     0   501   502  0.000000000E+00  0.000000000E+00  2.004432398E+01  2.004432398E+01  0.000000000E+00  0.00000E+00  9.000E+00
      21    -1     0     0   502   511  0.000000000E+00  0.000000000E+00 -1.038766767E+03  1.038766767E+03  0.000000000E+00  0.00000E+00  9.000E+00
      25     1     1     2     0     0  4.224558824E+01  1.788117947E+01 -4.427537799E+02  4.623431337E+02  1.250033495E+02  0.00000E+00  9.000E+00
       5     1     1     2   501     0  2.040095045E+00  2.767497801E+00  8.216150447E+00  1.009399128E+01  4.750000000E+00  0.00000E+00  9.000E+00
      -5     1     1     2     0   503 -3.988531251E+01 -2.226500065E+01 -5.330864366E+02  5.350610057E+02  4.750000000E+00  0.00000E+00  9.000E+00
      21     1     1     2   503   511 -4.400370771E+00  1.616323377E+00 -5.109837693E+01  5.131296024E+01  1.168007728E-06  0.00000E+00  9.000E+00
#rwgt            1           9  -1.0358482199801411E-003           8     1373791           0
</event>
<event>
      6   9999  3.45752E-01  9.47999E+00 -1.00000E+00  1.89670E-01
      21    -1     0     0   501   502  0.000000000E+00  0.000000000E+00  3.201997743E+02  3.201997743E+02  0.000000000E+00  0.00000E+00  9.000E+00
      21    -1     0     0   502   512  0.000000000E+00  0.000000000E+00 -8.382310398E+01  8.382310398E+01  0.000000000E+00  0.00000E+00  9.000E+00
      25     1     1     2     0     0  4.158517804E+01 -2.971854905E+01  5.356617356E+00  1.351489448E+02  1.249960990E+02  0.00000E+00  9.000E+00
       5     1     1     2   501     0 -2.461651629E+00 -2.468377441E+00  1.548928044E+02  1.550048256E+02  4.750000000E+00  0.00000E+00  9.000E+00
      -5     1     1     2     0   503 -3.386556149E+01  2.429870112E+01  8.870161541E+01  9.812156852E+01  4.750000000E+00  0.00000E+00  9.000E+00
      21     1     1     2   503   512 -5.257964922E+00  7.888225375E+00 -1.257436679E+01  1.574753933E+01  3.371747881E-07  0.00000E+00  9.000E+00
#rwgt            1           9   8.1501377201245734E-005           8     1379238           0
</event>
<event>
      6   9999  3.45752E-01  1.42136E+01 -1.00000E+00  1.72423E-01
      21    -1     0     0   501   502  0.000000000E+00  0.000000000E+00  4.617198407E+01  4.617198407E+01  0.000000000E+00  0.00000E+00  9.000E+00
      21    -1     0     0   511   503  0.000000000E+00  0.000000000E+00 -2.869861189E+03  2.869861189E+03  0.000000000E+00  0.00000E+00  9.000E+00
      25     1     1     2     0     0  5.897940005E+01 -6.053683219E+01 -1.799995509E+02  2.348752789E+02  1.249931224E+02  0.00000E+00  9.000E+00
       5     1     1     2   501     0  3.615756300E-01  3.130260696E+00  1.728845112E+01  1.820390922E+01  4.750000000E+00  0.00000E+00  9.000E+00
      -5     1     1     2     0   503 -4.968978384E+01  6.784115510E+01 -2.475341498E+03  2.476774029E+03  4.750000000E+00  0.00000E+00  9.000E+00
      21     1     1     2   511   502 -9.651191837E+00 -1.043458361E+01 -1.856366076E+02  1.861799563E+02  3.814697266E-06  0.00000E+00  9.000E+00
#rwgt            1           9   1.6647440498076314                8     1382712           0
</event>
<event>
      6   9999  3.45752E-01  2.18474E+01 -1.00000E+00  1.57336E-01
      21    -1     0     0   501   512  0.000000000E+00  0.000000000E+00  4.411498149E+01  4.411498149E+01  0.000000000E+00  0.00000E+00  9.000E+00
      21    -1     0     0   502   503  0.000000000E+00  0.000000000E+00 -1.248008639E+03  1.248008639E+03  0.000000000E+00  0.00000E+00  9.000E+00
      25     1     1     2     0     0  5.763914858E+01 -1.669530471E+02 -8.498666474E+02  8.769806247E+02  1.250044254E+02  0.00000E+00  9.000E+00
       5     1     1     2   501     0  9.323480260E-01 -5.699792963E-01  8.621085622E+00  9.903522935E+00  4.750000000E+00  0.00000E+00  9.000E+00
      -5     1     1     2     0   503 -4.216657983E+01  1.530943095E+02 -3.236701937E+02  3.605562992E+02  4.750000000E+00  0.00000E+00  9.000E+00
      21     1     1     2   502   512 -1.640491677E+01  1.442871689E+01 -3.897790203E+01  4.468317370E+01  0.000000000E+00  0.00000E+00  9.000E+00
#rwgt            1           9   3.9765117481390712E-004           8     1385969           0
</event>
<event>
      6   9999  3.45752E-01  1.89525E+01 -1.00000E+00  1.62014E-01
      21    -1     0     0   501   511  0.000000000E+00  0.000000000E+00  9.988576185E+01  9.988576185E+01  0.000000000E+00  0.00000E+00  9.000E+00
      21    -1     0     0   502   503  0.000000000E+00  0.000000000E+00 -7.938993998E+02  7.938993998E+02  0.000000000E+00  0.00000E+00  9.000E+00
      25     1     1     2     0     0  4.708221512E+00  8.954700080E+00 -6.966842863E+02  7.078673665E+02  1.249194132E+02  0.00000E+00  9.000E+00
       5     1     1     2   501     0  1.040538673E+01 -3.164032366E-01 -5.141847794E+01  5.267631875E+01  4.750000000E+00  0.00000E+00  9.000E+00
      -5     1     1     2     0   503 -4.074532916E-01  3.316958734E+00 -3.839682685E+01  3.883358141E+01  4.750000000E+00  0.00000E+00  9.000E+00
      21     1     1     2   502   511 -1.470615495E+01 -1.195525558E+01  9.248595307E+01  9.440789503E+01  4.264961200E-06  0.00000E+00  9.000E+00
#rwgt            1           9   7.1279357154155239E-003           8     1388181           0
</event>
<event>
      6   9999  3.45752E-01  1.80545E+01 -1.00000E+00  1.63678E-01
       1    -1     0     0   501     0  0.000000000E+00  0.000000000E+00  2.476033430E+01  2.476033430E+01  0.000000000E+00  0.00000E+00  9.000E+00
      21    -1     0     0   502   503  0.000000000E+00  0.000000000E+00 -7.426212881E+02  7.426212881E+02  0.000000000E+00  0.00000E+00  9.000E+00
      25     1     1     2     0     0 -2.101816716E+01 -1.643043069E+01 -6.031190641E+02  6.165142479E+02  1.250019597E+02  0.00000E+00  9.000E+00
       5     1     1     2   501     0 -6.814060159E+00 -1.945085279E+00 -3.029884300E+01  3.147693059E+01  4.750000000E+00  0.00000E+00  9.000E+00
      -5     1     1     2     0   503  1.588188079E+01  4.842030921E+00 -9.627021535E+01  9.780693362E+01  4.750000000E+00  0.00000E+00  9.000E+00
       1     1     1     2   502     0  1.195034653E+01  1.353348505E+01  1.182716864E+01  2.158351032E+01  1.118282261E-06  0.00000E+00  9.000E+00
#rwgt            1           9  0.13676092370331058                8     1389431           0
</event>
<event>
      6   9999  3.45752E-01  1.61013E+02 -1.00000E+00  1.12254E-01
      21    -1     0     0   502   511  0.000000000E+00  0.000000000E+00  3.272721906E+02  3.272721906E+02  0.000000000E+00  0.00000E+00  9.000E+00
      21    -1     0     0   501   502  0.000000000E+00  0.000000000E+00 -1.687293134E+03  1.687293134E+03  0.000000000E+00  0.00000E+00  9.000E+00
      25     1     1     2     0     0 -2.366708473E+02  1.162558927E+01 -4.231663003E+02  5.008428568E+02  1.250024211E+02  0.00000E+00  9.000E+00
       5     1     1     2   501     0 -6.645240042E-01  3.241682202E+00 -7.048221581E+02  7.048459315E+02  4.750000000E+00  0.00000E+00  9.000E+00
      -5     1     1     2     0   503  3.004539720E+02 -1.629931138E+02 -4.327974731E+02  5.515211326E+02  4.750000000E+00  0.00000E+00  9.000E+00
      21     1     1     2   503   511 -6.311860077E+01  1.481258424E+02  2.007649885E+02  2.573554032E+02  2.697398305E-06  0.00000E+00  9.000E+00
#rwgt            1           9  0.80361895319554499                8     1390619           0
</event>
<event>
      6   9999  3.45752E-01  5.43303E+01 -1.00000E+00  1.32885E-01
      -2    -1     0     0     0   502  0.000000000E+00  0.000000000E+00  6.040715820E+01  6.040715820E+01  0.000000000E+00  0.00000E+00  9.000E+00
       2    -1     0     0   512     0  0.000000000E+00  0.000000000E+00 -1.731003227E+03  1.731003227E+03  0.000000000E+00  0.00000E+00  9.000E+00
      25     1     1     2     0     0 -5.671412522E+01 -4.511683158E+00 -8.689723266E+02  8.797579297E+02  1.249970526E+02  0.00000E+00  9.000E+00
       5     1     1     2   501     0  1.330372451E+02 -1.488525132E+02 -2.652514310E+02  3.320193721E+02  4.750000000E+00  0.00000E+00  9.000E+00
      -5     1     1     2     0   502 -3.689902963E+01  1.159807841E+02 -1.693011855E+02  2.085630231E+02  4.750000000E+00  0.00000E+00  9.000E+00
      21     1     1     2   512   501 -3.942409028E+01  3.738341219E+01 -3.670711254E+02  3.710700601E+02  0.000000000E+00  0.00000E+00  9.000E+00
#rwgt            1           3   2.1754370306847459E-002           8     1391624           0
</event>
<event>
      6   9999  3.45752E-01  6.02178E+00 -1.00000E+00  2.13839E-01
      21    -1     0     0   511   502  0.000000000E+00  0.000000000E+00  2.732991242E+01  2.732991242E+01  0.000000000E+00  0.00000E+00  9.000E+00
      21    -1     0     0   502   503  0.000000000E+00  0.000000000E+00 -8.199109384E+02  8.199109384E+02  0.000000000E+00  0.00000E+00  9.000E+00
      25     1     1     2     0     0  9.385072853E+00 -1.822100615E+00 -7.501522442E+02  7.605557535E+02  1.250010603E+02  0.00000E+00  9.000E+00
       5     1     1     2   501     0 -7.882556722E+00 -3.682138786E-01  2.256946042E+00  9.482963006E+00  4.750000000E+00  0.00000E+00  9.000E+00
      -5     1     1     2     0   503 -1.428289050E+00 -3.831005241E+00 -6.021807363E+01  6.054333574E+01  4.750000000E+00  0.00000E+00  9.000E+00
      21     1     1     2   511   501 -7.422708052E-02  6.021319735E+00  1.553234584E+01  1.665879853E+01  8.760057960E-07  0.00000E+00  9.000E+00
#rwgt            1           9   1.6094976489865838                8     1393614           0
</event>
<event>
      6   9999  3.45752E-01  2.82947E+01 -1.00000E+00  1.49501E-01
      21    -1     0     0   502   503  0.000000000E+00  0.000000000E+00  1.004714316E+01  1.004714316E+01  0.000000000E+00  0.00000E+00  9.000E+00
      21    -1     0     0   501   512  0.000000000E+00  0.000000000E+00 -9.045121747E+02  9.045121747E+02  0.000000000E+00  0.00000E+00  9.000E+00
      25     1     1     2     0     0 -2.554483269E+01 -4.917913402E+00 -5.044110373E+02  5.203192763E+02  1.249997212E+02  0.00000E+00  9.000E+00
       5     1     1     2   501     0  4.807782212E+00 -1.681182650E+01 -2.296508928E+02  2.303645965E+02  4.750000000E+00  0.00000E+00  9.000E+00
      -5     1     1     2     0   503  5.258526664E-01  1.928254272E+00 -2.031453776E+01  2.095799681E+01  4.750000000E+00  0.00000E+00  9.000E+00
      21     1     1     2   502   512  2.021119782E+01  1.980148563E+01 -1.400885636E+02  1.429174482E+02  1.907348633E-06  0.00000E+00  9.000E+00
#rwgt            1           9   3.3402478553910311                8     1397180           0
</event>
<event>
      6   9999  3.45752E-01  9.30517E+00 -1.00000E+00  1.90549E-01
      21    -1     0     0   501   511  0.000000000E+00  0.000000000E+00  3.692281767E+02  3.692281767E+02  0.000000000E+00  0.00000E+00  9.000E+00
      21    -1     0     0   502   503  0.000000000E+00  0.000000000E+00 -4.086468396E+01  4.086468396E+01  0.000000000E+00  0.00000E+00  9.000E+00
      25     1     1     2     0     0  3.276467359E+01  2.888719629E+01  9.834089242E+01  1.649344914E+02  1.249978456E+02  0.00000E+00  9.000E+00
       5     1     1     2   501     0 -2.982620618E+00 -1.257841351E-01  1.169627724E+02  1.170972437E+02  4.750000000E+00  0.00000E+00  9.000E+00
      -5     1     1     2     0   503 -3.522129082E+01 -3.631130357E+01  9.693240593E+01  1.094417832E+02  4.750000000E+00  0.00000E+00  9.000E+00
      21     1     1     2   502   511  5.439237853E+00  7.549891409E+00  1.612742199E+01  1.861934233E+01  2.384185791E-07  0.00000E+00  9.000E+00
#rwgt            1           9   1.5456337077638777E-003           8     1398797           0
</event>
<event>
      6   9999  3.45752E-01  2.06928E+01 -1.00000E+00  1.59090E-01
      21    -1     0     0   501   502  0.000000000E+00  0.000000000E+00  1.637092552E+01  1.637092552E+01  0.000000000E+00  0.00000E+00  9.000E+00
      21    -1     0     0   502   512  0.000000000E+00  0.000000000E+00 -2.465125621E+03  2.465125621E+03  0.000000000E+00  0.00000E+00  9.000E+00
      25     1     1     2     0     0 -1.817160125E+01 -2.411485702E+00 -6.440864709E+02  6.563604530E+02  1.250025595E+02  0.00000E+00  9.000E+00
       5     1     1     2   501     0  5.521088764E+00  3.181802240E+00  7.847270215E+00  1.116908396E+01  4.750000000E+00  0.00000E+00  9.000E+00
      -5     1     1     2     0   503  2.035121138E+01  1.843625863E+01 -2.956838271E+02  2.969942012E+02  4.750000000E+00  0.00000E+00  9.000E+00
      21     1     1     2   503   512 -7.700698896E+00 -1.920657517E+01 -1.516831668E+03  1.516972808E+03  2.157918644E-05  0.00000E+00  9.000E+00
#rwgt            1           9  0.40548768574147898                8     1402280           0
</event>
<event>
      6   9999  3.45752E-01  1.13270E+01 -1.00000E+00  1.81668E-01
      21    -1     0     0   501   511  0.000000000E+00  0.000000000E+00  4.035657492E+02  4.035657492E+02  0.000000000E+00  0.00000E+00  9.000E+00
      21    -1     0     0   502   503  0.000000000E+00  0.000000000E+00 -7.251653509E+02  7.251653509E+02  0.000000000E+00  0.00000E+00  9.000E+00
      25     1     1     2     0     0 -2.568072557E+01 -1.358910327E+00 -5.929060810E+02  6.065338521E+02  1.252371614E+02  0.00000E+00  9.000E+00
       5     1     1     2   501     0  9.824898089E-01 -3.173889138E+00 -3.017035720E+01  3.072217135E+01  4.750000000E+00  0.00000E+00  9.000E+00
      -5     1     1     2     0   503  1.348526675E+01  2.929320334E+00 -9.435710505E+01  9.547910301E+01  4.750000000E+00  0.00000E+00  9.000E+00
      21     1     1     2   502   511  1.121296901E+01  1.603479130E+00  3.958339415E+02  3.959959736E+02  0.000000000E+00  0.00000E+00  9.000E+00
#rwgt            1           9   5.3044655808622788E-003           8     1403933           0
</event>
<event>
      6   9999  3.45752E-01  1.43309E+01 -1.00000E+00  1.72107E-01
      21    -1     0     0   512   502  0.000000000E+00  0.000000000E+00  1.933119950E+02  1.933119950E+02  0.000000000E+00  0.00000E+00  9.000E+00
      21    -1     0     0   502   503  0.000000000E+00  0.000000000E+00 -2.397520642E+03  2.397520642E+03  0.000000000E+00  0.00000E+00  9.000E+00
      25     1     1     2     0     0  3.431286178E+01 -1.891725956E+00 -2.211815616E+03  2.215611469E+03  1.249996489E+02  0.00000E+00  9.000E+00
       5     1     1     2   501     0 -4.344388772E+00 -2.337228251E+00 -2.325932299E+00  7.232483029E+00  4.750000000E+00  0.00000E+00  9.000E+00
      -5     1     1     2     0   503 -4.150359166E+01 -4.274912518E+00 -1.762863449E+02  1.812188205E+02  4.750000000E+00  0.00000E+00  9.000E+00
      21     1     1     2   512   501  1.153511866E+01  8.503866725E+00  1.862192460E+02  1.867698645E+02  8.529922400E-06  0.00000E+00  9.000E+00
#rwgt            1           9   8.8329937478267792E-004           8     1405844           0
</event>
<event>
      6   9999  3.45752E-01  5.41441E+00 -1.00000E+00  2.20465E-01
      21    -1     0     0   501   502  0.000000000E+00  0.000000000E+00  4.687580582E+01  4.687580582E+01  0.000000000E+00  0.00000E+00  9.000E+00
       2    -1     0     0   502     0  0.000000000E+00  0.000000000E+00 -3.741836902E+03  3.741836902E+03  0.000000000E+00  0.00000E+00  9.000E+00
      25     1     1     2     0     0  2.248993159E+01  8.063949323E+00 -9.619004616E+02  9.702825861E+02  1.249998982E+02  0.00000E+00  9.000E+00
       5     1     1     2   501     0 -1.065389590E+01 -2.743764698E+00  4.174554160E+01  4.343139977E+01  4.750000000E+00  0.00000E+00  9.000E+00
      -5     1     1     2     0   503 -6.866415642E+00 -7.469301381E+00 -3.363068798E+02  3.364934145E+02  4.750000000E+00  0.00000E+00  9.000E+00
       2     1     1     2   503     0 -4.969620052E+00  2.149116757E+00 -2.438499296E+03  2.438505307E+03  3.051757812E-05  0.00000E+00  9.000E+00
#rwgt            1           9   2.2891808939888771E-002           8     1408005           0
</event>
<event>
      6   9999  3.45752E-01  3.16816E+01 -1.00000E+00  1.46322E-01
      21    -1     0     0   501   502  0.000000000E+00  0.000000000E+00  2.152591473E+02  2.152591473E+02  0.000000000E+00  0.00000E+00  9.000E+00
      21    -1     0     0   511   503  0.000000000E+00  0.000000000E+00 -8.059889567E+02  8.059889567E+02  0.000000000E+00  0.00000E+00  9.000E+00
      25     1     1     2     0     0 -1.174165099E+02 -1.037560903E+02 -3.799187895E+02  4.295524936E+02  1.250003804E+02  0.00000E+00  9.000E+00
       5     1     1     2   501     0 -1.926445024E+00 -5.896574730E+00  1.705937665E+02  1.707725870E+02  4.750000000E+00  0.00000E+00  9.000E+00
      -5     1     1     2     0   503  8.766215539E+01  1.094345132E+02 -2.598248219E+02  2.952830282E+02  4.750000000E+00  0.00000E+00  9.000E+00
      21     1     1     2   511   502  3.168079954E+01  2.181518036E-01 -1.215799645E+02  1.256399953E+02  1.907348633E-06  0.00000E+00  9.000E+00
#rwgt            1           9   2.0911404572496772E-004           8     1414122           0
</event>
<event>
      6   9999  3.45752E-01  1.49554E+01 -1.00000E+00  1.70484E-01
      21    -1     0     0   501   502  0.000000000E+00  0.000000000E+00  3.746471451E+01  3.746471451E+01  0.000000000E+00  0.00000E+00  9.000E+00
      21    -1     0     0   512   503  0.000000000E+00  0.000000000E+00 -1.474749511E+03  1.474749511E+03  0.000000000E+00  0.00000E+00  9.000E+00
      25     1     1     2     0     0  1.588798468E+01 -1.090055217E+01 -1.128862834E+03  1.135927712E+03  1.250168778E+02  0.00000E+00  9.000E+00
       5     1     1     2   501     0 -4.574236858E+00  7.181723304E+00  3.290228203E+01  3.431651869E+01  4.750000000E+00  0.00000E+00  9.000E+00
      -5     1     1     2     0   503  3.418975519E+00  1.147851442E+00 -8.392086340E+01  8.413251910E+01  4.750000000E+00  0.00000E+00  9.000E+00
      21     1     1     2   512   502 -1.473272334E+01  2.570977423E+00 -2.574033812E+02  2.578374754E+02  0.000000000E+00  0.00000E+00  9.000E+00
#rwgt            1           9   126.30283350628817                8     1416229           0
</event>
<event>
      6   9999  3.45752E-01  2.41363E+00 -1.00000E+00  3.04199E-01
      21    -1     0     0   511   503  0.000000000E+00  0.000000000E+00  1.377249632E+01  1.377249632E+01  0.000000000E+00  0.00000E+00  9.000E+00
      21    -1     0     0   501   502  0.000000000E+00  0.000000000E+00 -8.475434118E+02  8.475434118E+02  0.000000000E+00  0.00000E+00  9.000E+00
      25     1     1     2     0     0  5.813751849E+00  5.667237923E+01 -5.806655913E+02  5.967243312E+02  1.251472741E+02  0.00000E+00  9.000E+00
       5     1     1     2   501     0  2.187742075E+00  5.356588519E-01 -4.823858564E+01  4.852418768E+01  4.750000000E+00  0.00000E+00  9.000E+00
      -5     1     1     2     0   503 -8.177860761E+00 -5.961521264E+01 -2.049485883E+02  2.136523750E+02  4.750000000E+00  0.00000E+00  9.000E+00
      21     1     1     2   511   502  1.763668376E-01  2.407174555E+00  8.184976904E-02  2.415014283E+00  1.280695532E-07  0.00000E+00  9.000E+00
#rwgt            1           9   4.7796432087584842E-002           8     1418953           0
</event>
<event>
      6   9999 -3.45752E-01  1.10817E+01 -1.00000E+00  1.82614E-01
      21    -1     0     0   501   512  0.000000000E+00  0.000000000E+00  1.838675825E+01  1.838675825E+01  0.000000000E+00  0.00000E+00  9.000E+00
      21    -1     0     0   502   503  0.000000000E+00  0.000000000E+00 -8.093476072E+02  8.093476072E+02  0.000000000E+00  0.00000E+00  9.000E+00
      25     1     1     2     0     0 -5.817345604E+00 -6.268540804E+00 -6.573764310E+02  6.692099130E+02  1.249999983E+02  0.00000E+00  9.000E+00
       5     1     1     2   501     0  7.200832372E-01 -4.042809759E+00  7.479474825E+00  9.765647663E+00  4.750000000E+00  0.00000E+00  9.000E+00
      -5     1     1     2     0   503  1.589798765E+00 -2.006578376E-01 -1.367894628E+02  1.368812893E+02  4.750000000E+00  0.00000E+00  9.000E+00
      21     1     1     2   502   512  3.507463602E+00  1.051200840E+01 -4.274429954E+00  1.187751544E+01  3.625608999E-07  0.00000E+00  9.000E+00
#rwgt            1           9  -3.5405505027575721                8     1426173           0
</event>
<event>
      6   9999  3.45752E-01  8.00986E+00 -1.00000E+00  1.97952E-01
      -4    -1     0     0     0   502  0.000000000E+00  0.000000000E+00  5.451821359E+01  5.451821359E+01  0.000000000E+00  0.00000E+00  9.000E+00
      21    -1     0     0   502   503  0.000000000E+00  0.000000000E+00 -3.787840666E+02  3.787840666E+02  0.000000000E+00  0.00000E+00  9.000E+00
      25     1     1     2     0     0 -1.773738347E+00  2.090127532E+01 -2.549079625E+02  2.846801537E+02  1.249988444E+02  0.00000E+00  9.000E+00
       5     1     1     2   501     0 -9.124136596E-01  6.970076076E-01  3.516185237E+00  6.020330299E+00  4.750000000E+00  0.00000E+00  9.000E+00
      -5     1     1     2     0   503 -2.371136400E+00 -1.538687021E+01 -1.066521172E+02  1.078870458E+02  4.750000000E+00  0.00000E+00  9.000E+00
      -4     1     1     2     0   501  5.057288407E+00 -6.211412710E+00  3.377804140E+01  3.471475039E+01  4.768371582E-07  0.00000E+00  9.000E+00
#rwgt            1           9   5.1683590659209440E-003           8     1428934           0
</event>
<event>
      6   9999  3.45752E-01  2.01328E+01 -1.00000E+00  1.59991E-01
      21    -1     0     0   511   502  0.000000000E+00  0.000000000E+00  5.471330520E+02  5.471330520E+02  0.000000000E+00  0.00000E+00  9.000E+00
      21    -1     0     0   502   503  0.000000000E+00  0.000000000E+00 -2.291543000E+01  2.291543000E+01  0.000000000E+00  0.00000E+00  9.000E+00
      25     1     1     2     0     0 -3.304616594E+00 -1.921462142E+01  1.697165895E+02  2.116800967E+02  1.249984817E+02  0.00000E+00  9.000E+00
       5     1     1     2   501     0 -9.973192620E-01 -2.142325269E+00  1.373808988E+02  1.374833010E+02  4.750000000E+00  0.00000E+00  9.000E+00
      -5     1     1     2     0   503 -4.925233182E+00  3.463073640E+00  9.133017057E+00  1.192582498E+01  4.750000000E+00  0.00000E+00  9.000E+00
      21     1     1     2   511   501  9.227169038E+00  1.789387305E+01  2.079871166E+02  2.089592593E+02  0.000000000E+00  0.00000E+00  9.000E+00
#rwgt            1           9   4.4088518788151852E-004           8     1431577           0
</event>
<event>
      6   9999  3.45752E-01  1.67268E+01 -1.00000E+00  1.66370E-01
      21    -1     0     0   501   502  0.000000000E+00  0.000000000E+00  4.682734548E+02  4.682734548E+02  0.000000000E+00  0.00000E+00  9.000E+00
      21    -1     0     0   512   503  0.000000000E+00  0.000000000E+00 -5.795998134E+01  5.795998134E+01  0.000000000E+00  0.00000E+00  9.000E+00
      25     1     1     2     0     0 -4.229321325E+00  6.600219419E+00  2.936835317E+01  1.286432744E+02  1.250005673E+02  0.00000E+00  9.000E+00
       5     1     1     2   501     0 -1.223302501E+01 -2.753326960E+00  3.730518816E+02  3.732927759E+02  4.750000000E+00  0.00000E+00  9.000E+00
      -5     1     1     2     0   503 -2.061188672E-01 -2.451406712E+00  5.000087883E+00  7.322244102E+00  4.750000000E+00  0.00000E+00  9.000E+00
      21     1     1     2   512   502  1.666846521E+01 -1.395485747E+00  2.893150816E+00  1.697514166E+01  9.424321831E-08  0.00000E+00  9.000E+00
#rwgt            1           9   6.8884877581701386E-004           8     1433012           0
</event>
<event>
      6   9999  3.45752E-01  9.57352E+00 -1.00000E+00  1.89210E-01
      21    -1     0     0   501   502  0.000000000E+00  0.000000000E+00  2.752326294E+01  2.752326294E+01  0.000000000E+00  0.00000E+00  9.000E+00
      21    -1     0     0   502   511  0.000000000E+00  0.000000000E+00 -1.137154044E+03  1.137154044E+03  0.000000000E+00  0.00000E+00  9.000E+00
      25     1     1     2     0     0 -4.633920938E+01  1.063902434E+02 -3.119478882E+02  3.555310638E+02  1.249985846E+02  0.00000E+00  9.000E+00
       5     1     1     2   501     0  2.082370575E+01 -6.932820626E+01 -2.924997949E+02  3.013614431E+02  4.750000000E+00  0.00000E+00  9.000E+00
      -5     1     1     2     0   503  1.795984090E+01 -3.118289682E+01 -4.674155147E+02  4.688227328E+02  4.750000000E+00  0.00000E+00  9.000E+00
      21     1     1     2   503   511  7.555662720E+00 -5.879140344E+00 -3.776758333E+01  3.896206720E+01  6.743495762E-07  0.00000E+00  9.000E+00
#rwgt            1           9   9.7291487241783466E-004           8     1435072           0
</event>
<event>
      6   9999  3.45752E-01  2.37572E+01 -1.00000E+00  1.54706E-01
      21    -1     0     0   501   502  0.000000000E+00  0.000000000E+00  6.173375909E+02  6.173375909E+02  0.000000000E+00  0.00000E+00  9.000E+00
      21    -1     0     0   502   512  0.000000000E+00  0.000000000E+00 -3.808582561E+03  3.808582561E+03  0.000000000E+00  0.00000E+00  9.000E+00
      25     1     1     2     0     0  6.693786490E+02 -5.540240208E+02 -2.642292978E+03  2.784304868E+03  1.250240897E+02  0.00000E+00  9.000E+00
       5     1     1     2   501     0 -9.877666888E+00 -8.630598120E+00  3.338488397E+02  3.341401888E+02  4.750000000E+00  0.00000E+00  9.000E+00
      -5     1     1     2     0   503 -6.722783342E+02  5.426260052E+02 -6.698854990E+02  1.093238439E+03  4.750000000E+00  0.00000E+00  9.000E+00
      21     1     1     2   503   512  1.277735204E+01  2.002861379E+01 -2.129153321E+02  2.142366559E+02  2.697398305E-06  0.00000E+00  9.000E+00
#rwgt            1           9   5.0718449226998729E-003           8     1438284           0
</event>
<event>
      6   9999  3.45752E-01  6.49948E+00 -1.00000E+00  2.09332E-01
      21    -1     0     0   511   502  0.000000000E+00  0.000000000E+00  4.051527396E+02  4.051527396E+02  0.000000000E+00  0.00000E+00  9.000E+00
      21    -1     0     0   502   503  0.000000000E+00  0.000000000E+00 -3.008293363E+02  3.008293363E+02  0.000000000E+00  0.00000E+00  9.000E+00
      25     1     1     2     0     0 -1.669796083E+00 -1.331668339E+01 -2.773932155E+02  3.045613536E+02  1.250219974E+02  0.00000E+00  9.000E+00
       5     1     1     2   501     0 -1.566613107E+00  5.314322831E+00  7.402048479E+01  7.437937195E+01  4.750000000E+00  0.00000E+00  9.000E+00
      -5     1     1     2     0   503 -1.640752951E+00  3.706254177E+00 -8.627969840E+00  1.065048139E+01  4.750000000E+00  0.00000E+00  9.000E+00
      21     1     1     2   511   501  4.877162140E+00  4.296106379E+00  3.163241038E+02  3.163908689E+02  5.394796609E-06  0.00000E+00  9.000E+00
#rwgt            1           9   3.7717968167633360E-004           8     1442973           0
</event>
<event>
      6   9999  3.45752E-01  3.50153E+01 -1.00000E+00  1.43622E-01
      21    -1     0     0   512   502  0.000000000E+00  0.000000000E+00  3.191104426E+01  3.191104426E+01  0.000000000E+00  0.00000E+00  9.000E+00
       1    -1     0     0   501     0  0.000000000E+00  0.000000000E+00 -7.874841932E+02  7.874841932E+02  0.000000000E+00  0.00000E+00  9.000E+00
      25     1     1     2     0     0 -5.327841290E+01  7.027857655E+01 -5.885803844E+02  6.081365407E+02  1.250020623E+02  0.00000E+00  9.000E+00
       5     1     1     2   501     0  3.730108700E+01 -3.088106963E+01 -1.021241988E+02  1.131234991E+02  4.750000000E+00  0.00000E+00  9.000E+00
      -5     1     1     2     0   502  3.531694231E+01 -1.020761006E+01 -2.329344426E+01  4.377931890E+01  4.750000000E+00  0.00000E+00  9.000E+00
       1     1     1     2   512     0 -1.933961641E+01 -2.918989686E+01 -4.157512145E+01  5.435587885E+01  4.768371582E-07  0.00000E+00  9.000E+00
#rwgt            1           1   1.2792449879162030E-004           8     1447196           0
</event>
<event>
      6   9999  3.45752E-01  1.77519E+01 -1.00000E+00  1.64266E-01
      21    -1     0     0   501   502  0.000000000E+00  0.000000000E+00  2.093530972E+01  2.093530972E+01  0.000000000E+00  0.00000E+00  9.000E+00
      21    -1     0     0   511   503  0.000000000E+00  0.000000000E+00 -2.864396044E+03  2.864396044E+03  0.000000000E+00  0.00000E+00  9.000E+00
      25     1     1     2     0     0  5.957005757E+01 -1.537800243E+02 -1.141732317E+03  1.160334283E+03  1.250043055E+02  0.00000E+00  9.000E+00
       5     1     1     2   501     0 -5.189034396E+00 -3.770275172E+00  5.136772617E+00  9.491574461E+00  4.750000000E+00  0.00000E+00  9.000E+00
      -5     1     1     2     0   503 -5.907986307E+01  1.404315763E+02 -1.591465824E+03  1.598748726E+03  4.750000000E+00  0.00000E+00  9.000E+00
      21     1     1     2   511   502  4.698839891E+00  1.711872320E+01 -1.153993663E+02  1.167567708E+02  0.000000000E+00  0.00000E+00  9.000E+00
#rwgt            1           9   3.1815976591155763E-003           8     1447309           0
</event>
<event>
      6   9999 -3.45752E-01  4.01045E+00 -1.00000E+00  2.47616E-01
      21    -1     0     0   512   502  0.000000000E+00  0.000000000E+00  3.050751710E+01  3.050751710E+01  0.000000000E+00  0.00000E+00  9.000E+00
      21    -1     0     0   502   503  0.000000000E+00  0.000000000E+00 -7.819423677E+02  7.819423677E+02  0.000000000E+00  0.00000E+00  9.000E+00
      25     1     1     2     0     0  8.769129577E-01 -2.494992354E+00 -6.899130086E+02  7.011504173E+02  1.249998173E+02  0.00000E+00  9.000E+00
       5     1     1     2   501     0 -4.036874605E-01 -1.951094520E+00  2.350366584E+00  5.661842144E+00  4.750000000E+00  0.00000E+00  9.000E+00
      -5     1     1     2     0   503 -4.302007866E+00  3.252728736E+00 -8.440825023E+01  8.471365134E+01  4.750000000E+00  0.00000E+00  9.000E+00
      21     1     1     2   512   501  3.828782369E+00  1.193358138E+00  2.053604169E+01  2.092397396E+01  7.907449699E-07  0.00000E+00  9.000E+00
#rwgt            1           9  -7.7127551851901765E-003           8     1450053           0
</event>
<event>
      6   9999 -3.45752E-01  1.09332E+01 -1.00000E+00  1.83203E-01
      21    -1     0     0   511   502  0.000000000E+00  0.000000000E+00  7.099695755E+02  7.099695755E+02  0.000000000E+00  0.00000E+00  9.000E+00
      21    -1     0     0   502   503  0.000000000E+00  0.000000000E+00 -7.849682886E+02  7.849682886E+02  0.000000000E+00  0.00000E+00  9.000E+00
      25     1     1     2     0     0 -3.182263698E+01 -2.787024431E+01 -5.664122511E+02  5.815818264E+02  1.250006075E+02  0.00000E+00  9.000E+00
       5     1     1     2   501     0  1.724614040E+01  2.180596813E+01 -9.575518024E+01  9.982257584E+01  4.750000000E+00  0.00000E+00  9.000E+00
      -5     1     1     2     0   503  3.673152504E+00  6.871949897E+00 -1.129556744E+02  1.133237072E+02  4.750000000E+00  0.00000E+00  9.000E+00
      21     1     1     2   511   501  1.090334408E+01 -8.076737103E-01  7.001243927E+02  7.002097546E+02  7.629394531E-06  0.00000E+00  9.000E+00
#rwgt            1           9  -2.2153684867771702E-002           8     1455029           0
</event>
<event>
      6   9999  3.45752E-01  2.57007E+01 -1.00000E+00  1.52319E-01
      21    -1     0     0   512   503  0.000000000E+00  0.000000000E+00  1.120873964E+02  1.120873964E+02  0.000000000E+00  0.00000E+00  9.000E+00
      21    -1     0     0   501   502  0.000000000E+00  0.000000000E+00 -3.172133472E+02  3.172133472E+02  0.000000000E+00  0.00000E+00  9.000E+00
      25     1     1     2     0     0  2.085279143E+01  2.620671581E-02 -4.187269483E+00  1.267985202E+02  1.250019676E+02  0.00000E+00  9.000E+00
       5     1     1     2   501     0 -1.976100481E+01  2.520793779E+00 -2.310872051E+02  2.319929107E+02  4.750000000E+00  0.00000E+00  9.000E+00
      -5     1     1     2     0   503 -5.261602888E+00 -2.790719895E+01 -2.565236558E+00  2.890742390E+01  4.750000000E+00  0.00000E+00  9.000E+00
      21     1     1     2   512   502  4.169816271E+00  2.536019845E+01  3.271376039E+01  4.160188881E+01  0.000000000E+00  0.00000E+00  9.000E+00
#rwgt            1           9   262.05998859435556                8     1456991           0
</event>
<event>
      6   9999  3.45752E-01  1.61747E+01 -1.00000E+00  1.67582E-01
      21    -1     0     0   502   511  0.000000000E+00  0.000000000E+00  1.113057278E+01  1.113057278E+01  0.000000000E+00  0.00000E+00  9.000E+00
      21    -1     0     0   501   502  0.000000000E+00  0.000000000E+00 -9.906842049E+02  9.906842049E+02  0.000000000E+00  0.00000E+00  9.000E+00
      25     1     1     2     0     0 -3.018194235E+01  3.340982872E+01 -7.367686275E+02  7.486523896E+02  1.250008947E+02  0.00000E+00  9.000E+00
       5     1     1     2   501     0 -5.990494346E+00 -1.326765268E+00 -6.938899696E+01  6.982149903E+01  4.750000000E+00  0.00000E+00  9.000E+00
      -5     1     1     2     0   503  2.779956950E+01 -1.824417326E+01 -1.560487704E+02  1.596228279E+02  4.750000000E+00  0.00000E+00  9.000E+00
      21     1     1     2   503   511  8.372867197E+00 -1.383889020E+01 -1.734723720E+01  2.371806117E+01  8.259061849E-07  0.00000E+00  9.000E+00
#rwgt            1           9  0.25944328861481808                8     1458936           0
</event>
<event>
      6   9999  3.45752E-01  1.61576E+01 -1.00000E+00  1.67620E-01
      21    -1     0     0   501   502  0.000000000E+00  0.000000000E+00  1.831892747E+01  1.831892747E+01  0.000000000E+00  0.00000E+00  9.000E+00
      21    -1     0     0   502   512  0.000000000E+00  0.000000000E+00 -8.063318975E+02  8.063318975E+02  0.000000000E+00  0.00000E+00  9.000E+00
      25     1     1     2     0     0  6.661212751E+01 -3.610753423E+00 -4.417582162E+02  4.639236049E+02  1.249983061E+02  0.00000E+00  9.000E+00
       5     1     1     2   501     0  1.411561992E+00  5.185974310E-01 -7.774948221E-01  5.042662863E+00  4.750000000E+00  0.00000E+00  9.000E+00
      -5     1     1     2     0   503 -5.195639804E+01  4.797959748E+00 -1.385179622E+02  1.480954964E+02  4.750000000E+00  0.00000E+00  9.000E+00
      21     1     1     2   503   512 -1.606729147E+01 -1.705803756E+00 -2.069592968E+02  2.075890607E+02  2.697398305E-06  0.00000E+00  9.000E+00
#rwgt            1           9  0.14739919673455962                8     1460706           0
</event>
<event>
      6   9999  3.45752E-01  5.82160E+00 -1.00000E+00  2.15900E-01
      21    -1     0     0   511   502  0.000000000E+00  0.000000000E+00  3.725568603E+01  3.725568603E+01  0.000000000E+00  0.00000E+00  9.000E+00
      21    -1     0     0   502   503  0.000000000E+00  0.000000000E+00 -4.593484581E+02  4.593484581E+02  0.000000000E+00  0.00000E+00  9.000E+00
      25     1     1     2     0     0  8.207661933E+00 -3.928931768E+00 -3.664886460E+02  3.873271742E+02  1.250024400E+02  0.00000E+00  9.000E+00
       5     1     1     2   501     0 -8.428599709E-01  1.260458550E+00  1.359718456E+01  1.448257908E+01  4.750000000E+00  0.00000E+00  9.000E+00
      -5     1     1     2     0   503 -5.114419370E+00 -2.700586700E+00 -8.115452206E+01  8.149889205E+01  4.750000000E+00  0.00000E+00  9.000E+00
      21     1     1     2   511   501 -2.250382592E+00  5.369059918E+00  1.195321141E+01  1.329549883E+01  4.768371582E-07  0.00000E+00  9.000E+00
#rwgt            1           9   1.1322791319610037E-003           8     1462473           0
</event>
<event>
      6   9999  3.45752E-01  2.56604E+01 -1.00000E+00  1.52366E-01
      21    -1     0     0   502   503  0.000000000E+00  0.000000000E+00  9.153497133E+00  9.153497133E+00  0.000000000E+00  0.00000E+00  9.000E+00
      21    -1     0     0   501   512  0.000000000E+00  0.000000000E+00 -1.133901101E+03  1.133901101E+03  0.000000000E+00  0.00000E+00  9.000E+00
      25     1     1     2     0     0  1.927168451E+01  8.172611080E-01 -5.905896071E+02  6.039814209E+02  1.250016280E+02  0.00000E+00  9.000E+00
       5     1     1     2   501     0  8.044104197E+00 -7.505279272E-01 -5.663768002E+01  5.740784095E+01  4.750000000E+00  0.00000E+00  9.000E+00
      -5     1     1     2     0   503 -1.360772847E+01 -2.175872954E+01 -1.025865003E+02  1.058544525E+02  4.750000000E+00  0.00000E+00  9.000E+00
      21     1     1     2   502   512 -1.370806024E+01  2.169199635E+01 -3.749338168E+02  3.758108841E+02  5.394796609E-06  0.00000E+00  9.000E+00
#rwgt            1           9   9.2060254120140669E-002           8     1466238           0
</event>
<event>
      6   9999 -3.45752E-01  2.03493E+01 -1.00000E+00  1.59639E-01
      21    -1     0     0   501   502  0.000000000E+00  0.000000000E+00  2.350931363E+01  2.350931363E+01  0.000000000E+00  0.00000E+00  9.000E+00
      21    -1     0     0   502   511  0.000000000E+00  0.000000000E+00 -1.118730238E+03  1.118730238E+03  0.000000000E+00  0.00000E+00  9.000E+00
      25     1     1     2     0     0  2.239922348E+00  2.183480085E+01 -9.997393679E+02  1.007762483E+03  1.249985708E+02  0.00000E+00  9.000E+00
       5     1     1     2   501     0  1.353749316E+00  1.983047404E+00  1.739905704E+01  1.819491138E+01  4.750000000E+00  0.00000E+00  9.000E+00
      -5     1     1     2     0   503 -4.734495493E+00 -3.500547489E+00 -2.960577902E+01  3.055706026E+01  4.750000000E+00  0.00000E+00  9.000E+00
      21     1     1     2   503   511  1.140823830E+00 -2.031730076E+01 -8.327483474E+01  8.572509720E+01  1.348699152E-06  0.00000E+00  9.000E+00
#rwgt            1           9  -1.0108786594103970E-004           8     1467547           0
</event>
<event>
      6   9999  3.45752E-01  2.19219E+01 -1.00000E+00  1.57227E-01
      21    -1     0     0   501   502  0.000000000E+00  0.000000000E+00  3.523078155E+01  3.523078155E+01  0.000000000E+00  0.00000E+00  9.000E+00
      21    -1     0     0   502   512  0.000000000E+00  0.000000000E+00 -1.526719009E+03  1.526719009E+03  0.000000000E+00  0.00000E+00  9.000E+00
      25     1     1     2     0     0 -2.091125733E+00  4.025184379E+01 -1.194434145E+03  1.201633874E+03  1.250058302E+02  0.00000E+00  9.000E+00
       5     1     1     2   501     0  1.265037196E+00 -1.099492087E+00  2.932975526E+01  2.975913717E+01  4.750000000E+00  0.00000E+00  9.000E+00
      -5     1     1     2     0   503 -3.261868951E+00 -1.761496166E+01 -5.033079057E+01  5.363466829E+01  4.750000000E+00  0.00000E+00  9.000E+00
      21     1     1     2   503   512  4.087957488E+00 -2.153739005E+01 -2.760530472E+02  2.769221108E+02  6.607249480E-06  0.00000E+00  9.000E+00
#rwgt            1           9   4.7568179473271734E-004           8     1469995           0
</event>
<event>
      6   9999  3.45752E-01  1.36360E+01 -1.00000E+00  1.74040E-01
       4    -1     0     0   501     0  0.000000000E+00  0.000000000E+00  1.096574518E+03  1.096574518E+03  0.000000000E+00  0.00000E+00  9.000E+00
      21    -1     0     0   502   503  0.000000000E+00  0.000000000E+00 -3.730116094E+01  3.730116094E+01  0.000000000E+00  0.00000E+00  9.000E+00
      25     1     1     2     0     0  2.488341320E+01  5.287947105E+01  1.348248476E+02  1.929183951E+02  1.249973796E+02  0.00000E+00  9.000E+00
       5     1     1     2   501     0  1.442426469E-01 -8.382573683E-01  6.939954482E+01  6.956711006E+01  4.750000000E+00  0.00000E+00  9.000E+00
      -5     1     1     2     0   503 -1.451594889E+01 -6.072711020E+01  1.127931463E+02  1.290091123E+02  4.750000000E+00  0.00000E+00  9.000E+00
       4     1     1     2   502     0 -1.051170696E+01  8.685896519E+00  7.422558179E+02  7.423810611E+02  0.000000000E+00  0.00000E+00  9.000E+00
#rwgt            1           9   1.8879553708313435E-004           8     1472658           0
</event>
<event>
      6   9999  3.45752E-01  3.24412E+01 -1.00000E+00  1.45673E-01
      21    -1     0     0   501   511  0.000000000E+00  0.000000000E+00  9.503439441E+02  9.503439441E+02  0.000000000E+00  0.00000E+00  9.000E+00
      21    -1     0     0   502   503  0.000000000E+00  0.000000000E+00 -2.011641207E+02  2.011641207E+02  0.000000000E+00  0.00000E+00  9.000E+00
      25     1     1     2     0     0 -2.206539783E+02 -3.800515643E+00 -9.508250266E+01  2.708657353E+02  1.249997687E+02  0.00000E+00  9.000E+00
       5     1     1     2   501     0 -2.049870781E+00  4.569610705E+00  1.679594272E+02  1.681012046E+02  4.750000000E+00  0.00000E+00  9.000E+00
      -5     1     1     2     0   503  1.902769213E+02  1.930115808E-01  5.446523452E+02  5.769524102E+02  4.750000000E+00  0.00000E+00  9.000E+00
      21     1     1     2   502   511  3.242692780E+01 -9.621066432E-01  1.316505536E+02  1.355887147E+02  0.000000000E+00  0.00000E+00  9.000E+00
#rwgt            1           9  0.74439058993148821                8     1475242           0
</event>
<event>
      6   9999  3.45752E-01  1.62174E+01 -1.00000E+00  1.67486E-01
      21    -1     0     0   501   502  0.000000000E+00  0.000000000E+00  1.451433215E+01  1.451433215E+01  0.000000000E+00  0.00000E+00  9.000E+00
      21    -1     0     0   502   512  0.000000000E+00  0.000000000E+00 -9.197631244E+02  9.197631244E+02  0.000000000E+00  0.00000E+00  9.000E+00
      25     1     1     2     0     0 -1.824001374E+01 -4.645203271E+01 -6.517585845E+02  6.655110276E+02  1.250007440E+02  0.00000E+00  9.000E+00
       5     1     1     2   501     0 -2.590379139E+00 -3.047255064E+00  1.906815155E+00  6.495711781E+00  4.750000000E+00  0.00000E+00  9.000E+00
      -5     1     1     2     0   503  8.231471054E+00  3.928789727E+01 -1.392850587E+02  1.450316726E+02  4.750000000E+00  0.00000E+00  9.000E+00
      21     1     1     2   503   512  1.259892183E+01  1.021139051E+01 -1.161119642E+02  1.172390445E+02  0.000000000E+00  0.00000E+00  9.000E+00
#rwgt            1           9   1.5644580008942169E-003           8     1477319           0
</event>
<event>
      6   9999 -3.45752E-01  3.04798E+00 -1.00000E+00  2.75122E-01
      21    -1     0     0   511   502  0.000000000E+00  0.000000000E+00  1.117333228E+01  1.117333228E+01  0.000000000E+00  0.00000E+00  9.000E+00
      21    -1     0     0   502   503  0.000000000E+00  0.000000000E+00 -7.947682933E+02  7.947682933E+02  0.000000000E+00  0.00000E+00  9.000E+00
      25     1     1     2     0     0 -5.196060740E+00 -4.883665958E+00 -7.429873579E+02  7.534624656E+02  1.249984955E+02  0.00000E+00  9.000E+00
       5     1     1     2   501     0  9.822686513E-01 -7.959820832E-01  1.754636501E+00  5.219165492E+00  4.750000000E+00  0.00000E+00  9.000E+00
      -5     1     1     2     0   503  4.530516159E+00  8.711128359E+00 -4.281144838E+01  4.417908947E+01  4.750000000E+00  0.00000E+00  9.000E+00
      21     1     1     2   511   501 -3.167240710E-01 -3.031480318E+00  4.492087523E-01  3.080904990E+00  1.511384754E-07  0.00000E+00  9.000E+00
#rwgt            1           9  -1.2172827291202569E-003           8     1479728           0
</event>
<event>
      6   9999  3.45752E-01  1.00122E+01 -1.00000E+00  1.87138E-01
      21    -1     0     0   501   502  0.000000000E+00  0.000000000E+00  7.318625749E+01  7.318625749E+01  0.000000000E+00  0.00000E+00  9.000E+00
      21    -1     0     0   512   503  0.000000000E+00  0.000000000E+00 -1.963435669E+03  1.963435669E+03  0.000000000E+00  0.00000E+00  9.000E+00
      25     1     1     2     0     0 -1.662916238E+02  7.160501755E+01 -1.910548725E+02  2.913890617E+02  1.250017533E+02  0.00000E+00  9.000E+00
       5     1     1     2   501     0 -5.142817733E+00 -1.441830813E+00  1.646995011E+01  1.795408608E+01  4.750000000E+00  0.00000E+00  9.000E+00
      -5     1     1     2     0   503  1.614936875E+02 -7.135698126E+01 -1.353389473E+03  1.364865436E+03  4.750000000E+00  0.00000E+00  9.000E+00
      21     1     1     2   512   502  9.940754063E+00  1.193794525E+00 -3.622750162E+02  3.624133428E+02  5.394796609E-06  0.00000E+00  9.000E+00
#rwgt            1           9   5.1148425385083530E-003           8     1485358           0
</event>
<event>
      6   9999 -3.45752E-01  5.64991E+00 -1.00000E+00  2.17761E-01
      21    -1     0     0   501   502  0.000000000E+00  0.000000000E+00  4.623487212E+01  4.623487212E+01  0.000000000E+00  0.00000E+00  9.000E+00
       1    -1     0     0   502     0  0.000000000E+00  0.000000000E+00 -1.262037615E+03  1.262037615E+03  0.000000000E+00  0.00000E+00  9.000E+00
      25     1     1     2     0     0 -3.076069290E+00  1.587540689E+00 -1.975378021E+02  2.337918658E+02  1.250018831E+02  0.00000E+00  9.000E+00
       5     1     1     2   501     0 -1.314896061E+00 -8.291880992E-01  2.196872437E+01  2.253006558E+01  4.750000000E+00  0.00000E+00  9.000E+00
      -5     1     1     2     0   503  3.953103558E+00  4.874560095E+00  3.203685108E+00  8.497909280E+00  4.750000000E+00  0.00000E+00  9.000E+00
       1     1     1     2   503     0  4.378617926E-01 -5.632912685E+00 -1.043437351E+03  1.043452647E+03  0.000000000E+00  0.00000E+00  9.000E+00
#rwgt            1           9 -0.36526892863283206                8     1489716           0
</event>
<event>
      6   9999  3.45752E-01  1.66882E+01 -1.00000E+00  1.66453E-01
      21    -1     0     0   501   511  0.000000000E+00  0.000000000E+00  1.771994906E+01  1.771994906E+01  0.000000000E+00  0.00000E+00  9.000E+00
      21    -1     0     0   502   503  0.000000000E+00  0.000000000E+00 -8.734049346E+02  8.734049346E+02  0.000000000E+00  0.00000E+00  9.000E+00
      25     1     1     2     0     0  3.102451338E+01  2.775248984E+01 -6.310138501E+02  6.446193465E+02  1.249916066E+02  0.00000E+00  9.000E+00
       5     1     1     2   501     0 -5.076942588E+01 -1.049567080E+01 -1.103277534E+02  1.219937268E+02  4.750000000E+00  0.00000E+00  9.000E+00
      -5     1     1     2     0   503  7.996226130E+00 -5.405003438E+00 -1.046727182E+02  1.052240188E+02  4.750000000E+00  0.00000E+00  9.000E+00
      21     1     1     2   502   511  1.174868636E+01 -1.185181560E+01 -9.670663801E+00  1.928779154E+01  5.196212463E-07  0.00000E+00  9.000E+00
#rwgt            1           9   3.3482720679490439                8     1493858           0
</event>
<event>
      6   9999  3.45752E-01  2.86282E+01 -1.00000E+00  1.49165E-01
      21    -1     0     0   512   502  0.000000000E+00  0.000000000E+00  2.332181449E+01  2.332181449E+01  0.000000000E+00  0.00000E+00  9.000E+00
      21    -1     0     0   502   503  0.000000000E+00  0.000000000E+00 -8.884817303E+02  8.884817303E+02  0.000000000E+00  0.00000E+00  9.000E+00
      25     1     1     2     0     0  1.629781727E+01  1.302251906E+01 -6.679503568E+02  6.798603943E+02  1.249690834E+02  0.00000E+00  9.000E+00
       5     1     1     2   501     0 -2.427869019E+00 -1.550905927E+00  1.434255829E+00  5.737547120E+00  4.750000000E+00  0.00000E+00  9.000E+00
      -5     1     1     2     0   503 -4.049227219E+01 -2.199907361E+01 -1.910511857E+02  1.965876430E+02  4.750000000E+00  0.00000E+00  9.000E+00
      21     1     1     2   512   501  2.662232394E+01  1.052746048E+01 -7.592629222E+00  2.961796034E+01  1.174075341E-06  0.00000E+00  9.000E+00
#rwgt            1           9   9.6670650123878345E-004           8     1495535           0
</event>
<event>
      6   9999  3.45752E-01  2.13592E+01 -1.00000E+00  1.58061E-01
      21    -1     0     0   511   502  0.000000000E+00  0.000000000E+00  5.989174613E+02  5.989174613E+02  0.000000000E+00  0.00000E+00  9.000E+00
      21    -1     0     0   502   503  0.000000000E+00  0.000000000E+00 -4.037174541E+01  4.037174541E+01  0.000000000E+00  0.00000E+00  9.000E+00
      25     1     1     2     0     0  2.370508940E+01  8.309964970E+00  1.020339459E+02  1.633001298E+02  1.250000780E+02  0.00000E+00  9.000E+00
       5     1     1     2   501     0  3.284581836E+00 -2.241567019E+00  5.065229695E+01  5.102970495E+01  4.750000000E+00  0.00000E+00  9.000E+00
      -5     1     1     2     0   503 -8.174150341E+00 -1.617734303E+01  2.003760353E-01  1.873835137E+01  4.750000000E+00  0.00000E+00  9.000E+00
      21     1     1     2   511   501 -1.881552089E+01  1.010894508E+01  4.056590970E+02  4.062210206E+02  0.000000000E+00  0.00000E+00  9.000E+00
#rwgt            1           9  0.68042017664876664                8     1496785           0
</event>
<event>
      6   9999  3.45752E-01  1.54182E+01 -1.00000E+00  1.69343E-01
      21    -1     0     0   501   502  0.000000000E+00  0.000000000E+00  1.471002620E+01  1.471002620E+01  0.000000000E+00  0.00000E+00  9.000E+00
      21    -1     0     0   502   512  0.000000000E+00  0.000000000E+00 -1.087126790E+03  1.087126790E+03  0.000000000E+00  0.00000E+00  9.000E+00
      25     1     1     2     0     0  1.815133055E+01 -3.844083306E+00 -3.919271083E+02  4.117959266E+02  1.249991168E+02  0.00000E+00  9.000E+00
       5     1     1     2   501     0  1.527626369E+00  3.196703132E-01  2.969248551E+00  5.815046723E+00  4.750000000E+00  0.00000E+00  9.000E+00
      -5     1     1     2     0   503 -4.328553334E+00  2.080558932E+00 -5.194267872E+02  5.194707065E+02  4.750000000E+00  0.00000E+00  9.000E+00
      21     1     1     2   503   512 -1.535040358E+01  1.443854061E+00 -1.640321167E+02  1.647551362E+02  3.303624740E-06  0.00000E+00  9.000E+00
#rwgt            1           9   2.6223679617079920                8     1498396           0
</event>
<event>
      6   9999  3.45752E-01  4.24456E+01 -1.00000E+00  1.38707E-01
      21    -1     0     0   501   511  0.000000000E+00  0.000000000E+00  6.768321792E+01  6.768321792E+01  0.000000000E+00  0.00000E+00  9.000E+00
      21    -1     0     0   502   503  0.000000000E+00  0.000000000E+00 -9.808619803E+02  9.808619803E+02  0.000000000E+00  0.00000E+00  9.000E+00
      25     1     1     2     0     0  1.644764767E+02 -8.276955250E+01 -6.601542290E+02  6.966576199E+02  1.249996922E+02  0.00000E+00  9.000E+00
       5     1     1     2   501     0  2.594682646E+00 -2.900345758E+00  1.969793383E+01  2.063287379E+01  4.750000000E+00  0.00000E+00  9.000E+00
      -5     1     1     2     0   503 -1.278301260E+02  6.949053585E+01 -2.106673778E+02  2.560718302E+02  4.750000000E+00  0.00000E+00  9.000E+00
      21     1     1     2   502   511 -3.924103337E+01  1.617936241E+01 -6.205508940E+01  7.518287430E+01  1.651812370E-06  0.00000E+00  9.000E+00
#rwgt            1           9   4.4805492509481473E-002           8     1500461           0
</event>
<event>
      6   9999  3.45752E-01  3.06790E+00 -1.00000E+00  2.74394E-01
      21    -1     0     0   501   502  0.000000000E+00  0.000000000E+00  8.454588556E+00  8.454588556E+00  0.000000000E+00  0.00000E+00  9.000E+00
      21    -1     0     0   502   512  0.000000000E+00  0.000000000E+00 -7.551431745E+02  7.551431745E+02  0.000000000E+00  0.00000E+00  9.000E+00
      25     1     1     2     0     0  2.123031530E+00  9.868987019E+00 -7.049433120E+02  7.160113409E+02  1.250010523E+02  0.00000E+00  9.000E+00
       5     1     1     2   501     0  2.862374973E-01 -1.161434485E-01 -1.396257807E+00  4.960590395E+00  4.750000000E+00  0.00000E+00  9.000E+00
      -5     1     1     2     0   503 -1.041005740E+00 -7.006958126E+00 -1.643938605E+01  1.852018005E+01  4.750000000E+00  0.00000E+00  9.000E+00
      21     1     1     2   503   512 -1.368263287E+00 -2.745885444E+00 -2.390963004E+01  2.410565162E+01  0.000000000E+00  0.00000E+00  9.000E+00
#rwgt            1           9   1.0492884406897620E-003           8     1501741           0
</event>
<event>
      6   9999  3.45752E-01  2.76123E+00 -1.00000E+00  2.86684E-01
      21    -1     0     0   511   502  0.000000000E+00  0.000000000E+00  1.568272866E+01  1.568272866E+01  0.000000000E+00  0.00000E+00  9.000E+00
      21    -1     0     0   502   503  0.000000000E+00  0.000000000E+00 -8.234324584E+02  8.234324584E+02  0.000000000E+00  0.00000E+00  9.000E+00
      25     1     1     2     0     0  5.764765233E+00  2.091570089E+00 -7.660915236E+02  7.762471172E+02  1.250030286E+02  0.00000E+00  9.000E+00
       5     1     1     2   501     0 -2.721295066E+00  2.032646533E+00  8.313017540E+00  1.015902847E+01  4.750000000E+00  0.00000E+00  9.000E+00
      -5     1     1     2     0   503 -1.235750214E+00 -2.036982650E+00 -4.964500954E+01  4.992860752E+01  4.750000000E+00  0.00000E+00  9.000E+00
      21     1     1     2   511   501 -1.807719953E+00 -2.087233971E+00 -3.262141253E-01  2.780433911E+00  7.328508635E-08  0.00000E+00  9.000E+00
#rwgt            1           9   2.2524597695206486E-003           8     1506868           0
</event>
<event>
      6   9999 -3.45752E-01  6.63046E+00 -1.00000E+00  2.08187E-01
      21    -1     0     0   501   502  0.000000000E+00  0.000000000E+00  8.471542343E+02  8.471542343E+02  0.000000000E+00  0.00000E+00  9.000E+00
      21    -1     0     0   502   512  0.000000000E+00  0.000000000E+00 -2.281467265E+02  2.281467265E+02  0.000000000E+00  0.00000E+00  9.000E+00
      25     1     1     2     0     0  2.389132111E+01 -2.496158437E+01 -5.379311564E+00  1.298076569E+02  1.250088592E+02  0.00000E+00  9.000E+00
       5     1     1     2   501     0  1.353740196E+00  6.677921334E+00  6.187357409E+02  6.187914889E+02  4.750000000E+00  0.00000E+00  9.000E+00
      -5     1     1     2     0   503 -2.515197781E+01  1.165385171E+01  1.649169783E+02  1.672979572E+02  4.750000000E+00  0.00000E+00  9.000E+00
      21     1     1     2   503   512 -9.308349594E-02  6.629811332E+00 -1.592658997E+02  1.594038578E+02  4.264961200E-06  0.00000E+00  9.000E+00
#rwgt            1           9  -1.5783924048524637E-002           8     1512963           0
</event>
<event>
      6   9999  3.45752E-01  7.07458E+00 -1.00000E+00  2.04554E-01
      21    -1     0     0   511   502  0.000000000E+00  0.000000000E+00  5.948723443E+01  5.948723443E+01  0.000000000E+00  0.00000E+00  9.000E+00
      21    -1     0     0   502   503  0.000000000E+00  0.000000000E+00 -7.721972541E+02  7.721972541E+02  0.000000000E+00  0.00000E+00  9.000E+00
      25     1     1     2     0     0  1.215200442E+01 -2.043283993E+01 -5.080741546E+02  5.237652513E+02  1.250020789E+02  0.00000E+00  9.000E+00
       5     1     1     2   501     0  2.609623122E+00  2.799891406E+00 -8.068013187E+00  1.011458657E+01  4.750000000E+00  0.00000E+00  9.000E+00
      -5     1     1     2     0   503 -1.850910576E+01  1.163244303E+01 -2.464298891E+02  2.474432328E+02  4.750000000E+00  0.00000E+00  9.000E+00
      21     1     1     2   511   501  3.747478221E+00  6.000505489E+00  4.986203718E+01  5.036141788E+01  1.784161275E-06  0.00000E+00  9.000E+00
#rwgt            1           9  0.28812805080033516                8     1517802           0
</event>
<event>
      6   9999 -3.45752E-01  1.10857E+01 -1.00000E+00  1.82599E-01
      21    -1     0     0   501   512  0.000000000E+00  0.000000000E+00  6.256245259E+01  6.256245259E+01  0.000000000E+00  0.00000E+00  9.000E+00
      21    -1     0     0   502   503  0.000000000E+00  0.000000000E+00 -2.034731331E+03  2.034731331E+03  0.000000000E+00  0.00000E+00  9.000E+00
      25     1     1     2     0     0 -1.771343258E+01  2.678698500E+01 -1.912201337E+03  1.916551703E+03  1.250006835E+02  0.00000E+00  9.000E+00
       5     1     1     2   501     0  2.601505529E+00  2.703635130E+00 -2.269048863E+00  6.464406908E+00  4.750000000E+00  0.00000E+00  9.000E+00
      -5     1     1     2     0   503  2.235684764E+01 -2.109995433E+01 -1.133459191E+02  1.175367882E+02  4.750000000E+00  0.00000E+00  9.000E+00
      21     1     1     2   502   512 -7.244920594E+00 -8.390665804E+00  5.564742562E+01  5.674088583E+01  2.611744678E-06  0.00000E+00  9.000E+00
#rwgt            1           9  -1.3305499546150984E-004           8     1520824           0
</event>
<event>
      6   9999  3.45752E-01  2.74662E+00 -1.00000E+00  2.87334E-01
      21    -1     0     0   501   502  0.000000000E+00  0.000000000E+00  9.436260941E+00  9.436260941E+00  0.000000000E+00  0.00000E+00  9.000E+00
      21    -1     0     0   511   503  0.000000000E+00  0.000000000E+00 -8.243098306E+02  8.243098306E+02  0.000000000E+00  0.00000E+00  9.000E+00
      25     1     1     2     0     0  2.249467985E+00  6.222096359E+00 -6.581190066E+02  6.699170538E+02  1.249978299E+02  0.00000E+00  9.000E+00
       5     1     1     2   501     0 -1.027822480E+00 -5.193089530E-01  1.677775097E+00  5.167545850E+00  4.750000000E+00  0.00000E+00  9.000E+00
      -5     1     1     2     0   503  7.752960372E-02 -3.282861176E+00 -1.053496797E+02  1.055078230E+02  4.750000000E+00  0.00000E+00  9.000E+00
      21     1     1     2   511   502 -1.299175109E+00 -2.419926230E+00 -5.308265844E+01  5.315366898E+01  9.536743164E-07  0.00000E+00  9.000E+00
#rwgt            1           9   3.3034551438626439E-004           8     1523127           0
</event>
<event>
      6   9999  3.45752E-01  1.77920E+00 -1.00000E+00  3.53868E-01
      21    -1     0     0   512   502  0.000000000E+00  0.000000000E+00  6.711270401E+02  6.711270401E+02  0.000000000E+00  0.00000E+00  9.000E+00
      21    -1     0     0   502   503  0.000000000E+00  0.000000000E+00 -1.292075187E+03  1.292075187E+03  0.000000000E+00  0.00000E+00  9.000E+00
      25     1     1     2     0     0  2.453062989E+01 -3.374330742E+01 -1.092727819E+03  1.100645079E+03  1.250005620E+02  0.00000E+00  9.000E+00
       5     1     1     2   501     0  1.201060437E+00  2.348550643E+00  2.107484959E+00  5.827712171E+00  4.750000000E+00  0.00000E+00  9.000E+00
      -5     1     1     2     0   503 -2.735967375E+01  3.211253885E+01 -1.911991660E+02  1.958556878E+02  4.750000000E+00  0.00000E+00  9.000E+00
      21     1     1     2   512   501  1.627983421E+00 -7.177820734E-01  6.608713532E+02  6.608737482E+02  7.629394531E-06  0.00000E+00  9.000E+00
#rwgt            1           9   1.3526656334625234E-004           8     1528968           0
</event>
<event>
      6   9999  3.45752E-01  3.94865E+01 -1.00000E+00  1.40512E-01
      21    -1     0     0   501   502  0.000000000E+00  0.000000000E+00  1.535276820E+02  1.535276820E+02  0.000000000E+00  0.00000E+00  9.000E+00
       1    -1     0     0   502     0  0.000000000E+00  0.000000000E+00 -8.560722700E+02  8.560722700E+02  0.000000000E+00  0.00000E+00  9.000E+00
      25     1     1     2     0     0 -2.294658952E+01  1.472819033E+02 -8.852703871E+01  2.137326239E+02  1.250043716E+02  0.00000E+00  9.000E+00
       5     1     1     2   501     0  6.012100342E+00 -5.038402653E+00  7.273752913E+01  7.331331049E+01  4.750000000E+00  0.00000E+00  9.000E+00
      -5     1     1     2     0   503  5.345802957E+01 -1.572506004E+02 -4.006630045E+02  4.337498333E+02  4.750000000E+00  0.00000E+00  9.000E+00
       1     1     1     2   503     0 -3.652354039E+01  1.500709976E+01 -2.860920740E+02  2.888041842E+02  6.607249480E-06  0.00000E+00  9.000E+00
#rwgt            1           9   6.5213613143165602E-004           8     1538815           0
</event>
<event>
      6   9999  3.45752E-01  1.83816E+01 -1.00000E+00  1.63059E-01
      21    -1     0     0   501   502  0.000000000E+00  0.000000000E+00  4.182512906E+03  4.182512906E+03  0.000000000E+00  0.00000E+00  9.000E+00
      21    -1     0     0   502   511  0.000000000E+00  0.000000000E+00 -5.118943807E+01  5.118943807E+01  0.000000000E+00  0.00000E+00  9.000E+00
      25     1     1     2     0     0  7.885422501E+01 -1.284809209E+01  1.208021151E+03  1.217096468E+03  1.250025972E+02  0.00000E+00  9.000E+00
       5     1     1     2   501     0 -3.215091798E+00  4.372207721E-01  2.406502863E+03  2.406509738E+03  4.750000000E+00  0.00000E+00  9.000E+00
      -5     1     1     2     0   503 -8.318789488E+01 -4.349160032E+00  5.584085620E+02  5.646076741E+02  4.750000000E+00  0.00000E+00  9.000E+00
      21     1     1     2   503   511  7.548761665E+00  1.676003135E+01 -4.160910801E+01  4.548846363E+01  3.960906917E-06  0.00000E+00  9.000E+00
#rwgt            1           9   1.1135700244500527E-004           8     1540487           0
</event>
<event>
      6   9999  3.45752E-01  6.51558E+00 -1.00000E+00  2.09190E-01
      21    -1     0     0   501   502  0.000000000E+00  0.000000000E+00  3.467145978E+01  3.467145978E+01  0.000000000E+00  0.00000E+00  9.000E+00
       2    -1     0     0   502     0  0.000000000E+00  0.000000000E+00 -1.877986597E+03  1.877986597E+03  0.000000000E+00  0.00000E+00  9.000E+00
      25     1     1     2     0     0  1.764055703E+01 -1.691970159E+02 -6.144343106E+02  6.496856923E+02  1.249926290E+02  0.00000E+00  9.000E+00
       5     1     1     2   501     0 -4.687767162E-01 -8.540449337E-01  2.612569929E+00  5.507918481E+00  4.750000000E+00  0.00000E+00  9.000E+00
      -5     1     1     2     0   503 -2.360804457E+01  1.690375391E+02 -5.489738944E+02  5.749138445E+02  4.750000000E+00  0.00000E+00  9.000E+00
       2     1     1     2   503     0  6.436264248E+00  1.013521712E+00 -6.825195020E+02  6.825506013E+02  7.629394531E-06  0.00000E+00  9.000E+00
#rwgt            1           9   9.2604612645365795E-003           8     1542691           0
</event>
<event>
      6   9999  3.45752E-01  1.18974E+01 -1.00000E+00  1.79581E-01
      -3    -1     0     0     0   502  0.000000000E+00  0.000000000E+00  1.343763491E+02  1.343763491E+02  0.000000000E+00  0.00000E+00  9.000E+00
      21    -1     0     0   502   503  0.000000000E+00  0.000000000E+00 -1.120805938E+03  1.120805938E+03  0.000000000E+00  0.00000E+00  9.000E+00
      25     1     1     2     0     0 -7.870077834E+01 -5.902860030E+01 -7.717221745E+02  7.879457091E+02  1.250005505E+02  0.00000E+00  9.000E+00
       5     1     1     2   501     0  7.897208654E+00 -4.302835933E+00  2.305600796E+01  2.519964890E+01  4.750000000E+00  0.00000E+00  9.000E+00
      -5     1     1     2     0   503  7.478994588E+01  5.212180209E+01 -3.333960704E+02  3.456670660E+02  4.750000000E+00  0.00000E+00  9.000E+00
      -3     1     1     2     0   501 -3.986376185E+00  1.120963414E+01  9.563264818E+01  9.636986298E+01  3.303624740E-06  0.00000E+00  9.000E+00
#rwgt            1           9   3.0716211376981349E-004           8     1547450           0
</event>
<event>
      6   9999  3.45752E-01  4.12067E+01 -1.00000E+00  1.39441E-01
      21    -1     0     0   511   502  0.000000000E+00  0.000000000E+00  2.890791378E+01  2.890791378E+01  0.000000000E+00  0.00000E+00  9.000E+00
      21    -1     0     0   502   503  0.000000000E+00  0.000000000E+00 -1.348602727E+03  1.348602727E+03  0.000000000E+00  0.00000E+00  9.000E+00
      25     1     1     2     0     0 -1.559426485E+01 -1.592880856E+01 -1.065745121E+03  1.073281703E+03  1.249961784E+02  0.00000E+00  9.000E+00
       5     1     1     2   501     0 -1.405075707E+01 -4.103658217E+00  1.921247690E+01  2.461596135E+01  4.750000000E+00  0.00000E+00  9.000E+00
      -5     1     1     2     0   503 -7.541786000E-01 -7.786260563E+00 -1.381426849E+02  1.384455074E+02  4.750000000E+00  0.00000E+00  9.000E+00
      21     1     1     2   511   501  3.039920051E+01  2.781872734E+01 -1.350194850E+02  1.411674690E+02  1.907348633E-06  0.00000E+00  9.000E+00
#rwgt            1           9   2.1030606025946235E-002           8     1550772           0
</event>
<event>
      6   9999  3.45752E-01  2.96044E+00 -1.00000E+00  2.78428E-01
      21    -1     0     0   501   512  0.000000000E+00  0.000000000E+00  3.359958347E+01  3.359958347E+01  0.000000000E+00  0.00000E+00  9.000E+00
      21    -1     0     0   502   503  0.000000000E+00  0.000000000E+00 -9.938564036E+02  9.938564036E+02  0.000000000E+00  0.00000E+00  9.000E+00
      25     1     1     2     0     0  1.695009542E+00  7.226089585E+00 -9.242382686E+02  9.326824735E+02  1.250005193E+02  0.00000E+00  9.000E+00
       5     1     1     2   501     0  3.892513913E+00 -3.168955384E+00  2.084489890E+01  2.196056130E+01  4.750000000E+00  0.00000E+00  9.000E+00
      -5     1     1     2     0   503 -3.606483910E+00 -1.857203282E+00 -6.440704829E+01  6.470924431E+01  4.750000000E+00  0.00000E+00  9.000E+00
      21     1     1     2   502   512 -1.981039546E+00 -2.199930918E+00  7.543597860E+00  8.103707942E+00  4.129530925E-07  0.00000E+00  9.000E+00
#rwgt            1           9   8.5062887983600914E-004           8     1551951           0
</event>
<event>
      6   9999  3.45752E-01  1.06475E+02 -1.00000E+00  1.19289E-01
      21    -1     0     0   502   511  0.000000000E+00  0.000000000E+00  7.441197893E+02  7.441197893E+02  0.000000000E+00  0.00000E+00  9.000E+00
      21    -1     0     0   501   502  0.000000000E+00  0.000000000E+00 -3.174146697E+03  3.174146697E+03  0.000000000E+00  0.00000E+00  9.000E+00
      25     1     1     2     0     0 -3.606847963E+02  2.615428997E+02  8.514812819E+01  4.705085692E+02  1.250195960E+02  0.00000E+00  9.000E+00
       5     1     1     2   501     0 -1.137368255E+02 -8.320461331E+02 -2.569791874E+03  2.703532813E+03  4.750000000E+00  0.00000E+00  9.000E+00
      -5     1     1     2     0   503  4.109926997E+02  4.849829192E+02  4.494367621E+01  6.373114840E+02  4.750000000E+00  0.00000E+00  9.000E+00
      21     1     1     2   503   511  6.342892205E+01  8.552031422E+01  9.673161020E+00  1.069136209E+02  1.784161275E-06  0.00000E+00  9.000E+00
#rwgt            1           9   4.8041336781466086E-006           8     1558774           0
</event>
<event>
      6   9999  3.45752E-01  7.61571E+00 -1.00000E+00  2.00581E-01
      21    -1     0     0   512   502  0.000000000E+00  0.000000000E+00  2.035875874E+01  2.035875874E+01  0.000000000E+00  0.00000E+00  9.000E+00
      21    -1     0     0   502   503  0.000000000E+00  0.000000000E+00 -6.710318823E+02  6.710318823E+02  0.000000000E+00  0.00000E+00  9.000E+00
      25     1     1     2     0     0 -5.148912624E+00 -3.160167173E+00 -6.437584027E+02  6.558115991E+02  1.250098980E+02  0.00000E+00  9.000E+00
       5     1     1     2   501     0  1.124103161E-01 -1.344557980E+00 -6.472536883E+00  8.141050666E+00  4.750000000E+00  0.00000E+00  9.000E+00
      -5     1     1     2     0   503  3.064441105E-01 -1.463992802E+00 -1.234257711E+01  1.330935358E+01  4.750000000E+00  0.00000E+00  9.000E+00
      21     1     1     2   512   501  4.730058197E+00  5.968717955E+00  1.190039314E+01  1.412863763E+01  6.307962682E-07  0.00000E+00  9.000E+00
#rwgt            1           9   18.857784659722153                8     1560429           0
</event>
<event>
      6   9999  3.45752E-01  2.14355E+01 -1.00000E+00  1.57946E-01
      21    -1     0     0   501   511  0.000000000E+00  0.000000000E+00  3.245279963E+03  3.245279963E+03  0.000000000E+00  0.00000E+00  9.000E+00
      21    -1     0     0   502   503  0.000000000E+00  0.000000000E+00 -3.377133609E+01  3.377133609E+01  0.000000000E+00  0.00000E+00  9.000E+00
      25     1     1     2     0     0 -2.365974952E+02 -4.326312390E+01  1.287033919E+03  1.315269491E+03  1.250098015E+02  0.00000E+00  9.000E+00
       5     1     1     2   501     0 -1.884188912E+00 -1.050466273E+00  3.893875928E+02  3.894225386E+02  4.750000000E+00  0.00000E+00  9.000E+00
      -5     1     1     2     0   503  2.433517533E+02  2.343862096E+01  7.474569588E+02  7.864374817E+02  4.750000000E+00  0.00000E+00  9.000E+00
      21     1     1     2   502   511 -4.870069180E+00  2.087496921E+01  7.876301559E+02  7.879217883E+02  1.078959322E-05  0.00000E+00  9.000E+00
#rwgt            1           9   4.6780194074705385E-003           8     1563038           0
</event>
<event>
      6   9999 -3.45752E-01  9.78177E+00 -1.00000E+00  1.88209E-01
      21    -1     0     0   501   502  0.000000000E+00  0.000000000E+00  5.287509373E+01  5.287509373E+01  0.000000000E+00  0.00000E+00  9.000E+00
      21    -1     0     0   502   512  0.000000000E+00  0.000000000E+00 -1.286020705E+03  1.286020705E+03  0.000000000E+00  0.00000E+00  9.000E+00
      25     1     1     2     0     0  2.569475794E+00  1.897238054E+01 -1.102539782E+03  1.109768355E+03  1.250011090E+02  0.00000E+00  9.000E+00
       5     1     1     2   501     0  4.235609626E+00 -6.540460496E+00  4.805127786E+01  4.891018111E+01  4.750000000E+00  0.00000E+00  9.000E+00
      -5     1     1     2     0   503 -9.843029291E+00 -3.133864079E+00 -1.349903540E+02  1.354683155E+02  4.750000000E+00  0.00000E+00  9.000E+00
      21     1     1     2   503   512  3.037943871E+00 -9.298055969E+00 -4.366675334E+01  4.474894742E+01  1.066240300E-06  0.00000E+00  9.000E+00
#rwgt            1           9  -3.0063383334828523E-003           8     1565800           0
</event>
<event>
      6   9999 -3.45752E-01  8.92901E+00 -1.00000E+00  1.92529E-01
      21    -1     0     0   511   502  0.000000000E+00  0.000000000E+00  8.959005640E+00  8.959005640E+00  0.000000000E+00  0.00000E+00  9.000E+00
      21    -1     0     0   502   503  0.000000000E+00  0.000000000E+00 -7.735192050E+02  7.735192050E+02  0.000000000E+00  0.00000E+00  9.000E+00
      25     1     1     2     0     0  3.410472348E+00 -1.099738113E+01 -7.071271156E+02  7.181824148E+02  1.249985986E+02  0.00000E+00  9.000E+00
       5     1     1     2   501     0 -6.132826991E-01 -1.280844178E+00 -4.006966130E-01  4.973905433E+00  4.750000000E+00  0.00000E+00  9.000E+00
      -5     1     1     2     0   503 -4.420326640E+00  3.497981050E+00 -2.730077558E+01  2.827843713E+01  4.750000000E+00  0.00000E+00  9.000E+00
      21     1     1     2   511   501  1.623136991E+00  8.780244256E+00 -2.973161158E+01  3.104345325E+01  3.371747881E-07  0.00000E+00  9.000E+00
#rwgt            1           9  -1.0764988128318284E-002           8     1569922           0
</event>
<event>
      6   9999  3.45752E-01  5.70394E+01 -1.00000E+00  1.31796E-01
      21    -1     0     0   512   503  0.000000000E+00  0.000000000E+00  7.353301396E+00  7.353301396E+00  0.000000000E+00  0.00000E+00  9.000E+00
      21    -1     0     0   501   502  0.000000000E+00  0.000000000E+00 -1.977817206E+03  1.977817206E+03  0.000000000E+00  0.00000E+00  9.000E+00
      25     1     1     2     0     0  1.759286719E+01  1.705900730E+01 -1.445184032E+03  1.450785706E+03  1.249870418E+02  0.00000E+00  9.000E+00
       5     1     1     2   501     0  3.379988713E+00  1.197633223E+00 -1.247760973E+01  1.382432254E+01  4.750000000E+00  0.00000E+00  9.000E+00
      -5     1     1     2     0   503  3.038613710E+01  6.557609663E+00 -1.458509794E+02  1.492025143E+02  4.750000000E+00  0.00000E+00  9.000E+00
      21     1     1     2   512   502 -5.135899300E+01 -2.481425018E+01 -3.669512832E+02  3.713579640E+02  5.394796609E-06  0.00000E+00  9.000E+00
#rwgt            1           9   1.1105107938345962E-003           8     1572410           0
</event>
<event>
      6   9999 -3.45752E-01  7.26294E+00 -1.00000E+00  2.03119E-01
      21    -1     0     0   501   511  0.000000000E+00  0.000000000E+00  8.205925922E+01  8.205925922E+01  0.000000000E+00  0.00000E+00  9.000E+00
      21    -1     0     0   502   503  0.000000000E+00  0.000000000E+00 -1.395626740E+03  1.395626740E+03  0.000000000E+00  0.00000E+00  9.000E+00
      25     1     1     2     0     0  1.018814210E+02 -9.464645194E+01 -2.708524808E+02  3.291279075E+02  1.250053533E+02  0.00000E+00  9.000E+00
       5     1     1     2   501     0 -4.328552600E+00  4.367428893E+00  2.005940971E+01  2.151169963E+01  4.750000000E+00  0.00000E+00  9.000E+00
      -5     1     1     2     0   503 -9.571433601E+01  9.730540414E+01 -1.090176641E+03  1.098697978E+03  4.750000000E+00  0.00000E+00  9.000E+00
      21     1     1     2   502   511 -1.838532359E+00 -7.026381095E+00  2.740223190E+01  2.834841346E+01  7.539457465E-07  0.00000E+00  9.000E+00
#rwgt            1           9  -4.8610508879367480E-004           8     1572800           0
</event>
<event>
      6   9999 -3.45752E-01  1.99360E+01 -1.00000E+00  1.60317E-01
      21    -1     0     0   501   502  0.000000000E+00  0.000000000E+00  1.165601461E+01  1.165601461E+01  0.000000000E+00  0.00000E+00  9.000E+00
       1    -1     0     0   502     0  0.000000000E+00  0.000000000E+00 -1.810415974E+03  1.810415974E+03  0.000000000E+00  0.00000E+00  9.000E+00
      25     1     1     2     0     0  1.559020919E+01  6.487133845E+00 -8.066837800E+02  8.164849056E+02  1.249949700E+02  0.00000E+00  9.000E+00
       5     1     1     2   501     0  4.102765923E+00  5.975038906E-01  4.701571937E+00  7.864920711E+00  4.750000000E+00  0.00000E+00  9.000E+00
      -5     1     1     2     0   503 -1.190945898E+00  3.396617873E-01 -1.586989715E+01  1.661173855E+01  4.750000000E+00  0.00000E+00  9.000E+00
       1     1     1     2   503     0 -1.850202922E+01 -7.424299523E+00 -9.809078539E+02  9.811104235E+02  1.078959322E-05  0.00000E+00  9.000E+00
#rwgt            1           9  -1.0832411775544632E-005           8     1577844           0
</event>
<event>
      6   9999  3.45752E-01  2.96224E+00 -1.00000E+00  2.78358E-01
      21    -1     0     0   511   502  0.000000000E+00  0.000000000E+00  1.251666614E+01  1.251666614E+01  0.000000000E+00  0.00000E+00  9.000E+00
      21    -1     0     0   502   503  0.000000000E+00  0.000000000E+00 -7.545929110E+02  7.545929110E+02  0.000000000E+00  0.00000E+00  9.000E+00
      25     1     1     2     0     0  7.089013220E-02  1.340885735E+00 -7.076484219E+02  7.186050581E+02  1.250005500E+02  0.00000E+00  9.000E+00
       5     1     1     2   501     0 -2.087254801E+00  7.404122159E-01  4.488591108E+00  6.900347310E+00  4.750000000E+00  0.00000E+00  9.000E+00
      -5     1     1     2     0   503  1.110085373E+00  7.389003935E-01 -3.825133181E+01  3.856818829E+01  4.750000000E+00  0.00000E+00  9.000E+00
      21     1     1     2   511   501  9.062792958E-01 -2.820198344E+00 -6.650822295E-01  3.035983405E+00  9.033348898E-08  0.00000E+00  9.000E+00
#rwgt            1           9   4.8394607119773365E-004           8     1579402           0
</event>
<event>
      6   9999 -3.45752E-01  1.33775E+01 -1.00000E+00  1.74796E-01
      21    -1     0     0   501   502  0.000000000E+00  0.000000000E+00  6.104880511E+01  6.104880511E+01  0.000000000E+00  0.00000E+00  9.000E+00
      21    -1     0     0   502   512  0.000000000E+00  0.000000000E+00 -2.031995588E+03  2.031995588E+03  0.000000000E+00  0.00000E+00  9.000E+00
      25     1     1     2     0     0 -6.653235855E+00  2.208157557E+01 -1.293296232E+03  1.299527471E+03  1.249985683E+02  0.00000E+00  9.000E+00
       5     1     1     2   501     0  1.832288123E+00 -8.412853806E+00  5.712861682E+01  5.796873940E+01  4.750000000E+00  0.00000E+00  9.000E+00
      -5     1     1     2     0   503  1.127792596E+01 -1.952700280E+00 -1.229808178E+02  1.236035950E+02  4.750000000E+00  0.00000E+00  9.000E+00
      21     1     1     2   503   512 -6.456978231E+00 -1.171602149E+01 -6.117983496E+02  6.119445876E+02  7.629394531E-06  0.00000E+00  9.000E+00
#rwgt            1           9  -6.0805526956245994E-006           8     1585261           0
</event>
<event>
      6   9999  3.45752E-01  1.72328E+01 -1.00000E+00  1.65309E-01
      21    -1     0     0   502   503  0.000000000E+00  0.000000000E+00  8.379623509E+00  8.379623509E+00  0.000000000E+00  0.00000E+00  9.000E+00
      21    -1     0     0   511   502  0.000000000E+00  0.000000000E+00 -7.905895519E+02  7.905895519E+02  0.000000000E+00  0.00000E+00  9.000E+00
      25     1     1     2     0     0 -2.498790011E+00  2.023370717E+01 -6.035577160E+02  6.167025064E+02  1.249976719E+02  0.00000E+00  9.000E+00
       5     1     1     2   501     0  5.444647680E+00  2.173003746E+00 -2.440093557E+01  2.554083574E+01  4.750000000E+00  0.00000E+00  9.000E+00
      -5     1     1     2     0   503  2.503962397E+00 -6.058313096E+00 -2.375278265E+01  2.509442506E+01  4.750000000E+00  0.00000E+00  9.000E+00
      21     1     1     2   511   501 -5.449820066E+00 -1.634839782E+01 -1.304984941E+02  1.316314081E+02  2.697398305E-06  0.00000E+00  9.000E+00
#rwgt            1           9   1.6517461646763425                8     1588988           0
</event>
<event>
      6   9999  3.45752E-01  5.43730E+00 -1.00000E+00  2.20194E-01
      21    -1     0     0   501   502  0.000000000E+00  0.000000000E+00  1.016372143E+01  1.016372143E+01  0.000000000E+00  0.00000E+00  9.000E+00
      21    -1     0     0   512   503  0.000000000E+00  0.000000000E+00 -8.349790350E+02  8.349790350E+02  0.000000000E+00  0.00000E+00  9.000E+00
      25     1     1     2     0     0 -1.472750765E+01  7.191126830E+00 -6.898805556E+02  7.013052114E+02  1.250008273E+02  0.00000E+00  9.000E+00
       5     1     1     2   501     0 -1.658097810E+00  1.368020547E+00  1.920061875E+00  5.556069309E+00  4.750000000E+00  0.00000E+00  9.000E+00
      -5     1     1     2     0   503  1.102377164E+01 -7.656381444E+00 -9.132665032E+01  9.242977483E+01  4.750000000E+00  0.00000E+00  9.000E+00
      21     1     1     2   512   502  5.361833819E+00 -9.027659330E-01 -4.552816957E+01  4.585170087E+01  6.743495762E-07  0.00000E+00  9.000E+00
#rwgt            1           9   3.0185756863592155E-004           8     1590584           0
</event>
<event>
      6   9999 -3.45752E-01  1.87728E+01 -1.00000E+00  1.62338E-01
      21    -1     0     0   501   502  0.000000000E+00  0.000000000E+00  1.913273614E+01  1.913273614E+01  0.000000000E+00  0.00000E+00  9.000E+00
      21    -1     0     0   511   503  0.000000000E+00  0.000000000E+00 -1.068577693E+03  1.068577693E+03  0.000000000E+00  0.00000E+00  9.000E+00
      25     1     1     2     0     0  6.027254747E+00  2.453067998E+01 -7.699563909E+02  7.804456761E+02  1.249981095E+02  0.00000E+00  9.000E+00
       5     1     1     2   501     0 -4.839249731E+00  2.611742803E+00  1.103661037E+01  1.321396257E+01  4.750000000E+00  0.00000E+00  9.000E+00
      -5     1     1     2     0   503 -1.800666679E+01 -1.880278681E+01 -1.819882054E+02  1.839022953E+02  4.750000000E+00  0.00000E+00  9.000E+00
      21     1     1     2   511   502  1.681866177E+01 -8.339635973E+00 -1.085369711E+02  1.101484952E+02  0.000000000E+00  0.00000E+00  9.000E+00
#rwgt            1           9 -0.12412707408978757                8     1594103           0
</event>
<event>
      6   9999  3.45752E-01  1.27276E+01 -1.00000E+00  1.76796E-01
      21    -1     0     0   512   502  0.000000000E+00  0.000000000E+00  2.864097272E+01  2.864097272E+01  0.000000000E+00  0.00000E+00  9.000E+00
      21    -1     0     0   502   503  0.000000000E+00  0.000000000E+00 -9.717118166E+02  9.717118166E+02  0.000000000E+00  0.00000E+00  9.000E+00
      25     1     1     2     0     0  3.722270022E+01 -1.266025307E+01 -3.173560416E+02  3.433425361E+02  1.249937142E+02  0.00000E+00  9.000E+00
       5     1     1     2   501     0  3.521601016E-02  3.461771483E-01  4.354931606E+00  6.453604271E+00  4.750000000E+00  0.00000E+00  9.000E+00
      -5     1     1     2     0   503 -2.635541491E+01  5.746911523E+00 -6.359477199E+02  6.365372729E+02  4.750000000E+00  0.00000E+00  9.000E+00
      21     1     1     2   512   501 -1.090250133E+01  6.567164399E+00  5.877985977E+00  1.401937597E+01  4.042583694E-07  0.00000E+00  9.000E+00
#rwgt            1           9   5.1245003454371762E-004           8     1595827           0
</event>
<event>
      6   9999  3.45752E-01  6.60501E+01 -1.00000E+00  1.28622E-01
      21    -1     0     0   502   503  0.000000000E+00  0.000000000E+00  8.466165490E+01  8.466165490E+01  0.000000000E+00  0.00000E+00  9.000E+00
      21    -1     0     0   511   502  0.000000000E+00  0.000000000E+00 -2.139535745E+02  2.139535745E+02  0.000000000E+00  0.00000E+00  9.000E+00
      25     1     1     2     0     0  4.557817803E+01 -4.037364417E+01 -5.196458645E+01  1.484375594E+02  1.250039573E+02  0.00000E+00  9.000E+00
       5     1     1     2   501     0  9.406672704E+00  2.435425364E+01 -7.536893174E+00  2.758590981E+01  4.750000000E+00  0.00000E+00  9.000E+00
      -5     1     1     2     0   503  1.105929858E+01  1.513375497E+01  7.662990316E+00  2.079958041E+01  4.750000000E+00  0.00000E+00  9.000E+00
      21     1     1     2   511   501 -6.604414931E+01  8.856355626E-01 -7.745343031E+01  1.017921798E+02  1.651812370E-06  0.00000E+00  9.000E+00
#rwgt            1           9  0.35425786625250466                8     1597998           0
</event>
<event>
      6   9999  3.45752E-01  9.55496E+00 -1.00000E+00  1.89301E-01
      21    -1     0     0   501   512  0.000000000E+00  0.000000000E+00  6.770772494E+01  6.770772494E+01  0.000000000E+00  0.00000E+00  9.000E+00
      21    -1     0     0   502   503  0.000000000E+00  0.000000000E+00 -3.723742021E+02  3.723742021E+02  0.000000000E+00  0.00000E+00  9.000E+00
      25     1     1     2     0     0 -5.425311117E+01 -1.112376139E+00 -2.895596138E+02  3.200247960E+02  1.250058506E+02  0.00000E+00  9.000E+00
       5     1     1     2   501     0 -6.221638362E+00  3.143534714E+00  3.449465198E+01  3.551104208E+01  4.750000000E+00  0.00000E+00  9.000E+00
      -5     1     1     2     0   503  5.101226964E+01 -7.049999172E-01 -5.363413944E+01  7.417500989E+01  4.750000000E+00  0.00000E+00  9.000E+00
      21     1     1     2   502   512  9.462479895E+00 -1.326158658E+00  4.032624113E+00  1.037107901E+01  2.149076030E-07  0.00000E+00  9.000E+00
#rwgt            1           9   9.0713579306409470E-002           8     1598801           0
</event>
<event>
      6   9999  3.45752E-01  1.92051E+01 -1.00000E+00  1.61567E-01
      21    -1     0     0   501   502  0.000000000E+00  0.000000000E+00  9.390179367E+00  9.390179367E+00  0.000000000E+00  0.00000E+00  9.000E+00
      21    -1     0     0   502   511  0.000000000E+00  0.000000000E+00 -1.121831256E+03  1.121831256E+03  0.000000000E+00  0.00000E+00  9.000E+00
      25     1     1     2     0     0 -5.017398932E+00 -2.103422268E+00 -4.514478671E+02  4.684659616E+02  1.250023271E+02  0.00000E+00  9.000E+00
       5     1     1     2   501     0  1.085307109E+01  1.484892415E+01 -2.384232635E+02  2.391787925E+02  4.750000000E+00  0.00000E+00  9.000E+00
      -5     1     1     2     0   503 -2.566185168E+00  6.179223822E+00 -6.911925894E+01  6.960461601E+01  4.750000000E+00  0.00000E+00  9.000E+00
      21     1     1     2   503   511 -3.269486987E+00 -1.892472570E+01 -3.534506866E+02  3.539720648E+02  3.814697266E-06  0.00000E+00  9.000E+00
#rwgt            1           9   2.2033167474178587E-004           8     1601666           0
</event>
<event>
      6   9999  3.45752E-01  1.12259E+01 -1.00000E+00  1.82054E-01
      21    -1     0     0   502   512  0.000000000E+00  0.000000000E+00  1.347968011E+01  1.347968011E+01  0.000000000E+00  0.00000E+00  9.000E+00
      21    -1     0     0   501   502  0.000000000E+00  0.000000000E+00 -8.403667897E+02  8.403667897E+02  0.000000000E+00  0.00000E+00  9.000E+00
      25     1     1     2     0     0 -3.595259648E+01 -9.758494967E-01 -7.069116245E+02  7.187778144E+02  1.249958408E+02  0.00000E+00  9.000E+00
       5     1     1     2   501     0  2.732701518E+01 -1.547849810E+01 -8.350057329E+01  8.933788615E+01  4.750000000E+00  0.00000E+00  9.000E+00
      -5     1     1     2     0   503 -2.552408091E+00  1.541842223E+01 -2.255037960E+01  2.784465212E+01  4.750000000E+00  0.00000E+00  9.000E+00
      21     1     1     2   503   512  1.117798939E+01  1.035925362E+00 -1.392453223E+01  1.788611712E+01  4.460403188E-07  0.00000E+00  9.000E+00
#rwgt            1           9  0.17130736532661767                8     1603009           0
</event>
<event>
      6   9999  3.45752E-01  5.17745E+00 -1.00000E+00  2.23385E-01
      21    -1     0     0   501   502  0.000000000E+00  0.000000000E+00  7.918525934E+00  7.918525934E+00  0.000000000E+00  0.00000E+00  9.000E+00
      21    -1     0     0   502   511  0.000000000E+00  0.000000000E+00 -1.143824414E+03  1.143824414E+03  0.000000000E+00  0.00000E+00  9.000E+00
      25     1     1     2     0     0  1.494527600E+00 -8.354165621E+00 -6.121685910E+02  6.248574808E+02  1.249978475E+02  0.00000E+00  9.000E+00
       5     1     1     2   501     0  7.343138312E-01 -1.572737235E-01 -2.564706226E+00  5.450153195E+00  4.750000000E+00  0.00000E+00  9.000E+00
      -5     1     1     2     0   503  1.574179639E+00  4.998182803E+00 -1.085174729E+02  1.087477094E+02  4.750000000E+00  0.00000E+00  9.000E+00
      21     1     1     2   503   511 -3.803021070E+00  3.513256541E+00 -4.126551181E+02  4.126875967E+02  5.394796609E-06  0.00000E+00  9.000E+00
#rwgt            1           9   1.9379309629180574E-003           8     1605299           0
</event>
<event>
      6   9999  3.45752E-01  2.80923E+01 -1.00000E+00  1.49708E-01
      21    -1     0     0   501   502  0.000000000E+00  0.000000000E+00  7.965976514E+01  7.965976514E+01  0.000000000E+00  0.00000E+00  9.000E+00
      21    -1     0     0   502   512  0.000000000E+00  0.000000000E+00 -7.345972246E+02  7.345972246E+02  0.000000000E+00  0.00000E+00  9.000E+00
      25     1     1     2     0     0 -3.059166771E+01 -4.885566453E+01 -3.965114733E+01  1.432506879E+02  1.250032800E+02  0.00000E+00  9.000E+00
       5     1     1     2   501     0 -1.517172409E+00 -2.894373907E+00  2.495542930E+01  2.561279297E+01  4.750000000E+00  0.00000E+00  9.000E+00
      -5     1     1     2     0   503  8.278959908E+00  3.687346560E+01 -1.657139241E+02  1.700348810E+02  4.750000000E+00  0.00000E+00  9.000E+00
      21     1     1     2   503   512  2.382988021E+01  1.487657283E+01 -4.745278174E+02  4.753586279E+02  5.394796609E-06  0.00000E+00  9.000E+00
#rwgt            1           9   9.4916304029727891E-004           8     1608708           0
</event>
<event>
      6   9999  3.45752E-01  1.19438E+01 -1.00000E+00  1.79418E-01
      21    -1     0     0   501   502  0.000000000E+00  0.000000000E+00  2.404685280E+01  2.404685280E+01  0.000000000E+00  0.00000E+00  9.000E+00
      21    -1     0     0   511   503  0.000000000E+00  0.000000000E+00 -7.510459835E+02  7.510459835E+02  0.000000000E+00  0.00000E+00  9.000E+00
      25     1     1     2     0     0  1.053431624E+01  5.118834046E+00 -5.299127762E+02  5.445826567E+02  1.250021810E+02  0.00000E+00  9.000E+00
       5     1     1     2   501     0  1.159203242E+00  4.905729719E+00  1.535420205E+01  1.684410748E+01  4.750000000E+00  0.00000E+00  9.000E+00
      -5     1     1     2     0   503 -3.336911465E+00 -1.491062425E+00 -2.060215503E+01  2.145622374E+01  4.750000000E+00  0.00000E+00  9.000E+00
      21     1     1     2   511   502 -8.356608014E+00 -8.533501340E+00 -1.918384015E+02  1.922098484E+02  0.000000000E+00  0.00000E+00  9.000E+00
#rwgt            1           9   2.2340032202958419E-003           8     1610511           0
</event>
<event>
      6   9999  3.45752E-01  2.52239E+01 -1.00000E+00  1.52880E-01
      21    -1     0     0   501   502  0.000000000E+00  0.000000000E+00  1.741034106E+02  1.741034106E+02  0.000000000E+00  0.00000E+00  9.000E+00
      21    -1     0     0   512   503  0.000000000E+00  0.000000000E+00 -7.302391628E+01  7.302391628E+01  0.000000000E+00  0.00000E+00  9.000E+00
      25     1     1     2     0     0  4.070355933E+01  3.092223326E+01  1.080571315E+02  1.729575635E+02  1.250000434E+02  0.00000E+00  9.000E+00
       5     1     1     2   501     0  7.730249246E-01  7.536677676E-01  1.443067135E+01  1.523063880E+01  4.750000000E+00  0.00000E+00  9.000E+00
      -5     1     1     2     0   503 -1.884096513E+01 -2.054611598E+01 -4.657107938E+00  2.865965812E+01  4.750000000E+00  0.00000E+00  9.000E+00
      21     1     1     2   512   502 -2.263561912E+01 -1.112978504E+01 -1.675120058E+01  3.027946646E+01  2.384185791E-07  0.00000E+00  9.000E+00
#rwgt            1           9   1.5502027606176276E-002           8     1613147           0
</event>
<event>
      6   9999  3.45752E-01  4.69603E+01 -1.00000E+00  1.36261E-01
      21    -1     0     0   501   502  0.000000000E+00  0.000000000E+00  3.660647034E+02  3.660647034E+02  0.000000000E+00  0.00000E+00  9.000E+00
      21    -1     0     0   511   503  0.000000000E+00  0.000000000E+00 -1.865957858E+03  1.865957858E+03  0.000000000E+00  0.00000E+00  9.000E+00
      25     1     1     2     0     0 -9.366065007E+01  2.436701157E+02  6.775077159E+01  2.972587394E+02  1.250005938E+02  0.00000E+00  9.000E+00
       5     1     1     2   501     0 -1.863831166E+00  2.718962930E+01  1.692903107E+02  1.715357735E+02  4.750000000E+00  0.00000E+00  9.000E+00
      -5     1     1     2     0   503  1.154303773E+02 -2.283271011E+02 -1.502893062E+03  1.524522074E+03  4.750000000E+00  0.00000E+00  9.000E+00
      21     1     1     2   511   502 -1.990589606E+01 -4.253264387E+01 -2.340411751E+02  2.387059742E+02  0.000000000E+00  0.00000E+00  9.000E+00
#rwgt            1           9  0.23760050965905524                8     1614726           0
</event>
<event>
      6   9999 -3.45752E-01  1.19585E+01 -1.00000E+00  1.79367E-01
      21    -1     0     0   502   503  0.000000000E+00  0.000000000E+00  1.119819577E+02  1.119819577E+02  0.000000000E+00  0.00000E+00  9.000E+00
      21    -1     0     0   501   512  0.000000000E+00  0.000000000E+00 -2.407379293E+02  2.407379293E+02  0.000000000E+00  0.00000E+00  9.000E+00
      25     1     1     2     0     0 -5.101660904E+01 -5.321837943E+01  7.823551252E+00  1.453336488E+02  1.250030848E+02  0.00000E+00  9.000E+00
       5     1     1     2   501     0  8.422025575E+01  3.048575882E+00 -1.086296795E+02  1.375693101E+02  4.750000000E+00  0.00000E+00  9.000E+00
      -5     1     1     2     0   503 -2.193178046E+01  4.617602742E+01 -1.848595952E+01  5.456667207E+01  4.750000000E+00  0.00000E+00  9.000E+00
      21     1     1     2   502   512 -1.127186624E+01  3.993776133E+00 -9.463883789E+00  1.525025616E+01  2.064765462E-07  0.00000E+00  9.000E+00
#rwgt            1           9 -0.11048789031513649                8     1617387           0
</event>
<event>
      6   9999  3.45752E-01  1.37918E+01 -1.00000E+00  1.73594E-01
      21    -1     0     0   511   502  0.000000000E+00  0.000000000E+00  1.831912234E+02  1.831912234E+02  0.000000000E+00  0.00000E+00  9.000E+00
      21    -1     0     0   502   503  0.000000000E+00  0.000000000E+00 -1.251002820E+03  1.251002820E+03  0.000000000E+00  0.00000E+00  9.000E+00
      25     1     1     2     0     0 -4.499197370E+01  3.114865542E+01 -2.271045767E+02  2.649457724E+02  1.250010285E+02  0.00000E+00  9.000E+00
       5     1     1     2   501     0  1.309977573E+00 -5.577453681E+00  2.066288642E+01  2.196227234E+01  4.750000000E+00  0.00000E+00  9.000E+00
      -5     1     1     2     0   503  5.483373021E+01 -3.368624451E+01 -1.002956005E+03  1.005029757E+03  4.750000000E+00  0.00000E+00  9.000E+00
      21     1     1     2   511   501 -1.115173409E+01  8.115042779E+00  1.415860987E+02  1.422562421E+02  2.697398305E-06  0.00000E+00  9.000E+00
#rwgt            1           9   1.6516667252026627E-004           8     1620163           0
</event>
<event>
      6   9999  3.45752E-01  5.09213E+00 -1.00000E+00  2.24489E-01
      21    -1     0     0   512   502  0.000000000E+00  0.000000000E+00  3.873622818E+02  3.873622818E+02  0.000000000E+00  0.00000E+00  9.000E+00
      21    -1     0     0   502   503  0.000000000E+00  0.000000000E+00 -1.548876556E+03  1.548876556E+03  0.000000000E+00  0.00000E+00  9.000E+00
      25     1     1     2     0     0 -4.186829464E+00  7.848993646E+00 -9.353878559E+02  9.437441675E+02  1.249939058E+02  0.00000E+00  9.000E+00
       5     1     1     2   501     0 -5.844497560E-01 -1.815303031E+00 -8.052399109E-01  5.181488003E+00  4.750000000E+00  0.00000E+00  9.000E+00
      -5     1     1     2     0   503  8.523597542E+00 -9.476060795E+00 -6.062238760E+02  6.063764489E+02  4.750000000E+00  0.00000E+00  9.000E+00
      21     1     1     2   512   501 -3.752318322E+00  3.442370180E+00  3.809026976E+02  3.809367334E+02  7.629394531E-06  0.00000E+00  9.000E+00
#rwgt            1           9   9.4745880864430723E-003           8     1623207           0
</event>
<event>
      6   9999  3.45752E-01  4.39429E+00 -1.00000E+00  2.39692E-01
      21    -1     0     0   501   502  0.000000000E+00  0.000000000E+00  3.583395902E+01  3.583395902E+01  0.000000000E+00  0.00000E+00  9.000E+00
      21    -1     0     0   502   511  0.000000000E+00  0.000000000E+00 -7.862126305E+02  7.862126305E+02  0.000000000E+00  0.00000E+00  9.000E+00
      25     1     1     2     0     0  5.495126531E+00 -1.063444321E+01 -1.953935833E+02  2.322612404E+02  1.249933742E+02  0.00000E+00  9.000E+00
       5     1     1     2   501     0  3.783811504E+00  3.012573935E+00  1.619611169E+01  1.755760135E+01  4.750000000E+00  0.00000E+00  9.000E+00
      -5     1     1     2     0   503 -8.541723487E+00  1.195388038E+01 -5.600175663E+02  5.602303931E+02  4.750000000E+00  0.00000E+00  9.000E+00
      21     1     1     2   503   511 -7.372145482E-01 -4.332011106E+00 -1.116363356E+01  1.199735470E+01  2.064765462E-07  0.00000E+00  9.000E+00
#rwgt            1           9   3.0374424299227598E-004           8     1627602           0
</event>
<event>
      6   9999 -3.45752E-01  4.11014E+01 -1.00000E+00  1.39505E-01
      21    -1     0     0   501   502  0.000000000E+00  0.000000000E+00  1.791683339E+03  1.791683339E+03  0.000000000E+00  0.00000E+00  9.000E+00
      21    -1     0     0   512   503  0.000000000E+00  0.000000000E+00 -7.114789999E+01  7.114789999E+01  0.000000000E+00  0.00000E+00  9.000E+00
      25     1     1     2     0     0  1.598079908E+02 -1.227527568E+02  3.100843343E+02  3.903639600E+02  1.249995746E+02  0.00000E+00  9.000E+00
       5     1     1     2   501     0  2.062568839E+00  6.470061418E+00  9.138849145E+02  9.139224887E+02  4.750000000E+00  0.00000E+00  9.000E+00
      -5     1     1     2     0   503 -1.345086613E+02  1.469527764E+02  4.675144757E+02  5.082125992E+02  4.750000000E+00  0.00000E+00  9.000E+00
      21     1     1     2   512   502 -2.736189832E+01 -3.067008100E+01  2.905171443E+01  5.033219109E+01  1.430511475E-06  0.00000E+00  9.000E+00
#rwgt            1           9  -2.6404041855373404E-002           8     1634360           0
</event>
<event>
      6   9999  3.45752E-01  1.43381E+01 -1.00000E+00  1.72088E-01
       1    -1     0     0   501     0  0.000000000E+00  0.000000000E+00  1.155682898E+02  1.155682898E+02  0.000000000E+00  0.00000E+00  9.000E+00
      21    -1     0     0   502   503  0.000000000E+00  0.000000000E+00 -1.854130971E+02  1.854130971E+02  0.000000000E+00  0.00000E+00  9.000E+00
      25     1     1     2     0     0  8.263693417E+00  4.536734823E+00 -1.577786492E+02  2.015155186E+02  1.250021260E+02  0.00000E+00  9.000E+00
       5     1     1     2   501     0  3.306734687E+00 -2.009546428E+00  1.405525616E+01  1.533249806E+01  4.750000000E+00  0.00000E+00  9.000E+00
      -5     1     1     2     0   503  2.450942796E+00 -5.524110492E+00 -1.127677268E+00  7.768981486E+00  4.750000000E+00  0.00000E+00  9.000E+00
       1     1     1     2   502     0 -1.402137090E+01  2.996922097E+00  7.500626300E+01  7.636438878E+01  0.000000000E+00  0.00000E+00  9.000E+00
#rwgt            1           9   2.8234760508836039E-003           8     1636080           0
</event>
<event>
      6   9999  3.45752E-01  2.48119E+01 -1.00000E+00  1.53378E-01
      21    -1     0     0   501   511  0.000000000E+00  0.000000000E+00  1.297929822E+02  1.297929822E+02  0.000000000E+00  0.00000E+00  9.000E+00
      21    -1     0     0   502   503  0.000000000E+00  0.000000000E+00 -1.705536971E+02  1.705536971E+02  0.000000000E+00  0.00000E+00  9.000E+00
      25     1     1     2     0     0 -1.335455717E+01  3.668304005E+01 -1.304199954E+02  1.848183839E+02  1.249978809E+02  0.00000E+00  9.000E+00
       5     1     1     2   501     0  3.246416552E-01  9.133148561E-01  5.085507021E-01  4.874490747E+00  4.750000000E+00  0.00000E+00  9.000E+00
      -5     1     1     2     0   503  2.057117254E+01 -1.395821322E+01  9.180747458E+00  2.692310309E+01  4.750000000E+00  0.00000E+00  9.000E+00
      21     1     1     2   502   511 -7.541257023E+00 -2.363814168E+01  7.996998234E+01  8.373070151E+01  9.536743164E-07  0.00000E+00  9.000E+00
#rwgt            1           9   6.1672237983116579E-002           8     1637910           0
</event>
<event>
      6   9999  3.45752E-01  3.18834E+01 -1.00000E+00  1.46148E-01
      -3    -1     0     0     0   502  0.000000000E+00  0.000000000E+00  5.616505064E+01  5.616505064E+01  0.000000000E+00  0.00000E+00  9.000E+00
       3    -1     0     0   512     0  0.000000000E+00  0.000000000E+00 -1.036489877E+03  1.036489877E+03  0.000000000E+00  0.00000E+00  9.000E+00
      25     1     1     2     0     0  3.453993417E+01 -1.299158435E+02 -1.585590876E+02  2.425672977E+02  1.250071047E+02  0.00000E+00  9.000E+00
       5     1     1     2   501     0  1.627497986E+01  2.539452001E+00 -2.253822371E+02  2.260332699E+02  4.750000000E+00  0.00000E+00  9.000E+00
      -5     1     1     2     0   502 -2.107805597E+01  1.388772083E+02 -3.766277579E+02  4.019977536E+02  4.750000000E+00  0.00000E+00  9.000E+00
      21     1     1     2   512   501 -2.973685806E+01 -1.150081681E+01 -2.197557439E+02  2.220566065E+02  3.814697266E-06  0.00000E+00  9.000E+00
#rwgt            1           7   1.4873576893724667E-002           8     1640659           0
</event>
<event>
      6   9999  3.45752E-01  8.38255E+00 -1.00000E+00  1.95643E-01
      21    -1     0     0   501   502  0.000000000E+00  0.000000000E+00  2.560396840E+01  2.560396840E+01  0.000000000E+00  0.00000E+00  9.000E+00
      21    -1     0     0   511   503  0.000000000E+00  0.000000000E+00 -1.318725809E+03  1.318725809E+03  0.000000000E+00  0.00000E+00  9.000E+00
      25     1     1     2     0     0  5.963359929E-02  9.093399479E+00 -1.170409665E+03  1.177100142E+03  1.249930707E+02  0.00000E+00  9.000E+00
       5     1     1     2   501     0 -3.019498267E+00 -4.087195289E+00  2.135368406E+01  2.245806888E+01  4.750000000E+00  0.00000E+00  9.000E+00
      -5     1     1     2     0   503  3.879659368E-01  2.972049760E+00 -4.440571450E+01  4.475950823E+01  4.750000000E+00  0.00000E+00  9.000E+00
      21     1     1     2   511   502  2.571898731E+00 -7.978253951E+00 -9.966014535E+01  1.000120581E+02  0.000000000E+00  0.00000E+00  9.000E+00
#rwgt            1           9   3.7987949786849250E-006           8     1641544           0
</event>
<event>
      6   9999  3.45752E-01  1.43628E+01 -1.00000E+00  1.72021E-01
      21    -1     0     0   501   502  0.000000000E+00  0.000000000E+00  1.009869170E+02  1.009869170E+02  0.000000000E+00  0.00000E+00  9.000E+00
      21    -1     0     0   512   503  0.000000000E+00  0.000000000E+00 -1.817261704E+03  1.817261704E+03  0.000000000E+00  0.00000E+00  9.000E+00
      25     1     1     2     0     0 -1.991687487E+02 -9.158583435E+01 -1.320389747E+02  2.848118306E+02  1.250093297E+02  0.00000E+00  9.000E+00
       5     1     1     2   501     0  3.060021400E+00 -2.664701947E+00  1.552051566E+01  1.673060889E+01  4.750000000E+00  0.00000E+00  9.000E+00
      -5     1     1     2     0   503  1.978578460E+02  7.999460965E+01 -1.373031430E+03  1.389526803E+03  4.750000000E+00  0.00000E+00  9.000E+00
      21     1     1     2   512   502 -1.749118744E+00  1.425592665E+01 -2.267248977E+02  2.271793787E+02  0.000000000E+00  0.00000E+00  9.000E+00
#rwgt            1           9   1.5513499344104902E-003           8     1645260           0
</event>
<event>
      6   9999  3.45752E-01  3.43593E+01 -1.00000E+00  1.44125E-01
      21    -1     0     0   502   511  0.000000000E+00  0.000000000E+00  2.339381992E+01  2.339381992E+01  0.000000000E+00  0.00000E+00  9.000E+00
      21    -1     0     0   501   502  0.000000000E+00  0.000000000E+00 -1.034107733E+03  1.034107733E+03  0.000000000E+00  0.00000E+00  9.000E+00
      25     1     1     2     0     0  5.506471068E+00 -4.758807961E+01 -3.896733120E+02  4.120255780E+02  1.249993610E+02  0.00000E+00  9.000E+00
       5     1     1     2   501     0  5.452439349E+01  7.425919869E+01 -4.763114557E+02  4.851623474E+02  4.750000000E+00  0.00000E+00  9.000E+00
      -5     1     1     2     0   503 -2.638628929E+01 -1.969957506E+01 -8.684940370E+01  9.300371468E+01  4.750000000E+00  0.00000E+00  9.000E+00
      21     1     1     2   503   511 -3.364457526E+01 -6.971544015E+00 -5.787974180E+01  6.730991295E+01  0.000000000E+00  0.00000E+00  9.000E+00
#rwgt            1           9   3.2912182230758241E-004           8     1648887           0
</event>
<event>
      6   9999  3.45752E-01  5.01536E+00 -1.00000E+00  2.25509E-01
      21    -1     0     0   501   512  0.000000000E+00  0.000000000E+00  3.037752805E+02  3.037752805E+02  0.000000000E+00  0.00000E+00  9.000E+00
      21    -1     0     0   502   503  0.000000000E+00  0.000000000E+00 -1.803625753E+01  1.803625753E+01  0.000000000E+00  0.00000E+00  9.000E+00
      25     1     1     2     0     0 -1.081622252E+00 -1.303237033E+00  2.163784506E+02  2.498945580E+02  1.249991516E+02  0.00000E+00  9.000E+00
       5     1     1     2   501     0 -2.274393344E-01  5.087148085E-01  3.998058076E+01  4.026561632E+01  4.750000000E+00  0.00000E+00  9.000E+00
      -5     1     1     2     0   503 -2.834560062E+00  3.620162474E+00  1.417949694E+01  1.564483750E+01  4.750000000E+00  0.00000E+00  9.000E+00
      21     1     1     2   502   512  4.143621648E+00 -2.825640250E+00  1.520049463E+01  1.600652618E+01  1.685873940E-07  0.00000E+00  9.000E+00
#rwgt            1           9   3.6371101457659560E-003           8     1649966           0
</event>
<event>
      6   9999  3.45752E-01  7.77320E+00 -1.00000E+00  1.99506E-01
      21    -1     0     0   501   511  0.000000000E+00  0.000000000E+00  8.917061023E+00  8.917061023E+00  0.000000000E+00  0.00000E+00  9.000E+00
      21    -1     0     0   502   503  0.000000000E+00  0.000000000E+00 -7.400872725E+02  7.400872725E+02  0.000000000E+00  0.00000E+00  9.000E+00
      25     1     1     2     0     0  3.425759354E+00  3.517951689E+00 -6.549051750E+02  6.667454497E+02  1.249983785E+02  0.00000E+00  9.000E+00
       5     1     1     2   501     0 -1.167322904E+00  1.512739540E+00 -6.585151144E-01  5.162089290E+00  4.750000000E+00  0.00000E+00  9.000E+00
      -5     1     1     2     0   503 -3.877061836E+00  2.572113470E+00 -4.638249014E+01  4.685664593E+01  4.750000000E+00  0.00000E+00  9.000E+00
      21     1     1     2   502   511  1.618625387E+00 -7.602804699E+00 -2.922403129E+01  3.024014868E+01  4.768371582E-07  0.00000E+00  9.000E+00
#rwgt            1           9   1.6559312920679436E-003           8     1653584           0
</event>
<event>
      6   9999 -3.45752E-01  1.52622E+01 -1.00000E+00  1.69722E-01
      21    -1     0     0   501   512  0.000000000E+00  0.000000000E+00  2.457024637E+01  2.457024637E+01  0.000000000E+00  0.00000E+00  9.000E+00
      21    -1     0     0   502   503  0.000000000E+00  0.000000000E+00 -8.600875739E+02  8.600875739E+02  0.000000000E+00  0.00000E+00  9.000E+00
      25     1     1     2     0     0 -1.358643612E+01  1.197951912E+00 -6.013103098E+02  6.143169170E+02  1.250006379E+02  0.00000E+00  9.000E+00
       5     1     1     2   501     0 -4.526468731E+00  1.911334151E+00  4.254799843E+00  8.050337826E+00  4.750000000E+00  0.00000E+00  9.000E+00
      -5     1     1     2     0   503  8.997634459E+00  9.131875201E+00 -2.452187323E+02  2.455995475E+02  4.750000000E+00  0.00000E+00  9.000E+00
      21     1     1     2   502   512  9.115270390E+00 -1.224116127E+01  6.756914742E+00  1.669101795E+01  3.153981341E-07  0.00000E+00  9.000E+00
#rwgt            1           9  -4.3431828267694061E-004           8     1656187           0
</event>
<event>
      6   9999  3.45752E-01  2.85120E+02 -1.00000E+00  1.03819E-01
      21    -1     0     0   501   511  0.000000000E+00  0.000000000E+00  1.785266927E+02  1.785266927E+02  0.000000000E+00  0.00000E+00  9.000E+00
      21    -1     0     0   502   503  0.000000000E+00  0.000000000E+00 -1.543336986E+03  1.543336986E+03  0.000000000E+00  0.00000E+00  9.000E+00
      25     1     1     2     0     0  3.432979070E+01  2.349048005E+02 -8.171582868E+02  8.600771482E+02  1.250049408E+02  0.00000E+00  9.000E+00
       5     1     1     2   501     0  4.340738750E+01  6.631610749E+01 -2.314746853E+02  2.447143637E+02  4.750000000E+00  0.00000E+00  9.000E+00
      -5     1     1     2     0   503 -4.541418963E+01 -1.793902809E+01 -3.280568077E+02  3.317048220E+02  4.750000000E+00  0.00000E+00  9.000E+00
      21     1     1     2   502   511 -3.232298857E+01 -2.832818799E+02  1.187948684E+01  2.853673444E+02  4.091501785E-06  0.00000E+00  9.000E+00
#rwgt            1           9   1.7411424531673574E-004           8     1658164           0
</event>
<event>
      6   9999  3.45752E-01  1.05822E+01 -1.00000E+00  1.84642E-01
      21    -1     0     0   501   502  0.000000000E+00  0.000000000E+00  1.872471547E+01  1.872471547E+01  0.000000000E+00  0.00000E+00  9.000E+00
      21    -1     0     0   502   512  0.000000000E+00  0.000000000E+00 -1.005363631E+03  1.005363631E+03  0.000000000E+00  0.00000E+00  9.000E+00
      25     1     1     2     0     0  4.320586393E+00  8.331137266E-01 -8.465302283E+02  8.557209874E+02  1.250024773E+02  0.00000E+00  9.000E+00
       5     1     1     2   501     0  4.826713583E+00 -5.943400955E+00  1.199369984E+01  1.500108379E+01  4.750000000E+00  0.00000E+00  9.000E+00
      -5     1     1     2     0   503  1.113980170E+00  2.523963944E+00 -1.025271145E+02  1.026741596E+02  4.750000000E+00  0.00000E+00  9.000E+00
      21     1     1     2   503   512 -1.026128015E+01  2.586323284E+00 -4.957527275E+01  5.069211583E+01  6.743495762E-07  0.00000E+00  9.000E+00
#rwgt            1           9   7.0208459475049983E-005           8     1658278           0
</event>
<event>
      6   9999  3.45752E-01  1.21791E+01 -1.00000E+00  1.78605E-01
      21    -1     0     0   501   511  0.000000000E+00  0.000000000E+00  4.580259307E+02  4.580259307E+02  0.000000000E+00  0.00000E+00  9.000E+00
      21    -1     0     0   502   503  0.000000000E+00  0.000000000E+00 -1.188641806E+03  1.188641806E+03  0.000000000E+00  0.00000E+00  9.000E+00
      25     1     1     2     0     0 -1.354969550E+02 -2.000522888E+01 -4.339206296E+02  4.718814423E+02  1.250013951E+02  0.00000E+00  9.000E+00
       5     1     1     2   501     0 -1.217719987E+00  1.456756526E+00  1.039343703E+01  1.158408455E+01  4.750000000E+00  0.00000E+00  9.000E+00
      -5     1     1     2     0   503  1.245914467E+02  1.971380855E+01 -7.296383260E+02  7.404770841E+02  4.750000000E+00  0.00000E+00  9.000E+00
      21     1     1     2   502   511  1.212322829E+01 -1.165336197E+00  4.225496434E+02  4.227251256E+02  5.394796609E-06  0.00000E+00  9.000E+00
#rwgt            1           9   1.9486203726912456E-003           8     1661443           0
</event>
<event>
      6   9999  3.45752E-01  2.55439E+01 -1.00000E+00  1.52502E-01
      21    -1     0     0   501   502  0.000000000E+00  0.000000000E+00  1.251045520E+01  1.251045520E+01  0.000000000E+00  0.00000E+00  9.000E+00
      21    -1     0     0   502   512  0.000000000E+00  0.000000000E+00 -1.176599908E+03  1.176599908E+03  0.000000000E+00  0.00000E+00  9.000E+00
      25     1     1     2     0     0  1.731997071E+01 -2.291505121E+01 -4.116443775E+02  4.311622831E+02  1.249989593E+02  0.00000E+00  9.000E+00
       5     1     1     2   501     0  1.139638730E+00 -1.438209334E+00 -6.248091248E-01  5.130312755E+00  4.750000000E+00  0.00000E+00  9.000E+00
      -5     1     1     2     0   503 -1.010312850E+01  2.148622903E-01 -3.554031192E+02  3.555784850E+02  4.750000000E+00  0.00000E+00  9.000E+00
      21     1     1     2   503   512 -8.356480944E+00  2.413839826E+01 -3.964171467E+02  3.972392821E+02  7.629394531E-06  0.00000E+00  9.000E+00
#rwgt            1           9   7.3754273907395318E-004           8     1664626           0
</event>
<event>
      6   9999  3.45752E-01  4.50729E+01 -1.00000E+00  1.37243E-01
      21    -1     0     0   501   511  0.000000000E+00  0.000000000E+00  6.539407326E+01  6.539407326E+01  0.000000000E+00  0.00000E+00  9.000E+00
      21    -1     0     0   502   503  0.000000000E+00  0.000000000E+00 -1.327626821E+03  1.327626821E+03  0.000000000E+00  0.00000E+00  9.000E+00
      25     1     1     2     0     0 -1.430195713E+02 -9.058147126E+01 -3.238997214E+02  3.862592560E+02  1.250023305E+02  0.00000E+00  9.000E+00
       5     1     1     2   501     0 -2.093971276E+00  4.896136275E+00  6.851013074E+00  9.892206340E+00  4.750000000E+00  0.00000E+00  9.000E+00
      -5     1     1     2     0   503  1.097522203E+02  1.136343116E+02 -9.380057314E+02  9.512284800E+02  4.750000000E+00  0.00000E+00  9.000E+00
      21     1     1     2   502   511  3.536132222E+01 -2.794897661E+01 -7.178308326E+00  4.564095215E+01  1.332800375E-06  0.00000E+00  9.000E+00
#rwgt            1           9   5.2001903072460291E-004           8     1665988           0
</event>
<event>
      6   9999  3.45752E-01  7.51600E+00 -1.00000E+00  2.01279E-01
      21    -1     0     0   501   502  0.000000000E+00  0.000000000E+00  6.297319049E+02  6.297319049E+02  0.000000000E+00  0.00000E+00  9.000E+00
      21    -1     0     0   512   503  0.000000000E+00  0.000000000E+00 -6.046026582E+02  6.046026582E+02  0.000000000E+00  0.00000E+00  9.000E+00
      25     1     1     2     0     0  6.007382928E+00  2.785868959E+01  6.411088842E+01  1.433411625E+02  1.249971504E+02  0.00000E+00  9.000E+00
       5     1     1     2   501     0 -9.990619914E+00  9.182430919E-01  5.241024096E+02  5.242199481E+02  4.750000000E+00  0.00000E+00  9.000E+00
      -5     1     1     2     0   503  7.846742160E+00 -2.232995499E+01 -7.842962334E+01  8.206074927E+01  4.750000000E+00  0.00000E+00  9.000E+00
      21     1     1     2   512   502 -3.863505174E+00 -6.446977698E+00 -4.846544280E+02  4.847127033E+02  9.344061824E-06  0.00000E+00  9.000E+00
#rwgt            1           9   1.8042133443394134E-003           8     1667294           0
</event>
<event>
      6   9999 -3.45752E-01  1.80898E+01 -1.00000E+00  1.63611E-01
      21    -1     0     0   511   502  0.000000000E+00  0.000000000E+00  2.442926026E+02  2.442926026E+02  0.000000000E+00  0.00000E+00  9.000E+00
      21    -1     0     0   502   503  0.000000000E+00  0.000000000E+00 -2.514069489E+03  2.514069489E+03  0.000000000E+00  0.00000E+00  9.000E+00
      25     1     1     2     0     0 -3.988188854E+01 -1.844897680E+01 -2.322853313E+03  2.326629303E+03  1.250018694E+02  0.00000E+00  9.000E+00
       5     1     1     2   501     0  1.282373952E+01 -7.719772116E+00  2.032649931E+01  2.568603221E+01  4.750000000E+00  0.00000E+00  9.000E+00
      -5     1     1     2     0   503  4.479531622E+01  2.261439228E+01 -1.828598109E+02  1.896794771E+02  4.750000000E+00  0.00000E+00  9.000E+00
      21     1     1     2   511   501 -1.773716720E+01  3.554356642E+00  2.156097383E+02  2.163672799E+02  7.136645101E-06  0.00000E+00  9.000E+00
#rwgt            1           9  -7.8466386394584803E-005           8     1672145           0
</event>
<event>
      6   9999  3.45752E-01  1.30067E+01 -1.00000E+00  1.75919E-01
      21    -1     0     0   501   512  0.000000000E+00  0.000000000E+00  7.767139064E+02  7.767139064E+02  0.000000000E+00  0.00000E+00  9.000E+00
      21    -1     0     0   502   503  0.000000000E+00  0.000000000E+00 -3.897847852E+01  3.897847852E+01  0.000000000E+00  0.00000E+00  9.000E+00
      25     1     1     2     0     0  1.649883268E+01  5.030006522E+01  1.040778182E+02  1.710535015E+02  1.249992003E+02  0.00000E+00  9.000E+00
       5     1     1     2   501     0 -2.996934738E+00 -6.160363945E+00  4.005433395E+02  4.006300800E+02  4.750000000E+00  0.00000E+00  9.000E+00
      -5     1     1     2     0   503 -2.479926852E+01 -5.058505013E+01  1.587814199E+02  1.685465895E+02  4.750000000E+00  0.00000E+00  9.000E+00
      21     1     1     2   502   512  1.129737057E+01  6.445348848E+00  7.433285026E+01  7.546221393E+01  1.348699152E-06  0.00000E+00  9.000E+00
#rwgt            1           9  0.49705252990607701                8     1674691           0
</event>
<event>
      6   9999  3.45752E-01  1.35832E+01 -1.00000E+00  1.74192E-01
      21    -1     0     0   502   503  0.000000000E+00  0.000000000E+00  9.337571587E+00  9.337571587E+00  0.000000000E+00  0.00000E+00  9.000E+00
       1    -1     0     0   501     0  0.000000000E+00  0.000000000E+00 -1.895680714E+03  1.895680714E+03  0.000000000E+00  0.00000E+00  9.000E+00
      25     1     1     2     0     0 -2.412053781E+01 -1.139204944E+01 -5.716685223E+02  5.857817454E+02  1.249950986E+02  0.00000E+00  9.000E+00
       5     1     1     2   501     0  1.546267528E+01  2.125639357E+01 -9.541727875E+01  9.908555989E+01  4.750000000E+00  0.00000E+00  9.000E+00
      -5     1     1     2     0   503  3.947880141E-01  9.164802094E-01 -1.400725728E+01  1.482435665E+01  4.750000000E+00  0.00000E+00  9.000E+00
       1     1     1     2   502     0  8.263074511E+00 -1.078082433E+01 -1.205250084E+03  1.205326623E+03  0.000000000E+00  0.00000E+00  9.000E+00
#rwgt            1           9   1.2599591246354711E-004           8     1677212           0
</event>
<event>
      6   9999  3.45752E-01  2.90911E+01 -1.00000E+00  1.48708E-01
      21    -1     0     0   501   502  0.000000000E+00  0.000000000E+00  7.458137560E+01  7.458137560E+01  0.000000000E+00  0.00000E+00  9.000E+00
      21    -1     0     0   511   503  0.000000000E+00  0.000000000E+00 -1.688123586E+03  1.688123586E+03  0.000000000E+00  0.00000E+00  9.000E+00
      25     1     1     2     0     0 -5.550655741E+01  2.260505038E+01 -1.329428788E+03  1.336636925E+03  1.250016075E+02  0.00000E+00  9.000E+00
       5     1     1     2   501     0  2.084571752E+00 -9.320984459E-01  6.828315321E+01  6.848624504E+01  4.750000000E+00  0.00000E+00  9.000E+00
      -5     1     1     2     0   503  2.592909846E+01 -1.216337548E+01 -1.247260818E+02  1.280602351E+02  4.750000000E+00  0.00000E+00  9.000E+00
      21     1     1     2   511   502  2.749288720E+01 -9.509576450E+00 -2.276704941E+02  2.295215563E+02  2.697398305E-06  0.00000E+00  9.000E+00
#rwgt            1           9   7.4510802239346260E-004           8     1678889           0
</event>
<event>
      6   9999  3.45752E-01  2.96585E+01 -1.00000E+00  1.48160E-01
      21    -1     0     0   501   502  0.000000000E+00  0.000000000E+00  8.048659107E+01  8.048659107E+01  0.000000000E+00  0.00000E+00  9.000E+00
       1    -1     0     0   502     0  0.000000000E+00  0.000000000E+00 -2.552140347E+03  2.552140347E+03  0.000000000E+00  0.00000E+00  9.000E+00
      25     1     1     2     0     0  1.474003941E+02  1.275580469E+02 -6.586914011E+02  6.982090385E+02  1.249942722E+02  0.00000E+00  9.000E+00
       5     1     1     2   501     0 -6.045380069E+00  1.756193919E+00  5.138378692E+01  5.198544888E+01  4.750000000E+00  0.00000E+00  9.000E+00
      -5     1     1     2     0   503 -1.337329248E+02 -1.006518499E+02 -7.841203824E+02  8.017996175E+02  4.750000000E+00  0.00000E+00  9.000E+00
       1     1     1     2   503     0 -7.622089323E+00 -2.866239089E+01 -1.080225759E+03  1.080632833E+03  1.525878906E-05  0.00000E+00  9.000E+00
#rwgt            1           9   2.9485179488882165E-004           8     1681103           0
</event>
<event>
      6   9999  3.45752E-01  1.10831E+01 -1.00000E+00  1.82609E-01
      21    -1     0     0   511   502  0.000000000E+00  0.000000000E+00  8.753877410E+01  8.753877410E+01  0.000000000E+00  0.00000E+00  9.000E+00
      21    -1     0     0   502   503  0.000000000E+00  0.000000000E+00 -1.598492142E+03  1.598492142E+03  0.000000000E+00  0.00000E+00  9.000E+00
      25     1     1     2     0     0 -2.181834325E+01 -2.966820938E+01 -1.432280602E+03  1.438196379E+03  1.249994381E+02  0.00000E+00  9.000E+00
       5     1     1     2   501     0  1.007484536E+01  2.777752424E+00  8.142898124E+01  8.223417722E+01  4.750000000E+00  0.00000E+00  9.000E+00
      -5     1     1     2     0   503  3.588807440E+00  1.938474245E+01 -1.472070154E+02  1.485971590E+02  4.750000000E+00  0.00000E+00  9.000E+00
      21     1     1     2   511   501  8.154690448E+00  7.505714500E+00 -1.289473169E+01  1.700320063E+01  1.685873940E-07  0.00000E+00  9.000E+00
#rwgt            1           9   1.9404837209180121E-004           8     1683151           0
</event>
<event>
      6   9999  3.45752E-01  3.09078E+00 -1.00000E+00  2.73569E-01
      21    -1     0     0   501   512  0.000000000E+00  0.000000000E+00  1.843863251E+01  1.843863251E+01  0.000000000E+00  0.00000E+00  9.000E+00
      21    -1     0     0   502   503  0.000000000E+00  0.000000000E+00 -9.728341481E+02  9.728341481E+02  0.000000000E+00  0.00000E+00  9.000E+00
      25     1     1     2     0     0 -3.572906764E+01 -2.202141970E+01 -7.120529568E+02  7.241601768E+02  1.250081568E+02  0.00000E+00  9.000E+00
       5     1     1     2   501     0 -4.112827452E-01 -7.895592306E-01  9.132797012E+00  1.033262012E+01  4.750000000E+00  0.00000E+00  9.000E+00
      -5     1     1     2     0   503  3.364015424E+01  2.462810257E+01 -2.497292900E+02  2.532301013E+02  4.750000000E+00  0.00000E+00  9.000E+00
      21     1     1     2   502   512  2.500196144E+00 -1.817123640E+00 -1.746065844E+00  3.549882394E+00  1.210576058E-07  0.00000E+00  9.000E+00
#rwgt            1           9   16.046387191824316                8     1687589           0
</event>
<event>
      6   9999  3.45752E-01  4.20824E+00 -1.00000E+00  2.43375E-01
       3    -1     0     0   501     0  0.000000000E+00  0.000000000E+00  3.501226504E+02  3.501226504E+02  0.000000000E+00  0.00000E+00  9.000E+00
      21    -1     0     0   502   503  0.000000000E+00  0.000000000E+00 -2.574577796E+02  2.574577796E+02  0.000000000E+00  0.00000E+00  9.000E+00
      25     1     1     2     0     0 -1.267346574E+01  8.483141027E+00 -6.769209133E+00  1.261022203E+02  1.249934692E+02  0.00000E+00  9.000E+00
       5     1     1     2   501     0 -3.432031506E+00 -4.515919967E+00  6.306096260E+01  6.349346327E+01  4.750000000E+00  0.00000E+00  9.000E+00
      -5     1     1     2     0   503  1.253114539E+01 -6.188325076E+00 -1.905007893E+02  1.910718143E+02  4.750000000E+00  0.00000E+00  9.000E+00
       3     1     1     2   502     0  3.574351862E+00  2.221104015E+00  2.268739067E+02  2.269129323E+02  0.000000000E+00  0.00000E+00  9.000E+00
#rwgt            1           9   4.1836523585210301E-003           8     1694417           0
</event>
<event>
      6   9999  3.45752E-01  1.88438E+01 -1.00000E+00  1.62210E-01
      21    -1     0     0   502   511  0.000000000E+00  0.000000000E+00  5.741631017E+02  5.741631017E+02  0.000000000E+00  0.00000E+00  9.000E+00
      21    -1     0     0   501   502  0.000000000E+00  0.000000000E+00 -1.219403511E+03  1.219403511E+03  0.000000000E+00  0.00000E+00  9.000E+00
      25     1     1     2     0     0 -2.743416276E+01 -7.513354546E+01 -1.202992883E+02  1.910063694E+02  1.249553178E+02  0.00000E+00  9.000E+00
       5     1     1     2   501     0  2.711136070E+00  8.192294863E+01 -9.373565546E+02  9.409455844E+02  4.750000000E+00  0.00000E+00  9.000E+00
      -5     1     1     2     0   503  1.069368470E+01 -1.936980245E+01 -1.234051170E+02  1.254628612E+02  4.750000000E+00  0.00000E+00  9.000E+00
      21     1     1     2   503   511  1.402934199E+01  1.258039928E+01  5.358205501E+02  5.361517983E+02  7.629394531E-06  0.00000E+00  9.000E+00
#rwgt            1           9   1.4253003195278320E-005           8     1700234           0
</event>
<event>
      6   9999 -3.45752E-01  1.32378E+01 -1.00000E+00  1.75214E-01
      21    -1     0     0   501   502  0.000000000E+00  0.000000000E+00  2.872464426E+01  2.872464426E+01  0.000000000E+00  0.00000E+00  9.000E+00
      21    -1     0     0   502   512  0.000000000E+00  0.000000000E+00 -1.092844559E+03  1.092844559E+03  0.000000000E+00  0.00000E+00  9.000E+00
      25     1     1     2     0     0 -1.495176159E+01  7.294901763E+00 -9.125471146E+02  9.212171144E+02  1.249878578E+02  0.00000E+00  9.000E+00
       5     1     1     2   501     0 -3.664004032E-01  2.465563329E+00  2.336559908E+01  2.397346391E+01  4.750000000E+00  0.00000E+00  9.000E+00
      -5     1     1     2     0   503  2.465092380E+00 -6.592383414E+00 -9.193025112E+01  9.232155637E+01  4.750000000E+00  0.00000E+00  9.000E+00
      21     1     1     2   503   512  1.285306961E+01 -3.168081678E+00 -8.300814847E+01  8.405706902E+01  1.907348633E-06  0.00000E+00  9.000E+00
#rwgt            1           9 -0.51062423668000601                8     1702995           0
</event>
<event>
      6   9999  3.45752E-01  1.28994E+01 -1.00000E+00  1.76253E-01
      21    -1     0     0   511   502  0.000000000E+00  0.000000000E+00  4.022546342E+01  4.022546342E+01  0.000000000E+00  0.00000E+00  9.000E+00
      21    -1     0     0   502   503  0.000000000E+00  0.000000000E+00 -1.990237099E+03  1.990237099E+03  0.000000000E+00  0.00000E+00  9.000E+00
      25     1     1     2     0     0  3.538907891E+01  3.718142319E+01 -9.101146809E+02  9.200915522E+02  1.249995472E+02  0.00000E+00  9.000E+00
       5     1     1     2   501     0  8.982082537E+00 -4.549088289E+00  1.326807550E+01  1.731982501E+01  4.750000000E+00  0.00000E+00  9.000E+00
      -5     1     1     2     0   503 -3.296360969E+01 -3.865411575E+01 -1.070348983E+03  1.071564392E+03  4.750000000E+00  0.00000E+00  9.000E+00
      21     1     1     2   511   501 -1.140755176E+01  6.021780846E+00  1.718395192E+01  2.148679327E+01  3.371747881E-07  0.00000E+00  9.000E+00
#rwgt            1           9  0.15116489009475434                8     1705442           0
</event>
<event>
      6   9999  3.45752E-01  5.91553E+00 -1.00000E+00  2.14919E-01
      21    -1     0     0   512   503  0.000000000E+00  0.000000000E+00  4.709465362E+02  4.709465362E+02  0.000000000E+00  0.00000E+00  9.000E+00
      21    -1     0     0   501   502  0.000000000E+00  0.000000000E+00 -1.627036427E+02  1.627036427E+02  0.000000000E+00  0.00000E+00  9.000E+00
      25     1     1     2     0     0 -1.523519662E+01  8.675522338E+00 -1.146252799E+02  1.705008104E+02  1.249967826E+02  0.00000E+00  9.000E+00
       5     1     1     2   501     0  1.960428249E+01 -1.272487865E+01 -5.062757684E+00  2.438123139E+01  4.750000000E+00  0.00000E+00  9.000E+00
      -5     1     1     2     0   503 -1.951988516E-01 -1.425665262E-01 -4.350784104E+00  6.445948350E+00  4.750000000E+00  0.00000E+00  9.000E+00
      21     1     1     2   512   502 -4.173887015E+00  4.191922838E+00  4.322817152E+02  4.323221888E+02  0.000000000E+00  0.00000E+00  9.000E+00
#rwgt            1           9   6.8125752818372618                8     1708431           0
</event>
<event>
      6   9999  3.45752E-01  3.44771E+00 -1.00000E+00  2.62010E-01
      21    -1     0     0   501   511  0.000000000E+00  0.000000000E+00  5.220459226E+01  5.220459226E+01  0.000000000E+00  0.00000E+00  9.000E+00
      21    -1     0     0   502   503  0.000000000E+00  0.000000000E+00 -4.006173508E+02  4.006173508E+02  0.000000000E+00  0.00000E+00  9.000E+00
      25     1     1     2     0     0 -6.455246956E+01  6.297859832E+01 -1.290237548E+02  2.010941741E+02  1.251335781E+02  0.00000E+00  9.000E+00
       5     1     1     2   501     0  6.226570792E+01 -6.832190979E+01 -2.178124209E+02  2.366637170E+02  4.750000000E+00  0.00000E+00  9.000E+00
      -5     1     1     2     0   503  8.075099230E-01  2.229063291E+00 -6.909654923E+00  8.713588617E+00  4.750000000E+00  0.00000E+00  9.000E+00
      21     1     1     2   502   511  1.479251716E+00  3.114248176E+00  5.333072084E+00  6.350463384E+00  1.685873940E-07  0.00000E+00  9.000E+00
#rwgt            1           9   7.7659895023300251E-004           8     1711472           0
</event>
<event>
      6   9999  3.45752E-01  1.68347E+01 -1.00000E+00  1.66140E-01
      21    -1     0     0   501   512  0.000000000E+00  0.000000000E+00  2.883883229E+02  2.883883229E+02  0.000000000E+00  0.00000E+00  9.000E+00
      21    -1     0     0   502   503  0.000000000E+00  0.000000000E+00 -2.528776162E+02  2.528776162E+02  0.000000000E+00  0.00000E+00  9.000E+00
      25     1     1     2     0     0  1.552730681E+01 -9.792012987E+00 -2.091017465E+02  2.442978315E+02  1.249836361E+02  0.00000E+00  9.000E+00
       5     1     1     2   501     0 -1.267049511E+01  2.446146920E+01 -6.318816400E+00  2.865998713E+01  4.750000000E+00  0.00000E+00  9.000E+00
      -5     1     1     2     0   503 -1.410715446E-01  1.944795026E+00 -7.631400560E+00  9.197983658E+00  4.750000000E+00  0.00000E+00  9.000E+00
      21     1     1     2   502   512 -2.715740155E+00 -1.661425123E+01  2.585626701E+02  2.591101368E+02  3.814697266E-06  0.00000E+00  9.000E+00
#rwgt            1           9   339.10953283144602                8     1717544           0
</event>
<event>
      6   9999  3.45752E-01  7.16112E+00 -1.00000E+00  2.03887E-01
      21    -1     0     0   501   502  0.000000000E+00  0.000000000E+00  3.144681475E+01  3.144681475E+01  0.000000000E+00  0.00000E+00  9.000E+00
      21    -1     0     0   511   503  0.000000000E+00  0.000000000E+00 -1.371875280E+03  1.371875280E+03  0.000000000E+00  0.00000E+00  9.000E+00
      25     1     1     2     0     0  2.747561005E+01  4.883722867E+01 -2.440239154E+02  2.798424214E+02  1.249965018E+02  0.00000E+00  9.000E+00
       5     1     1     2   501     0 -3.033010338E+00  2.452540031E+00  1.206266438E+01  1.353825972E+01  4.750000000E+00  0.00000E+00  9.000E+00
      -5     1     1     2     0   503 -2.020714833E+01 -4.551546815E+01 -9.679616720E+02  9.692535002E+02  4.750000000E+00  0.00000E+00  9.000E+00
      21     1     1     2   511   502 -4.235451384E+00 -5.774300559E+00 -1.405055425E+02  1.406879137E+02  0.000000000E+00  0.00000E+00  9.000E+00
#rwgt            1           9   4.8566911237683780E-004           8     1719350           0
</event>
<event>
      6   9999  3.45752E-01  1.06148E+02 -1.00000E+00  1.19344E-01
      21    -1     0     0   501   512  0.000000000E+00  0.000000000E+00  2.995626365E+01  2.995626365E+01  0.000000000E+00  0.00000E+00  9.000E+00
      21    -1     0     0   502   503  0.000000000E+00  0.000000000E+00 -1.280068489E+03  1.280068489E+03  0.000000000E+00  0.00000E+00  9.000E+00
      25     1     1     2     0     0 -1.218932094E+02 -3.673042045E+01 -5.663669621E+02  5.938036207E+02  1.249965040E+02  0.00000E+00  9.000E+00
       5     1     1     2   501     0  3.736242108E+01  2.054629898E+01 -1.147496037E+02  1.225076934E+02  4.750000000E+00  0.00000E+00  9.000E+00
      -5     1     1     2     0   503 -4.214741823E+00 -4.205419479E+01 -3.230676080E+02  3.258551230E+02  4.750000000E+00  0.00000E+00  9.000E+00
      21     1     1     2   502   512  8.874553011E+01  5.823831626E+01 -2.459280517E+02  2.678583156E+02  0.000000000E+00  0.00000E+00  9.000E+00
#rwgt            1           9  0.13264581855440324                8     1723495           0
</event>
<event>
      6   9999  3.45752E-01  1.55568E+01 -1.00000E+00  1.69011E-01
      21    -1     0     0   501   502  0.000000000E+00  0.000000000E+00  3.117233271E+02  3.117233271E+02  0.000000000E+00  0.00000E+00  9.000E+00
      21    -1     0     0   511   503  0.000000000E+00  0.000000000E+00 -2.304585264E+01  2.304585264E+01  0.000000000E+00  0.00000E+00  9.000E+00
      25     1     1     2     0     0  1.192361256E+01 -3.850488393E+00  1.837900244E+02  2.226272098E+02  1.250084105E+02  0.00000E+00  9.000E+00
       5     1     1     2   501     0  2.048318760E+00 -1.799397352E+00  7.900479198E+01  7.919440066E+01  4.750000000E+00  0.00000E+00  9.000E+00
      -5     1     1     2     0   503  6.615000229E-01  3.700165828E-01  5.504572144E+00  7.310082697E+00  4.750000000E+00  0.00000E+00  9.000E+00
      21     1     1     2   511   502 -1.463343134E+01  5.279869162E+00  2.037808599E+01  2.563748661E+01  2.384185791E-07  0.00000E+00  9.000E+00
#rwgt            1           9   4.7132166023922976E-003           8     1724721           0
</event>
<event>
      6   9999  3.45752E-01  1.91503E+01 -1.00000E+00  1.61663E-01
      21    -1     0     0   501   502  0.000000000E+00  0.000000000E+00  4.108924158E+03  4.108924158E+03  0.000000000E+00  0.00000E+00  9.000E+00
      21    -1     0     0   512   503  0.000000000E+00  0.000000000E+00 -3.102892553E+00  3.102892553E+00  0.000000000E+00  0.00000E+00  9.000E+00
      25     1     1     2     0     0  9.976878546E+00 -4.034527466E+01  2.726964761E+03  2.730144424E+03  1.249979594E+02  0.00000E+00  9.000E+00
       5     1     1     2   501     0 -1.007759710E+00 -6.496193015E-01  4.797598815E+02  4.797848935E+02  4.750000000E+00  0.00000E+00  9.000E+00
      -5     1     1     2     0   503 -2.773172305E+01  3.716084516E+01  7.868414628E+02  7.882207983E+02  4.750000000E+00  0.00000E+00  9.000E+00
      21     1     1     2   512   502  1.876260421E+01  3.834048798E+00  1.122551600E+02  1.138769344E+02  1.907348633E-06  0.00000E+00  9.000E+00
#rwgt            1           9   8.2999805903540783E-003           8     1726335           0
</event>
<event>
      6   9999  3.45752E-01  6.17575E+00 -1.00000E+00  2.12326E-01
      21    -1     0     0   511   503  0.000000000E+00  0.000000000E+00  8.560631648E+02  8.560631648E+02  0.000000000E+00  0.00000E+00  9.000E+00
      21    -1     0     0   501   502  0.000000000E+00  0.000000000E+00 -1.490730889E+01  1.490730889E+01  0.000000000E+00  0.00000E+00  9.000E+00
      25     1     1     2     0     0 -1.437329784E+01 -8.691779780E-01  6.367965083E+02  6.491085881E+02  1.249992761E+02  0.00000E+00  9.000E+00
       5     1     1     2   501     0  1.952236372E+01  2.259095643E+00  3.763846767E+00  2.056587564E+01  4.750000000E+00  0.00000E+00  9.000E+00
      -5     1     1     2     0   503  6.375168686E-01  7.677216155E-01  1.949126300E+01  2.008650436E+01  4.750000000E+00  0.00000E+00  9.000E+00
      21     1     1     2   511   502 -5.786582748E+00 -2.157639280E+00  1.811042379E+02  1.812095056E+02  3.814697266E-06  0.00000E+00  9.000E+00
#rwgt            1           9   2.5323132706179847                8     1728301           0
</event>
<event>
      6   9999  3.45752E-01  9.41188E+00 -1.00000E+00  1.90010E-01
      21    -1     0     0   512   503  0.000000000E+00  0.000000000E+00  4.964045697E+01  4.964045697E+01  0.000000000E+00  0.00000E+00  9.000E+00
      21    -1     0     0   501   502  0.000000000E+00  0.000000000E+00 -7.796864778E+02  7.796864778E+02  0.000000000E+00  0.00000E+00  9.000E+00
      25     1     1     2     0     0  5.572224094E+00  3.112990364E+01 -4.788411955E+02  4.958980859E+02  1.250036020E+02  0.00000E+00  9.000E+00
       5     1     1     2   501     0 -9.037483359E+00 -2.410552142E+01 -2.777768918E+02  2.790077354E+02  4.750000000E+00  0.00000E+00  9.000E+00
      -5     1     1     2     0   503 -4.310781813E-01  1.543121670E+00 -1.290140309E+01  1.384108936E+01  4.750000000E+00  0.00000E+00  9.000E+00
      21     1     1     2   512   502  3.896337446E+00 -8.567503890E+00  3.947346952E+01  4.058002420E+01  1.846782373E-06  0.00000E+00  9.000E+00
#rwgt            1           9   1.5657603124045551E-002           8     1731955           0
</event>
<event>
      6   9999  3.45752E-01  1.96864E+01 -1.00000E+00  1.60736E-01
      21    -1     0     0   511   502  0.000000000E+00  0.000000000E+00  1.469813973E+01  1.469813973E+01  0.000000000E+00  0.00000E+00  9.000E+00
      21    -1     0     0   502   503  0.000000000E+00  0.000000000E+00 -1.459429957E+03  1.459429957E+03  0.000000000E+00  0.00000E+00  9.000E+00
      25     1     1     2     0     0  4.702117838E+01 -8.526649527E+00 -1.366710644E+03  1.373247037E+03  1.250029792E+02  0.00000E+00  9.000E+00
       5     1     1     2   501     0 -2.771261182E+01 -3.007509920E+00 -2.380884126E+01  3.696562447E+01  4.750000000E+00  0.00000E+00  9.000E+00
      -5     1     1     2     0   503 -3.112234210E+00  3.433475588E-01 -3.796904382E+01  3.839289879E+01  4.750000000E+00  0.00000E+00  9.000E+00
      21     1     1     2   511   501 -1.619633234E+01  1.119081189E+01 -1.624328751E+01  2.552253595E+01  6.743495762E-07  0.00000E+00  9.000E+00
#rwgt            1           9   4.4663416973098433E-002           8     1734658           0
</event>
<event>
      6   9999  3.45752E-01  1.27456E+01 -1.00000E+00  1.76738E-01
      21    -1     0     0   501   502  0.000000000E+00  0.000000000E+00  2.343242494E+02  2.343242494E+02  0.000000000E+00  0.00000E+00  9.000E+00
      21    -1     0     0   512   503  0.000000000E+00  0.000000000E+00 -3.970526600E+01  3.970526600E+01  0.000000000E+00  0.00000E+00  9.000E+00
      25     1     1     2     0     0 -7.881144757E+00 -1.392019638E+00  1.342296178E+02  1.835941944E+02  1.250007510E+02  0.00000E+00  9.000E+00
       5     1     1     2   501     0 -1.371228796E+00 -2.479219630E+00  6.290358831E+01  6.314626450E+01  4.750000000E+00  0.00000E+00  9.000E+00
      -5     1     1     2     0   503  4.779939577E+00 -8.063899475E+00  5.866028395E+00  1.203524351E+01  4.750000000E+00  0.00000E+00  9.000E+00
      21     1     1     2   512   502  4.472433976E+00  1.193513874E+01 -8.380251108E+00  1.525381300E+01  3.769728732E-07  0.00000E+00  9.000E+00
#rwgt            1           9   2.7771980830406551E-002           8     1736304           0
</event>
<event>
      6   9999  3.45752E-01  1.15328E+02 -1.00000E+00  1.17861E-01
      21    -1     0     0   501   502  0.000000000E+00  0.000000000E+00  2.045366895E+03  2.045366895E+03  0.000000000E+00  0.00000E+00  9.000E+00
      21    -1     0     0   511   503  0.000000000E+00  0.000000000E+00 -2.285216076E+01  2.285216076E+01  0.000000000E+00  0.00000E+00  9.000E+00
      25     1     1     2     0     0 -1.806465952E+02  5.227481577E+01  1.136813771E+03  1.159025565E+03  1.250154500E+02  0.00000E+00  9.000E+00
       5     1     1     2   501     0  6.897556005E+01 -4.729072729E+01  3.542985266E+02  3.640659957E+02  4.750000000E+00  0.00000E+00  9.000E+00
      -5     1     1     2     0   503 -3.495929477E+00  1.106771560E+00  1.991523222E+01  2.079965001E+01  4.750000000E+00  0.00000E+00  9.000E+00
      21     1     1     2   511   502  1.151669646E+02 -6.090860038E+00  5.114872049E+02  5.243278450E+02  7.629394531E-06  0.00000E+00  9.000E+00
#rwgt            1           9   5.3368545522011540E-003           8     1738663           0
</event>
<event>
      6   9999  3.45752E-01  1.08489E+01 -1.00000E+00  1.83542E-01
      21    -1     0     0   501   502  0.000000000E+00  0.000000000E+00  6.950690371E+02  6.950690371E+02  0.000000000E+00  0.00000E+00  9.000E+00
      21    -1     0     0   502   512  0.000000000E+00  0.000000000E+00 -2.057776231E+01  2.057776231E+01  0.000000000E+00  0.00000E+00  9.000E+00
      25     1     1     2     0     0 -2.943940449E+01 -8.907631153E+00  3.691120450E+02  3.909149155E+02  1.249989799E+02  0.00000E+00  9.000E+00
       5     1     1     2   501     0 -1.758970682E-01 -3.987265735E-01  2.710284402E+02  2.710704112E+02  4.750000000E+00  0.00000E+00  9.000E+00
      -5     1     1     2     0   503  2.102644142E+01  1.593437714E+01  1.317653202E+01  2.986970220E+01  4.750000000E+00  0.00000E+00  9.000E+00
      21     1     1     2   503   512  8.588860139E+00 -6.628019409E+00  2.117425749E+01  2.379177042E+01  3.371747881E-07  0.00000E+00  9.000E+00
#rwgt            1           9   1.9751780295543678E-003           8     1739375           0
</event>
<event>
      6   9999  3.45752E-01  2.98881E+01 -1.00000E+00  1.47943E-01
       1    -1     0     0   501     0  0.000000000E+00  0.000000000E+00  1.211699882E+03  1.211699882E+03  0.000000000E+00  0.00000E+00  9.000E+00
      21    -1     0     0   502   503  0.000000000E+00  0.000000000E+00 -1.689737367E+02  1.689737367E+02  0.000000000E+00  0.00000E+00  9.000E+00
      25     1     1     2     0     0  1.062552660E+01  2.191836164E+01 -1.315385191E+02  1.830859480E+02  1.249990639E+02  0.00000E+00  9.000E+00
       5     1     1     2   501     0  1.164484513E-01 -1.762978124E+01  3.312471903E+02  3.317500359E+02  4.750000000E+00  0.00000E+00  9.000E+00
      -5     1     1     2     0   503 -1.735584449E+01 -3.343572905E+01  2.122111022E+01  4.349794632E+01  4.750000000E+00  0.00000E+00  9.000E+00
       1     1     1     2   502     0  6.613869441E+00  2.914714865E+01  8.217963640E+02  8.223396886E+02  1.078959322E-05  0.00000E+00  9.000E+00
#rwgt            1           9   1.0793274404331667E-003           8     1742077           0
</event>
<event>
      6   9999  3.45752E-01  7.20820E+00 -1.00000E+00  2.03530E-01
      21    -1     0     0   501   502  0.000000000E+00  0.000000000E+00  3.023574380E+01  3.023574380E+01  0.000000000E+00  0.00000E+00  9.000E+00
      21    -1     0     0   502   511  0.000000000E+00  0.000000000E+00 -1.626808785E+03  1.626808785E+03  0.000000000E+00  0.00000E+00  9.000E+00
      25     1     1     2     0     0 -1.018988235E+02 -7.799606946E+00 -8.408569673E+02  8.562180896E+02  1.249990939E+02  0.00000E+00  9.000E+00
       5     1     1     2   501     0  1.595308583E+00  1.229471999E-01  9.955574087E+00  1.114612403E+01  4.750000000E+00  0.00000E+00  9.000E+00
      -5     1     1     2     0   503  1.071486099E+02  9.935605458E+00 -2.301323217E+02  2.540924809E+02  4.750000000E+00  0.00000E+00  9.000E+00
      21     1     1     2   503   511 -6.845094915E+00 -2.258945713E+00 -5.355393264E+02  5.355878343E+02  1.078959322E-05  0.00000E+00  9.000E+00
#rwgt            1           9   3.2020854195502768E-003           8     1743916           0
</event>
<event>
      6   9999  3.45752E-01  1.59463E+01 -1.00000E+00  1.68101E-01
      21    -1     0     0   512   502  0.000000000E+00  0.000000000E+00  4.392713029E+02  4.392713029E+02  0.000000000E+00  0.00000E+00  9.000E+00
      21    -1     0     0   502   503  0.000000000E+00  0.000000000E+00 -1.226962629E+02  1.226962629E+02  0.000000000E+00  0.00000E+00  9.000E+00
      25     1     1     2     0     0 -4.912232818E+01  1.094474910E+01 -5.202261067E+01  1.444420154E+02  1.249974125E+02  0.00000E+00  9.000E+00
       5     1     1     2   501     0 -4.131907001E-01  1.113428655E+00  3.428994778E+02  3.429344322E+02  4.750000000E+00  0.00000E+00  9.000E+00
      -5     1     1     2     0   503  4.528328473E+01  3.310727536E+00  1.581644594E+00  4.567932675E+01  4.750000000E+00  0.00000E+00  9.000E+00
      21     1     1     2   512   501  4.252234151E+00 -1.536890529E+01  2.411652831E+01  2.891179142E+01  4.768371582E-07  0.00000E+00  9.000E+00
#rwgt            1           9  0.13285601703317912                8     1748208           0
</event>
<event>
      6   9999  3.45752E-01  1.09080E+01 -1.00000E+00  1.83304E-01
      -1    -1     0     0     0   503  0.000000000E+00  0.000000000E+00  5.851496055E+02  5.851496055E+02  0.000000000E+00  0.00000E+00  9.000E+00
      21    -1     0     0   501   502  0.000000000E+00  0.000000000E+00 -8.037146067E+02  8.037146067E+02  0.000000000E+00  0.00000E+00  9.000E+00
      25     1     1     2     0     0 -1.782715663E+01  4.275653652E+01 -4.753373096E+02  4.936763270E+02  1.249993159E+02  0.00000E+00  9.000E+00
       5     1     1     2   501     0 -3.133505232E+00 -2.217655062E-01 -4.255372855E+01  4.293309153E+01  4.750000000E+00  0.00000E+00  9.000E+00
      -5     1     1     2     0   503  1.833964224E+01 -3.194634817E+01 -2.751649463E+02  2.776602633E+02  4.750000000E+00  0.00000E+00  9.000E+00
      -1     1     1     2     0   502  2.621019623E+00 -1.058842284E+01  5.744909833E+02  5.745945304E+02  1.078959322E-05  0.00000E+00  9.000E+00
#rwgt            1           9   9.0033566751191556E-003           8     1751001           0
</event>
<event>
      6   9999  3.45752E-01  6.28607E+00 -1.00000E+00  2.11279E-01
      21    -1     0     0   501   502  0.000000000E+00  0.000000000E+00  3.472846732E+01  3.472846732E+01  0.000000000E+00  0.00000E+00  9.000E+00
      21    -1     0     0   502   511  0.000000000E+00  0.000000000E+00 -4.000357040E+02  4.000357040E+02  0.000000000E+00  0.00000E+00  9.000E+00
      25     1     1     2     0     0  2.562191569E+01  2.575545093E+01 -1.229174048E+02  1.790367849E+02  1.250026245E+02  0.00000E+00  9.000E+00
       5     1     1     2   501     0 -5.980659044E+00  6.107669105E+00 -1.760405185E+01  2.013795040E+01  4.750000000E+00  0.00000E+00  9.000E+00
      -5     1     1     2     0   503 -1.525210381E+01 -2.736312008E+01 -4.158290174E+01  5.227874547E+01  4.750000000E+00  0.00000E+00  9.000E+00
      21     1     1     2   503   511 -4.389152839E+00 -4.499999959E+00 -1.832028783E+02  1.833106906E+02  0.000000000E+00  0.00000E+00  9.000E+00
#rwgt            1           9  0.36073702128999380                8     1753331           0
</event>
<event>
      6   9999  3.45752E-01  1.57673E+01 -1.00000E+00  1.68515E-01
      21    -1     0     0   501   512  0.000000000E+00  0.000000000E+00  1.030448588E+02  1.030448588E+02  0.000000000E+00  0.00000E+00  9.000E+00
      21    -1     0     0   502   503  0.000000000E+00  0.000000000E+00 -2.720272969E+02  2.720272969E+02  0.000000000E+00  0.00000E+00  9.000E+00
      25     1     1     2     0     0 -2.044573552E+01 -1.343682620E+01 -2.300709190E+02  2.629714499E+02  1.249911169E+02  0.00000E+00  9.000E+00
       5     1     1     2   501     0 -1.159004098E+00 -1.051190124E+00  5.376474654E-01  5.029896219E+00  4.750000000E+00  0.00000E+00  9.000E+00
      -5     1     1     2     0   503  1.146631821E+01  2.412372831E+00 -2.072633653E+01  2.427837561E+01  4.750000000E+00  0.00000E+00  9.000E+00
      21     1     1     2   502   512  1.013842141E+01  1.207564349E+01  8.127717004E+01  8.279243398E+01  1.348699152E-06  0.00000E+00  9.000E+00
#rwgt            1           9   4.0567858178743990E-002           8     1756980           0
</event>
<event>
      6   9999  3.45752E-01  1.61024E+01 -1.00000E+00  1.67745E-01
      21    -1     0     0   511   502  0.000000000E+00  0.000000000E+00  1.549760898E+02  1.549760898E+02  0.000000000E+00  0.00000E+00  9.000E+00
      21    -1     0     0   502   503  0.000000000E+00  0.000000000E+00 -1.590271631E+03  1.590271631E+03  0.000000000E+00  0.00000E+00  9.000E+00
      25     1     1     2     0     0  7.174036441E+01  1.560860079E+02 -5.055601801E+02  5.483841861E+02  1.249983925E+02  0.00000E+00  9.000E+00
       5     1     1     2   501     0 -1.300288059E+01  8.828988207E+00  7.139068590E+01  7.325447747E+01  4.750000000E+00  0.00000E+00  9.000E+00
      -5     1     1     2     0   503 -7.431492027E+01 -1.608367431E+02 -1.053762816E+03  1.068564364E+03  4.750000000E+00  0.00000E+00  9.000E+00
      21     1     1     2   511   501  1.557743646E+01 -4.078253015E+00  5.263676952E+01  5.504469257E+01  1.348699152E-06  0.00000E+00  9.000E+00
#rwgt            1           9   1.4083348013778182E-002           8     1759347           0
</event>
<event>
      6   9999  3.45752E-01  1.10630E+01 -1.00000E+00  1.82688E-01
      21    -1     0     0   501   502  0.000000000E+00  0.000000000E+00  6.602989567E+01  6.602989567E+01  0.000000000E+00  0.00000E+00  9.000E+00
      21    -1     0     0   512   503  0.000000000E+00  0.000000000E+00 -5.425005567E+02  5.425005567E+02  0.000000000E+00  0.00000E+00  9.000E+00
      25     1     1     2     0     0 -1.206117034E+02 -4.357390521E+01 -1.739937886E+02  2.496889750E+02  1.249995102E+02  0.00000E+00  9.000E+00
       5     1     1     2   501     0  1.190834779E+01 -4.418943110E+01 -3.795634833E+01  5.964697349E+01  4.750000000E+00  0.00000E+00  9.000E+00
      -5     1     1     2     0   503  9.983681177E+01  8.114713442E+01 -2.431875437E+02  2.751635702E+02  4.750000000E+00  0.00000E+00  9.000E+00
      21     1     1     2   512   502  8.866543813E+00  6.616201883E+00 -2.133298032E+01  2.403093373E+01  4.129530925E-07  0.00000E+00  9.000E+00
#rwgt            1           9  0.30199195342872209                8     1763166           0
</event>
<event>
      6   9999  3.45752E-01  7.40710E+00 -1.00000E+00  2.02059E-01
      21    -1     0     0   502   511  0.000000000E+00  0.000000000E+00  6.608389748E+00  6.608389748E+00  0.000000000E+00  0.00000E+00  9.000E+00
      21    -1     0     0   501   502  0.000000000E+00  0.000000000E+00 -1.317338129E+03  1.317338129E+03  0.000000000E+00  0.00000E+00  9.000E+00
      25     1     1     2     0     0  2.647036393E+01  2.159779342E+01 -8.449563663E+02  8.548350764E+02  1.249984080E+02  0.00000E+00  9.000E+00
       5     1     1     2   501     0 -1.636238945E+01 -1.122359685E+01 -2.206240798E+02  2.215654395E+02  4.750000000E+00  0.00000E+00  9.000E+00
      -5     1     1     2     0   503 -4.963462761E+00 -5.045111321E+00 -2.340318142E+02  2.341869801E+02  4.750000000E+00  0.00000E+00  9.000E+00
      21     1     1     2   503   511 -5.144511722E+00 -5.329085240E+00 -1.111747934E+01  1.335902307E+01  2.920019320E-07  0.00000E+00  9.000E+00
#rwgt            1           9   8.2896169054144028E-003           8     1766425           0
</event>
<event>
      6   9999  3.45752E-01  1.68965E+01 -1.00000E+00  1.66009E-01
      21    -1     0     0   512   502  0.000000000E+00  0.000000000E+00  1.026309738E+02  1.026309738E+02  0.000000000E+00  0.00000E+00  9.000E+00
      21    -1     0     0   502   503  0.000000000E+00  0.000000000E+00 -1.730050265E+03  1.730050265E+03  0.000000000E+00  0.00000E+00  9.000E+00
      25     1     1     2     0     0  1.115516959E+02  1.248066475E+02 -1.178180399E+02  2.398548623E+02  1.250151363E+02  0.00000E+00  9.000E+00
       5     1     1     2   501     0  4.423255077E+00  5.492024867E-01  3.008905110E+01  3.078604075E+01  4.750000000E+00  0.00000E+00  9.000E+00
      -5     1     1     2     0   503 -1.294155416E+02 -1.151165977E+02 -1.534660480E+03  1.544411074E+03  4.750000000E+00  0.00000E+00  9.000E+00
      21     1     1     2   512   501  1.344059056E+01 -1.023925231E+01 -5.029822244E+00  1.762926187E+01  3.039252468E-07  0.00000E+00  9.000E+00
#rwgt            1           9   8.5593186207473648E-003           8     1769393           0
</event>
<event>
      6   9999  3.45752E-01  8.89029E+00 -1.00000E+00  1.92740E-01
      21    -1     0     0   501   502  0.000000000E+00  0.000000000E+00  7.638173091E+01  7.638173091E+01  0.000000000E+00  0.00000E+00  9.000E+00
      21    -1     0     0   502   511  0.000000000E+00  0.000000000E+00 -2.539266815E+03  2.539266815E+03  0.000000000E+00  0.00000E+00  9.000E+00
      25     1     1     2     0     0 -7.127570460E+00  2.847819130E+01 -1.161686583E+03  1.168761369E+03  1.250024436E+02  0.00000E+00  9.000E+00
       5     1     1     2   501     0  1.200988328E+01 -8.915026881E-01  7.125685577E+01  7.242329783E+01  4.750000000E+00  0.00000E+00  9.000E+00
      -5     1     1     2     0   503 -1.364602059E+01 -2.908156362E+01 -2.662771584E+02  2.682499559E+02  4.750000000E+00  0.00000E+00  9.000E+00
      21     1     1     2   503   511  8.763707773E+00  1.494875012E+00 -1.106178198E+03  1.106213923E+03  1.525878906E-05  0.00000E+00  9.000E+00
#rwgt            1           9   1.0354171145766911E-003           8     1772958           0
</event>
<event>
      6   9999 -3.45752E-01  9.36877E+00 -1.00000E+00  1.90227E-01
      21    -1     0     0   501   502  0.000000000E+00  0.000000000E+00  9.530732132E+00  9.530732132E+00  0.000000000E+00  0.00000E+00  9.000E+00
      21    -1     0     0   512   503  0.000000000E+00  0.000000000E+00 -1.014260307E+03  1.014260307E+03  0.000000000E+00  0.00000E+00  9.000E+00
      25     1     1     2     0     0 -7.003703402E+00 -1.872248407E+01 -4.923540434E+02  5.083666411E+02  1.249982178E+02  0.00000E+00  9.000E+00
       5     1     1     2   501     0  6.271397162E-01  1.841070648E-01 -7.008865857E+00  8.491990358E+00  4.750000000E+00  0.00000E+00  9.000E+00
      -5     1     1     2     0   503  1.508140110E+01  2.200242458E+01 -2.646164888E+02  2.660000075E+02  4.750000000E+00  0.00000E+00  9.000E+00
      21     1     1     2   512   502 -8.704837413E+00 -3.464047577E+00 -2.407501765E+02  2.409323999E+02  2.697398305E-06  0.00000E+00  9.000E+00
#rwgt            1           9  -3.7231238417894199E-003           8     1777776           0
</event>
<event>
      6   9999  3.45752E-01  3.16476E+01 -1.00000E+00  1.46352E-01
      21    -1     0     0   501   511  0.000000000E+00  0.000000000E+00  8.184246116E+02  8.184246116E+02  0.000000000E+00  0.00000E+00  9.000E+00
      21    -1     0     0   502   503  0.000000000E+00  0.000000000E+00 -4.144408025E+01  4.144408025E+01  0.000000000E+00  0.00000E+00  9.000E+00
      25     1     1     2     0     0 -5.493992818E+01  7.345486078E+00  2.248957757E+02  2.631967876E+02  1.249883483E+02  0.00000E+00  9.000E+00
       5     1     1     2   501     0 -6.419208983E+00 -7.991196815E+00  2.173905849E+02  2.176839323E+02  4.750000000E+00  0.00000E+00  9.000E+00
      -5     1     1     2     0   503  4.315647634E+01 -2.524314224E+01  8.108473840E+00  5.087246336E+01  4.750000000E+00  0.00000E+00  9.000E+00
      21     1     1     2   502   511  1.820266082E+01  2.588885297E+01  3.265856969E+02  3.281155086E+02  3.814697266E-06  0.00000E+00  9.000E+00
#rwgt            1           9   3.4510806238113405                8     1779918           0
</event>
<event>
      6   9999  3.45752E-01  2.10711E+01 -1.00000E+00  1.58500E-01
      21    -1     0     0   501   502  0.000000000E+00  0.000000000E+00  2.988868830E+01  2.988868830E+01  0.000000000E+00  0.00000E+00  9.000E+00
      21    -1     0     0   502   512  0.000000000E+00  0.000000000E+00 -1.182321962E+03  1.182321962E+03  0.000000000E+00  0.00000E+00  9.000E+00
      25     1     1     2     0     0 -1.231891007E+02  7.497366566E+01 -6.232013212E+02  6.517674266E+02  1.249971466E+02  0.00000E+00  9.000E+00
       5     1     1     2   501     0 -1.571327898E+00  2.427789448E+00  4.177098424E+00  6.955133659E+00  4.750000000E+00  0.00000E+00  9.000E+00
      -5     1     1     2     0   503  1.090615157E+02 -6.334669354E+01 -4.408817157E+02  4.585918310E+02  4.750000000E+00  0.00000E+00  9.000E+00
      21     1     1     2   503   512  1.569891295E+01 -1.405476157E+01 -9.252733559E+01  9.489625926E+01  1.348699152E-06  0.00000E+00  9.000E+00
#rwgt            1           9   3.6790861884846175E-004           8     1781145           0
</event>
<event>
      6   9999  3.45752E-01  7.97446E+00 -1.00000E+00  1.98180E-01
       1    -1     0     0   501     0  0.000000000E+00  0.000000000E+00  1.577844419E+02  1.577844419E+02  0.000000000E+00  0.00000E+00  9.000E+00
      21    -1     0     0   502   503  0.000000000E+00  0.000000000E+00 -8.969892741E+02  8.969892741E+02  0.000000000E+00  0.00000E+00  9.000E+00
      25     1     1     2     0     0 -5.657766598E+00 -6.026141402E+00 -8.555512728E+02  8.646743017E+02  1.250013714E+02  0.00000E+00  9.000E+00
       5     1     1     2   501     0  3.955511676E+00 -2.147746637E+00  8.854803454E+00  1.101040110E+01  4.750000000E+00  0.00000E+00  9.000E+00
      -5     1     1     2     0   503  5.160288933E+00  9.882116376E-01 -3.533602832E+01  3.603890317E+01  4.750000000E+00  0.00000E+00  9.000E+00
       1     1     1     2   502     0 -3.458034011E+00  7.185676402E+00  1.428276655E+02  1.430501100E+02  3.303624740E-06  0.00000E+00  9.000E+00
#rwgt            1           9   6.1510151078026092E-004           8     1783064           0
</event>
<event>
      6   9999  3.45752E-01  1.83379E+01 -1.00000E+00  1.63141E-01
      21    -1     0     0   502   511  0.000000000E+00  0.000000000E+00  2.479318954E+01  2.479318954E+01  0.000000000E+00  0.00000E+00  9.000E+00
      21    -1     0     0   501   502  0.000000000E+00  0.000000000E+00 -9.012200967E+02  9.012200967E+02  0.000000000E+00  0.00000E+00  9.000E+00
      25     1     1     2     0     0  4.914427097E+00  5.358899824E+01 -3.255737047E+02  3.528727858E+02  1.250001338E+02  0.00000E+00  9.000E+00
       5     1     1     2   501     0 -1.341470696E+01 -2.413672321E+01 -4.717418985E+02  4.725732928E+02  4.750000000E+00  0.00000E+00  9.000E+00
      -5     1     1     2     0   503  7.475509498E+00 -1.114307218E+01 -8.089964488E+01  8.214235412E+01  4.750000000E+00  0.00000E+00  9.000E+00
      21     1     1     2   503   511  1.024770369E+00 -1.830920284E+01  1.788340919E+00  1.842485349E+01  4.995779578E-07  0.00000E+00  9.000E+00
#rwgt            1           9   1.1320896371409716E-004           8     1786254           0
</event>
<event>
      6   9999  3.45752E-01  1.19845E+01 -1.00000E+00  1.79276E-01
      21    -1     0     0   501   502  0.000000000E+00  0.000000000E+00  7.419185600E+02  7.419185600E+02  0.000000000E+00  0.00000E+00  9.000E+00
      21    -1     0     0   512   503  0.000000000E+00  0.000000000E+00 -1.815047236E+02  1.815047236E+02  0.000000000E+00  0.00000E+00  9.000E+00
      25     1     1     2     0     0  1.887672199E+02 -2.124943225E+02  1.182560666E+02  3.322581870E+02  1.249964205E+02  0.00000E+00  9.000E+00
       5     1     1     2   501     0 -1.071386934E-01  1.788153760E+00  1.115439965E+02  1.116594583E+02  4.750000000E+00  0.00000E+00  9.000E+00
      -5     1     1     2     0   503 -1.940680792E+02  2.000112400E+02  3.555848649E+02  4.518075632E+02  4.750000000E+00  0.00000E+00  9.000E+00
      21     1     1     2   512   502  5.407998064E+00  1.069492872E+01 -2.497109169E+01  2.769807509E+01  7.539457465E-07  0.00000E+00  9.000E+00
#rwgt            1           9   1.0518890865057039E-003           8     1788743           0
</event>
<event>
      6   9999  3.45752E-01  4.27225E+00 -1.00000E+00  2.42076E-01
      21    -1     0     0   511   502  0.000000000E+00  0.000000000E+00  1.562621022E+03  1.562621022E+03  0.000000000E+00  0.00000E+00  9.000E+00
      21    -1     0     0   502   503  0.000000000E+00  0.000000000E+00 -4.468199348E+00  4.468199348E+00  0.000000000E+00  0.00000E+00  9.000E+00
      25     1     1     2     0     0 -4.772146723E-01 -4.050086707E+00  9.083489068E+02  9.169185301E+02  1.250008937E+02  0.00000E+00  9.000E+00
       5     1     1     2   501     0 -3.504403917E-01  1.725470956E-02  5.051364038E+02  5.051588582E+02  4.750000000E+00  0.00000E+00  9.000E+00
      -5     1     1     2     0   503 -9.485059821E-01  1.472964087E-01  4.659753836E+01  4.684884674E+01  4.750000000E+00  0.00000E+00  9.000E+00
      21     1     1     2   511   501  1.776161046E+00  3.885535589E+00  9.806997340E+01  9.816298599E+01  1.348699152E-06  0.00000E+00  9.000E+00
#rwgt            1           9   9.4852492999055545E-004           8     1792857           0
</event>
<event>
      6   9999  3.45752E-01  1.36619E+01 -1.00000E+00  1.73965E-01
      21    -1     0     0   512   503  0.000000000E+00  0.000000000E+00  3.332885867E+02  3.332885867E+02  0.000000000E+00  0.00000E+00  9.000E+00
      21    -1     0     0   501   502  0.000000000E+00  0.000000000E+00 -7.953468945E+02  7.953468945E+02  0.000000000E+00  0.00000E+00  9.000E+00
      25     1     1     2     0     0 -1.754925826E+01  2.803023331E+00 -7.050449690E+02  7.162561819E+02  1.249747027E+02  0.00000E+00  9.000E+00
       5     1     1     2   501     0  1.121465615E+00 -2.905329236E+00 -4.167842207E+01  4.206366591E+01  4.750000000E+00  0.00000E+00  9.000E+00
      -5     1     1     2     0   503  2.794386373E+00 -7.795536701E-01 -4.250126471E+01  4.286416103E+01  4.750000000E+00  0.00000E+00  9.000E+00
      21     1     1     2   512   502  1.363340628E+01  8.818595757E-01  3.271663481E+02  3.274514723E+02  0.000000000E+00  0.00000E+00  9.000E+00
#rwgt            1           9  0.18879272473720987                8     1796895           0
</event>
<event>
      6   9999  3.45752E-01  3.45797E+01 -1.00000E+00  1.43955E-01
      21    -1     0     0   501   511  0.000000000E+00  0.000000000E+00  5.571050653E+02  5.571050653E+02  0.000000000E+00  0.00000E+00  9.000E+00
      21    -1     0     0   502   503  0.000000000E+00  0.000000000E+00 -4.994876204E+02  4.994876204E+02  0.000000000E+00  0.00000E+00  9.000E+00
      25     1     1     2     0     0 -4.370111648E+01 -2.665447921E+02  1.069651461E+02  3.162612300E+02  1.249948373E+02  0.00000E+00  9.000E+00
       5     1     1     2   501     0  5.797147897E+01 -3.990264171E+01  4.338196608E+01  8.280984646E+01  4.750000000E+00  0.00000E+00  9.000E+00
      -5     1     1     2     0   503  7.266221909E+00  2.793932063E+02 -3.215725968E+02  4.260808130E+02  4.750000000E+00  0.00000E+00  9.000E+00
      21     1     1     2   502   511 -2.153658441E+01  2.705422753E+01  2.288429297E+02  2.314407962E+02  0.000000000E+00  0.00000E+00  9.000E+00
#rwgt            1           9   3.5442978111406712E-003           8     1798526           0
</event>
<event>
      6   9999  3.45752E-01  1.98007E+01 -1.00000E+00  1.60543E-01
      21    -1     0     0   501   502  0.000000000E+00  0.000000000E+00  1.726119418E+03  1.726119418E+03  0.000000000E+00  0.00000E+00  9.000E+00
      21    -1     0     0   512   503  0.000000000E+00  0.000000000E+00 -1.183915347E+01  1.183915347E+01  0.000000000E+00  0.00000E+00  9.000E+00
      25     1     1     2     0     0  6.596383363E+00 -4.319732222E+01  1.204218442E+03  1.211477202E+03  1.250017436E+02  0.00000E+00  9.000E+00
       5     1     1     2   501     0  8.738260504E-01 -4.046331838E+00  4.446720865E+02  4.447167227E+02  4.750000000E+00  0.00000E+00  9.000E+00
      -5     1     1     2     0   503 -3.073640978E-01  2.878391097E+01  3.620836113E+01  4.649963354E+01  4.750000000E+00  0.00000E+00  9.000E+00
      21     1     1     2   512   502 -7.162845316E+00  1.845974309E+01  2.918137503E+01  3.526501264E+01  9.536743164E-07  0.00000E+00  9.000E+00
#rwgt            1           9   2.9977855626215015E-002           8     1800541           0
</event>
<event>
      6   9999 -3.45752E-01  2.27416E+00 -1.00000E+00  3.12697E-01
      21    -1     0     0   501   502  0.000000000E+00  0.000000000E+00  1.341229716E+00  1.341229716E+00  0.000000000E+00  0.00000E+00  9.000E+00
      21    -1     0     0   502   511  0.000000000E+00  0.000000000E+00 -4.871062624E+03  4.871062624E+03  0.000000000E+00  0.00000E+00  9.000E+00
      25     1     1     2     0     0 -6.066086569E+00 -5.990498051E-02 -3.873742463E+03  3.875763576E+03  1.250033057E+02  0.00000E+00  9.000E+00
       5     1     1     2   501     0  5.893649426E-01 -8.068770941E-01 -1.869750594E+01  1.931728837E+01  4.750000000E+00  0.00000E+00  9.000E+00
      -5     1     1     2     0   503  4.400196413E+00 -1.136436180E+00 -6.355731476E+02  6.356071441E+02  4.750000000E+00  0.00000E+00  9.000E+00
      21     1     1     2   503   511  1.076525213E+00  2.003218255E+00 -3.417082778E+02  3.417158453E+02  3.814697266E-06  0.00000E+00  9.000E+00
#rwgt            1           9  -8.5626564990910863E-003           8     1802119           0
</event>
<event>
      6   9999 -3.45752E-01  3.40132E+01 -1.00000E+00  1.44395E-01
      21    -1     0     0   501   502  0.000000000E+00  0.000000000E+00  7.067158632E+01  7.067158632E+01  0.000000000E+00  0.00000E+00  9.000E+00
      21    -1     0     0   502   512  0.000000000E+00  0.000000000E+00 -2.142305807E+03  2.142305807E+03  0.000000000E+00  0.00000E+00  9.000E+00
      25     1     1     2     0     0  3.051483350E+01 -2.426234044E+00 -1.186508496E+03  1.193467857E+03  1.250042912E+02  0.00000E+00  9.000E+00
       5     1     1     2   501     0  1.631690483E+01 -2.724740935E+01  6.212194339E+01  6.993111646E+01  4.750000000E+00  0.00000E+00  9.000E+00
      -5     1     1     2     0   503 -2.966091016E+01  3.127817962E-01 -3.192221860E+02  3.206325529E+02  4.750000000E+00  0.00000E+00  9.000E+00
      21     1     1     2   503   512 -1.717082816E+01  2.936086160E+01 -6.280254811E+02  6.289458660E+02  1.078959322E-05  0.00000E+00  9.000E+00
#rwgt            1           9  -1.7130999778703008E-004           8     1808421           0
</event>
<event>
      6   9999  3.45752E-01  1.55413E+01 -1.00000E+00  1.69048E-01
      21    -1     0     0   501   511  0.000000000E+00  0.000000000E+00  2.936247874E+01  2.936247874E+01  0.000000000E+00  0.00000E+00  9.000E+00
      21    -1     0     0   502   503  0.000000000E+00  0.000000000E+00 -8.784948795E+02  8.784948795E+02  0.000000000E+00  0.00000E+00  9.000E+00
      25     1     1     2     0     0 -4.027041791E+01 -4.055984417E+01 -4.432573623E+02  4.640788223E+02  1.250010264E+02  0.00000E+00  9.000E+00
       5     1     1     2   501     0  3.244348389E+01 -1.310841693E+00 -2.402331619E+02  2.424640850E+02  4.750000000E+00  0.00000E+00  9.000E+00
      -5     1     1     2     0   503 -5.065024105E+00  3.319135885E+01 -1.781601135E+02  1.813585104E+02  4.750000000E+00  0.00000E+00  9.000E+00
      21     1     1     2   502   511  1.289195812E+01  8.679327011E+00  1.251823693E+01  1.995594040E+01  1.348699152E-06  0.00000E+00  9.000E+00
#rwgt            1           9   4.1762306421597715E-004           8     1810681           0
</event>
<event>
      6   9999 -3.45752E-01  3.50582E+01 -1.00000E+00  1.43590E-01
      21    -1     0     0   501   502  0.000000000E+00  0.000000000E+00  7.184617471E+01  7.184617471E+01  0.000000000E+00  0.00000E+00  9.000E+00
      21    -1     0     0   512   503  0.000000000E+00  0.000000000E+00 -1.565651960E+03  1.565651960E+03  0.000000000E+00  0.00000E+00  9.000E+00
      25     1     1     2     0     0  1.083671229E+02 -2.556718201E+02 -4.262324690E+02  5.238419463E+02  1.249990169E+02  0.00000E+00  9.000E+00
       5     1     1     2   501     0 -1.657306476E-01 -6.075731098E-01  4.016250689E+00  6.252150136E+00  4.750000000E+00  0.00000E+00  9.000E+00
      -5     1     1     2     0   503 -9.869696533E+01  2.225341455E+02 -9.062996261E+02  9.384370579E+02  4.750000000E+00  0.00000E+00  9.000E+00
      21     1     1     2   512   502 -9.504426884E+00  3.374524771E+01 -1.652899408E+02  1.689669802E+02  2.697398305E-06  0.00000E+00  9.000E+00
#rwgt            1           9  -4.1492593646547799E-004           8     1812458           0
</event>
<event>
      6   9999  3.45752E-01  1.58192E+01 -1.00000E+00  1.68394E-01
      21    -1     0     0   501   511  0.000000000E+00  0.000000000E+00  1.870463454E+02  1.870463454E+02  0.000000000E+00  0.00000E+00  9.000E+00
      21    -1     0     0   502   503  0.000000000E+00  0.000000000E+00 -1.692833538E+03  1.692833538E+03  0.000000000E+00  0.00000E+00  9.000E+00
      25     1     1     2     0     0  1.687698964E+01 -4.635190673E+01 -2.676040477E+02  2.994504267E+02  1.250011987E+02  0.00000E+00  9.000E+00
       5     1     1     2   501     0 -1.881727920E+00 -1.086210638E+00  2.674949565E-01  5.230182317E+00  4.750000000E+00  0.00000E+00  9.000E+00
      -5     1     1     2     0   503 -2.214905556E+01  3.332885754E+01 -1.406164093E+03  1.406741416E+03  4.750000000E+00  0.00000E+00  9.000E+00
      21     1     1     2   502   511  7.153793835E+00  1.410925983E+01  1.677134525E+02  1.684578586E+02  6.607249480E-06  0.00000E+00  9.000E+00
#rwgt            1           9   2.4353873162079938E-002           8     1814156           0
</event>
<event>
      6   9999  3.45752E-01  2.36960E+00 -1.00000E+00  3.06774E-01
      21    -1     0     0   501   502  0.000000000E+00  0.000000000E+00  1.552997927E+01  1.552997927E+01  0.000000000E+00  0.00000E+00  9.000E+00
      21    -1     0     0   512   503  0.000000000E+00  0.000000000E+00 -5.358439754E+02  5.358439754E+02  0.000000000E+00  0.00000E+00  9.000E+00
      25     1     1     2     0     0 -3.373502113E+00  7.608434839E+00 -3.543889025E+02  3.758803288E+02  1.250010343E+02  0.00000E+00  9.000E+00
       5     1     1     2   501     0  1.566211555E+00 -1.724242560E-01  3.073406064E+00  5.872910147E+00  4.750000000E+00  0.00000E+00  9.000E+00
      -5     1     1     2     0   503  4.176681623E+00 -7.404431548E+00 -7.997839091E+01  8.056907464E+01  4.750000000E+00  0.00000E+00  9.000E+00
      21     1     1     2   512   502 -2.369391065E+00 -3.157903540E-02 -8.902010873E+01  8.905164103E+01  9.536743164E-07  0.00000E+00  9.000E+00
#rwgt            1           9  0.43519003361419045                8     1817147           0
</event>
<event>
      6   9999 -3.45752E-01  8.77431E+00 -1.00000E+00  1.93381E-01
      21    -1     0     0   502   503  0.000000000E+00  0.000000000E+00  7.630636793E+00  7.630636793E+00  0.000000000E+00  0.00000E+00  9.000E+00
      21    -1     0     0   511   502  0.000000000E+00  0.000000000E+00 -8.716329911E+02  8.716329911E+02  0.000000000E+00  0.00000E+00  9.000E+00
      25     1     1     2     0     0 -3.106408806E+00 -5.840847456E+00 -6.149650771E+02  6.275735326E+02  1.249909099E+02  0.00000E+00  9.000E+00
       5     1     1     2   501     0 -6.703295405E-01 -8.507079520E-01 -4.612204129E+00  6.708798152E+00  4.750000000E+00  0.00000E+00  9.000E+00
      -5     1     1     2     0   503 -3.243565814E+00  1.428112926E+00 -4.864154643E+01  4.900125269E+01  4.750000000E+00  0.00000E+00  9.000E+00
      21     1     1     2   511   501  7.020304161E+00  5.263442482E+00 -1.957835267E+02  1.959800444E+02  3.814697266E-06  0.00000E+00  9.000E+00
#rwgt            1           9  -8.9281471501446530E-005           8     1824079           0
</event>
<event>
      6   9999  3.45752E-01  8.32651E+00 -1.00000E+00  1.95980E-01
      21    -1     0     0   512   503  0.000000000E+00  0.000000000E+00  1.646110620E+01  1.646110620E+01  0.000000000E+00  0.00000E+00  9.000E+00
      21    -1     0     0   501   502  0.000000000E+00  0.000000000E+00 -7.960476152E+02  7.960476152E+02  0.000000000E+00  0.00000E+00  9.000E+00
      25     1     1     2     0     0  1.586208386E+00  6.534353982E+00 -7.229621624E+02  7.337211464E+02  1.250088740E+02  0.00000E+00  9.000E+00
       5     1     1     2   501     0  2.427000378E-01  7.258910060E-01 -2.953445301E+01  2.992377375E+01  4.750000000E+00  0.00000E+00  9.000E+00
      -5     1     1     2     0   503 -3.888569637E+00  8.075014315E-01 -3.608157938E+01  3.660895933E+01  4.750000000E+00  0.00000E+00  9.000E+00
      21     1     1     2   512   502  2.059661213E+00 -8.067746420E+00  8.991685803E+00  1.225484191E+01  7.817075878E-07  0.00000E+00  9.000E+00
#rwgt            1           9   1.9451670530675258E-002           8     1826511           0
</event>
<event>
      6   9999  3.45752E-01  1.05896E+02 -1.00000E+00  1.19387E-01
      21    -1     0     0   511   502  0.000000000E+00  0.000000000E+00  5.881862016E+01  5.881862016E+01  0.000000000E+00  0.00000E+00  9.000E+00
       2    -1     0     0   501     0  0.000000000E+00  0.000000000E+00 -1.779746389E+03  1.779746389E+03  0.000000000E+00  0.00000E+00  9.000E+00
      25     1     1     2     0     0  5.546232343E+01 -6.676951982E+01 -1.538345487E+03  1.545854343E+03  1.249982986E+02  0.00000E+00  9.000E+00
       5     1     1     2   501     0 -7.333567367E+00 -1.124275931E+01 -2.019664484E+00  1.438132094E+01  4.750000000E+00  0.00000E+00  9.000E+00
      -5     1     1     2     0   502 -8.844006873E+01 -1.991044383E+01 -1.358330847E+02  1.633746030E+02  4.750000000E+00  0.00000E+00  9.000E+00
       2     1     1     2   511     0  4.031131267E+01  9.792272295E+01 -4.472953248E+01  1.149547419E+02  3.754619538E-06  0.00000E+00  9.000E+00
#rwgt            1           3   1.0226407634814145E-004           8     1828791           0
</event>
<event>
      6   9999 -3.45752E-01  1.17890E+01 -1.00000E+00  1.79966E-01
      21    -1     0     0   512   502  0.000000000E+00  0.000000000E+00  3.093256952E+01  3.093256952E+01  0.000000000E+00  0.00000E+00  9.000E+00
      21    -1     0     0   502   503  0.000000000E+00  0.000000000E+00 -1.107476991E+03  1.107476991E+03  0.000000000E+00  0.00000E+00  9.000E+00
      25     1     1     2     0     0  9.799407626E+01  9.094129595E+01 -6.735743122E+02  6.979973037E+02  1.249988943E+02  0.00000E+00  9.000E+00
       5     1     1     2   501     0  2.723160188E+00  1.209001864E+00  4.286436377E+00  7.057855463E+00  4.750000000E+00  0.00000E+00  9.000E+00
      -5     1     1     2     0   503 -8.911575143E+01 -9.005591718E+01 -3.997612154E+02  4.193844026E+02  4.750000000E+00  0.00000E+00  9.000E+00
      21     1     1     2   512   501 -1.160148501E+01 -2.094380639E+00 -7.495329996E+00  1.396999844E+01  4.214684851E-07  0.00000E+00  9.000E+00
#rwgt            1           9  -9.5670192301377696E-006           8     1829675           0
</event>
<event>
      6   9999  3.45752E-01  1.06271E+01 -1.00000E+00  1.84454E-01
      21    -1     0     0   511   502  0.000000000E+00  0.000000000E+00  2.534565757E+01  2.534565757E+01  0.000000000E+00  0.00000E+00  9.000E+00
      21    -1     0     0   502   503  0.000000000E+00  0.000000000E+00 -4.439962937E+03  4.439962937E+03  0.000000000E+00  0.00000E+00  9.000E+00
      25     1     1     2     0     0 -3.752997953E+01  8.218159055E+01 -1.669228190E+03  1.676338514E+03  1.250030063E+02  0.00000E+00  9.000E+00
       5     1     1     2   501     0  1.197201049E+01 -3.307153597E+00  1.311822881E+01  1.867931282E+01  4.750000000E+00  0.00000E+00  9.000E+00
      -5     1     1     2     0   503  2.986243902E+01 -6.915816169E+01 -2.758630573E+03  2.759662990E+03  4.750000000E+00  0.00000E+00  9.000E+00
      21     1     1     2   511   501 -4.304469981E+00 -9.716275267E+00  1.232545379E-01  1.062777769E+01  9.331712777E-07  0.00000E+00  9.000E+00
#rwgt            1           9   2.3622568047486626E-002           8     1832873           0
</event>
<event>
      6   9999 -3.45752E-01  4.13597E+00 -1.00000E+00  2.44883E-01
      21    -1     0     0   501   502  0.000000000E+00  0.000000000E+00  3.018995890E+01  3.018995890E+01  0.000000000E+00  0.00000E+00  9.000E+00
      21    -1     0     0   512   503  0.000000000E+00  0.000000000E+00 -1.209471007E+03  1.209471007E+03  0.000000000E+00  0.00000E+00  9.000E+00
      25     1     1     2     0     0  8.442884350E+01  3.916819875E+01 -9.186311838E+02  9.317565656E+02  1.249986728E+02  0.00000E+00  9.000E+00
       5     1     1     2   501     0 -2.739027945E-01  3.592031278E+00  1.269761236E+01  1.402745775E+01  4.750000000E+00  0.00000E+00  9.000E+00
      -5     1     1     2     0   503 -8.096211006E+01 -4.538930968E+01 -2.013899143E+02  2.218006149E+02  4.750000000E+00  0.00000E+00  9.000E+00
      21     1     1     2   512   502 -3.192830654E+00  2.629079651E+00 -7.195756233E+01  7.207632762E+01  0.000000000E+00  0.00000E+00  9.000E+00
#rwgt            1           9  -3.7844111765146445E-004           8     1836620           0
</event>
<event>
      6   9999  3.45752E-01  4.57729E+01 -1.00000E+00  1.36873E-01
      21    -1     0     0   511   502  0.000000000E+00  0.000000000E+00  2.937575678E+02  2.937575678E+02  0.000000000E+00  0.00000E+00  9.000E+00
      21    -1     0     0   502   503  0.000000000E+00  0.000000000E+00 -1.162301335E+03  1.162301335E+03  0.000000000E+00  0.00000E+00  9.000E+00
      25     1     1     2     0     0 -2.479596572E+01  4.004188399E+01 -4.178226061E+02  4.386583464E+02  1.250088888E+02  0.00000E+00  9.000E+00
       5     1     1     2   501     0  2.018120267E+01 -9.530866468E+01 -4.372859068E+01  1.068914152E+02  4.750000000E+00  0.00000E+00  9.000E+00
      -5     1     1     2     0   503  6.640306900E-01  9.664726472E+00 -6.566256485E+02  6.567142854E+02  4.750000000E+00  0.00000E+00  9.000E+00
      21     1     1     2   511   501  3.950732359E+00  4.560205421E+01  2.496330776E+02  2.537948562E+02  2.697398305E-06  0.00000E+00  9.000E+00
#rwgt            1           9   154.59854875203919                8     1842662           0
</event>
<event>
      6   9999  3.45752E-01  4.86123E+01 -1.00000E+00  1.35445E-01
      21    -1     0     0   501   512  0.000000000E+00  0.000000000E+00  2.119019708E+01  2.119019708E+01  0.000000000E+00  0.00000E+00  9.000E+00
      21    -1     0     0   502   503  0.000000000E+00  0.000000000E+00 -9.857633082E+02  9.857633082E+02  0.000000000E+00  0.00000E+00  9.000E+00
      25     1     1     2     0     0  6.350916259E+01 -7.909823506E+00 -4.221180483E+02  4.448635726E+02  1.249958899E+02  0.00000E+00  9.000E+00
       5     1     1     2   501     0 -2.953539817E+01  5.293134356E+01 -3.776657761E+02  3.825285190E+02  4.750000000E+00  0.00000E+00  9.000E+00
      -5     1     1     2     0   503 -1.217754469E+01 -1.569476964E+00 -8.585708585E+01  8.686056380E+01  4.750000000E+00  0.00000E+00  9.000E+00
      21     1     1     2   502   512 -2.179621973E+01 -4.345204309E+01 -7.893220089E+01  9.270084994E+01  9.536743164E-07  0.00000E+00  9.000E+00
#rwgt            1           9   2.0968739803793966E-005           8     1843860           0
</event>
<event>
      6   9999  3.45752E-01  1.26485E+01 -1.00000E+00  1.77049E-01
      21    -1     0     0   511   502  0.000000000E+00  0.000000000E+00  1.519985011E+02  1.519985011E+02  0.000000000E+00  0.00000E+00  9.000E+00
      21    -1     0     0   502   503  0.000000000E+00  0.000000000E+00 -1.284285494E+03  1.284285494E+03  0.000000000E+00  0.00000E+00  9.000E+00
      25     1     1     2     0     0 -3.363447310E+01  7.542612916E+01 -2.347980113E+02  2.785248493E+02  1.250024274E+02  0.00000E+00  9.000E+00
       5     1     1     2   501     0 -1.907366711E+00 -1.755327409E+00  1.891503393E+01  1.967384636E+01  4.750000000E+00  0.00000E+00  9.000E+00
      -5     1     1     2     0   503  4.356925347E+01 -6.389606224E+01 -1.025417391E+03  1.028340592E+03  4.750000000E+00  0.00000E+00  9.000E+00
      21     1     1     2   511   501 -8.027413665E+00 -9.774739519E+00  1.090133747E+02  1.097447073E+02  3.015782986E-06  0.00000E+00  9.000E+00
#rwgt            1           9   3.7365567223316461E-003           8     1844840           0
</event>
<event>
      6   9999  3.45752E-01  4.78521E+01 -1.00000E+00  1.35816E-01
      21    -1     0     0   512   502  0.000000000E+00  0.000000000E+00  3.987389347E+02  3.987389347E+02  0.000000000E+00  0.00000E+00  9.000E+00
      21    -1     0     0   502   503  0.000000000E+00  0.000000000E+00 -7.087810454E+02  7.087810454E+02  0.000000000E+00  0.00000E+00  9.000E+00
      25     1     1     2     0     0 -7.452317134E+01  4.634347540E+01 -5.644123293E+02  5.847110014E+02  1.249970277E+02  0.00000E+00  9.000E+00
       5     1     1     2   501     0 -1.806329411E+01  2.055746186E+01  2.098056384E+02  2.116361506E+02  4.750000000E+00  0.00000E+00  9.000E+00
      -5     1     1     2     0   503  4.490325320E+01 -6.288361653E+01 -1.183248340E+02  1.414000715E+02  4.750000000E+00  0.00000E+00  9.000E+00
      21     1     1     2   512   501  4.768321225E+01 -4.017320730E+00  1.628894142E+02  1.697727565E+02  1.907348633E-06  0.00000E+00  9.000E+00
#rwgt            1           9   2.6508052482087315E-002           8     1847920           0
</event>
<event>
      6   9999  3.45752E-01  5.12934E+00 -1.00000E+00  2.24004E-01
      -1    -1     0     0     0   502  0.000000000E+00  0.000000000E+00  1.001473934E+02  1.001473934E+02  0.000000000E+00  0.00000E+00  9.000E+00
      21    -1     0     0   502   503  0.000000000E+00  0.000000000E+00 -1.114043785E+02  1.114043785E+02  0.000000000E+00  0.00000E+00  9.000E+00
      25     1     1     2     0     0 -3.167174550E-01 -7.939595261E-01 -7.081306314E+01  1.436703577E+02  1.250038043E+02  0.00000E+00  9.000E+00
       5     1     1     2   501     0 -3.226700907E+00 -1.212480882E+00  8.261449242E+00  1.013389127E+01  4.750000000E+00  0.00000E+00  9.000E+00
      -5     1     1     2     0   503 -2.792617968E-01 -1.413686923E+00 -1.115024708E+00  5.087462822E+00  4.750000000E+00  0.00000E+00  9.000E+00
      -1     1     1     2     0   501  3.822680159E+00  3.420127331E+00  5.240965353E+01  5.266006017E+01  6.743495762E-07  0.00000E+00  9.000E+00
#rwgt            1           9   1.8756324003480155E-003           8     1849693           0
</event>
<event>
      6   9999  3.45752E-01  1.42644E+01 -1.00000E+00  1.72286E-01
      21    -1     0     0   501   511  0.000000000E+00  0.000000000E+00  1.046451963E+01  1.046451963E+01  0.000000000E+00  0.00000E+00  9.000E+00
      21    -1     0     0   502   503  0.000000000E+00  0.000000000E+00 -1.496661419E+03  1.496661419E+03  0.000000000E+00  0.00000E+00  9.000E+00
      25     1     1     2     0     0  9.467730577E+00  4.077842026E+01 -1.288625441E+03  1.295350700E+03  1.250015602E+02  0.00000E+00  9.000E+00
       5     1     1     2   501     0  4.670607793E-01  5.816864843E-01  3.442856674E+00  5.913735454E+00  4.750000000E+00  0.00000E+00  9.000E+00
      -5     1     1     2     0   503 -1.072542933E+01 -2.711764629E+01 -1.188039841E+02  1.224228358E+02  4.750000000E+00  0.00000E+00  9.000E+00
      21     1     1     2   502   511  7.906379735E-01 -1.424246045E+01 -8.221033097E+01  8.343866793E+01  0.000000000E+00  0.00000E+00  9.000E+00
#rwgt            1           9   3.0202771025887509E-003           8     1853172           0
</event>
<event>
      6   9999  3.45752E-01  1.09133E+01 -1.00000E+00  1.83282E-01
      21    -1     0     0   502   512  0.000000000E+00  0.000000000E+00  1.997235517E+02  1.997235517E+02  0.000000000E+00  0.00000E+00  9.000E+00
      21    -1     0     0   501   502  0.000000000E+00  0.000000000E+00 -4.674365341E+02  4.674365341E+02  0.000000000E+00  0.00000E+00  9.000E+00
      25     1     1     2     0     0  1.160726306E+01 -9.983965498E-01 -4.358525288E+02  4.535721625E+02  1.249982173E+02  0.00000E+00  9.000E+00
       5     1     1     2   501     0  2.024157838E-01  4.179218724E-01 -8.061132886E+00  9.368030436E+00  4.750000000E+00  0.00000E+00  9.000E+00
      -5     1     1     2     0   503 -4.348475341E+00  8.544784006E+00 -1.178503458E+01  1.591766665E+01  4.750000000E+00  0.00000E+00  9.000E+00
      21     1     1     2   503   512 -7.461203506E+00 -7.964309328E+00  1.879857139E+02  1.883022262E+02  4.672030912E-06  0.00000E+00  9.000E+00
#rwgt            1           9   1.6750718964111846E-004           8     1855094           0
</event>
<event>
      6   9999  3.45752E-01  1.13650E+01 -1.00000E+00  1.81524E-01
      21    -1     0     0   501   511  0.000000000E+00  0.000000000E+00  5.827417899E+01  5.827417899E+01  0.000000000E+00  0.00000E+00  9.000E+00
      21    -1     0     0   502   503  0.000000000E+00  0.000000000E+00 -2.912337532E+02  2.912337532E+02  0.000000000E+00  0.00000E+00  9.000E+00
      25     1     1     2     0     0  4.364120945E+01 -2.290174924E+01 -2.494856516E+02  2.833672286E+02  1.249994024E+02  0.00000E+00  9.000E+00
       5     1     1     2   501     0  9.567857993E-01  1.613514248E+00  7.824778107E+00  9.343902810E+00  4.750000000E+00  0.00000E+00  9.000E+00
      -5     1     1     2     0   503 -3.493870374E+01  2.727673483E+01  5.073887111E+00  4.486691557E+01  4.750000000E+00  0.00000E+00  9.000E+00
      21     1     1     2   502   511 -9.659291504E+00 -5.988499836E+00  3.627412184E+00  1.192988524E+01  2.149076030E-07  0.00000E+00  9.000E+00
#rwgt            1           9   1.1516830021153394E-005           8     1857230           0
</event>
<event>
      6   9999  3.45752E-01  1.84448E+01 -1.00000E+00  1.62941E-01
      21    -1     0     0   501   502  0.000000000E+00  0.000000000E+00  1.247305236E+01  1.247305236E+01  0.000000000E+00  0.00000E+00  9.000E+00
      21    -1     0     0   502   512  0.000000000E+00  0.000000000E+00 -1.079406137E+03  1.079406137E+03  0.000000000E+00  0.00000E+00  9.000E+00
      25     1     1     2     0     0  1.306736291E+01 -1.368682250E+00 -5.619046818E+02  5.757902157E+02  1.249994873E+02  0.00000E+00  9.000E+00
       5     1     1     2   501     0  2.236423008E+00 -3.771752475E+00  2.770238456E+00  7.033095030E+00  4.750000000E+00  0.00000E+00  9.000E+00
      -5     1     1     2     0   503 -1.016637454E+01 -1.257450286E+01 -2.022223314E+02  2.029234020E+02  4.750000000E+00  0.00000E+00  9.000E+00
      21     1     1     2   503   512 -5.137411374E+00  1.771493759E+01 -3.055763097E+02  3.061324763E+02  3.814697266E-06  0.00000E+00  9.000E+00
#rwgt            1           9   3.9378188959810130E-004           8     1859761           0
</event>
<event>
      6   9999  3.45752E-01  3.75440E+01 -1.00000E+00  1.41801E-01
      21    -1     0     0   511   502  0.000000000E+00  0.000000000E+00  4.970517162E+00  4.970517162E+00  0.000000000E+00  0.00000E+00  9.000E+00
       2    -1     0     0   501     0  0.000000000E+00  0.000000000E+00 -3.563308631E+03  3.563308631E+03  0.000000000E+00  0.00000E+00  9.000E+00
      25     1     1     2     0     0 -3.680839689E+01  1.848752917E+01 -1.531977956E+03  1.537616712E+03  1.249481889E+02  0.00000E+00  9.000E+00
       5     1     1     2   501     0 -8.754330034E+00 -1.954839473E+01 -2.108031075E+02  2.119417153E+02  4.750000000E+00  0.00000E+00  9.000E+00
      -5     1     1     2     0   502  5.860531616E+01  3.626657272E+01 -1.265141891E+03  1.267026604E+03  4.750000000E+00  0.00000E+00  9.000E+00
       2     1     1     2   511     0 -1.304258923E+01 -3.520570715E+01 -5.504151591E+02  5.516941166E+02  1.078959322E-05  0.00000E+00  9.000E+00
#rwgt            1           3   1.2784469007214404E-004           8     1861689           0
</event>
<event>
      6   9999  3.45752E-01  3.23304E+00 -1.00000E+00  2.68681E-01
      21    -1     0     0   512   503  0.000000000E+00  0.000000000E+00  4.724211451E+02  4.724211451E+02  0.000000000E+00  0.00000E+00  9.000E+00
      21    -1     0     0   501   502  0.000000000E+00  0.000000000E+00 -4.732183806E+01  4.732183806E+01  0.000000000E+00  0.00000E+00  9.000E+00
      25     1     1     2     0     0 -1.078561902E+01  2.397590171E+00  1.471840886E+02  1.934183503E+02  1.250016971E+02  0.00000E+00  9.000E+00
       5     1     1     2   501     0  7.917947149E+00 -4.153137352E+00 -1.937752337E+01  2.186305900E+01  4.750000000E+00  0.00000E+00  9.000E+00
      -5     1     1     2     0   503  2.590796838E+00  4.976704705E+00  2.029066521E-01  7.354147747E+00  4.750000000E+00  0.00000E+00  9.000E+00
      21     1     1     2   512   502  2.768750337E-01 -3.221157524E+00  2.970898351E+02  2.971074261E+02  3.814697266E-06  0.00000E+00  9.000E+00
#rwgt            1           9   1.9831082533459664E-004           8     1863264           0
</event>
<event>
      6   9999  3.45752E-01  4.05601E+00 -1.00000E+00  2.46607E-01
      21    -1     0     0   501   511  0.000000000E+00  0.000000000E+00  2.128784856E+01  2.128784856E+01  0.000000000E+00  0.00000E+00  9.000E+00
      21    -1     0     0   502   503  0.000000000E+00  0.000000000E+00 -4.225438541E+02  4.225438541E+02  0.000000000E+00  0.00000E+00  9.000E+00
      25     1     1     2     0     0  1.436753657E+01 -1.585987418E+01 -3.287138306E+02  3.523272175E+02  1.249948962E+02  0.00000E+00  9.000E+00
       5     1     1     2   501     0  4.774050784E-01 -4.574876243E-01  6.749087605E+00  8.279486339E+00  4.750000000E+00  0.00000E+00  9.000E+00
      -5     1     1     2     0   503 -1.289884362E+01  1.275872569E+01 -7.504463963E+01  7.735260620E+01  4.750000000E+00  0.00000E+00  9.000E+00
      21     1     1     2   502   511 -1.946098026E+00  3.558636119E+00 -4.246622945E+00  5.872392612E+00  5.960464478E-08  0.00000E+00  9.000E+00
#rwgt            1           9   6.2718775403551334E-003           8     1868517           0
</event>
<event>
      6   9999 -3.45752E-01  4.05232E+00 -1.00000E+00  2.46688E-01
      21    -1     0     0   501   502  0.000000000E+00  0.000000000E+00  7.874547098E+00  7.874547098E+00  0.000000000E+00  0.00000E+00  9.000E+00
      21    -1     0     0   512   503  0.000000000E+00  0.000000000E+00 -8.472412257E+02  8.472412257E+02  0.000000000E+00  0.00000E+00  9.000E+00
      25     1     1     2     0     0 -3.039081672E+00  1.338687016E+00 -6.430700527E+02  6.551152304E+02  1.250033771E+02  0.00000E+00  9.000E+00
       5     1     1     2   501     0 -6.784876504E-01  8.440081513E-01 -2.508653388E+00  5.479830022E+00  4.750000000E+00  0.00000E+00  9.000E+00
      -5     1     1     2     0   503  1.270084342E+00  1.047025563E+00 -1.807623730E+01  1.876225550E+01  4.750000000E+00  0.00000E+00  9.000E+00
      21     1     1     2   512   502  2.447484980E+00 -3.229720730E+00 -1.757117352E+02  1.757584569E+02  2.697398305E-06  0.00000E+00  9.000E+00
#rwgt            1           9  -5.8957599489002535E-004           8     1874563           0
</event>
<event>
      6   9999  3.45752E-01  4.58256E+01 -1.00000E+00  1.36845E-01
      21    -1     0     0   501   511  0.000000000E+00  0.000000000E+00  3.882925414E+02  3.882925414E+02  0.000000000E+00  0.00000E+00  9.000E+00
      21    -1     0     0   502   503  0.000000000E+00  0.000000000E+00 -1.490158158E+02  1.490158158E+02  0.000000000E+00  0.00000E+00  9.000E+00
      25     1     1     2     0     0 -1.163887847E+02  6.640015424E+01  1.436884370E+02  2.328665512E+02  1.250005363E+02  0.00000E+00  9.000E+00
       5     1     1     2   501     0  1.338455737E+02 -1.061111943E+02  2.975350599E+01  1.734417965E+02  4.750000000E+00  0.00000E+00  9.000E+00
      -5     1     1     2     0   503 -5.258694609E+01  1.028560546E+01  3.871995000E+00  5.393269346E+01  4.750000000E+00  0.00000E+00  9.000E+00
      21     1     1     2   502   511  3.513015712E+01  2.942543461E+01  6.196278760E+01  7.706731595E+01  0.000000000E+00  0.00000E+00  9.000E+00
#rwgt            1           9   4773.7684317037238                8     1879520           0
</event>
<event>
      6   9999  3.45752E-01  8.94657E+00 -1.00000E+00  1.92434E-01
      21    -1     0     0   512   502  0.000000000E+00  0.000000000E+00  4.475335459E+02  4.475335459E+02  0.000000000E+00  0.00000E+00  9.000E+00
      21    -1     0     0   502   503  0.000000000E+00  0.000000000E+00 -7.889901421E+02  7.889901421E+02  0.000000000E+00  0.00000E+00  9.000E+00
      25     1     1     2     0     0 -1.796374731E+01  8.523659280E+00 -7.272686691E+02  7.382069317E+02  1.250376262E+02  0.00000E+00  9.000E+00
       5     1     1     2   501     0 -1.807086970E+00 -5.071473181E-01  2.182713579E+00  5.554232646E+00  4.750000000E+00  0.00000E+00  9.000E+00
      -5     1     1     2     0   503  1.131233330E+01 -5.101922721E+00 -5.371122909E+01  5.533043584E+01  4.750000000E+00  0.00000E+00  9.000E+00
      21     1     1     2   512   501  8.458500977E+00 -2.914589241E+00  4.373405885E+02  4.374320877E+02  0.000000000E+00  0.00000E+00  9.000E+00
#rwgt            1           9   1.9108299899641239E-004           8     1880808           0
</event>
<event>
      6   9999  3.45752E-01  5.87650E+00 -1.00000E+00  2.15324E-01
      21    -1     0     0   501   502  0.000000000E+00  0.000000000E+00  1.044671021E+01  1.044671021E+01  0.000000000E+00  0.00000E+00  9.000E+00
      21    -1     0     0   502   511  0.000000000E+00  0.000000000E+00 -6.206168168E+02  6.206168168E+02  0.000000000E+00  0.00000E+00  9.000E+00
      25     1     1     2     0     0  1.914364838E+01 -5.462554369E+00 -5.048583161E+02  5.204790786E+02  1.249809311E+02  0.00000E+00  9.000E+00
       5     1     1     2   501     0  5.013011881E-01  6.792483734E-01 -2.626434766E+00  5.493026562E+00  4.750000000E+00  0.00000E+00  9.000E+00
      -5     1     1     2     0   503 -1.417360683E+01  6.927512506E+00 -7.682620862E+01  7.857296221E+01  4.750000000E+00  0.00000E+00  9.000E+00
      21     1     1     2   503   511 -5.471342738E+00 -2.144206510E+00 -2.585914714E+01  2.651845968E+01  3.371747881E-07  0.00000E+00  9.000E+00
#rwgt            1           9   2.2343688404420314E-004           8     1883232           0
</event>
<event>
      6   9999  3.45752E-01  6.81807E+00 -1.00000E+00  2.06607E-01
      21    -1     0     0   512   502  0.000000000E+00  0.000000000E+00  2.093849520E+02  2.093849520E+02  0.000000000E+00  0.00000E+00  9.000E+00
      21    -1     0     0   502   503  0.000000000E+00  0.000000000E+00 -1.374574389E+03  1.374574389E+03  0.000000000E+00  0.00000E+00  9.000E+00
      25     1     1     2     0     0  7.070741709E+01  8.872633919E+01 -3.372636747E+02  3.771533991E+02  1.250039922E+02  0.00000E+00  9.000E+00
       5     1     1     2   501     0  8.089212737E+00 -9.900592430E+00  4.112798653E+01  4.333048430E+01  4.750000000E+00  0.00000E+00  9.000E+00
      -5     1     1     2     0   503 -7.201834007E+01 -7.809032657E+01 -1.013402334E+03  1.018965943E+03  4.750000000E+00  0.00000E+00  9.000E+00
      21     1     1     2   512   501 -6.778289758E+00 -7.354201844E-01  1.443485846E+02  1.445095150E+02  4.672030912E-06  0.00000E+00  9.000E+00
#rwgt            1           9  0.24710941553419610                8     1886158           0
</event>
<event>
      6   9999  3.45752E-01  3.73959E+00 -1.00000E+00  2.54061E-01
      21    -1     0     0   501   511  0.000000000E+00  0.000000000E+00  9.794896894E+01  9.794896894E+01  0.000000000E+00  0.00000E+00  9.000E+00
      21    -1     0     0   502   503  0.000000000E+00  0.000000000E+00 -1.131158417E+03  1.131158417E+03  0.000000000E+00  0.00000E+00  9.000E+00
      25     1     1     2     0     0  5.432562309E+01 -2.345414599E+01 -3.093095882E+02  3.388106527E+02  1.249754645E+02  0.00000E+00  9.000E+00
       5     1     1     2   501     0 -3.059869245E-01  2.974859338E+00  1.393036689E+01  1.501868961E+01  4.750000000E+00  0.00000E+00  9.000E+00
      -5     1     1     2     0   503 -5.741487972E+01  1.891184795E+01 -8.053627036E+02  8.076421072E+02  4.750000000E+00  0.00000E+00  9.000E+00
      21     1     1     2   502   511  3.395243556E+00  1.567438705E+00  6.753247660E+01  6.763593674E+01  2.523185073E-06  0.00000E+00  9.000E+00
#rwgt            1           9   1.3617866065593790E-004           8     1891621           0
</event>
<event>
      6   9999  3.45752E-01  1.12936E+01 -1.00000E+00  1.81795E-01
      21    -1     0     0   501   502  0.000000000E+00  0.000000000E+00  3.235617667E+01  3.235617667E+01  0.000000000E+00  0.00000E+00  9.000E+00
      21    -1     0     0   512   503  0.000000000E+00  0.000000000E+00 -2.036716026E+03  2.036716026E+03  0.000000000E+00  0.00000E+00  9.000E+00
      25     1     1     2     0     0 -6.636825123E+00 -7.874932884E+01 -8.088586507E+02  8.222667197E+02  1.249989489E+02  0.00000E+00  9.000E+00
       5     1     1     2   501     0 -2.798709660E+00  2.329351790E+00  2.200612657E+01  2.280549851E+01  4.750000000E+00  0.00000E+00  9.000E+00
      -5     1     1     2     0   503  8.214580349E+00  6.519254390E+01 -3.347826240E+02  3.412030406E+02  4.750000000E+00  0.00000E+00  9.000E+00
      21     1     1     2   512   502  1.220954435E+00  1.122743315E+01 -8.827247010E+02  8.827969436E+02  1.868812365E-05  0.00000E+00  9.000E+00
#rwgt            1           9   3.2293376071073917E-005           8     1898187           0
</event>
<event>
      6   9999  3.45752E-01  7.74327E+00 -1.00000E+00  1.99707E-01
      21    -1     0     0   511   502  0.000000000E+00  0.000000000E+00  1.406241748E+02  1.406241748E+02  0.000000000E+00  0.00000E+00  9.000E+00
      21    -1     0     0   502   503  0.000000000E+00  0.000000000E+00 -4.091707157E+02  4.091707157E+02  0.000000000E+00  0.00000E+00  9.000E+00
      25     1     1     2     0     0 -3.622538813E+01  4.992107605E-01 -1.631167886E+02  2.086681062E+02  1.249910552E+02  0.00000E+00  9.000E+00
       5     1     1     2   501     0 -4.380828438E-01 -1.744301536E+00  5.095031229E+00  7.194188463E+00  4.750000000E+00  0.00000E+00  9.000E+00
      -5     1     1     2     0   503  3.135728757E+01 -4.394291259E+00 -2.209391326E+02  2.232470651E+02  4.750000000E+00  0.00000E+00  9.000E+00
      21     1     1     2   511   501  5.306183405E+00  5.639382035E+00  1.104143491E+02  1.106855306E+02  1.907348633E-06  0.00000E+00  9.000E+00
#rwgt            1           9   4.4839482922128136E-003           8     1901278           0
</event>
<event>
      6   9999  3.45752E-01  1.08228E+01 -1.00000E+00  1.83648E-01
      21    -1     0     0   501   502  0.000000000E+00  0.000000000E+00  4.625225321E+01  4.625225321E+01  0.000000000E+00  0.00000E+00  9.000E+00
      21    -1     0     0   502   512  0.000000000E+00  0.000000000E+00 -1.441192504E+03  1.441192504E+03  0.000000000E+00  0.00000E+00  9.000E+00
      25     1     1     2     0     0  3.627612115E+01  3.090590211E+00 -1.158875303E+02  1.743006303E+02  1.250011253E+02  0.00000E+00  9.000E+00
       5     1     1     2   501     0 -3.263840739E+00 -2.281397642E+00  1.609313096E+01  1.724554423E+01  4.750000000E+00  0.00000E+00  9.000E+00
      -5     1     1     2     0   503 -2.630275054E+01 -9.301285615E+00 -1.150653039E+03  1.151001011E+03  4.750000000E+00  0.00000E+00  9.000E+00
      21     1     1     2   503   512 -6.709529868E+00  8.492093046E+00 -1.444928132E+02  1.448975724E+02  0.000000000E+00  0.00000E+00  9.000E+00
#rwgt            1           9   9.3198302444355964E-004           8     1904417           0
</event>
<event>
      6   9999  3.45752E-01  3.80622E+01 -1.00000E+00  1.41448E-01
      21    -1     0     0   501   502  0.000000000E+00  0.000000000E+00  3.402910998E+02  3.402910998E+02  0.000000000E+00  0.00000E+00  9.000E+00
      21    -1     0     0   502   511  0.000000000E+00  0.000000000E+00 -5.447315592E+02  5.447315592E+02  0.000000000E+00  0.00000E+00  9.000E+00
      25     1     1     2     0     0  3.253315884E+02  9.102241970E+01 -5.823055369E+01  3.648859574E+02  1.250009648E+02  0.00000E+00  9.000E+00
       5     1     1     2   501     0  2.527559520E+00 -5.271127450E+00  9.969779502E+01  9.998192924E+01  4.750000000E+00  0.00000E+00  9.000E+00
      -5     1     1     2     0   503 -2.898123388E+02 -8.466894420E+01 -2.098266418E+02  3.677088576E+02  4.750000000E+00  0.00000E+00  9.000E+00
      21     1     1     2   503   511 -3.804680916E+01 -1.082348050E+00 -3.608105897E+01  5.244591481E+01  4.768371582E-07  0.00000E+00  9.000E+00
#rwgt            1           9   6.1345111320381136E-003           8     1907807           0
</event>
<event>
      6   9999  3.45752E-01  3.15385E+00 -1.00000E+00  2.71352E-01
      21    -1     0     0   501   502  0.000000000E+00  0.000000000E+00  2.480567761E+01  2.480567761E+01  0.000000000E+00  0.00000E+00  9.000E+00
      21    -1     0     0   512   503  0.000000000E+00  0.000000000E+00 -2.378851304E+03  2.378851304E+03  0.000000000E+00  0.00000E+00  9.000E+00
      25     1     1     2     0     0 -4.208915685E+00  9.642889897E+00 -6.189874437E+02  6.315698353E+02  1.249972046E+02  0.00000E+00  9.000E+00
       5     1     1     2   501     0  5.803095566E+00 -3.639606953E+00  1.754501530E+01  1.942453909E+01  4.750000000E+00  0.00000E+00  9.000E+00
      -5     1     1     2     0   503  1.350827609E+00 -4.874690014E+00 -4.326526632E+02  4.327083045E+02  4.750000000E+00  0.00000E+00  9.000E+00
      21     1     1     2   512   502 -2.945007490E+00 -1.128592930E+00 -1.319950535E+03  1.319954303E+03  0.000000000E+00  0.00000E+00  9.000E+00
#rwgt            1           9   1.3207346373848188E-003           8     1909775           0
</event>
<event>
      6   9999  3.45752E-01  1.89195E+02 -1.00000E+00  1.09735E-01
      21    -1     0     0   501   511  0.000000000E+00  0.000000000E+00  4.041722831E+02  4.041722831E+02  0.000000000E+00  0.00000E+00  9.000E+00
      21    -1     0     0   502   503  0.000000000E+00  0.000000000E+00 -5.573021811E+02  5.573021811E+02  0.000000000E+00  0.00000E+00  9.000E+00
      25     1     1     2     0     0  1.099952165E+02 -2.535401707E+02  5.009992310E+00  3.034031389E+02  1.250871651E+02  0.00000E+00  9.000E+00
       5     1     1     2   501     0  2.283500921E+02  3.276761386E+01 -5.605892997E+01  2.374503047E+02  4.750000000E+00  0.00000E+00  9.000E+00
      -5     1     1     2     0   503 -1.845514581E+02  1.105804399E+02 -8.228704435E+01  2.303931305E+02  4.750000000E+00  0.00000E+00  9.000E+00
      21     1     1     2   502   511 -1.537938505E+02  1.101921169E+02 -1.979391592E+01  1.902278901E+02  1.752011592E-06  0.00000E+00  9.000E+00
#rwgt            1           9   2.6470309229404380E-004           8     1916706           0
</event>
<event>
      6   9999  3.45752E-01  5.00615E+01 -1.00000E+00  1.34759E-01
      21    -1     0     0   501   512  0.000000000E+00  0.000000000E+00  1.994520403E+01  1.994520403E+01  0.000000000E+00  0.00000E+00  9.000E+00
      21    -1     0     0   502   503  0.000000000E+00  0.000000000E+00 -9.766588900E+02  9.766588900E+02  0.000000000E+00  0.00000E+00  9.000E+00
      25     1     1     2     0     0  2.033032471E+01  6.022077873E+01 -3.909927037E+02  4.153792915E+02  1.249991887E+02  0.00000E+00  9.000E+00
       5     1     1     2   501     0 -6.943341504E+00 -1.403829231E+01 -1.659985392E+02  1.668033608E+02  4.750000000E+00  0.00000E+00  9.000E+00
      -5     1     1     2     0   503 -3.032495856E+01  9.265044470E-01 -3.113001538E+02  3.128111408E+02  4.750000000E+00  0.00000E+00  9.000E+00
      21     1     1     2   502   512  1.693797536E+01 -4.710899087E+01 -8.842228923E+01  1.016103010E+02  9.536743164E-07  0.00000E+00  9.000E+00
#rwgt            1           9   1.6125361056534644E-003           8     1917291           0
</event>
<event>
      6   9999  3.45752E-01  1.08623E+01 -1.00000E+00  1.83488E-01
      21    -1     0     0   501   502  0.000000000E+00  0.000000000E+00  5.673083359E+02  5.673083359E+02  0.000000000E+00  0.00000E+00  9.000E+00
      21    -1     0     0   502   511  0.000000000E+00  0.000000000E+00 -2.976237166E+02  2.976237166E+02  0.000000000E+00  0.00000E+00  9.000E+00
      25     1     1     2     0     0  9.138362567E+00 -3.089943321E+00  3.390781619E+02  3.615113700E+02  1.249936531E+02  0.00000E+00  9.000E+00
       5     1     1     2   501     0 -1.667579722E+00  1.690051112E+00  1.866563669E+02  1.867318904E+02  4.750000000E+00  0.00000E+00  9.000E+00
      -5     1     1     2     0   503 -1.777192700E+01  4.846055554E+00  2.722110707E+01  3.320958919E+01  4.750000000E+00  0.00000E+00  9.000E+00
      21     1     1     2   503   511  1.030114416E+01 -3.446163346E+00 -2.832710167E+02  2.834792029E+02  3.814697266E-06  0.00000E+00  9.000E+00
#rwgt            1           9   4.1362033615609884E-003           8     1918223           0
</event>
<event>
      6   9999  3.45752E-01  1.47005E+01 -1.00000E+00  1.71134E-01
      21    -1     0     0   501   502  0.000000000E+00  0.000000000E+00  1.152925708E+03  1.152925708E+03  0.000000000E+00  0.00000E+00  9.000E+00
      21    -1     0     0   502   512  0.000000000E+00  0.000000000E+00 -7.016403884E+01  7.016403884E+01  0.000000000E+00  0.00000E+00  9.000E+00
      25     1     1     2     0     0  1.526643563E+01 -2.994528040E+00  3.091116285E+00  1.259998527E+02  1.249975065E+02  0.00000E+00  9.000E+00
       5     1     1     2   501     0 -1.597043497E+01  3.042733754E+00  1.062790951E+03  1.062925906E+03  4.750000000E+00  0.00000E+00  9.000E+00
      -5     1     1     2     0   503 -1.023558611E+01 -9.868057270E+00  9.008897223E+00  1.748909679E+01  4.750000000E+00  0.00000E+00  9.000E+00
      21     1     1     2   503   512  1.093958545E+01  9.819851556E+00  7.870704362E+00  1.667489135E+01  2.064765462E-07  0.00000E+00  9.000E+00
#rwgt            1           9   3.7181594344085321E-003           8     1920284           0
</event>
<event>
      6   9999  3.45752E-01  1.69264E+01 -1.00000E+00  1.65946E-01
       1    -1     0     0   501     0  0.000000000E+00  0.000000000E+00  3.701370961E+02  3.701370961E+02  0.000000000E+00  0.00000E+00  9.000E+00
      21    -1     0     0   502   503  0.000000000E+00  0.000000000E+00 -9.177249792E+02  9.177249792E+02  0.000000000E+00  0.00000E+00  9.000E+00
      25     1     1     2     0     0  1.334092427E+01  1.554629652E+01 -7.858595992E+02  7.960015070E+02  1.249936875E+02  0.00000E+00  9.000E+00
       5     1     1     2   501     0  5.441360704E+00  6.251532725E+00  8.051723000E+00  1.249331065E+01  4.750000000E+00  0.00000E+00  9.000E+00
      -5     1     1     2     0   503 -3.239122153E+00 -1.509615097E+01 -1.238469198E+02  1.248959877E+02  4.750000000E+00  0.00000E+00  9.000E+00
       1     1     1     2   502     0 -1.554316282E+01 -6.701678276E+00  3.540669129E+02  3.544712699E+02  0.000000000E+00  0.00000E+00  9.000E+00
#rwgt            1           9   7.9521914830510826E-003           8     1923886           0
</event>
<event>
      6   9999  3.45752E-01  1.01936E+01 -1.00000E+00  1.86321E-01
      21    -1     0     0   501   511  0.000000000E+00  0.000000000E+00  6.040820444E+01  6.040820444E+01  0.000000000E+00  0.00000E+00  9.000E+00
      21    -1     0     0   502   503  0.000000000E+00  0.000000000E+00 -1.164530011E+03  1.164530011E+03  0.000000000E+00  0.00000E+00  9.000E+00
      25     1     1     2     0     0  2.173523795E+01  4.328060441E+01 -3.916505033E+02  4.139553787E+02  1.249932300E+02  0.00000E+00  9.000E+00
       5     1     1     2   501     0  7.095562778E+00  8.190949172E-01  2.019323785E+01  2.193962813E+01  4.750000000E+00  0.00000E+00  9.000E+00
      -5     1     1     2     0   503 -1.871486752E+01 -4.284338558E+01 -7.591814318E+02  7.606344791E+02  4.750000000E+00  0.00000E+00  9.000E+00
      21     1     1     2   502   511 -1.011593321E+01 -1.256313748E+00  2.651689059E+01  2.840872957E+01  1.305872339E-06  0.00000E+00  9.000E+00
#rwgt            1           9   2.3897525067875230E-004           8     1925712           0
</event>
<event>
      6   9999  3.45752E-01  6.87061E+00 -1.00000E+00  2.06177E-01
      21    -1     0     0   501   502  0.000000000E+00  0.000000000E+00  1.453876353E+02  1.453876353E+02  0.000000000E+00  0.00000E+00  9.000E+00
      21    -1     0     0   512   503  0.000000000E+00  0.000000000E+00 -1.923413981E+03  1.923413981E+03  0.000000000E+00  0.00000E+00  9.000E+00
      25     1     1     2     0     0  2.649057067E+01  2.188078208E+02 -2.906379889E+02  3.855826860E+02  1.249998172E+02  0.00000E+00  9.000E+00
       5     1     1     2   501     0 -5.913595474E+00  1.450034648E+01  8.845220856E+01  8.995324540E+01  4.750000000E+00  0.00000E+00  9.000E+00
      -5     1     1     2     0   503 -2.291797000E+01 -2.268486732E+02 -1.535888537E+03  1.552727186E+03  4.750000000E+00  0.00000E+00  9.000E+00
      21     1     1     2   512   502  2.340994805E+00 -6.459494145E+00 -3.995202871E+01  4.053849922E+01  0.000000000E+00  0.00000E+00  9.000E+00
#rwgt            1           9   1.4679741479679521E-002           8     1928986           0
</event>
<event>
      6   9999  3.45752E-01  1.80961E+00 -1.00000E+00  3.50654E-01
      21    -1     0     0   501   511  0.000000000E+00  0.000000000E+00  5.267503313E+01  5.267503313E+01  0.000000000E+00  0.00000E+00  9.000E+00
      21    -1     0     0   502   503  0.000000000E+00  0.000000000E+00 -7.675744478E+02  7.675744478E+02  0.000000000E+00  0.00000E+00  9.000E+00
      25     1     1     2     0     0  8.622154936E+00 -9.102734353E+00 -6.202480161E+02  6.328427104E+02  1.250003731E+02  0.00000E+00  9.000E+00
       5     1     1     2   501     0 -1.240037432E+00 -1.554401405E+00  2.328716400E+00  5.651484463E+00  4.750000000E+00  0.00000E+00  9.000E+00
      -5     1     1     2     0   503 -7.227796277E+00  8.854120147E+00 -1.390734115E+02  1.396231097E+02  4.750000000E+00  0.00000E+00  9.000E+00
      21     1     1     2   502   511 -1.543212267E-01  1.803015611E+00  4.209329649E+01  4.213217642E+01  2.132480600E-06  0.00000E+00  9.000E+00
#rwgt            1           9   1.8552081898514624E-003           8     1935770           0
</event>
<event>
      6   9999 -3.45752E-01  1.01098E+01 -1.00000E+00  1.86696E-01
      21    -1     0     0   512   502  0.000000000E+00  0.000000000E+00  4.261002664E+01  4.261002664E+01  0.000000000E+00  0.00000E+00  9.000E+00
      21    -1     0     0   502   503  0.000000000E+00  0.000000000E+00 -1.210185423E+03  1.210185423E+03  0.000000000E+00  0.00000E+00  9.000E+00
      25     1     1     2     0     0  1.641232396E+02  8.737743470E+01 -6.473394500E+02  6.850151464E+02  1.250045335E+02  0.00000E+00  9.000E+00
       5     1     1     2   501     0 -9.983519602E-01  4.609168121E-01  6.370881486E+00  8.022454852E+00  4.750000000E+00  0.00000E+00  9.000E+00
      -5     1     1     2     0   503 -1.533024139E+02 -9.023132445E+01 -5.115895747E+02  5.416546662E+02  4.750000000E+00  0.00000E+00  9.000E+00
      21     1     1     2   512   501 -9.822473730E+00  2.392972936E+00 -1.501725282E+01  1.810318182E+01  2.384185791E-07  0.00000E+00  9.000E+00
#rwgt            1           9  -1.4048938201707402E-004           8     1944299           0
</event>
<event>
      6   9999  3.45752E-01  6.79654E+00 -1.00000E+00  2.06785E-01
      21    -1     0     0   511   502  0.000000000E+00  0.000000000E+00  1.099149029E+02  1.099149029E+02  0.000000000E+00  0.00000E+00  9.000E+00
      21    -1     0     0   502   503  0.000000000E+00  0.000000000E+00 -8.457319271E+02  8.457319271E+02  0.000000000E+00  0.00000E+00  9.000E+00
      25     1     1     2     0     0 -1.817003541E+01  4.001615955E+01 -5.049570299E+02  5.220521041E+02  1.250014169E+02  0.00000E+00  9.000E+00
       5     1     1     2   501     0  5.011786774E-03  3.398058064E-01 -9.365535459E-01  4.853362303E+00  4.750000000E+00  0.00000E+00  9.000E+00
      -5     1     1     2     0   503  1.881831333E+01 -4.712103874E+01 -3.272416959E+02  3.311860674E+02  4.750000000E+00  0.00000E+00  9.000E+00
      21     1     1     2   511   501 -6.532897113E-01  6.765073380E+00  9.731825512E+01  9.755529604E+01  1.907348633E-06  0.00000E+00  9.000E+00
#rwgt            1           9   1.2697335990516530E-003           8     1948449           0
</event>
<event>
      6   9999  3.45752E-01  1.23331E+01 -1.00000E+00  1.78085E-01
      21    -1     0     0   501   512  0.000000000E+00  0.000000000E+00  2.868700275E+01  2.868700275E+01  0.000000000E+00  0.00000E+00  9.000E+00
      21    -1     0     0   502   503  0.000000000E+00  0.000000000E+00 -7.855810214E+02  7.855810214E+02  0.000000000E+00  0.00000E+00  9.000E+00
      25     1     1     2     0     0 -2.158808324E+01  1.743100496E+01 -7.472117077E+02  7.581025578E+02  1.249970667E+02  0.00000E+00  9.000E+00
       5     1     1     2   501     0 -5.587759869E-01 -3.566013475E-01  7.613445114E+00  8.998135453E+00  4.750000000E+00  0.00000E+00  9.000E+00
      -5     1     1     2     0   503  1.178250949E+01 -1.038973339E+01 -2.691682215E+01  3.152541680E+01  4.750000000E+00  0.00000E+00  9.000E+00
      21     1     1     2   502   512  1.036434974E+01 -6.684670225E+00  9.621066152E+00  1.564191406E+01  7.348554138E-07  0.00000E+00  9.000E+00
#rwgt            1           9   6.0683199407597286E-004           8     1951815           0
</event>
<event>
      6   9999 -3.45752E-01  7.59133E+00 -1.00000E+00  2.00750E-01
      21    -1     0     0   511   502  0.000000000E+00  0.000000000E+00  2.127551140E+01  2.127551140E+01  0.000000000E+00  0.00000E+00  9.000E+00
      21    -1     0     0   502   503  0.000000000E+00  0.000000000E+00 -9.948041037E+02  9.948041037E+02  0.000000000E+00  0.00000E+00  9.000E+00
      25     1     1     2     0     0  1.710404404E+01  3.257756021E+01 -7.014949387E+02  7.134862478E+02  1.249545158E+02  0.00000E+00  9.000E+00
       5     1     1     2   501     0  1.829997918E+00  6.366978632E-01  1.028521497E+01  1.149358184E+01  4.750000000E+00  0.00000E+00  9.000E+00
      -5     1     1     2     0   503 -2.638648043E+01 -3.465974512E+01 -2.796358748E+02  2.830482808E+02  4.750000000E+00  0.00000E+00  9.000E+00
      21     1     1     2   511   501  7.452438473E+00  1.445487041E+00 -2.682993784E+00  8.051504680E+00  2.842960362E-07  0.00000E+00  9.000E+00
#rwgt            1           9  -8.7090265898175090E-003           8     1954026           0
</event>
<event>
      6   9999 -3.45752E-01  8.99133E+00 -1.00000E+00  1.92193E-01
      21    -1     0     0   501   502  0.000000000E+00  0.000000000E+00  2.037239061E+01  2.037239061E+01  0.000000000E+00  0.00000E+00  9.000E+00
      21    -1     0     0   502   512  0.000000000E+00  0.000000000E+00 -1.052486425E+03  1.052486425E+03  0.000000000E+00  0.00000E+00  9.000E+00
      25     1     1     2     0     0  7.590517183E+00 -1.498552590E+00 -8.582969269E+02  8.673859432E+02  1.249995925E+02  0.00000E+00  9.000E+00
       5     1     1     2   501     0 -2.382639787E+00 -9.331610735E-02  1.491187938E+01  1.583073993E+01  4.750000000E+00  0.00000E+00  9.000E+00
      -5     1     1     2     0   503  2.233605282E+00  6.638479783E+00 -1.244393774E+02  1.247268197E+02  4.750000000E+00  0.00000E+00  9.000E+00
      21     1     1     2   503   512 -7.441482677E+00 -5.046611085E+00 -6.428960990E+01  6.491531321E+01  9.536743164E-07  0.00000E+00  9.000E+00
#rwgt            1           9  -5.3034144647388049E-003           8     1957441           0
</event>
<event>
      6   9999  3.45752E-01  2.70966E+01 -1.00000E+00  1.50756E-01
      21    -1     0     0   511   502  0.000000000E+00  0.000000000E+00  9.893680945E+01  9.893680945E+01  0.000000000E+00  0.00000E+00  9.000E+00
      21    -1     0     0   502   503  0.000000000E+00  0.000000000E+00 -3.143214552E+02  3.143214552E+02  0.000000000E+00  0.00000E+00  9.000E+00
      25     1     1     2     0     0 -2.002964293E+01  5.044446778E+00 -2.656856372E+02  2.943486686E+02  1.250025913E+02  0.00000E+00  9.000E+00
       5     1     1     2   501     0 -1.362824243E+00  5.380329916E+00  6.994994125E+01  7.033037766E+01  4.750000000E+00  0.00000E+00  9.000E+00
      -5     1     1     2     0   503  9.130120369E+00  1.373842573E+01 -5.593805085E+00  1.805426805E+01  4.750000000E+00  0.00000E+00  9.000E+00
      21     1     1     2   511   501  1.226234680E+01 -2.416320242E+01 -1.405514468E+01  3.052495033E+01  4.129530925E-07  0.00000E+00  9.000E+00
#rwgt            1           9   9.2651976480810578                8     1960653           0
</event>
<event>
      6   9999  3.45752E-01  1.95724E+01 -1.00000E+00  1.60930E-01
      21    -1     0     0   501   502  0.000000000E+00  0.000000000E+00  3.478653595E+02  3.478653595E+02  0.000000000E+00  0.00000E+00  9.000E+00
      21    -1     0     0   502   512  0.000000000E+00  0.000000000E+00 -5.357697179E+01  5.357697179E+01  0.000000000E+00  0.00000E+00  9.000E+00
      25     1     1     2     0     0 -2.975429277E+00 -8.166662102E+00  9.941913981E+01  1.599545861E+02  1.250030268E+02  0.00000E+00  9.000E+00
       5     1     1     2   501     0  6.158897051E+00  2.394842104E+00  1.541588384E+02  1.543734991E+02  4.750000000E+00  0.00000E+00  9.000E+00
      -5     1     1     2     0   503  1.608961492E+01  9.181478501E+00  5.795493834E+01  6.102878528E+01  4.750000000E+00  0.00000E+00  9.000E+00
      21     1     1     2   503   512 -1.927308269E+01 -3.409658503E+00 -1.724452886E+01  2.608546076E+01  2.384185791E-07  0.00000E+00  9.000E+00
#rwgt            1           9   2.9908862226140782E-005           8     1962222           0
</event>
<event>
      6   9999  3.45752E-01  1.06155E+01 -1.00000E+00  1.84502E-01
      21    -1     0     0   502   503  0.000000000E+00  0.000000000E+00  9.984159793E+01  9.984159793E+01  0.000000000E+00  0.00000E+00  9.000E+00
      21    -1     0     0   501   511  0.000000000E+00  0.000000000E+00 -4.317369327E+02  4.317369327E+02  0.000000000E+00  0.00000E+00  9.000E+00
      25     1     1     2     0     0 -5.723419409E+00  1.699913061E+01  4.108477147E+00  1.263335654E+02  1.249862480E+02  0.00000E+00  9.000E+00
       5     1     1     2   501     0 -1.096071126E+00  4.928903810E-01  1.600931511E+01  1.674231116E+01  4.750000000E+00  0.00000E+00  9.000E+00
      -5     1     1     2     0   503 -4.089017051E-01 -9.717724440E+00  1.655614423E+01  1.978054046E+01  4.750000000E+00  0.00000E+00  9.000E+00
      21     1     1     2   502   511  7.228392240E+00 -7.774296549E+00 -3.685692713E+02  3.687221136E+02  5.394796609E-06  0.00000E+00  9.000E+00
#rwgt            1           9   1.1354108247562929E-004           8     1964030           0
</event>
<event>
      6   9999  3.45752E-01  1.14052E+01 -1.00000E+00  1.81373E-01
      21    -1     0     0   512   502  0.000000000E+00  0.000000000E+00  1.122414764E+03  1.122414764E+03  0.000000000E+00  0.00000E+00  9.000E+00
      21    -1     0     0   502   503  0.000000000E+00  0.000000000E+00 -7.284719074E+00  7.284719074E+00  0.000000000E+00  0.00000E+00  9.000E+00
      25     1     1     2     0     0  1.114510692E+01  9.463208868E-01  5.706348810E+02  5.842727912E+02  1.250016728E+02  0.00000E+00  9.000E+00
       5     1     1     2   501     0  2.698312903E-01 -5.833243805E-01  1.397066967E+02  1.397889004E+02  4.750000000E+00  0.00000E+00  9.000E+00
      -5     1     1     2     0   503 -2.503725930E+00 -7.481174008E+00  6.405926236E+01  6.471775801E+01  4.750000000E+00  0.00000E+00  9.000E+00
      21     1     1     2   512   501 -8.911212280E+00  7.118177502E+00  3.407292045E+02  3.409200331E+02  0.000000000E+00  0.00000E+00  9.000E+00
#rwgt            1           9   4.1317196101632252E-002           8     1966212           0
</event>
<event>
      6   9999  3.45752E-01  2.37041E+00 -1.00000E+00  3.06726E-01
      21    -1     0     0   511   502  0.000000000E+00  0.000000000E+00  1.742127643E+01  1.742127643E+01  0.000000000E+00  0.00000E+00  9.000E+00
      21    -1     0     0   502   503  0.000000000E+00  0.000000000E+00 -7.651181503E+02  7.651181503E+02  0.000000000E+00  0.00000E+00  9.000E+00
      25     1     1     2     0     0  3.629251989E+00 -1.119783464E+00 -7.264308617E+02  7.371172575E+02  1.250025160E+02  0.00000E+00  9.000E+00
       5     1     1     2   501     0  7.314873465E-03  1.114292842E+00  2.351498817E+00  5.416063952E+00  4.750000000E+00  0.00000E+00  9.000E+00
      -5     1     1     2     0   503 -1.281855234E+00 -2.668435830E-01 -3.144442987E+01  3.182811694E+01  4.750000000E+00  0.00000E+00  9.000E+00
      21     1     1     2   511   501 -2.354711628E+00  2.723342050E-01  7.826918949E+00  8.177988322E+00  2.064765462E-07  0.00000E+00  9.000E+00
#rwgt            1           9   8.1857960412968334E-006           8     1967982           0
</event>
<event>
      6   9999  3.45752E-01  2.61692E+01 -1.00000E+00  1.51781E-01
      21    -1     0     0   501   512  0.000000000E+00  0.000000000E+00  1.086622114E+02  1.086622114E+02  0.000000000E+00  0.00000E+00  9.000E+00
      21    -1     0     0   502   503  0.000000000E+00  0.000000000E+00 -1.639796589E+03  1.639796589E+03  0.000000000E+00  0.00000E+00  9.000E+00
      25     1     1     2     0     0 -5.459265496E+00  1.306473591E+01 -2.547708492E+02  2.841363614E+02  1.249991814E+02  0.00000E+00  9.000E+00
       5     1     1     2   501     0 -2.593640131E+01 -1.362846990E+01  8.792374762E+01  9.279859913E+01  4.750000000E+00  0.00000E+00  9.000E+00
      -5     1     1     2     0   503  9.489128801E+00 -1.375163432E+01 -1.319771967E+03  1.319886267E+03  4.750000000E+00  0.00000E+00  9.000E+00
      21     1     1     2   502   512  2.190653800E+01  1.431536831E+01 -4.451530942E+01  5.163757304E+01  8.259061849E-07  0.00000E+00  9.000E+00
#rwgt            1           9   4.4881149538051989E-004           8     1975161           0
</event>
<event>
      6   9999  3.45752E-01  1.03978E+01 -1.00000E+00  1.85427E-01
      21    -1     0     0   501   502  0.000000000E+00  0.000000000E+00  8.355064925E+00  8.355064925E+00  0.000000000E+00  0.00000E+00  9.000E+00
      21    -1     0     0   511   503  0.000000000E+00  0.000000000E+00 -8.586608644E+02  8.586608644E+02  0.000000000E+00  0.00000E+00  9.000E+00
      25     1     1     2     0     0  1.327871627E+00  8.089968822E+00 -7.329751710E+02  7.436033169E+02  1.250043231E+02  0.00000E+00  9.000E+00
       5     1     1     2   501     0  1.921643583E+00  1.843622274E+00 -3.631568066E-01  5.457658840E+00  4.750000000E+00  0.00000E+00  9.000E+00
      -5     1     1     2     0   503  4.398662534E-01 -2.123526745E-01 -3.219264304E+01  3.254485124E+01  4.750000000E+00  0.00000E+00  9.000E+00
      21     1     1     2   511   502 -3.689381464E+00 -9.721238422E+00 -8.477482866E+01  8.541010236E+01  1.348699152E-06  0.00000E+00  9.000E+00
#rwgt            1           9  0.41069871257140295                8     1977566           0
</event>
<event>
      6   9999  3.45752E-01  1.95071E+01 -1.00000E+00  1.61042E-01
      21    -1     0     0   501   502  0.000000000E+00  0.000000000E+00  1.773753419E+01  1.773753419E+01  0.000000000E+00  0.00000E+00  9.000E+00
      21    -1     0     0   502   512  0.000000000E+00  0.000000000E+00 -1.033077538E+03  1.033077538E+03  0.000000000E+00  0.00000E+00  9.000E+00
      25     1     1     2     0     0  1.606810945E+01 -1.822694054E+01 -3.166002780E+02  3.412499753E+02  1.250016166E+02  0.00000E+00  9.000E+00
       5     1     1     2   501     0  3.013996464E+00 -4.971299245E-01  3.309579325E+00  6.545771777E+00  4.750000000E+00  0.00000E+00  9.000E+00
      -5     1     1     2     0   503 -1.142100690E+00  1.106366917E+01 -1.126635878E+02  1.133108807E+02  4.750000000E+00  0.00000E+00  9.000E+00
      21     1     1     2   503   512 -1.794000523E+01  7.660401287E+00 -5.893857174E+02  5.897084444E+02  1.078959322E-05  0.00000E+00  9.000E+00
#rwgt            1           9   5.4547507104164552                8     1980751           0
</event>
<event>
      6   9999  3.45752E-01  3.06241E+01 -1.00000E+00  1.47262E-01
      -1    -1     0     0     0   502  0.000000000E+00  0.000000000E+00  7.839889765E+01  7.839889765E+01  0.000000000E+00  0.00000E+00  9.000E+00
      21    -1     0     0   502   503  0.000000000E+00  0.000000000E+00 -7.655444851E+02  7.655444851E+02  0.000000000E+00  0.00000E+00  9.000E+00
      25     1     1     2     0     0  4.014861890E+01 -2.953194291E+01 -6.317083854E+02  6.458831262E+02  1.250019249E+02  0.00000E+00  9.000E+00
       5     1     1     2   501     0 -1.326457910E+01  1.794669838E+01 -9.598843080E+01  9.866293320E+01  4.750000000E+00  0.00000E+00  9.000E+00
      -5     1     1     2     0   503  1.766164749E+00  7.686713181E-01 -2.580826466E+01  2.631233965E+01  4.750000000E+00  0.00000E+00  9.000E+00
      -1     1     1     2     0   501 -2.865020455E+01  1.081657321E+01  6.635949342E+01  7.308498371E+01  2.132480600E-06  0.00000E+00  9.000E+00
#rwgt            1           9   1.1793177456663776E-002           8     1982188           0
</event>
<event>
      6   9999  3.45752E-01  6.80628E+00 -1.00000E+00  2.06704E-01
      21    -1     0     0   501   511  0.000000000E+00  0.000000000E+00  1.755944289E+01  1.755944289E+01  0.000000000E+00  0.00000E+00  9.000E+00
      21    -1     0     0   502   503  0.000000000E+00  0.000000000E+00 -8.205842025E+02  8.205842025E+02  0.000000000E+00  0.00000E+00  9.000E+00
      25     1     1     2     0     0 -6.010409278E+00  1.847204365E+00 -7.799699896E+02  7.899476814E+02  1.249984699E+02  0.00000E+00  9.000E+00
       5     1     1     2   501     0 -1.136960318E+00  1.438499967E+00  5.065858324E+00  7.182435623E+00  4.750000000E+00  0.00000E+00  9.000E+00
      -5     1     1     2     0   503  1.192703039E+00  1.086780242E-02 -3.253468736E+01  3.290123159E+01  4.750000000E+00  0.00000E+00  9.000E+00
      21     1     1     2   502   511  5.954666557E+00 -3.296572134E+00  4.414059038E+00  8.112296767E+00  3.097148194E-07  0.00000E+00  9.000E+00
#rwgt            1           9   3.0666348660152643E-005           8     1982925           0
</event>
<event>
      6   9999  3.45752E-01  4.23999E+01 -1.00000E+00  1.38734E-01
      21    -1     0     0   512   503  0.000000000E+00  0.000000000E+00  1.092129947E+01  1.092129947E+01  0.000000000E+00  0.00000E+00  9.000E+00
      21    -1     0     0   501   502  0.000000000E+00  0.000000000E+00 -9.043875821E+02  9.043875821E+02  0.000000000E+00  0.00000E+00  9.000E+00
      25     1     1     2     0     0  3.570836714E+01  2.100124355E+01 -7.332001611E+02  7.449332452E+02  1.250076953E+02  0.00000E+00  9.000E+00
       5     1     1     2   501     0 -2.297473384E+00  3.825864724E+00 -3.422963200E+01  3.484459545E+01  4.750000000E+00  0.00000E+00  9.000E+00
      -5     1     1     2     0   503  1.702715231E+00 -1.061814189E+00 -3.153229931E+01  3.195113594E+01  4.750000000E+00  0.00000E+00  9.000E+00
      21     1     1     2   512   502 -3.511360899E+01 -2.376529408E+01 -9.450419020E+01  1.035799049E+02  2.336015456E-06  0.00000E+00  9.000E+00
#rwgt            1           9   6.6674978725415378E-003           8     1986496           0
</event>
<event>
      6   9999 -3.45752E-01  1.37707E+01 -1.00000E+00  1.73654E-01
      21    -1     0     0   501   502  0.000000000E+00  0.000000000E+00  5.415811221E+00  5.415811221E+00  0.000000000E+00  0.00000E+00  9.000E+00
      21    -1     0     0   502   511  0.000000000E+00  0.000000000E+00 -1.890828126E+03  1.890828126E+03  0.000000000E+00  0.00000E+00  9.000E+00
      25     1     1     2     0     0  1.365820756E+01 -1.581457555E+01 -1.589404451E+03  1.594449795E+03  1.250079623E+02  0.00000E+00  9.000E+00
       5     1     1     2   501     0  8.105594319E-01  1.070257816E+00 -9.768284300E-01  5.031814004E+00  4.750000000E+00  0.00000E+00  9.000E+00
      -5     1     1     2     0   503 -9.894112730E-01  1.756199091E+01 -1.630453191E+02  1.640601750E+02  4.750000000E+00  0.00000E+00  9.000E+00
      21     1     1     2   503   511 -1.347935572E+01 -2.817673178E+00 -1.319857163E+02  1.327021538E+02  2.697398305E-06  0.00000E+00  9.000E+00
#rwgt            1           9 -0.27560362665844995                8     1987125           0
</event>
<event>
      6   9999  3.45752E-01  2.18621E+01 -1.00000E+00  1.57314E-01
      21    -1     0     0   501   512  0.000000000E+00  0.000000000E+00  1.880590320E+02  1.880590320E+02  0.000000000E+00  0.00000E+00  9.000E+00
      21    -1     0     0   502   503  0.000000000E+00  0.000000000E+00 -1.974608147E+02  1.974608147E+02  0.000000000E+00  0.00000E+00  9.000E+00
      25     1     1     2     0     0 -6.823348373E+00  1.497678040E+01 -1.447693432E+02  1.919721652E+02  1.249971497E+02  0.00000E+00  9.000E+00
       5     1     1     2   501     0 -5.666273442E-01  1.020280596E+00  1.623617667E-01  4.893965712E+00  4.750000000E+00  0.00000E+00  9.000E+00
      -5     1     1     2     0   503  2.041641694E+00  5.200710582E+00 -2.546657786E+01  2.650141089E+01  4.750000000E+00  0.00000E+00  9.000E+00
      21     1     1     2   502   512  5.348334022E+00 -2.119777158E+01  1.606717766E+02  1.621523049E+02  1.907348633E-06  0.00000E+00  9.000E+00
#rwgt            1           9   1.3949824147207677                8     1989408           0
</event>
<event>
      6   9999  3.45752E-01  2.74824E+01 -1.00000E+00  1.50343E-01
      21    -1     0     0   501   511  0.000000000E+00  0.000000000E+00  9.929341282E+02  9.929341282E+02  0.000000000E+00  0.00000E+00  9.000E+00
      21    -1     0     0   502   503  0.000000000E+00  0.000000000E+00 -1.544017030E+03  1.544017030E+03  0.000000000E+00  0.00000E+00  9.000E+00
      25     1     1     2     0     0 -1.784894212E+00 -7.325312885E+00 -1.496401204E+03  1.501632041E+03  1.250015020E+02  0.00000E+00  9.000E+00
       5     1     1     2   501     0  2.179468562E+01 -2.228648937E+01  8.222468357E+01  8.806336933E+01  4.750000000E+00  0.00000E+00  9.000E+00
      -5     1     1     2     0   503 -5.351597916E+00  6.364841288E+00 -4.132475983E+01  4.241991372E+01  4.750000000E+00  0.00000E+00  9.000E+00
      21     1     1     2   502   511 -1.465819350E+01  2.324696097E+01  9.044183787E+02  9.048358346E+02  1.078959322E-05  0.00000E+00  9.000E+00
#rwgt            1           9   3.6917336031482126E-004           8     1990978           0
</event>
<event>
      6   9999  3.45752E-01  3.98714E+01 -1.00000E+00  1.40267E-01
      -2    -1     0     0     0   502  0.000000000E+00  0.000000000E+00  3.596586384E+01  3.596586384E+01  0.000000000E+00  0.00000E+00  9.000E+00
      21    -1     0     0   502   503  0.000000000E+00  0.000000000E+00 -7.629093936E+02  7.629093936E+02  0.000000000E+00  0.00000E+00  9.000E+00
      25     1     1     2     0     0  5.174327663E+01 -1.112320266E+01 -5.948171333E+02  6.101183537E+02  1.250435574E+02  0.00000E+00  9.000E+00
       5     1     1     2   501     0 -1.535301912E+00 -1.635585689E+01 -3.181291840E+01  3.611780009E+01  4.750000000E+00  0.00000E+00  9.000E+00
      -5     1     1     2     0   503 -1.491987825E+01  8.918901848E+00 -1.101157662E+02  1.115804375E+02  4.750000000E+00  0.00000E+00  9.000E+00
      -2     1     1     2     0   501 -3.528809647E+01  1.856015769E+01  9.802288103E+00  4.105866606E+01  7.251217997E-07  0.00000E+00  9.000E+00
#rwgt            1           9   6.7456624956354450                8     1993155           0
</event>
<event>
      6   9999  3.45752E-01  2.23220E+01 -1.00000E+00  1.56653E-01
      21    -1     0     0   511   502  0.000000000E+00  0.000000000E+00  6.081764747E+01  6.081764747E+01  0.000000000E+00  0.00000E+00  9.000E+00
      21    -1     0     0   502   503  0.000000000E+00  0.000000000E+00 -1.875299891E+03  1.875299891E+03  0.000000000E+00  0.00000E+00  9.000E+00
      25     1     1     2     0     0 -3.778093409E+01 -5.425482544E+00 -1.740520754E+03  1.745420978E+03  1.250002407E+02  0.00000E+00  9.000E+00
       5     1     1     2   501     0  4.384328057E-01  1.093943757E+01  1.061268686E+01  1.597044583E+01  4.750000000E+00  0.00000E+00  9.000E+00
      -5     1     1     2     0   503  3.658776734E+01  1.679528981E+01 -1.234291554E+02  1.299156087E+02  4.750000000E+00  0.00000E+00  9.000E+00
      21     1     1     2   511   501  7.547339409E-01 -2.230924483E+01  3.885497919E+01  4.481050587E+01  1.261592536E-06  0.00000E+00  9.000E+00
#rwgt            1           9   3.9360533239768278E-004           8     1993902           0
</event>
<event>
      6   9999 -3.45752E-01  2.14339E+01 -1.00000E+00  1.57948E-01
      21    -1     0     0   512   502  0.000000000E+00  0.000000000E+00  3.058412860E+02  3.058412860E+02  0.000000000E+00  0.00000E+00  9.000E+00
      21    -1     0     0   502   503  0.000000000E+00  0.000000000E+00 -9.569697811E+02  9.569697811E+02  0.000000000E+00  0.00000E+00  9.000E+00
      25     1     1     2     0     0 -3.261770154E+01 -6.279124396E+01 -3.518857744E+02  3.800750283E+02  1.250070964E+02  0.00000E+00  9.000E+00
       5     1     1     2   501     0  1.630884531E+01 -1.031774096E+01 -5.014680358E+00  2.049740795E+01  4.750000000E+00  0.00000E+00  9.000E+00
      -5     1     1     2     0   503  3.107047032E+01  5.756844273E+01 -5.759649487E+02  5.796875748E+02  4.750000000E+00  0.00000E+00  9.000E+00
      21     1     1     2   512   501 -1.476161410E+01  1.554054218E+01  2.817369084E+02  2.825510560E+02  0.000000000E+00  0.00000E+00  9.000E+00
#rwgt            1           9  -4.6048754520889024E-003           8     1995795           0
</event>
<event>
      6   9999  3.45752E-01  1.13677E+01 -1.00000E+00  1.81514E-01
      -4    -1     0     0     0   502  0.000000000E+00  0.000000000E+00  1.083151906E+02  1.083151906E+02  0.000000000E+00  0.00000E+00  9.000E+00
      21    -1     0     0   502   503  0.000000000E+00  0.000000000E+00 -8.836743161E+02  8.836743161E+02  0.000000000E+00  0.00000E+00  9.000E+00
      25     1     1     2     0     0  1.468385019E+01  1.334558442E+01 -6.998983380E+02  7.112496077E+02  1.249984032E+02  0.00000E+00  9.000E+00
       5     1     1     2   501     0  2.529821433E+00 -2.115890272E+00  4.620894946E-01  5.801121860E+00  4.750000000E+00  0.00000E+00  9.000E+00
      -5     1     1     2     0   503 -6.705403093E+00 -1.556571660E+01 -1.746623878E+02  1.755470483E+02  4.750000000E+00  0.00000E+00  9.000E+00
      -4     1     1     2     0   501 -1.050826853E+01  4.336022456E+00  9.873951073E+01  9.939172892E+01  1.907348633E-06  0.00000E+00  9.000E+00
#rwgt            1           9   2.0469933465445022E-002           8     1997639           0
</event>
<event>
      6   9999  3.45752E-01  1.36259E+01 -1.00000E+00  1.74069E-01
      21    -1     0     0   511   502  0.000000000E+00  0.000000000E+00  2.161747671E+02  2.161747671E+02  0.000000000E+00  0.00000E+00  9.000E+00
      21    -1     0     0   502   503  0.000000000E+00  0.000000000E+00 -1.000622154E+03  1.000622154E+03  0.000000000E+00  0.00000E+00  9.000E+00
      25     1     1     2     0     0 -1.977968595E+00  3.232072437E+01 -8.158860977E+02  8.260407609E+02  1.249986908E+02  0.00000E+00  9.000E+00
       5     1     1     2   501     0 -3.953931752E+00 -5.677606503E+00  1.256570453E+01  1.511053349E+01  4.750000000E+00  0.00000E+00  9.000E+00
      -5     1     1     2     0   503 -4.924280746E+00 -3.487767814E+01 -1.763761077E+02  1.799216353E+02  4.750000000E+00  0.00000E+00  9.000E+00
      21     1     1     2   511   501  1.085618109E+01  8.234560275E+00  1.952491135E+02  1.957239918E+02  0.000000000E+00  0.00000E+00  9.000E+00
#rwgt            1           9   7.7308264140640447E-004           8     1999946           0
</event>
<event>
      6   9999  3.45752E-01  2.52096E+00 -1.00000E+00  2.98291E-01
      21    -1     0     0   501   502  0.000000000E+00  0.000000000E+00  1.419901817E+01  1.419901817E+01  0.000000000E+00  0.00000E+00  9.000E+00
       1    -1     0     0   502     0  0.000000000E+00  0.000000000E+00 -2.781575449E+03  2.781575449E+03  0.000000000E+00  0.00000E+00  9.000E+00
      25     1     1     2     0     0  1.527643726E+01 -4.835220336E+00 -3.633454168E+02  3.845795405E+02  1.249991287E+02  0.00000E+00  9.000E+00
       5     1     1     2   501     0 -1.132056790E+00  1.025350444E+00  1.616480328E+00  5.244845542E+00  4.750000000E+00  0.00000E+00  9.000E+00
      -5     1     1     2     0   503 -1.654399819E+01  3.037150005E+00 -5.074562710E+02  5.077571838E+02  4.750000000E+00  0.00000E+00  9.000E+00
       1     1     1     2   503     0  2.399617717E+00  7.727198877E-01 -1.898191224E+03  1.898192898E+03  3.051757812E-05  0.00000E+00  9.000E+00
#rwgt            1           9   7.2118391594082549E-005           8     2002348           0
</event>
<event>
      6   9999  3.45752E-01  5.21218E+00 -1.00000E+00  2.22943E-01
      21    -1     0     0   511   503  0.000000000E+00  0.000000000E+00  3.375680109E+01  3.375680109E+01  0.000000000E+00  0.00000E+00  9.000E+00
      21    -1     0     0   501   502  0.000000000E+00  0.000000000E+00 -2.231035392E+03  2.231035392E+03  0.000000000E+00  0.00000E+00  9.000E+00
      25     1     1     2     0     0 -4.844718265E+00 -8.694449880E-01 -2.199048674E+03  2.202603812E+03  1.249970183E+02  0.00000E+00  9.000E+00
       5     1     1     2   501     0  9.638893509E-02  2.536274626E-01 -1.899744039E+01  1.958414816E+01  4.750000000E+00  0.00000E+00  9.000E+00
      -5     1     1     2     0   503  2.555304986E-01  3.258085338E+00 -9.921820114E+00  1.147542724E+01  4.750000000E+00  0.00000E+00  9.000E+00
      21     1     1     2   511   502  4.492798831E+00 -2.642267812E+00  3.068934291E+01  3.112880642E+01  2.311553887E-06  0.00000E+00  9.000E+00
#rwgt            1           9   6.3161707565656633E-005           8     2009843           0
</event>
<event>
      6   9999  3.45752E-01  4.58624E+00 -1.00000E+00  2.36165E-01
      21    -1     0     0   501   502  0.000000000E+00  0.000000000E+00  7.880403118E+02  7.880403118E+02  0.000000000E+00  0.00000E+00  9.000E+00
      21    -1     0     0   502   512  0.000000000E+00  0.000000000E+00 -8.513016718E+02  8.513016718E+02  0.000000000E+00  0.00000E+00  9.000E+00
      25     1     1     2     0     0  3.151361619E+01 -5.541405105E+01 -1.432033866E+02  2.004910090E+02  1.250024388E+02  0.00000E+00  9.000E+00
       5     1     1     2   501     0 -4.581885148E+01  5.963297161E+01  7.422682010E+02  7.460831744E+02  4.750000000E+00  0.00000E+00  9.000E+00
      -5     1     1     2     0   503  1.745165403E+01 -7.555634880E+00  8.899121130E+00  2.152683682E+01  4.750000000E+00  0.00000E+00  9.000E+00
      21     1     1     2   503   512 -3.146418743E+00  3.336714318E+00 -6.712252955E+02  6.712409634E+02  7.629394531E-06  0.00000E+00  9.000E+00
#rwgt            1           9   6.3843370617299696E-003           8     2013565           0
</event>
<event>
      6   9999  3.45752E-01  1.23311E+01 -1.00000E+00  1.78091E-01
       3    -1     0     0   501     0  0.000000000E+00  0.000000000E+00  4.512959437E+02  4.512959437E+02  0.000000000E+00  0.00000E+00  9.000E+00
      21    -1     0     0   511   502  0.000000000E+00  0.000000000E+00 -1.122583764E+02  1.122583764E+02  0.000000000E+00  0.00000E+00  9.000E+00
      25     1     1     2     0     0 -3.296071960E+01 -9.762338463E+01 -3.363082428E+01  1.654462687E+02  1.249988049E+02  0.00000E+00  9.000E+00
       5     1     1     2   501     0 -1.311914685E+00  7.435606977E-01  7.016934095E+01  7.034609379E+01  4.750000000E+00  0.00000E+00  9.000E+00
      -5     1     1     2     0   502  2.748379836E+01  1.071738878E+02  2.889323646E+02  3.094286270E+02  4.750000000E+00  0.00000E+00  9.000E+00
       3     1     1     2   511     0  6.788835934E+00 -1.029406384E+01  1.356668601E+01  1.833333066E+01  3.371747881E-07  0.00000E+00  9.000E+00
#rwgt            1           8   3.0766064546151126E-006           8     2021418           0
</event>
<event>
      6   9999  3.45752E-01  6.88551E+00 -1.00000E+00  2.06056E-01
      21    -1     0     0   501   502  0.000000000E+00  0.000000000E+00  1.088314187E+03  1.088314187E+03  0.000000000E+00  0.00000E+00  9.000E+00
      21    -1     0     0   502   512  0.000000000E+00  0.000000000E+00 -3.142786526E+01  3.142786526E+01  0.000000000E+00  0.00000E+00  9.000E+00
      25     1     1     2     0     0 -4.607323360E+00  3.324570223E+00  8.400214330E+02  8.492899755E+02  1.250006976E+02  0.00000E+00  9.000E+00
       5     1     1     2   501     0 -3.785716819E-01  9.939596454E-02  2.061199070E+02  2.061750027E+02  4.750000000E+00  0.00000E+00  9.000E+00
      -5     1     1     2     0   503 -1.991311084E-02  1.303836251E+00  3.690183445E+01  3.722913202E+01  4.750000000E+00  0.00000E+00  9.000E+00
      21     1     1     2   503   512  5.005808153E+00 -4.727802439E+00 -2.615685262E+01  2.704794207E+01  1.581489940E-06  0.00000E+00  9.000E+00
#rwgt            1           9   1.6003971394858044E-002           8     2022340           0
</event>
<event>
      6   9999  3.45752E-01  5.46439E+00 -1.00000E+00  2.19875E-01
      21    -1     0     0   501   511  0.000000000E+00  0.000000000E+00  8.900540151E+00  8.900540151E+00  0.000000000E+00  0.00000E+00  9.000E+00
      21    -1     0     0   502   503  0.000000000E+00  0.000000000E+00 -7.491689293E+02  7.491689293E+02  0.000000000E+00  0.00000E+00  9.000E+00
      25     1     1     2     0     0 -8.950314093E+00  7.079178968E+00 -5.749935759E+02  5.885376668E+02  1.250149992E+02  0.00000E+00  9.000E+00
       5     1     1     2   501     0 -5.824515000E+00 -5.224134517E+00 -1.602280291E+01  1.845289326E+01  4.750000000E+00  0.00000E+00  9.000E+00
      -5     1     1     2     0   503  9.375260589E+00 -2.694201518E+00 -1.393291213E+02  1.397509241E+02  4.750000000E+00  0.00000E+00  9.000E+00
      21     1     1     2   502   511  5.399568504E+00  8.391570672E-01 -9.922888919E+00  1.132798522E+01  2.665600750E-07  0.00000E+00  9.000E+00
#rwgt            1           9  0.22205857951412303                8     2025079           0
</event>
<event>
      6   9999  3.45752E-01  3.67241E+00 -1.00000E+00  2.55790E-01
      21    -1     0     0   501   502  0.000000000E+00  0.000000000E+00  6.426602811E+02  6.426602811E+02  0.000000000E+00  0.00000E+00  9.000E+00
      21    -1     0     0   502   512  0.000000000E+00  0.000000000E+00 -8.792418187E+01  8.792418187E+01  0.000000000E+00  0.00000E+00  9.000E+00
      25     1     1     2     0     0  1.004343663E+01 -1.135201286E+01  4.266579776E+01  1.329023393E+02  1.249516814E+02  0.00000E+00  9.000E+00
       5     1     1     2   501     0 -2.418500559E+00  9.292517148E+00  5.502466320E+02  5.503509049E+02  4.750000000E+00  0.00000E+00  9.000E+00
      -5     1     1     2     0   503 -7.514568615E+00  5.730251807E+00 -1.750342452E+00  1.072057489E+01  4.750000000E+00  0.00000E+00  9.000E+00
      21     1     1     2   503   512 -1.103674561E-01 -3.670756096E+00 -3.642598811E+01  3.661064382E+01  6.743495762E-07  0.00000E+00  9.000E+00
#rwgt            1           9  0.81669071795338921                8     2028641           0
</event>
<event>
      6   9999  3.45752E-01  1.59664E+01 -1.00000E+00  1.68054E-01
      21    -1     0     0   511   502  0.000000000E+00  0.000000000E+00  6.706232803E+01  6.706232803E+01  0.000000000E+00  0.00000E+00  9.000E+00
      21    -1     0     0   502   503  0.000000000E+00  0.000000000E+00 -1.460029218E+02  1.460029218E+02  0.000000000E+00  0.00000E+00  9.000E+00
      25     1     1     2     0     0 -1.349438305E+01  2.559159896E+01 -9.271949492E+01  1.583013412E+02  1.250015263E+02  0.00000E+00  9.000E+00
       5     1     1     2   501     0 -1.128487178E+00  1.873252760E-01  7.255100104E+00  8.746859527E+00  4.750000000E+00  0.00000E+00  9.000E+00
      -5     1     1     2     0   503  2.087482742E+00 -1.588999921E+01 -1.272510716E+01  2.100810585E+01  4.750000000E+00  0.00000E+00  9.000E+00
      21     1     1     2   511   501  1.253538748E+01 -9.888925026E+00  1.924890819E+01  2.500894328E+01  3.371747881E-07  0.00000E+00  9.000E+00
#rwgt            1           9   1.6325908400951845E-002           8     2035047           0
</event>
<event>
      6   9999  3.45752E-01  1.58389E+01 -1.00000E+00  1.68348E-01
      21    -1     0     0   501   502  0.000000000E+00  0.000000000E+00  6.857523526E+01  6.857523526E+01  0.000000000E+00  0.00000E+00  9.000E+00
      21    -1     0     0   512   503  0.000000000E+00  0.000000000E+00 -1.183450667E+02  1.183450667E+02  0.000000000E+00  0.00000E+00  9.000E+00
      25     1     1     2     0     0 -1.106745172E+01  1.032903769E+01 -3.184365009E+01  1.298777150E+02  1.250001012E+02  0.00000E+00  9.000E+00
       5     1     1     2   501     0  7.952555259E+00 -1.981835783E+01  4.092361916E+00  2.225579404E+01  4.750000000E+00  0.00000E+00  9.000E+00
      -5     1     1     2     0   503 -2.062476021E+00 -5.479483771E+00  1.506594991E-01  7.540805529E+00  4.750000000E+00  0.00000E+00  9.000E+00
      21     1     1     2   512   502  5.177372482E+00  1.496880391E+01 -2.216920277E+01  2.724598737E+01  4.129530925E-07  0.00000E+00  9.000E+00
#rwgt            1           9  0.49047061681114285                8     2037458           0
</event>
<event>
      6   9999  3.45752E-01  6.22786E+00 -1.00000E+00  2.11828E-01
      21    -1     0     0   501   511  0.000000000E+00  0.000000000E+00  7.762629719E+02  7.762629719E+02  0.000000000E+00  0.00000E+00  9.000E+00
      21    -1     0     0   502   503  0.000000000E+00  0.000000000E+00 -7.229383042E+02  7.229383042E+02  0.000000000E+00  0.00000E+00  9.000E+00
      25     1     1     2     0     0 -1.794761390E+00 -2.808117036E+00 -5.586424840E+02  5.724748429E+02  1.250396502E+02  0.00000E+00  9.000E+00
       5     1     1     2   501     0 -2.528368745E-01 -1.349981750E+00  1.068378316E+00  5.058686533E+00  4.750000000E+00  0.00000E+00  9.000E+00
      -5     1     1     2     0   503 -4.031950643E+00  2.807064260E+00 -1.552966911E+02  1.554469717E+02  4.750000000E+00  0.00000E+00  9.000E+00
      21     1     1     2   502   511  6.079548907E+00  1.351034527E+00  7.661954645E+02  7.662207750E+02  1.078959322E-05  0.00000E+00  9.000E+00
#rwgt            1           9   7.6515418916326284E-004           8     2039222           0
</event>
<event>
      6   9999 -3.45752E-01  5.22247E+00 -1.00000E+00  2.22813E-01
      21    -1     0     0   501   502  0.000000000E+00  0.000000000E+00  4.481187358E+00  4.481187358E+00  0.000000000E+00  0.00000E+00  9.000E+00
      21    -1     0     0   512   503  0.000000000E+00  0.000000000E+00 -4.519929405E+03  4.519929405E+03  0.000000000E+00  0.00000E+00  9.000E+00
      25     1     1     2     0     0  3.610015531E+01 -3.641488319E+01 -2.844118883E+03  2.847326099E+03  1.249977121E+02  0.00000E+00  9.000E+00
       5     1     1     2   501     0 -4.561237930E+00 -7.535095930E-01 -1.918452259E+00  6.900407758E+00  4.750000000E+00  0.00000E+00  9.000E+00
      -5     1     1     2     0   503 -3.194973405E+01  3.196210223E+01 -1.532745216E+03  1.533418671E+03  4.750000000E+00  0.00000E+00  9.000E+00
      21     1     1     2   512   502  4.108166647E-01  5.206290546E+00 -1.366656673E+02  1.367654154E+02  0.000000000E+00  0.00000E+00  9.000E+00
#rwgt            1           9  -1.2757774339240188E-002           8     2042327           0
</event>
<event>
      6   9999  3.45752E-01  3.44648E+01 -1.00000E+00  1.44043E-01
      21    -1     0     0   501   511  0.000000000E+00  0.000000000E+00  2.233111148E+02  2.233111148E+02  0.000000000E+00  0.00000E+00  9.000E+00
      21    -1     0     0   502   503  0.000000000E+00  0.000000000E+00 -8.137475593E+02  8.137475593E+02  0.000000000E+00  0.00000E+00  9.000E+00
      25     1     1     2     0     0 -3.367221417E+01  1.360374742E+01 -7.382985384E+02  7.496862303E+02  1.250033281E+02  0.00000E+00  9.000E+00
       5     1     1     2   501     0  4.199711107E+00  1.149706032E+00  1.855612468E+02  1.856730950E+02  4.750000000E+00  0.00000E+00  9.000E+00
      -5     1     1     2     0   503  2.587539980E+00  6.810880296E+00 -6.001413562E+01  6.064109521E+01  4.750000000E+00  0.00000E+00  9.000E+00
      21     1     1     2   502   511  2.688496309E+01 -2.156433375E+01  2.231498282E+01  4.105825359E+01  9.830249847E-07  0.00000E+00  9.000E+00
#rwgt            1           9   2.1638376101057631E-004           8     2046534           0
</event>
<event>
      6   9999  3.45752E-01  4.70573E+00 -1.00000E+00  2.34095E-01
      21    -1     0     0   501   512  0.000000000E+00  0.000000000E+00  6.812687600E+01  6.812687600E+01  0.000000000E+00  0.00000E+00  9.000E+00
      21    -1     0     0   502   503  0.000000000E+00  0.000000000E+00 -8.095489476E+02  8.095489476E+02  0.000000000E+00  0.00000E+00  9.000E+00
      25     1     1     2     0     0 -3.452241501E+00 -5.614501798E-01 -7.494799856E+02  7.598406154E+02  1.250011150E+02  0.00000E+00  9.000E+00
       5     1     1     2   501     0  5.664026955E-01  2.251506301E-01  4.608746178E+00  6.646393470E+00  4.750000000E+00  0.00000E+00  9.000E+00
      -5     1     1     2     0   503 -8.218529801E-01 -2.561447952E+00 -5.363446699E+01  5.391154799E+01  4.750000000E+00  0.00000E+00  9.000E+00
      21     1     1     2   502   512  3.707691785E+00  2.897747502E+00  5.708363484E+01  5.727726675E+01  2.336015456E-06  0.00000E+00  9.000E+00
#rwgt            1           9   8.1465932947187951E-003           8     2048942           0
</event>
<event>
      6   9999  3.45752E-01  1.50277E+01 -1.00000E+00  1.70302E-01
      21    -1     0     0   501   511  0.000000000E+00  0.000000000E+00  1.701240096E+01  1.701240096E+01  0.000000000E+00  0.00000E+00  9.000E+00
      21    -1     0     0   502   503  0.000000000E+00  0.000000000E+00 -8.372737474E+02  8.372737474E+02  0.000000000E+00  0.00000E+00  9.000E+00
      25     1     1     2     0     0 -3.901696818E+01  1.186142817E+01 -5.647785739E+02  5.798822535E+02  1.250022922E+02  0.00000E+00  9.000E+00
       5     1     1     2   501     0  2.528797492E+01  1.342902781E+01 -3.455203603E+01  4.512456268E+01  4.750000000E+00  0.00000E+00  9.000E+00
      -5     1     1     2     0   503  1.586269778E+00 -3.414396154E+01 -2.028701979E+02  2.057843678E+02  4.750000000E+00  0.00000E+00  9.000E+00
      21     1     1     2   502   511  1.214272348E+01  8.853505564E+00 -1.806053857E+01  2.349496430E+01  4.768371582E-07  0.00000E+00  9.000E+00
#rwgt            1           9   6.6938427230825859                8     2053112           0
</event>
<event>
      6   9999  3.45752E-01  1.30810E+02 -1.00000E+00  1.15678E-01
      21    -1     0     0   501   502  0.000000000E+00  0.000000000E+00  2.376644683E+01  2.376644683E+01  0.000000000E+00  0.00000E+00  9.000E+00
      21    -1     0     0   512   503  0.000000000E+00  0.000000000E+00 -1.613389126E+03  1.613389126E+03  0.000000000E+00  0.00000E+00  9.000E+00
      25     1     1     2     0     0  2.624276334E+01 -1.194664336E+02 -8.072199114E+02  8.259408577E+02  1.249536056E+02  0.00000E+00  9.000E+00
       5     1     1     2   501     0  2.876089733E+01  3.043915057E+01 -7.133083514E+01  8.285156393E+01  4.750000000E+00  0.00000E+00  9.000E+00
      -5     1     1     2     0   503  1.753717580E+01 -1.982679747E+01 -1.290678189E+02  1.318397467E+02  4.750000000E+00  0.00000E+00  9.000E+00
      21     1     1     2   512   502 -7.254083648E+01  1.088540805E+02 -5.820041139E+02  5.965234047E+02  1.078959322E-05  0.00000E+00  9.000E+00
#rwgt            1           9  0.18751648195474127                8     2054860           0
</event>
<event>
      6   9999  3.45752E-01  2.02506E+01 -1.00000E+00  1.59799E-01
      21    -1     0     0   501   502  0.000000000E+00  0.000000000E+00  6.110704093E+01  6.110704093E+01  0.000000000E+00  0.00000E+00  9.000E+00
      21    -1     0     0   502   511  0.000000000E+00  0.000000000E+00 -2.182971357E+03  2.182971357E+03  0.000000000E+00  0.00000E+00  9.000E+00
      25     1     1     2     0     0 -1.483345920E+02 -4.045076539E+01 -5.868192290E+02  6.193715654E+02  1.249996516E+02  0.00000E+00  9.000E+00
       5     1     1     2   501     0 -4.419277376E+00  3.305127896E+00  3.389506229E+01  3.466830874E+01  4.750000000E+00  0.00000E+00  9.000E+00
      -5     1     1     2     0   503  1.663577734E+02  5.214626167E+01 -7.187355337E+02  7.395927739E+02  4.750000000E+00  0.00000E+00  9.000E+00
      21     1     1     2   503   511 -1.360390404E+01 -1.500062417E+01 -8.502046155E+02  8.504457496E+02  1.078959322E-05  0.00000E+00  9.000E+00
#rwgt            1           9   1.7636257904159311E-004           8     2055669           0
</event>
<event>
      6   9999  3.45752E-01  6.41009E+00 -1.00000E+00  2.10135E-01
      21    -1     0     0   501   502  0.000000000E+00  0.000000000E+00  4.125724600E+01  4.125724600E+01  0.000000000E+00  0.00000E+00  9.000E+00
      21    -1     0     0   512   503  0.000000000E+00  0.000000000E+00 -1.354553472E+03  1.354553472E+03  0.000000000E+00  0.00000E+00  9.000E+00
      25     1     1     2     0     0 -8.100872738E+00  4.396216605E+00 -1.275196561E+03  1.281340581E+03  1.249898514E+02  0.00000E+00  9.000E+00
       5     1     1     2   501     0 -2.939936001E-01  3.617787265E+00  3.729425015E+01  3.777033772E+01  4.750000000E+00  0.00000E+00  9.000E+00
      -5     1     1     2     0   503  4.050344210E+00 -3.300785497E+00 -2.810958248E+01  2.898295362E+01  4.750000000E+00  0.00000E+00  9.000E+00
      21     1     1     2   512   502  4.344522129E+00 -4.713218373E+00 -4.728433196E+01  4.771684555E+01  6.743495762E-07  0.00000E+00  9.000E+00
#rwgt            1           9   3.3089084790655713E-005           8     2058610           0
</event>
<event>
      6   9999  3.45752E-01  4.31237E+00 -1.00000E+00  2.41279E-01
      21    -1     0     0   501   502  0.000000000E+00  0.000000000E+00  9.676778627E+00  9.676778627E+00  0.000000000E+00  0.00000E+00  9.000E+00
      21    -1     0     0   511   503  0.000000000E+00  0.000000000E+00 -8.161682050E+02  8.161682050E+02  0.000000000E+00  0.00000E+00  9.000E+00
      25     1     1     2     0     0  2.066250771E+00 -2.471387759E+00 -7.488492996E+02  7.592164760E+02  1.249960268E+02  0.00000E+00  9.000E+00
       5     1     1     2   501     0  6.215196243E-01 -5.057211049E-01  2.683416712E+00  5.514097001E+00  4.750000000E+00  0.00000E+00  9.000E+00
      -5     1     1     2     0   503  8.934229850E-01  5.746997488E-01 -2.118148824E+01  2.173353235E+01  4.750000000E+00  0.00000E+00  9.000E+00
      21     1     1     2   511   502 -3.581193381E+00  2.402409116E+00 -3.914405524E+01  3.938087831E+01  4.768371582E-07  0.00000E+00  9.000E+00
#rwgt            1           9   2.9474848614494966E-004           8     2063380           0
</event>
<event>
      6   9999  3.45752E-01  4.55789E+00 -1.00000E+00  2.36670E-01
      -1    -1     0     0     0   502  0.000000000E+00  0.000000000E+00  1.836081285E+01  1.836081285E+01  0.000000000E+00  0.00000E+00  9.000E+00
      21    -1     0     0   502   503  0.000000000E+00  0.000000000E+00 -6.905583046E+02  6.905583046E+02  0.000000000E+00  0.00000E+00  9.000E+00
      25     1     1     2     0     0 -7.308103100E+00 -1.068919154E+01 -6.178115243E+02  6.304626792E+02  1.249977721E+02  0.00000E+00  9.000E+00
       5     1     1     2   501     0 -1.101934376E-01 -1.453963494E-01 -7.995063638E+00  9.301442107E+00  4.750000000E+00  0.00000E+00  9.000E+00
      -5     1     1     2     0   503  3.483829088E+00  1.313553520E+01 -5.637270342E+01  5.818181452E+01  4.750000000E+00  0.00000E+00  9.000E+00
      -1     1     1     2     0   501  3.934467450E+00 -2.300947312E+00  9.981799619E+00  1.097318168E+01  4.129530925E-07  0.00000E+00  9.000E+00
#rwgt            1           9   7.8485284565564653E-005           8     2067447           0
</event>
<event>
      6   9999  3.45752E-01  7.11300E+00 -1.00000E+00  2.04256E-01
      21    -1     0     0   501   511  0.000000000E+00  0.000000000E+00  8.591246786E+01  8.591246786E+01  0.000000000E+00  0.00000E+00  9.000E+00
      21    -1     0     0   502   503  0.000000000E+00  0.000000000E+00 -9.055723314E+02  9.055723314E+02  0.000000000E+00  0.00000E+00  9.000E+00
      25     1     1     2     0     0  6.621160908E-01 -7.494974186E+00 -8.797520952E+02  8.886191321E+02  1.249943992E+02  0.00000E+00  9.000E+00
       5     1     1     2   501     0  1.242611635E+00  2.257676349E-01  3.223708131E+00  5.877911943E+00  4.750000000E+00  0.00000E+00  9.000E+00
      -5     1     1     2     0   503  3.078027798E+00  2.193100321E+00 -1.943116823E+01  2.035722827E+01  4.750000000E+00  0.00000E+00  9.000E+00
      21     1     1     2   502   511 -4.982755523E+00  5.076106230E+00  7.629969175E+01  7.663052700E+01  1.907348633E-06  0.00000E+00  9.000E+00
#rwgt            1           9   3.5995595832266067E-004           8     2071839           0
</event>
<event>
      6   9999  3.45752E-01  2.50855E+01 -1.00000E+00  1.53046E-01
      21    -1     0     0   512   503  0.000000000E+00  0.000000000E+00  1.590155106E+01  1.590155106E+01  0.000000000E+00  0.00000E+00  9.000E+00
      21    -1     0     0   501   502  0.000000000E+00  0.000000000E+00 -8.706380563E+02  8.706380563E+02  0.000000000E+00  0.00000E+00  9.000E+00
      25     1     1     2     0     0  1.161274408E+01  3.893389971E+01 -3.878352023E+02  4.095019915E+02  1.250001303E+02  0.00000E+00  9.000E+00
       5     1     1     2   501     0 -2.158079200E+01 -1.527713334E+01 -3.818985294E+02  3.828422268E+02  4.750000000E+00  0.00000E+00  9.000E+00
      -5     1     1     2     0   503 -6.366260681E+00 -4.617993038E+00 -5.165518478E+01  5.246594848E+01  4.750000000E+00  0.00000E+00  9.000E+00
      21     1     1     2   512   502  1.633430860E+01 -1.903877333E+01 -3.334758874E+01  4.172944048E+01  4.768371582E-07  0.00000E+00  9.000E+00
#rwgt            1           9   3.1092831497531170E-002           8     2074872           0
</event>
<event>
      6   9999  3.45752E-01  1.10519E+01 -1.00000E+00  1.82732E-01
      21    -1     0     0   501   502  0.000000000E+00  0.000000000E+00  1.373528789E+02  1.373528789E+02  0.000000000E+00  0.00000E+00  9.000E+00
      21    -1     0     0   502   511  0.000000000E+00  0.000000000E+00 -4.486708675E+02  4.486708675E+02  0.000000000E+00  0.00000E+00  9.000E+00
      25     1     1     2     0     0 -5.394861238E+01  7.650944594E+01  4.656623045E+01  1.629674319E+02  1.250032877E+02  0.00000E+00  9.000E+00
       5     1     1     2   501     0 -2.769622901E-01 -1.407360102E+00  2.667400225E+01  2.713157324E+01  4.750000000E+00  0.00000E+00  9.000E+00
      -5     1     1     2     0   503  4.433972171E+01 -7.016107355E+01 -3.404054518E+02  3.504097905E+02  4.750000000E+00  0.00000E+00  9.000E+00
      21     1     1     2   503   511  9.885852960E+00 -4.941012285E+00 -4.415276945E+01  4.551495074E+01  6.743495762E-07  0.00000E+00  9.000E+00
#rwgt            1           9   140.09868855556056                8     2076241           0
</event>
<event>
      6   9999  3.45752E-01  1.72616E+01 -1.00000E+00  1.65250E-01
      21    -1     0     0   501   512  0.000000000E+00  0.000000000E+00  1.958289893E+02  1.958289893E+02  0.000000000E+00  0.00000E+00  9.000E+00
      21    -1     0     0   502   503  0.000000000E+00  0.000000000E+00 -1.003993562E+03  1.003993562E+03  0.000000000E+00  0.00000E+00  9.000E+00
      25     1     1     2     0     0 -8.213294025E+01 -2.269239428E+01 -4.427035221E+02  4.678266501E+02  1.249583987E+02  0.00000E+00  9.000E+00
       5     1     1     2   501     0  8.553724173E-01 -5.945801790E+00 -2.463163130E+00  8.044494609E+00  4.750000000E+00  0.00000E+00  9.000E+00
      -5     1     1     2     0   503  6.547682233E+01  2.168839715E+01 -5.408562262E+02  5.452573895E+02  4.750000000E+00  0.00000E+00  9.000E+00
      21     1     1     2   502   512  1.580074550E+01  6.949798915E+00  1.778583385E+02  1.786940174E+02  6.325959759E-06  0.00000E+00  9.000E+00
#rwgt            1           9   9.9839519258562145E-002           8     2080300           0
</event>
<event>
      6   9999  3.45752E-01  1.44237E+01 -1.00000E+00  1.71859E-01
      21    -1     0     0   511   502  0.000000000E+00  0.000000000E+00  1.813606875E+01  1.813606875E+01  0.000000000E+00  0.00000E+00  9.000E+00
      21    -1     0     0   502   503  0.000000000E+00  0.000000000E+00 -8.839356456E+02  8.839356456E+02  0.000000000E+00  0.00000E+00  9.000E+00
      25     1     1     2     0     0  3.028161220E+01  6.486638825E+01 -6.415786056E+02  6.575489506E+02  1.249915634E+02  0.00000E+00  9.000E+00
       5     1     1     2   501     0 -1.035772962E+00  8.377371737E-01  3.227481337E+00  5.895232394E+00  4.750000000E+00  0.00000E+00  9.000E+00
      -5     1     1     2     0   503 -2.452129675E+01 -5.207612221E+01 -1.827841791E+02  1.916920320E+02  4.750000000E+00  0.00000E+00  9.000E+00
      21     1     1     2   511   501 -4.724542480E+00 -1.362800321E+01 -4.466427344E+01  4.693549931E+01  6.743495762E-07  0.00000E+00  9.000E+00
#rwgt            1           9   3.4265199936592965                8     2082809           0
</event>
<event>
      6   9999  3.45752E-01  8.02572E+00 -1.00000E+00  1.97850E-01
      21    -1     0     0   501   502  0.000000000E+00  0.000000000E+00  1.878114083E+01  1.878114083E+01  0.000000000E+00  0.00000E+00  9.000E+00
      21    -1     0     0   502   512  0.000000000E+00  0.000000000E+00 -8.496463935E+02  8.496463935E+02  0.000000000E+00  0.00000E+00  9.000E+00
      25     1     1     2     0     0 -7.359181657E-01  1.996050058E+01 -4.290825498E+02  4.473651188E+02  1.249990074E+02  0.00000E+00  9.000E+00
       5     1     1     2   501     0 -1.287171952E+00 -2.581186403E+00  8.060658771E+00  9.790610538E+00  4.750000000E+00  0.00000E+00  9.000E+00
      -5     1     1     2     0   503  7.921503680E+00 -2.282181885E+01 -3.539433298E+02  3.547985750E+02  4.750000000E+00  0.00000E+00  9.000E+00
      21     1     1     2   503   512 -5.898413563E+00  5.442504666E+00 -5.590003193E+01  5.647323003E+01  0.000000000E+00  0.00000E+00  9.000E+00
#rwgt            1           9   1.1010327204079603E-003           8     2084952           0
</event>
<event>
      6   9999  3.45752E-01  3.16096E+00 -1.00000E+00  2.71107E-01
      21    -1     0     0   501   502  0.000000000E+00  0.000000000E+00  4.451211777E+02  4.451211777E+02  0.000000000E+00  0.00000E+00  9.000E+00
       1    -1     0     0   502     0  0.000000000E+00  0.000000000E+00 -2.746232117E+01  2.746232117E+01  0.000000000E+00  0.00000E+00  9.000E+00
      25     1     1     2     0     0 -9.073739932E-01 -8.482702535E+00  2.512677708E+02  2.807687669E+02  1.249913127E+02  0.00000E+00  9.000E+00
       5     1     1     2   501     0  3.811108501E-02  6.137650361E-01  1.209523367E+02  1.210471330E+02  4.750000000E+00  0.00000E+00  9.000E+00
      -5     1     1     2     0   503  3.991039476E+00  7.372774369E+00  5.749858265E+01  5.830039197E+01  4.750000000E+00  0.00000E+00  9.000E+00
       1     1     1     2   503     0 -3.121776568E+00  4.961631302E-01 -1.205983355E+01  1.246720706E+01  6.307962682E-07  0.00000E+00  9.000E+00
#rwgt            1           9   8.5782915900399341E-004           8     2087797           0
</event>
<event>
      6   9999 -3.45752E-01  6.78710E+00 -1.00000E+00  2.06863E-01
      21    -1     0     0   501   502  0.000000000E+00  0.000000000E+00  1.499289684E+01  1.499289684E+01  0.000000000E+00  0.00000E+00  9.000E+00
      21    -1     0     0   511   503  0.000000000E+00  0.000000000E+00 -1.203251900E+03  1.203251900E+03  0.000000000E+00  0.00000E+00  9.000E+00
      25     1     1     2     0     0 -5.240336144E+00  4.840254561E+00 -8.771133234E+02  8.860043601E+02  1.250002197E+02  0.00000E+00  9.000E+00
       5     1     1     2   501     0  2.511323605E+00 -1.010516479E+00  9.450148600E+00  1.091767825E+01  4.750000000E+00  0.00000E+00  9.000E+00
      -5     1     1     2     0   503  4.731827398E+00  2.655123010E+00 -3.999830650E+01  4.064316537E+01  4.750000000E+00  0.00000E+00  9.000E+00
      21     1     1     2   511   502 -2.002814858E+00 -6.484861091E+00 -2.805975222E+02  2.806795935E+02  3.814697266E-06  0.00000E+00  9.000E+00
#rwgt            1           9  -1.0109062137509178E-003           8     2093119           0
</event>
<event>
      6   9999  3.45752E-01  6.44061E+00 -1.00000E+00  2.09859E-01
      21    -1     0     0   512   503  0.000000000E+00  0.000000000E+00  4.791605611E+01  4.791605611E+01  0.000000000E+00  0.00000E+00  9.000E+00
      21    -1     0     0   501   502  0.000000000E+00  0.000000000E+00 -1.423542498E+03  1.423542498E+03  0.000000000E+00  0.00000E+00  9.000E+00
      25     1     1     2     0     0  1.814331684E+01  6.300780352E+00 -9.097107054E+02  9.184595490E+02  1.250019834E+02  0.00000E+00  9.000E+00
       5     1     1     2   501     0 -1.682244354E+01 -1.080271517E+00 -3.111453777E+02  3.116378830E+02  4.750000000E+00  0.00000E+00  9.000E+00
      -5     1     1     2     0   503 -6.241578299E+00 -9.375998123E+00 -1.976363256E+02  1.980140054E+02  4.750000000E+00  0.00000E+00  9.000E+00
      21     1     1     2   512   502  4.920704999E+00  4.155489288E+00  4.286596670E+01  4.334711675E+01  2.477718555E-06  0.00000E+00  9.000E+00
#rwgt            1           9   9.5620168122918781E-004           8     2097379           0
</event>
<event>
      6   9999 -3.45752E-01  1.17378E+01 -1.00000E+00  1.80150E-01
      21    -1     0     0   501   511  0.000000000E+00  0.000000000E+00  1.458540335E+03  1.458540335E+03  0.000000000E+00  0.00000E+00  9.000E+00
      21    -1     0     0   502   503  0.000000000E+00  0.000000000E+00 -1.346899897E+01  1.346899897E+01  0.000000000E+00  0.00000E+00  9.000E+00
      25     1     1     2     0     0 -7.744795391E+01 -1.131403451E+01  4.813879704E+02  5.034732802E+02  1.249990917E+02  0.00000E+00  9.000E+00
       5     1     1     2   501     0 -1.509490171E-01 -1.439889650E+00  3.032127349E+02  3.032533944E+02  4.750000000E+00  0.00000E+00  9.000E+00
      -5     1     1     2     0   503  6.639580227E+01  9.251493026E+00  5.933002298E+02  5.970943961E+02  4.750000000E+00  0.00000E+00  9.000E+00
      21     1     1     2   502   511  1.120310066E+01  3.502431132E+00  6.717040054E+01  6.818826289E+01  9.536743164E-07  0.00000E+00  9.000E+00
#rwgt            1           9  -8.8497604266556660E-004           8     2100527           0
</event>
<event>
      6   9999 -3.45752E-01  1.37603E+01 -1.00000E+00  1.73684E-01
      21    -1     0     0   501   502  0.000000000E+00  0.000000000E+00  1.599833137E+01  1.599833137E+01  0.000000000E+00  0.00000E+00  9.000E+00
      21    -1     0     0   512   503  0.000000000E+00  0.000000000E+00 -1.315841544E+03  1.315841544E+03  0.000000000E+00  0.00000E+00  9.000E+00
      25     1     1     2     0     0 -7.009717138E+00  4.511064690E-01 -8.737240134E+02  8.826485089E+02  1.250015962E+02  0.00000E+00  9.000E+00
       5     1     1     2   501     0  2.182663772E+00  3.391796868E-01  8.781505992E+00  1.022528295E+01  4.750000000E+00  0.00000E+00  9.000E+00
      -5     1     1     2     0   503  1.257213803E+01  1.058328751E+01 -3.630864361E+01  4.013657597E+01  4.750000000E+00  0.00000E+00  9.000E+00
      21     1     1     2   512   502 -7.745084668E+00 -1.137357367E+01 -3.985920619E+02  3.988295078E+02  5.394796609E-06  0.00000E+00  9.000E+00
#rwgt            1           9  -4.1440505999070327E-003           8     2103701           0
</event>
<event>
      6   9999  3.45752E-01  3.86466E+01 -1.00000E+00  1.41058E-01
      21    -1     0     0   501   502  0.000000000E+00  0.000000000E+00  2.761964391E+01  2.761964391E+01  0.000000000E+00  0.00000E+00  9.000E+00
      21    -1     0     0   511   503  0.000000000E+00  0.000000000E+00 -1.293424313E+03  1.293424313E+03  0.000000000E+00  0.00000E+00  9.000E+00
      25     1     1     2     0     0  5.909017198E+01  1.096015228E+02 -5.597159521E+02  5.868644706E+02  1.249952701E+02  0.00000E+00  9.000E+00
       5     1     1     2   501     0 -8.227714355E+01 -3.037710398E+01 -2.412720365E+02  2.567626431E+02  4.750000000E+00  0.00000E+00  9.000E+00
      -5     1     1     2     0   503 -1.346888709E+01 -6.698061085E+01 -2.531209410E+02  2.622223988E+02  4.750000000E+00  0.00000E+00  9.000E+00
      21     1     1     2   511   502  3.665585865E+01 -1.224380801E+01 -2.116957390E+02  2.151944439E+02  3.814697266E-06  0.00000E+00  9.000E+00
#rwgt            1           9   1.4214716075234508E-004           8     2105985           0
</event>
<event>
      6   9999  3.45752E-01  5.01817E+01 -1.00000E+00  1.34703E-01
      21    -1     0     0   512   503  0.000000000E+00  0.000000000E+00  8.566471508E+01  8.566471508E+01  0.000000000E+00  0.00000E+00  9.000E+00
      21    -1     0     0   501   502  0.000000000E+00  0.000000000E+00 -9.038593492E+02  9.038593492E+02  0.000000000E+00  0.00000E+00  9.000E+00
      25     1     1     2     0     0 -5.694255649E+01  6.310487361E+01 -5.489641868E+02  5.693972742E+02  1.250075904E+02  0.00000E+00  9.000E+00
       5     1     1     2   501     0  1.136825833E+00 -7.311399366E-01 -2.401842401E+01  2.452089172E+01  4.750000000E+00  0.00000E+00  9.000E+00
      -5     1     1     2     0   503  5.749026642E+00 -6.591383537E+01 -3.080944566E+02  3.151546314E+02  4.750000000E+00  0.00000E+00  9.000E+00
      21     1     1     2   512   502  5.005670401E+01  3.540101699E+00  6.288243331E+01  8.045126696E+01  2.431401974E-06  0.00000E+00  9.000E+00
#rwgt            1           9   9.4421266789918908E-003           8     2107448           0
</event>
<event>
      6   9999  3.45752E-01  1.17484E+01 -1.00000E+00  1.80112E-01
      21    -1     0     0   501   502  0.000000000E+00  0.000000000E+00  7.771640194E+00  7.771640194E+00  0.000000000E+00  0.00000E+00  9.000E+00
      21    -1     0     0   511   503  0.000000000E+00  0.000000000E+00 -1.371897593E+03  1.371897593E+03  0.000000000E+00  0.00000E+00  9.000E+00
      25     1     1     2     0     0  2.617632960E+00  1.047088783E+01 -1.218730940E+03  1.225171447E+03  1.249939190E+02  0.00000E+00  9.000E+00
       5     1     1     2   501     0 -1.101124181E+00  8.793183366E-01  2.563313056E+00  5.578418147E+00  4.750000000E+00  0.00000E+00  9.000E+00
      -5     1     1     2     0   503 -1.336612827E-01  3.165058573E-01 -2.976519510E+01  3.014377848E+01  4.750000000E+00  0.00000E+00  9.000E+00
      21     1     1     2   511   502 -1.382847497E+00 -1.166671202E+01 -1.181931305E+02  1.187755890E+02  1.348699152E-06  0.00000E+00  9.000E+00
#rwgt            1           9   2.8244724825298660E-004           8     2108253           0
</event>
<event>
      6   9999  3.45752E-01  6.77745E+00 -1.00000E+00  2.06943E-01
      21    -1     0     0   501   502  0.000000000E+00  0.000000000E+00  4.704358464E+01  4.704358464E+01  0.000000000E+00  0.00000E+00  9.000E+00
       1    -1     0     0   502     0  0.000000000E+00  0.000000000E+00 -1.832179039E+03  1.832179039E+03  0.000000000E+00  0.00000E+00  9.000E+00
      25     1     1     2     0     0  1.078035950E+01 -1.291460386E+01 -9.441014645E+02  9.524888142E+02  1.249974508E+02  0.00000E+00  9.000E+00
       5     1     1     2   501     0  6.306984742E+00  8.848571951E+00  4.188881087E+01  4.353516117E+01  4.750000000E+00  0.00000E+00  9.000E+00
      -5     1     1     2     0   503 -1.194294677E+01 -3.463379398E-01 -3.557327238E+02  3.559650084E+02  4.750000000E+00  0.00000E+00  9.000E+00
       1     1     1     2   503     0 -5.144397479E+00  4.412369845E+00 -5.271900768E+02  5.272336397E+02  7.629394531E-06  0.00000E+00  9.000E+00
#rwgt            1           9   1.0078469344891304E-003           8     2110615           0
</event>
<event>
      6   9999  3.45752E-01  2.97726E+01 -1.00000E+00  1.48052E-01
      21    -1     0     0   501   502  0.000000000E+00  0.000000000E+00  8.676296800E+00  8.676296800E+00  0.000000000E+00  0.00000E+00  9.000E+00
      21    -1     0     0   502   511  0.000000000E+00  0.000000000E+00 -1.199397863E+03  1.199397863E+03  0.000000000E+00  0.00000E+00  9.000E+00
      25     1     1     2     0     0  2.393056424E+01 -2.662592417E+01 -5.961385081E+02  6.101523958E+02  1.249928542E+02  0.00000E+00  9.000E+00
       5     1     1     2   501     0  7.061566998E-01 -2.004339790E+00 -6.746584078E+00  8.520265958E+00  4.750000000E+00  0.00000E+00  9.000E+00
      -5     1     1     2     0   503 -1.085189270E+01  2.241128304E+00 -1.154647074E+02  1.160924088E+02  4.750000000E+00  0.00000E+00  9.000E+00
      21     1     1     2   503   511 -1.378482824E+01  2.638913566E+01 -4.723717666E+02  4.733090891E+02  7.629394531E-06  0.00000E+00  9.000E+00
#rwgt            1           9   1.5942588103927111E-002           8     2115584           0
</event>
<event>
      6   9999  3.45752E-01  1.10921E+01 -1.00000E+00  1.82574E-01
      21    -1     0     0   501   502  0.000000000E+00  0.000000000E+00  5.224209188E+01  5.224209188E+01  0.000000000E+00  0.00000E+00  9.000E+00
      21    -1     0     0   512   503  0.000000000E+00  0.000000000E+00 -1.088803914E+02  1.088803914E+02  0.000000000E+00  0.00000E+00  9.000E+00
      25     1     1     2     0     0 -1.898588629E+00 -1.121284370E+01 -4.012869408E+01  1.317751293E+02  1.250001605E+02  0.00000E+00  9.000E+00
       5     1     1     2   501     0 -1.303322969E-02 -3.359448249E-01  1.009925903E+00  4.867800234E+00  4.750000000E+00  0.00000E+00  9.000E+00
      -5     1     1     2     0   503  1.550004324E-01  5.966823357E-01 -1.547285937E+00  5.033552296E+00  4.750000000E+00  0.00000E+00  9.000E+00
      21     1     1     2   512   502  1.756621427E+00  1.095210619E+01 -1.597224545E+01  1.944600148E+01  2.384185791E-07  0.00000E+00  9.000E+00
#rwgt            1           9   3.4651212205851052E-002           8     2116526           0
</event>
<event>
      6   9999  3.45752E-01  6.18463E+00 -1.00000E+00  2.12241E-01
      21    -1     0     0   511   502  0.000000000E+00  0.000000000E+00  7.278114114E+01  7.278114114E+01  0.000000000E+00  0.00000E+00  9.000E+00
      21    -1     0     0   502   503  0.000000000E+00  0.000000000E+00 -4.538678532E+02  4.538678532E+02  0.000000000E+00  0.00000E+00  9.000E+00
      25     1     1     2     0     0 -6.077938982E+01 -3.660751260E+00 -2.350965757E+02  2.731336972E+02  1.249963254E+02  0.00000E+00  9.000E+00
       5     1     1     2   501     0  6.156235743E+00  2.176039218E+00  4.779802845E+01  4.847523501E+01  4.750000000E+00  0.00000E+00  9.000E+00
      -5     1     1     2     0   503  5.436102179E+01  7.663786716E+00 -1.899035820E+02  1.977366615E+02  4.750000000E+00  0.00000E+00  9.000E+00
      21     1     1     2   511   501  2.621322872E-01 -6.179074674E+00 -3.884582821E+00  7.303400637E+00  1.632340424E-07  0.00000E+00  9.000E+00
#rwgt            1           9  0.37841961322947937                8     2118277           0
</event>
<event>
      6   9999  3.45752E-01  7.61369E+00 -1.00000E+00  2.00595E-01
      21    -1     0     0   501   502  0.000000000E+00  0.000000000E+00  7.080176612E+02  7.080176612E+02  0.000000000E+00  0.00000E+00  9.000E+00
      21    -1     0     0   502   512  0.000000000E+00  0.000000000E+00 -5.391453262E+01  5.391453262E+01  0.000000000E+00  0.00000E+00  9.000E+00
      25     1     1     2     0     0  3.051266841E+01 -3.192072478E+00  1.355529086E+02  1.869219733E+02  1.249960832E+02  0.00000E+00  9.000E+00
       5     1     1     2   501     0  2.934771908E-01 -2.874314036E+00  4.190422358E+02  4.190791163E+02  4.750000000E+00  0.00000E+00  9.000E+00
      -5     1     1     2     0   503 -2.384226288E+01  9.144149266E+00  1.258543838E+02  1.285066433E+02  4.750000000E+00  0.00000E+00  9.000E+00
      21     1     1     2   503   512 -6.963882724E+00 -3.077762753E+00 -2.634639957E+01  2.742446092E+01  1.215700987E-06  0.00000E+00  9.000E+00
#rwgt            1           9   2.1357128730773011E-003           8     2122845           0
</event>
<event>
      6   9999  3.45752E-01  5.70244E+01 -1.00000E+00  1.31802E-01
      21    -1     0     0   502   511  0.000000000E+00  0.000000000E+00  1.104319802E+02  1.104319802E+02  0.000000000E+00  0.00000E+00  9.000E+00
      21    -1     0     0   501   502  0.000000000E+00  0.000000000E+00 -1.814824182E+02  1.814824182E+02  0.000000000E+00  0.00000E+00  9.000E+00
      25     1     1     2     0     0 -5.697199781E+01 -6.493698445E+01 -6.212724287E+01  1.641561310E+02  1.249992822E+02  0.00000E+00  9.000E+00
       5     1     1     2   501     0  6.282127345E+01  1.122401960E+01  2.262706452E+00  6.403259603E+01  4.750000000E+00  0.00000E+00  9.000E+00
      -5     1     1     2     0   503  4.925539798E-01 -2.957689414E+00 -2.019719490E+00  5.969279932E+00  4.750000000E+00  0.00000E+00  9.000E+00
      21     1     1     2   503   511 -6.341829619E+00  5.667065426E+01 -9.166182087E+00  5.775639144E+01  8.429369702E-07  0.00000E+00  9.000E+00
#rwgt            1           9   1.1667336510697837E-003           8     2126201           0
</event>
<event>
      6   9999  3.45752E-01  5.28159E+00 -1.00000E+00  2.22075E-01
      21    -1     0     0   501   502  0.000000000E+00  0.000000000E+00  1.677650453E+01  1.677650453E+01  0.000000000E+00  0.00000E+00  9.000E+00
      21    -1     0     0   502   512  0.000000000E+00  0.000000000E+00 -1.230444352E+03  1.230444352E+03  0.000000000E+00  0.00000E+00  9.000E+00
      25     1     1     2     0     0  1.414909902E+00 -4.755198431E+00 -9.241487048E+02  9.325769358E+02  1.249971945E+02  0.00000E+00  9.000E+00
       5     1     1     2   501     0 -2.996044944E+00  2.486411070E+00  1.146165549E+01  1.300348307E+01  4.750000000E+00  0.00000E+00  9.000E+00
      -5     1     1     2     0   503 -2.968548772E+00 -4.136764791E-01 -2.559540913E+01  2.620440571E+01  4.750000000E+00  0.00000E+00  9.000E+00
      21     1     1     2   503   512  4.549683814E+00  2.682463840E+00 -2.753853888E+02  2.754360317E+02  3.814697266E-06  0.00000E+00  9.000E+00
#rwgt            1           9   1.8499338999398518E-004           8     2127313           0
</event>
<event>
      6   9999  3.45752E-01  6.34573E+00 -1.00000E+00  2.10724E-01
      21    -1     0     0   501   511  0.000000000E+00  0.000000000E+00  5.430019857E+01  5.430019857E+01  0.000000000E+00  0.00000E+00  9.000E+00
      21    -1     0     0   502   503  0.000000000E+00  0.000000000E+00 -2.227688702E+02  2.227688702E+02  0.000000000E+00  0.00000E+00  9.000E+00
      25     1     1     2     0     0 -1.019894663E+01  5.454637738E+01 -1.523297591E+02  2.047170014E+02  1.250014775E+02  0.00000E+00  9.000E+00
       5     1     1     2   501     0 -2.389573011E-01 -4.174963561E-01  9.895289503E+00  1.098684023E+01  4.750000000E+00  0.00000E+00  9.000E+00
      -5     1     1     2     0   503  1.074297911E+01 -4.779048868E+01 -2.343454139E+01  5.450763836E+01  4.750000000E+00  0.00000E+00  9.000E+00
      21     1     1     2   502   511 -3.050751794E-01 -6.338392341E+00 -2.599660660E+00  6.857588780E+00  5.161913656E-08  0.00000E+00  9.000E+00
#rwgt            1           9   2.8883543454051035E-003           8     2131481           0
</event>
<event>
      6   9999  3.45752E-01  1.47747E+01 -1.00000E+00  1.70943E-01
      21    -1     0     0   501   502  0.000000000E+00  0.000000000E+00  8.760363939E+01  8.760363939E+01  0.000000000E+00  0.00000E+00  9.000E+00
      21    -1     0     0   512   503  0.000000000E+00  0.000000000E+00 -6.390674289E+02  6.390674289E+02  0.000000000E+00  0.00000E+00  9.000E+00
      25     1     1     2     0     0  5.486880967E+00  5.984577983E+00  2.404661284E+01  1.275518391E+02  1.250012442E+02  0.00000E+00  9.000E+00
       5     1     1     2   501     0  4.550581299E-01  2.403429889E-01  5.413009090E+00  7.219972996E+00  4.750000000E+00  0.00000E+00  9.000E+00
      -5     1     1     2     0   503  7.106657242E+00  7.052395886E-01  1.984964675E+00  8.803665418E+00  4.750000000E+00  0.00000E+00  9.000E+00
      21     1     1     2   512   502 -1.304859634E+01 -6.930160560E+00 -5.829083761E+02  5.830955907E+02  0.000000000E+00  0.00000E+00  9.000E+00
#rwgt            1           9  0.48998510718279198                8     2134951           0
</event>
<event>
      6   9999  3.45752E-01  2.91060E+01 -1.00000E+00  1.48693E-01
      21    -1     0     0   502   503  0.000000000E+00  0.000000000E+00  3.025023592E+01  3.025023592E+01  0.000000000E+00  0.00000E+00  9.000E+00
       2    -1     0     0   501     0  0.000000000E+00  0.000000000E+00 -3.421328565E+03  3.421328565E+03  0.000000000E+00  0.00000E+00  9.000E+00
      25     1     1     2     0     0  8.336868668E+01  1.069011864E+01 -1.745972836E+02  2.305942202E+02  1.249994656E+02  0.00000E+00  9.000E+00
       5     1     1     2   501     0 -1.155892641E+02 -1.012102903E+01 -2.469126032E+03  2.471855424E+03  4.750000000E+00  0.00000E+00  9.000E+00
      -5     1     1     2     0   503  3.165335958E+00 -2.288116945E+00 -1.521439017E+01  1.641021021E+01  4.750000000E+00  0.00000E+00  9.000E+00
       2     1     1     2   502     0  2.905524143E+01  1.719027332E+00 -7.321406229E+02  7.327189460E+02  1.868812365E-05  0.00000E+00  9.000E+00
#rwgt            1           9   9.4535943108897734E-004           8     2136544           0
</event>
<event>
      6   9999  3.45752E-01  7.45413E+00 -1.00000E+00  2.01720E-01
       1    -1     0     0   501     0  0.000000000E+00  0.000000000E+00  4.019122736E+01  4.019122736E+01  0.000000000E+00  0.00000E+00  9.000E+00
      21    -1     0     0   502   503  0.000000000E+00  0.000000000E+00 -3.907269804E+02  3.907269804E+02  0.000000000E+00  0.00000E+00  9.000E+00
      25     1     1     2     0     0 -2.610784563E+00 -5.058271176E+00 -3.573165730E+02  3.785935301E+02  1.250021014E+02  0.00000E+00  9.000E+00
       5     1     1     2   501     0 -2.404707348E+00 -8.761876555E-01  1.344419517E+01  1.448651808E+01  4.750000000E+00  0.00000E+00  9.000E+00
      -5     1     1     2     0   503  1.076141750E+00 -3.936933675E-01 -2.106365660E+01  2.162297863E+01  4.750000000E+00  0.00000E+00  9.000E+00
       1     1     1     2   502     0  3.939350161E+00  6.328152199E+00  1.440028139E+01  1.621518098E+01  6.743495762E-07  0.00000E+00  9.000E+00
#rwgt            1           9   8.8105157953937443                8     2139267           0
</event>
<event>
      6   9999  3.45752E-01  7.41344E+00 -1.00000E+00  2.02013E-01
      21    -1     0     0   501   502  0.000000000E+00  0.000000000E+00  5.092812600E+03  5.092812600E+03  0.000000000E+00  0.00000E+00  9.000E+00
      21    -1     0     0   511   503  0.000000000E+00  0.000000000E+00 -5.887448094E+00  5.887448094E+00  0.000000000E+00  0.00000E+00  9.000E+00
      25     1     1     2     0     0 -1.001140448E+02 -1.351473433E+01  2.306115328E+03  2.311708056E+03  1.249830387E+02  0.00000E+00  9.000E+00
       5     1     1     2   501     0  2.319108827E+00  5.562023921E-01  1.937222086E+03  1.937229378E+03  4.750000000E+00  0.00000E+00  9.000E+00
      -5     1     1     2     0   503  9.258290726E+01  1.823052187E+01  7.609296832E+02  7.667727772E+02  4.750000000E+00  0.00000E+00  9.000E+00
      21     1     1     2   511   502  5.212028681E+00 -5.271989930E+00  8.265805449E+01  8.298983729E+01  0.000000000E+00  0.00000E+00  9.000E+00
#rwgt            1           9   7.6029101887730495E-004           8     2142373           0
</event>
<event>
      6   9999 -3.45752E-01  8.99268E+00 -1.00000E+00  1.92185E-01
      21    -1     0     0   501   502  0.000000000E+00  0.000000000E+00  7.823404357E+01  7.823404357E+01  0.000000000E+00  0.00000E+00  9.000E+00
      21    -1     0     0   502   512  0.000000000E+00  0.000000000E+00 -1.732085015E+02  1.732085015E+02  0.000000000E+00  0.00000E+00  9.000E+00
      25     1     1     2     0     0  1.186274587E+01 -3.876640840E+00 -1.079969608E+02  1.656649570E+02  1.250031254E+02  0.00000E+00  9.000E+00
       5     1     1     2   501     0  2.698849602E-01  1.164218689E+00  4.736142068E+01  4.761402012E+01  4.750000000E+00  0.00000E+00  9.000E+00
      -5     1     1     2     0   503 -4.885178221E+00 -2.611373914E+00 -1.151993639E+01  1.363655654E+01  4.750000000E+00  0.00000E+00  9.000E+00
      21     1     1     2   503   512 -7.247452612E+00  5.323796065E+00 -2.281898142E+01  2.452701138E+01  4.768371582E-07  0.00000E+00  9.000E+00
#rwgt            1           9  -2.2738527520650511E-004           8     2146279           0
</event>
<event>
      6   9999  3.45752E-01  1.73132E+01 -1.00000E+00  1.65145E-01
      21    -1     0     0   501   502  0.000000000E+00  0.000000000E+00  1.467924637E+01  1.467924637E+01  0.000000000E+00  0.00000E+00  9.000E+00
      21    -1     0     0   502   511  0.000000000E+00  0.000000000E+00 -1.694771263E+03  1.694771263E+03  0.000000000E+00  0.00000E+00  9.000E+00
      25     1     1     2     0     0 -4.798052128E+01 -7.872523223E+00 -5.654985260E+02  5.811865247E+02  1.250003458E+02  0.00000E+00  9.000E+00
       5     1     1     2   501     0 -8.359387830E-02 -1.387848465E+00  3.662263672E+00  6.156929958E+00  4.750000000E+00  0.00000E+00  9.000E+00
      -5     1     1     2     0   503  4.742117371E+01 -8.040875855E+00 -3.169176865E+02  3.205819801E+02  4.750000000E+00  0.00000E+00  9.000E+00
      21     1     1     2   503   511  6.429414482E-01  1.730124754E+01 -8.013380677E+02  8.015250746E+02  1.078959322E-05  0.00000E+00  9.000E+00
#rwgt            1           9   8.6640599620338085E-004           8     2148791           0
</event>
<event>
      6   9999  3.45752E-01  1.90595E+01 -1.00000E+00  1.61824E-01
      21    -1     0     0   501   502  0.000000000E+00  0.000000000E+00  3.896159402E+01  3.896159402E+01  0.000000000E+00  0.00000E+00  9.000E+00
      21    -1     0     0   512   503  0.000000000E+00  0.000000000E+00 -1.337270543E+03  1.337270543E+03  0.000000000E+00  0.00000E+00  9.000E+00
      25     1     1     2     0     0  3.408891002E+01  1.535253155E+01 -3.923411407E+02  4.134664254E+02  1.250006409E+02  0.00000E+00  9.000E+00
       5     1     1     2   501     0  7.875378362E-01 -1.130448728E+00  2.705755941E+01  2.750585668E+01  4.750000000E+00  0.00000E+00  9.000E+00
      -5     1     1     2     0   503 -3.241449035E+01  4.677708194E+00 -8.177614875E+02  8.184308114E+02  4.750000000E+00  0.00000E+00  9.000E+00
      21     1     1     2   512   502 -2.461957502E+00 -1.889979102E+01 -1.152638799E+02  1.168290433E+02  1.348699152E-06  0.00000E+00  9.000E+00
#rwgt            1           9   1.2610192796171470E-004           8     2150470           0
</event>
<event>
      6   9999  3.45752E-01  1.80958E+01 -1.00000E+00  1.63599E-01
      21    -1     0     0   501   511  0.000000000E+00  0.000000000E+00  3.986582700E+01  3.986582700E+01  0.000000000E+00  0.00000E+00  9.000E+00
      21    -1     0     0   502   503  0.000000000E+00  0.000000000E+00 -8.748106751E+02  8.748106751E+02  0.000000000E+00  0.00000E+00  9.000E+00
      25     1     1     2     0     0  2.801978010E+01  3.493027283E+01 -7.203769093E+02  7.324335027E+02  1.245420104E+02  0.00000E+00  9.000E+00
       5     1     1     2   501     0  3.911552415E-01  4.570559983E+00  2.910104267E+00  7.216247489E+00  4.750000000E+00  0.00000E+00  9.000E+00
      -5     1     1     2     0   503 -1.878308105E+01 -2.417883865E+01 -1.415558406E+02  1.449070008E+02  4.750000000E+00  0.00000E+00  9.000E+00
      21     1     1     2   502   511 -9.627854297E+00 -1.532199417E+01  2.407779745E+01  3.011975122E+01  1.011524364E-06  0.00000E+00  9.000E+00
#rwgt            1           9   2.1661985308774581E-003           8     2153215           0
</event>
<event>
      6   9999  3.45752E-01  3.17454E+01 -1.00000E+00  1.46267E-01
      21    -1     0     0   502   512  0.000000000E+00  0.000000000E+00  3.317884665E+01  3.317884665E+01  0.000000000E+00  0.00000E+00  9.000E+00
      21    -1     0     0   501   502  0.000000000E+00  0.000000000E+00 -1.003697695E+03  1.003697695E+03  0.000000000E+00  0.00000E+00  9.000E+00
      25     1     1     2     0     0 -7.753000072E+00 -4.558781226E+01 -4.795713598E+02  4.977476692E+02  1.250027819E+02  0.00000E+00  9.000E+00
       5     1     1     2   501     0  2.289966533E+01 -8.949154350E+00 -3.286415520E+02  3.295941659E+02  4.750000000E+00  0.00000E+00  9.000E+00
      -5     1     1     2     0   503  4.509359457E+00  7.946509450E+01 -1.586754659E+02  1.775823796E+02  4.750000000E+00  0.00000E+00  9.000E+00
      21     1     1     2   503   512 -1.965602472E+01 -2.492812789E+01 -3.630470563E+00  3.195232674E+01  4.107966647E-07  0.00000E+00  9.000E+00
#rwgt            1           9   3.7792709445481033E-003           8     2154823           0
</event>
<event>
      6   9999  3.45752E-01  7.88517E+00 -1.00000E+00  1.98762E-01
      21    -1     0     0   501   502  0.000000000E+00  0.000000000E+00  5.479890858E+01  5.479890858E+01  0.000000000E+00  0.00000E+00  9.000E+00
      21    -1     0     0   502   511  0.000000000E+00  0.000000000E+00 -1.506626824E+03  1.506626824E+03  0.000000000E+00  0.00000E+00  9.000E+00
      25     1     1     2     0     0  2.288633198E+02 -4.433568473E+01 -7.799884753E+02  8.236210985E+02  1.250024806E+02  0.00000E+00  9.000E+00
       5     1     1     2   501     0 -1.381876554E-01  2.103364576E+00  9.523143263E+00  1.084877855E+01  4.750000000E+00  0.00000E+00  9.000E+00
      -5     1     1     2     0   503 -2.297364303E+02  5.005236965E+01 -5.883637262E+02  6.336233139E+02  4.750000000E+00  0.00000E+00  9.000E+00
      21     1     1     2   503   511  1.011298177E+00 -7.820049498E+00 -9.299885767E+01  9.333254216E+01  1.348699152E-06  0.00000E+00  9.000E+00
#rwgt            1           9   2.7856312307750788E-004           8     2155792           0
</event>
<event>
      6   9999  3.45752E-01  8.40305E+00 -1.00000E+00  1.95521E-01
      21    -1     0     0   501   502  0.000000000E+00  0.000000000E+00  3.100064230E+01  3.100064230E+01  0.000000000E+00  0.00000E+00  9.000E+00
      21    -1     0     0   502   512  0.000000000E+00  0.000000000E+00 -1.687062382E+03  1.687062382E+03  0.000000000E+00  0.00000E+00  9.000E+00
      25     1     1     2     0     0 -3.161716196E+00  1.494795293E+00 -1.565700692E+03  1.570686497E+03  1.250007258E+02  0.00000E+00  9.000E+00
       5     1     1     2   501     0  3.806934162E+00  3.673712340E+00  2.741332357E+01  2.832034109E+01  4.750000000E+00  0.00000E+00  9.000E+00
      -5     1     1     2     0   503 -6.106401903E+00  1.217944617E+00 -3.548848327E+01  3.634235103E+01  4.750000000E+00  0.00000E+00  9.000E+00
      21     1     1     2   503   512  5.461183937E+00 -6.386452250E+00 -8.228588771E+01  8.271383571E+01  1.348699152E-06  0.00000E+00  9.000E+00
#rwgt            1           9   4.7192930458432868E-005           8     2160447           0
</event>
<event>
      6   9999  3.45752E-01  2.36632E+01 -1.00000E+00  1.54828E-01
      21    -1     0     0   502   503  0.000000000E+00  0.000000000E+00  9.464750386E+00  9.464750386E+00  0.000000000E+00  0.00000E+00  9.000E+00
      21    -1     0     0   511   502  0.000000000E+00  0.000000000E+00 -1.608067657E+03  1.608067657E+03  0.000000000E+00  0.00000E+00  9.000E+00
      25     1     1     2     0     0 -3.327786863E+00 -2.419782610E+01 -6.428967794E+02  6.553935231E+02  1.250111683E+02  0.00000E+00  9.000E+00
       5     1     1     2   501     0  1.723444148E+01  4.541507890E+00 -4.031271950E+01  4.433203267E+01  4.750000000E+00  0.00000E+00  9.000E+00
      -5     1     1     2     0   503  1.614515344E+00  1.794607466E+00 -5.688201430E+00  7.793934261E+00  4.750000000E+00  0.00000E+00  9.000E+00
      21     1     1     2   511   501 -1.552116996E+01  1.786171074E+01 -9.097052068E+02  9.100129178E+02  1.078959322E-05  0.00000E+00  9.000E+00
#rwgt            1           9   1.6962024577140005E-004           8     2164625           0
</event>
<event>
      6   9999  3.45752E-01  1.75838E+01 -1.00000E+00  1.64599E-01
      21    -1     0     0   501   502  0.000000000E+00  0.000000000E+00  1.626498309E+02  1.626498309E+02  0.000000000E+00  0.00000E+00  9.000E+00
      21    -1     0     0   512   503  0.000000000E+00  0.000000000E+00 -1.288171005E+03  1.288171005E+03  0.000000000E+00  0.00000E+00  9.000E+00
      25     1     1     2     0     0  7.814935396E+01  1.826785881E+02 -5.835932111E+02  6.290362003E+02  1.250068682E+02  0.00000E+00  9.000E+00
       5     1     1     2   501     0  5.259626958E+00 -1.929610260E-01  7.517926173E+01  7.551281219E+01  4.750000000E+00  0.00000E+00  9.000E+00
      -5     1     1     2     0   503 -9.347688200E+01 -1.680693606E+02 -7.913899102E+01  2.080162970E+02  4.750000000E+00  0.00000E+00  9.000E+00
      21     1     1     2   512   502  1.006790108E+01 -1.441626654E+01 -5.379682340E+02  5.382555268E+02  7.629394531E-06  0.00000E+00  9.000E+00
#rwgt            1           9   7.7757628048753748E-004           8     2166095           0
</event>
<event>
      6   9999  3.45752E-01  6.13585E+00 -1.00000E+00  2.12712E-01
      21    -1     0     0   501   502  0.000000000E+00  0.000000000E+00  1.484618345E+01  1.484618345E+01  0.000000000E+00  0.00000E+00  9.000E+00
      21    -1     0     0   502   511  0.000000000E+00  0.000000000E+00 -1.079052112E+03  1.079052112E+03  0.000000000E+00  0.00000E+00  9.000E+00
      25     1     1     2     0     0  1.414829399E+01 -7.896600699E+00 -6.408322200E+02  6.531117007E+02  1.250057157E+02  0.00000E+00  9.000E+00
       5     1     1     2   501     0  1.051532548E+00  2.017076630E+00  7.685319177E+00  9.316702726E+00  4.750000000E+00  0.00000E+00  9.000E+00
      -5     1     1     2     0   503 -1.162873053E+01  8.899360572E-01 -2.686120146E+02  2.689070402E+02  4.750000000E+00  0.00000E+00  9.000E+00
      21     1     1     2   503   511 -3.571096014E+00  4.989588012E+00 -1.624470136E+02  1.625628523E+02  1.907348633E-06  0.00000E+00  9.000E+00
#rwgt            1           9   3.8883662330605471E-004           8     2169212           0
</event>
<event>
      6   9999  3.45752E-01  6.27117E+00 -1.00000E+00  2.11418E-01
      21    -1     0     0   501   502  0.000000000E+00  0.000000000E+00  8.621146537E+00  8.621146537E+00  0.000000000E+00  0.00000E+00  9.000E+00
      21    -1     0     0   502   512  0.000000000E+00  0.000000000E+00 -9.268943412E+02  9.268943412E+02  0.000000000E+00  0.00000E+00  9.000E+00
      25     1     1     2     0     0 -8.051591055E+00  6.802391867E+00 -8.732585713E+02  8.822224719E+02  1.249994280E+02  0.00000E+00  9.000E+00
       5     1     1     2   501     0  1.405746708E-01 -2.867211331E-01 -7.358911734E-01  4.817261262E+00  4.750000000E+00  0.00000E+00  9.000E+00
      -5     1     1     2     0   503  6.991736444E+00 -3.122399732E-01 -7.944448709E+00  1.160425084E+01  4.750000000E+00  0.00000E+00  9.000E+00
      21     1     1     2   503   512  9.192799395E-01 -6.203430761E+00 -3.633428351E+01  3.687150372E+01  6.743495762E-07  0.00000E+00  9.000E+00
#rwgt            1           9   6.2300073948144208E-005           8     2173120           0
</event>
<event>
      6   9999  3.45752E-01  5.45826E+00 -1.00000E+00  2.19947E-01
      21    -1     0     0   501   502  0.000000000E+00  0.000000000E+00  1.197906341E+01  1.197906341E+01  0.000000000E+00  0.00000E+00  9.000E+00
      21    -1     0     0   502   511  0.000000000E+00  0.000000000E+00 -1.328154191E+03  1.328154191E+03  0.000000000E+00  0.00000E+00  9.000E+00
      25     1     1     2     0     0  3.145340006E+00  3.681556046E+00 -6.721206638E+02  6.836893296E+02  1.251457778E+02  0.00000E+00  9.000E+00
       5     1     1     2   501     0  9.745275893E-01 -9.550778708E-01  5.075075916E+00  7.083838883E+00  4.750000000E+00  0.00000E+00  9.000E+00
      -5     1     1     2     0   503  1.126196705E-02 -6.293884941E+00 -1.550295379E+02  1.552299367E+02  4.750000000E+00  0.00000E+00  9.000E+00
      21     1     1     2   503   511 -4.131129563E+00  3.567406765E+00 -4.941000015E+02  4.941301489E+02  7.629394531E-06  0.00000E+00  9.000E+00
#rwgt            1           9   2.2620732302860987E-002           8     2176703           0
</event>
<event>
      6   9999  3.45752E-01  4.07200E+01 -1.00000E+00  1.39738E-01
      21    -1     0     0   501   502  0.000000000E+00  0.000000000E+00  7.848724460E+02  7.848724460E+02  0.000000000E+00  0.00000E+00  9.000E+00
      21    -1     0     0   502   512  0.000000000E+00  0.000000000E+00 -1.078446755E+02  1.078446755E+02  0.000000000E+00  0.00000E+00  9.000E+00
      25     1     1     2     0     0 -8.038870542E+01  9.876326306E+01  1.182075069E+02  2.140455307E+02  1.250037936E+02  0.00000E+00  9.000E+00
       5     1     1     2   501     0  1.737561269E+01  4.492165050E-02  4.655288768E+02  4.658772495E+02  4.750000000E+00  0.00000E+00  9.000E+00
      -5     1     1     2     0   503  1.006110052E+02 -8.317125392E+01  1.080103288E+02  1.694957978E+02  4.750000000E+00  0.00000E+00  9.000E+00
      21     1     1     2   503   512 -3.759791244E+01 -1.563693079E+01 -1.471894204E+01  4.329854362E+01  9.233911863E-07  0.00000E+00  9.000E+00
#rwgt            1           9   6.0325521764654416E-002           8     2181202           0
</event>
<event>
      6   9999 -3.45752E-01  1.32216E+01 -1.00000E+00  1.75262E-01
      21    -1     0     0   511   502  0.000000000E+00  0.000000000E+00  1.229921186E+02  1.229921186E+02  0.000000000E+00  0.00000E+00  9.000E+00
      21    -1     0     0   502   503  0.000000000E+00  0.000000000E+00 -6.183956686E+02  6.183956686E+02  0.000000000E+00  0.00000E+00  9.000E+00
      25     1     1     2     0     0 -8.258768514E+00 -7.774119683E+00 -5.861174971E+02  5.994063414E+02  1.250023901E+02  0.00000E+00  9.000E+00
       5     1     1     2   501     0 -3.410231120E+00  4.949181642E-01  4.863499597E+00  7.621728715E+00  4.750000000E+00  0.00000E+00  9.000E+00
      -5     1     1     2     0   503  3.124076079E+00  1.736859475E+01 -2.034294734E+01  2.734640637E+01  4.750000000E+00  0.00000E+00  9.000E+00
      21     1     1     2   511   501  8.544923555E+00 -1.008939323E+01  1.061933948E+02  1.070133107E+02  3.015782986E-06  0.00000E+00  9.000E+00
#rwgt            1           9  -8.2128103568707253E-004           8     2182796           0
</event>
<event>
      6   9999  3.45752E-01  7.76174E+00 -1.00000E+00  1.99583E-01
      21    -1     0     0   502   512  0.000000000E+00  0.000000000E+00  8.355154099E+01  8.355154099E+01  0.000000000E+00  0.00000E+00  9.000E+00
      21    -1     0     0   501   502  0.000000000E+00  0.000000000E+00 -8.894662946E+02  8.894662946E+02  0.000000000E+00  0.00000E+00  9.000E+00
      25     1     1     2     0     0 -3.030641678E+01 -1.091126573E+00 -3.723463809E+02  3.939276160E+02  1.249698755E+02  0.00000E+00  9.000E+00
       5     1     1     2   501     0  2.394575861E+00  7.769758605E-01 -4.188434540E+02  4.188779526E+02  4.750000000E+00  0.00000E+00  9.000E+00
      -5     1     1     2     0   503  3.522083818E+01 -2.297969753E+00 -8.361644605E+01  9.088487584E+01  4.750000000E+00  0.00000E+00  9.000E+00
      21     1     1     2   503   512 -7.308997253E+00  2.612120466E+00  6.889152742E+01  6.932739115E+01  2.336015456E-06  0.00000E+00  9.000E+00
#rwgt            1           9  0.74222274895889828                8     2185117           0
</event>
<event>
      6   9999  3.45752E-01  1.67855E+01 -1.00000E+00  1.66244E-01
      21    -1     0     0   511   502  0.000000000E+00  0.000000000E+00  2.032902773E+01  2.032902773E+01  0.000000000E+00  0.00000E+00  9.000E+00
      21    -1     0     0   502   503  0.000000000E+00  0.000000000E+00 -9.495884520E+02  9.495884520E+02  0.000000000E+00  0.00000E+00  9.000E+00
      25     1     1     2     0     0  2.439805031E+01 -5.831383045E+01 -7.127656255E+02  7.264002966E+02  1.250071455E+02  0.00000E+00  9.000E+00
       5     1     1     2   501     0  2.877252736E+00  1.793482778E+00  3.209802006E+00  6.660367310E+00  4.750000000E+00  0.00000E+00  9.000E+00
      -5     1     1     2     0   503 -1.315992980E+01  6.560379803E+01 -2.001248364E+02  2.110676543E+02  4.750000000E+00  0.00000E+00  9.000E+00
      21     1     1     2   511   501 -1.411537324E+01 -9.083450353E+00 -1.957876448E+01  2.578916149E+01  2.384185791E-07  0.00000E+00  9.000E+00
#rwgt            1           9   1.3732910730503544E-005           8     2188093           0
</event>
<event>
      6   9999  3.45752E-01  6.10544E+01 -1.00000E+00  1.30304E-01
      21    -1     0     0   502   512  0.000000000E+00  0.000000000E+00  1.768140795E+02  1.768140795E+02  0.000000000E+00  0.00000E+00  9.000E+00
      21    -1     0     0   501   502  0.000000000E+00  0.000000000E+00 -9.802648099E+02  9.802648099E+02  0.000000000E+00  0.00000E+00  9.000E+00
      25     1     1     2     0     0 -2.929009600E+01 -2.364869189E+01 -3.791595541E+02  4.010040531E+02  1.250004512E+02  0.00000E+00  9.000E+00
       5     1     1     2   501     0 -5.499697077E-01 -1.530707747E+00 -4.762792422E+02  4.763057049E+02  4.750000000E+00  0.00000E+00  9.000E+00
      -5     1     1     2     0   503 -9.789302744E+00  7.162461650E+01 -9.565907639E+01  1.199964063E+02  4.750000000E+00  0.00000E+00  9.000E+00
      21     1     1     2   503   512  3.962936845E+01 -4.644521686E+01  1.476471423E+02  1.597727250E+02  2.697398305E-06  0.00000E+00  9.000E+00
#rwgt            1           9   8.4391286802993886                8     2190368           0
</event>
<event>
      6   9999  3.45752E-01  2.41609E+01 -1.00000E+00  1.54188E-01
      -4    -1     0     0     0   502  0.000000000E+00  0.000000000E+00  8.352400300E+01  8.352400300E+01  0.000000000E+00  0.00000E+00  9.000E+00
      21    -1     0     0   502   503  0.000000000E+00  0.000000000E+00 -1.137616082E+03  1.137616082E+03  0.000000000E+00  0.00000E+00  9.000E+00
      25     1     1     2     0     0  1.551516741E+01 -5.628194916E+00 -1.034135175E+03  1.041794535E+03  1.250115859E+02  0.00000E+00  9.000E+00
       5     1     1     2   501     0  2.923532094E+00  2.597820443E+00  2.633884842E+01  2.704797862E+01  4.750000000E+00  0.00000E+00  9.000E+00
      -5     1     1     2     0   503  5.593628460E+00  5.414110493E-01 -9.639565980E+01  9.667609598E+01  4.750000000E+00  0.00000E+00  9.000E+00
      -4     1     1     2     0   501 -2.403232797E+01  2.488963424E+00  5.009990760E+01  5.562147488E+01  1.507891493E-06  0.00000E+00  9.000E+00
#rwgt            1           9   3.2038569635387661E-006           8     2191073           0
</event>
<event>
      6   9999 -3.45752E-01  1.59742E+01 -1.00000E+00  1.68037E-01
       2    -1     0     0   501     0  0.000000000E+00  0.000000000E+00  5.293767481E+02  5.293767481E+02  0.000000000E+00  0.00000E+00  9.000E+00
      21    -1     0     0   502   503  0.000000000E+00  0.000000000E+00 -4.286971975E+02  4.286971975E+02  0.000000000E+00  0.00000E+00  9.000E+00
      25     1     1     2     0     0  1.901432886E+01  6.610892590E+00 -4.182157059E+02  4.369605956E+02  1.249997472E+02  0.00000E+00  9.000E+00
       5     1     1     2   501     0 -2.546551286E+00  3.957971273E+00  3.837440386E+01  3.895263575E+01  4.750000000E+00  0.00000E+00  9.000E+00
      -5     1     1     2     0   503 -8.190116336E+00  3.093293573E+00  3.598772999E+01  3.734067060E+01  4.750000000E+00  0.00000E+00  9.000E+00
       2     1     1     2   502     0 -8.277661236E+00 -1.366215744E+01  4.445331226E+02  4.448200437E+02  7.629394531E-06  0.00000E+00  9.000E+00
#rwgt            1           9  -3.6309684102834951E-002           8     2192994           0
</event>
<event>
      6   9999  3.45752E-01  2.31767E+01 -1.00000E+00  1.55473E-01
      21    -1     0     0   501   502  0.000000000E+00  0.000000000E+00  7.540153942E+00  7.540153942E+00  0.000000000E+00  0.00000E+00  9.000E+00
       1    -1     0     0   502     0  0.000000000E+00  0.000000000E+00 -2.265344352E+03  2.265344352E+03  0.000000000E+00  0.00000E+00  9.000E+00
      25     1     1     2     0     0 -1.080218878E-01 -2.779336481E+00 -1.190542385E+03  1.197089346E+03  1.249959820E+02  0.00000E+00  9.000E+00
       5     1     1     2   501     0  4.332235177E+00  1.064420139E+00  2.882110437E-01  6.522792153E+00  4.750000000E+00  0.00000E+00  9.000E+00
      -5     1     1     2     0   503  1.339977903E+01  1.676656141E+01 -1.690248077E+02  1.704482907E+02  4.750000000E+00  0.00000E+00  9.000E+00
       1     1     1     2   503     0 -1.762399232E+01 -1.505164507E+01 -8.985252168E+02  8.988240775E+02  0.000000000E+00  0.00000E+00  9.000E+00
#rwgt            1           9   2.8145937143031281                8     2195461           0
</event>
<event>
      6   9999 -3.45752E-01  1.63441E+01 -1.00000E+00  1.67204E-01
      21    -1     0     0   501   502  0.000000000E+00  0.000000000E+00  4.856760805E+02  4.856760805E+02  0.000000000E+00  0.00000E+00  9.000E+00
      21    -1     0     0   502   511  0.000000000E+00  0.000000000E+00 -8.389615009E+01  8.389615009E+01  0.000000000E+00  0.00000E+00  9.000E+00
      25     1     1     2     0     0  5.680270191E+01  2.702979847E+01  4.588461474E+01  1.472685186E+02  1.250018470E+02  0.00000E+00  9.000E+00
       5     1     1     2   501     0  8.652293454E-01  4.436428551E+00  3.510810466E+02  3.511422708E+02  4.750000000E+00  0.00000E+00  9.000E+00
      -5     1     1     2     0   503 -4.132883092E+01 -3.186971338E+01  1.124427462E+01  5.359801403E+01  4.750000000E+00  0.00000E+00  9.000E+00
      21     1     1     2   503   511 -1.633910033E+01  4.034863586E-01 -6.430005609E+00  1.756342714E+01  1.460009660E-07  0.00000E+00  9.000E+00
#rwgt            1           9  -5.0249096682858643E-003           8     2196794           0
</event>
<event>
      6   9999  3.45752E-01  2.69259E+01 -1.00000E+00  1.50941E-01
      21    -1     0     0   501   502  0.000000000E+00  0.000000000E+00  4.642179952E+01  4.642179952E+01  0.000000000E+00  0.00000E+00  9.000E+00
      21    -1     0     0   512   503  0.000000000E+00  0.000000000E+00 -1.770921409E+03  1.770921409E+03  0.000000000E+00  0.00000E+00  9.000E+00
      25     1     1     2     0     0 -3.314095465E+01 -3.383318116E+01 -8.653520908E+02  8.756151506E+02  1.249985755E+02  0.00000E+00  9.000E+00
       5     1     1     2   501     0 -1.005045891E+00 -3.400813355E+00  3.988280981E+01  4.032092096E+01  4.750000000E+00  0.00000E+00  9.000E+00
      -5     1     1     2     0   503  7.482207101E+00  3.348626411E+01 -3.480996843E+02  3.498189046E+02  4.750000000E+00  0.00000E+00  9.000E+00
      21     1     1     2   512   502  2.666379344E+01  3.747730412E+00 -5.509306438E+02  5.515882320E+02  0.000000000E+00  0.00000E+00  9.000E+00
#rwgt            1           9   1.1655667817112405E-003           8     2199180           0
</event>
<event>
      6   9999  3.45752E-01  4.57990E+00 -1.00000E+00  2.36277E-01
      21    -1     0     0   511   502  0.000000000E+00  0.000000000E+00  4.795647673E+01  4.795647673E+01  0.000000000E+00  0.00000E+00  9.000E+00
      21    -1     0     0   502   503  0.000000000E+00  0.000000000E+00 -1.201236662E+03  1.201236662E+03  0.000000000E+00  0.00000E+00  9.000E+00
      25     1     1     2     0     0  1.326301657E+01 -3.047576908E+01 -1.506738791E+02  1.985750723E+02  1.249990455E+02  0.00000E+00  9.000E+00
       5     1     1     2   501     0 -3.528100850E+00 -3.095000755E+00  2.171126498E+01  2.271493017E+01  4.750000000E+00  0.00000E+00  9.000E+00
      -5     1     1     2     0   503 -6.310599457E+00  3.661207936E+01 -1.022150371E+03  1.022836356E+03  4.750000000E+00  0.00000E+00  9.000E+00
      21     1     1     2   511   501 -3.424316262E+00 -3.041309531E+00 -2.167200313E+00  5.066780311E+00  1.115100797E-07  0.00000E+00  9.000E+00
#rwgt            1           9   5.4323625726200309E-003           8     2201285           0
</event>
<event>
      6   9999  3.45752E-01  6.25530E+00 -1.00000E+00  2.11568E-01
      21    -1     0     0   501   512  0.000000000E+00  0.000000000E+00  3.182373030E+01  3.182373030E+01  0.000000000E+00  0.00000E+00  9.000E+00
      21    -1     0     0   502   503  0.000000000E+00  0.000000000E+00 -1.140658688E+03  1.140658688E+03  0.000000000E+00  0.00000E+00  9.000E+00
      25     1     1     2     0     0  2.867562255E+01  7.331692780E+00 -3.975957420E+02  4.178309318E+02  1.249970739E+02  0.00000E+00  9.000E+00
       5     1     1     2   501     0  7.470350101E+00 -2.738752186E+00  1.731258092E+01  1.963656926E+01  4.750000000E+00  0.00000E+00  9.000E+00
      -5     1     1     2     0   503 -3.010039744E+01 -6.199112390E+00 -7.280779011E+02  7.287416932E+02  4.750000000E+00  0.00000E+00  9.000E+00
      21     1     1     2   502   512 -6.045575209E+00  1.606171796E+00 -4.738960098E-01  6.273224440E+00  1.611807022E-07  0.00000E+00  9.000E+00
#rwgt            1           9   2.0400079786570234E-003           8     2207611           0
</event>
<event>
      6   9999  3.45752E-01  5.26966E+00 -1.00000E+00  2.22223E-01
      21    -1     0     0   501   502  0.000000000E+00  0.000000000E+00  2.607805340E+00  2.607805340E+00  0.000000000E+00  0.00000E+00  9.000E+00
      21    -1     0     0   502   511  0.000000000E+00  0.000000000E+00 -2.963455287E+03  2.963455287E+03  0.000000000E+00  0.00000E+00  9.000E+00
      25     1     1     2     0     0  1.897937880E+00 -7.979775547E+00 -2.037885975E+03  2.041732307E+03  1.249971598E+02  0.00000E+00  9.000E+00
       5     1     1     2   501     0  7.229653132E-01 -2.449959957E-01 -8.287487240E+00  9.582674294E+00  4.750000000E+00  0.00000E+00  9.000E+00
      -5     1     1     2     0   503 -1.860928487E+00  3.010202303E+00 -6.076572248E+02  6.076860947E+02  4.750000000E+00  0.00000E+00  9.000E+00
      21     1     1     2   503   511 -7.599747060E-01  5.214569239E+00 -3.070167950E+02  3.070620161E+02  0.000000000E+00  0.00000E+00  9.000E+00
#rwgt            1           9   6.5043334654119134E-005           8     2212361           0
</event>
<event>
      6   9999  3.45752E-01  1.20646E+01 -1.00000E+00  1.78998E-01
      21    -1     0     0   501   512  0.000000000E+00  0.000000000E+00  1.690678522E+02  1.690678522E+02  0.000000000E+00  0.00000E+00  9.000E+00
      21    -1     0     0   502   503  0.000000000E+00  0.000000000E+00 -3.193428023E+03  3.193428023E+03  0.000000000E+00  0.00000E+00  9.000E+00
      25     1     1     2     0     0 -6.107746609E+01  6.122979346E+00 -4.692441749E+01  1.469520060E+02  1.250001735E+02  0.00000E+00  9.000E+00
       5     1     1     2   501     0 -1.495503530E-01 -1.523835314E-01 -8.826132726E+00  1.002540298E+01  4.750000000E+00  0.00000E+00  9.000E+00
      -5     1     1     2     0   503  5.002936472E+01 -1.479923910E+00 -3.086551598E+03  3.086961039E+03  4.750000000E+00  0.00000E+00  9.000E+00
      21     1     1     2   502   512  1.119765172E+01 -4.490671905E+00  1.179419773E+02  1.185574272E+02  7.008046368E-06  0.00000E+00  9.000E+00
#rwgt            1           9   2.3437381234591402E-003           8     2215700           0
</event>
<event>
      6   9999  3.45752E-01  9.56082E+00 -1.00000E+00  1.89272E-01
      21    -1     0     0   501   502  0.000000000E+00  0.000000000E+00  2.758608833E+00  2.758608833E+00  0.000000000E+00  0.00000E+00  9.000E+00
      21    -1     0     0   502   511  0.000000000E+00  0.000000000E+00 -2.574386207E+03  2.574386207E+03  0.000000000E+00  0.00000E+00  9.000E+00
      25     1     1     2     0     0 -2.492490069E+00  7.023375512E+00 -2.347282229E+03  2.350620140E+03  1.250025573E+02  0.00000E+00  9.000E+00
       5     1     1     2   501     0 -5.804064134E-01  5.142412968E-01 -6.240744801E+00  7.881034919E+00  4.750000000E+00  0.00000E+00  9.000E+00
      -5     1     1     2     0   503 -2.959349834E+00 -1.199895097E-01 -6.488703062E+01  6.512803845E+01  4.750000000E+00  0.00000E+00  9.000E+00
      21     1     1     2   503   511  6.032246316E+00 -7.417627299E+00 -1.532175932E+02  1.535156020E+02  2.697398305E-06  0.00000E+00  9.000E+00
#rwgt            1           9   7.3421323527696021E-003           8     2219707           0
</event>
<event>
      6   9999 -3.45752E-01  5.60556E+00 -1.00000E+00  2.18256E-01
      21    -1     0     0   501   512  0.000000000E+00  0.000000000E+00  1.609941543E+03  1.609941543E+03  0.000000000E+00  0.00000E+00  9.000E+00
      21    -1     0     0   502   503  0.000000000E+00  0.000000000E+00 -9.869138313E+01  9.869138313E+01  0.000000000E+00  0.00000E+00  9.000E+00
      25     1     1     2     0     0 -3.542160657E+01  1.545283748E+01 -4.511233951E+01  1.383963483E+02  1.249997826E+02  0.00000E+00  9.000E+00
       5     1     1     2   501     0  4.343112001E+00 -1.279051620E+00  1.419804829E+02  1.421320464E+02  4.750000000E+00  0.00000E+00  9.000E+00
      -5     1     1     2     0   503  3.577937790E+01 -1.722730736E+01  5.147387634E+01  6.518486364E+01  4.750000000E+00  0.00000E+00  9.000E+00
      21     1     1     2   502   512 -4.700883333E+00  3.053521491E+00  1.362908140E+03  1.362919668E+03  1.525878906E-05  0.00000E+00  9.000E+00
#rwgt            1           9  -2.7088460177257512E-002           8     2222040           0
</event>
<event>
      6   9999  3.45752E-01  3.38464E+01 -1.00000E+00  1.44527E-01
      21    -1     0     0   501   502  0.000000000E+00  0.000000000E+00  9.856296927E+01  9.856296927E+01  0.000000000E+00  0.00000E+00  9.000E+00
      21    -1     0     0   511   503  0.000000000E+00  0.000000000E+00 -2.157386719E+03  2.157386719E+03  0.000000000E+00  0.00000E+00  9.000E+00
      25     1     1     2     0     0 -5.331618072E+01  1.320268104E+02 -5.306192459E+02  5.634335834E+02  1.250076997E+02  0.00000E+00  9.000E+00
       5     1     1     2   501     0  5.681139464E+00  8.377244531E-01  7.878860182E+01  7.914027675E+01  4.750000000E+00  0.00000E+00  9.000E+00
      -5     1     1     2     0   503  3.165125342E+01 -1.030300590E+02 -1.109652463E+03  1.114884813E+03  4.750000000E+00  0.00000E+00  9.000E+00
      21     1     1     2   511   502  1.598378784E+01 -2.983447589E+01 -4.973406432E+02  4.984910158E+02  0.000000000E+00  0.00000E+00  9.000E+00
#rwgt            1           9   3.6305193398238043E-005           8     2226969           0
</event>
<event>
      6   9999  3.45752E-01  2.07371E+01 -1.00000E+00  1.59020E-01
      21    -1     0     0   501   502  0.000000000E+00  0.000000000E+00  9.085902007E+01  9.085902007E+01  0.000000000E+00  0.00000E+00  9.000E+00
      21    -1     0     0   512   503  0.000000000E+00  0.000000000E+00 -9.612815356E+02  9.612815356E+02  0.000000000E+00  0.00000E+00  9.000E+00
      25     1     1     2     0     0 -1.241986547E+02  3.138786577E+01 -5.772513825E+02  6.043626475E+02  1.249981885E+02  0.00000E+00  9.000E+00
       5     1     1     2   501     0 -2.519156300E+00  1.709905336E-02  5.273189830E+01  5.300530199E+01  4.750000000E+00  0.00000E+00  9.000E+00
      -5     1     1     2     0   503  1.443024923E+02 -2.041373367E+01 -2.006022935E+02  2.479995412E+02  4.750000000E+00  0.00000E+00  9.000E+00
      21     1     1     2   512   502 -1.758468128E+01 -1.099123116E+01 -1.453007379E+02  1.467730650E+02  1.907348633E-06  0.00000E+00  9.000E+00
#rwgt            1           9   4.1775383211623950E-003           8     2229580           0
</event>
<event>
      6   9999 -3.45752E-01  8.81828E+00 -1.00000E+00  1.93136E-01
      21    -1     0     0   511   502  0.000000000E+00  0.000000000E+00  6.549097894E+02  6.549097894E+02  0.000000000E+00  0.00000E+00  9.000E+00
      21    -1     0     0   502   503  0.000000000E+00  0.000000000E+00 -1.388024023E+03  1.388024023E+03  0.000000000E+00  0.00000E+00  9.000E+00
      25     1     1     2     0     0 -1.022430903E+02 -6.792128030E+01 -2.562443787E+02  3.104080617E+02  1.250001333E+02  0.00000E+00  9.000E+00
       5     1     1     2   501     0 -3.631826882E+00  3.781377979E+00  2.578903894E+01  2.674184016E+01  4.750000000E+00  0.00000E+00  9.000E+00
      -5     1     1     2     0   503  1.080306779E+02  5.558918525E+01 -1.100841799E+03  1.107536010E+03  4.750000000E+00  0.00000E+00  9.000E+00
      21     1     1     2   511   501 -2.155760691E+00  8.550717072E+00  5.981829053E+02  5.982479003E+02  1.078959322E-05  0.00000E+00  9.000E+00
#rwgt            1           9  -1.3962820887842770E-003           8     2232181           0
</event>
<event>
      6   9999 -3.45752E-01  1.15206E+01 -1.00000E+00  1.80943E-01
      21    -1     0     0   501   502  0.000000000E+00  0.000000000E+00  3.566147348E+01  3.566147348E+01  0.000000000E+00  0.00000E+00  9.000E+00
      21    -1     0     0   512   503  0.000000000E+00  0.000000000E+00 -2.869770971E+02  2.869770971E+02  0.000000000E+00  0.00000E+00  9.000E+00
      25     1     1     2     0     0  6.925271389E+00 -6.370510225E+00 -9.685121056E+01  1.584084169E+02  1.249981071E+02  0.00000E+00  9.000E+00
       5     1     1     2   501     0  9.630395041E-02 -5.263470750E-01  2.835902901E-01  4.788448511E+00  4.750000000E+00  0.00000E+00  9.000E+00
      -5     1     1     2     0   503 -9.850841622E-01 -2.915580961E+00 -1.628534553E+00  5.889450563E+00  4.750000000E+00  0.00000E+00  9.000E+00
      21     1     1     2   512   502 -6.036491177E+00  9.812438261E+00 -1.531194688E+02  1.535522546E+02  1.907348633E-06  0.00000E+00  9.000E+00
#rwgt            1           9  -2.4667407022686990E-004           8     2237297           0
</event>
<event>
      6   9999  3.45752E-01  8.55080E+00 -1.00000E+00  1.94652E-01
      21    -1     0     0   501   511  0.000000000E+00  0.000000000E+00  9.150510289E+00  9.150510289E+00  0.000000000E+00  0.00000E+00  9.000E+00
      21    -1     0     0   502   503  0.000000000E+00  0.000000000E+00 -7.697272683E+02  7.697272683E+02  0.000000000E+00  0.00000E+00  9.000E+00
      25     1     1     2     0     0  1.282212463E+01  5.532225745E-01 -7.128943744E+02  7.238851001E+02  1.250061447E+02  0.00000E+00  9.000E+00
       5     1     1     2   501     0  3.856893549E-01 -2.590606335E-01  4.706553033E-02  4.772900989E+00  4.750000000E+00  0.00000E+00  9.000E+00
      -5     1     1     2     0   503 -4.779227924E+00 -1.734695799E+00 -2.439916062E+01  2.537186883E+01  4.750000000E+00  0.00000E+00  9.000E+00
      21     1     1     2   502   511 -8.428586066E+00  1.440533858E+00 -2.333028849E+01  2.484790860E+01  0.000000000E+00  0.00000E+00  9.000E+00
#rwgt            1           9   4.8818299731238458E-005           8     2239049           0
</event>
<event>
      6   9999  3.45752E-01  2.03722E+01 -1.00000E+00  1.59602E-01
      21    -1     0     0   501   502  0.000000000E+00  0.000000000E+00  1.741298816E+01  1.741298816E+01  0.000000000E+00  0.00000E+00  9.000E+00
      21    -1     0     0   512   503  0.000000000E+00  0.000000000E+00 -1.090370706E+03  1.090370706E+03  0.000000000E+00  0.00000E+00  9.000E+00
      25     1     1     2     0     0 -5.216475249E+01  4.738338436E+01 -5.560377145E+02  5.742583141E+02  1.250132985E+02  0.00000E+00  9.000E+00
       5     1     1     2   501     0 -3.169741308E+00  2.113803529E+00  3.990926921E+00  7.280482334E+00  4.750000000E+00  0.00000E+00  9.000E+00
      -5     1     1     2     0   503  3.879696619E+01 -3.760031375E+01 -3.645504224E+02  3.685628320E+02  4.750000000E+00  0.00000E+00  9.000E+00
      21     1     1     2   512   502  1.653752762E+01 -1.189687413E+01 -1.563605079E+02  1.576820658E+02  2.697398305E-06  0.00000E+00  9.000E+00
#rwgt            1           9   2.1161506173419664E-003           8     2241932           0
</event>
<event>
      6   9999  3.45752E-01  8.23451E+00 -1.00000E+00  1.96541E-01
       1    -1     0     0   501     0  0.000000000E+00  0.000000000E+00  1.441470427E+01  1.441470427E+01  0.000000000E+00  0.00000E+00  9.000E+00
      21    -1     0     0   502   503  0.000000000E+00  0.000000000E+00 -2.884087071E+03  2.884087071E+03  0.000000000E+00  0.00000E+00  9.000E+00
      25     1     1     2     0     0 -3.914737041E+00  2.525821455E+00 -2.690520349E+03  2.693426596E+03  1.250015087E+02  0.00000E+00  9.000E+00
       5     1     1     2   501     0 -5.798486124E+00  1.408633454E-01  6.239541133E-01  7.522905193E+00  4.750000000E+00  0.00000E+00  9.000E+00
      -5     1     1     2     0   503  1.949556392E+00  7.786525939E-02 -1.867139851E+02  1.867845860E+02  4.750000000E+00  0.00000E+00  9.000E+00
       1     1     1     2   502     0  7.763666773E+00 -2.744550060E+00  6.938013029E+00  1.076768785E+01  1.286687442E-06  0.00000E+00  9.000E+00
#rwgt            1           9   5.0081795619691338E-002           8     2243585           0
</event>
<event>
      6   9999  3.45752E-01  2.37247E+00 -1.00000E+00  3.06604E-01
      21    -1     0     0   501   502  0.000000000E+00  0.000000000E+00  4.357885559E+01  4.357885559E+01  0.000000000E+00  0.00000E+00  9.000E+00
      21    -1     0     0   502   511  0.000000000E+00  0.000000000E+00 -1.262581628E+03  1.262581628E+03  0.000000000E+00  0.00000E+00  9.000E+00
      25     1     1     2     0     0  3.020441103E+00  3.786578006E-01 -1.074719416E+03  1.081969340E+03  1.250062562E+02  0.00000E+00  9.000E+00
       5     1     1     2   501     0 -1.023199740E+00 -6.277387048E-01  3.970788866E+01  4.000899793E+01  4.750000000E+00  0.00000E+00  9.000E+00
      -5     1     1     2     0   503 -1.973730979E+00 -2.123272274E+00 -1.525753286E+02  1.526767740E+02  4.750000000E+00  0.00000E+00  9.000E+00
      21     1     1     2   503   511 -2.351038388E-02  2.372353179E+00 -3.141591611E+01  3.150537092E+01  0.000000000E+00  0.00000E+00  9.000E+00
#rwgt            1           9   4.6867168531594762E-002           8     2247050           0
</event>
<event>
      6   9999  3.45752E-01  2.02124E+01 -1.00000E+00  1.59861E-01
      21    -1     0     0   512   502  0.000000000E+00  0.000000000E+00  8.130130523E+01  8.130130523E+01  0.000000000E+00  0.00000E+00  9.000E+00
      21    -1     0     0   502   503  0.000000000E+00  0.000000000E+00 -1.093826391E+03  1.093826391E+03  0.000000000E+00  0.00000E+00  9.000E+00
      25     1     1     2     0     0  5.899608822E+01 -1.014274763E+02 -4.981174516E+02  5.267962095E+02  1.250007176E+02  0.00000E+00  9.000E+00
       5     1     1     2   501     0 -1.416707472E+00 -1.829132327E+00  4.275410611E+01  4.307933233E+01  4.750000000E+00  0.00000E+00  9.000E+00
      -5     1     1     2     0   503 -4.725155860E+01  1.206312577E+02 -5.677991945E+02  5.824114507E+02  4.750000000E+00  0.00000E+00  9.000E+00
      21     1     1     2   512   501 -1.032782214E+01 -1.737464914E+01  1.063745376E+01  2.284070413E+01  6.743495762E-07  0.00000E+00  9.000E+00
#rwgt            1           9  0.40683235609611695                8     2256738           0
</event>
<event>
      6   9999  3.45752E-01  1.40753E+01 -1.00000E+00  1.72802E-01
      21    -1     0     0   501   502  0.000000000E+00  0.000000000E+00  2.210384902E+03  2.210384902E+03  0.000000000E+00  0.00000E+00  9.000E+00
      21    -1     0     0   502   511  0.000000000E+00  0.000000000E+00 -1.271539792E+01  1.271539792E+01  0.000000000E+00  0.00000E+00  9.000E+00
      25     1     1     2     0     0 -4.118796650E+01 -5.358401299E+01  4.855005385E+02  5.058658244E+02  1.249870569E+02  0.00000E+00  9.000E+00
       5     1     1     2   501     0 -3.499374335E+00  3.559350090E-01  5.158819372E+02  5.159157954E+02  4.750000000E+00  0.00000E+00  9.000E+00
      -5     1     1     2     0   503  3.102827579E+01  5.662568272E+01  1.167309461E+03  1.169103572E+03  4.750000000E+00  0.00000E+00  9.000E+00
      21     1     1     2   503   511  1.365906505E+01 -3.397604736E+00  2.897756683E+01  3.221510757E+01  1.118282261E-06  0.00000E+00  9.000E+00
#rwgt            1           9   5.1886693304690622E-004           8     2258943           0
</event>
<event>
      6   9999  3.45752E-01  6.07176E+01 -1.00000E+00  1.30424E-01
      21    -1     0     0   501   502  0.000000000E+00  0.000000000E+00  1.006057834E+02  1.006057834E+02  0.000000000E+00  0.00000E+00  9.000E+00
      21    -1     0     0   502   512  0.000000000E+00  0.000000000E+00 -4.553072002E+02  4.553072002E+02  0.000000000E+00  0.00000E+00  9.000E+00
      25     1     1     2     0     0 -4.093514172E+01 -3.153781125E+01 -3.022730215E+02  3.311597776E+02  1.250099972E+02  0.00000E+00  9.000E+00
       5     1     1     2   501     0  9.993577703E+01  4.507538725E+01  3.452461908E+01  1.150367849E+02  4.750000000E+00  0.00000E+00  9.000E+00
      -5     1     1     2     0   503  8.852549035E-01 -3.522515961E+00 -5.510139276E+00  8.131170259E+00  4.750000000E+00  0.00000E+00  9.000E+00
      21     1     1     2   503   512 -5.988589021E+01 -1.001506005E+01 -8.144287512E+01  1.015852508E+02  9.536743164E-07  0.00000E+00  9.000E+00
#rwgt            1           9   2.0866605239244725E-003           8     2261204           0
</event>
<event>
      6   9999  3.45752E-01  1.33531E+01 -1.00000E+00  1.74868E-01
      21    -1     0     0   501   502  0.000000000E+00  0.000000000E+00  3.889202894E+01  3.889202894E+01  0.000000000E+00  0.00000E+00  9.000E+00
      21    -1     0     0   511   503  0.000000000E+00  0.000000000E+00 -3.234031896E+02  3.234031896E+02  0.000000000E+00  0.00000E+00  9.000E+00
      25     1     1     2     0     0  1.812953773E+01  6.762082645E+00 -1.951542760E+02  2.325588678E+02  1.249961185E+02  0.00000E+00  9.000E+00
       5     1     1     2   501     0  2.047041874E+00  1.707691153E+00  1.853228507E+01  1.931617663E+01  4.750000000E+00  0.00000E+00  9.000E+00
      -5     1     1     2     0   503 -7.484591440E+00 -4.320388428E+00 -3.745568877E+01  3.873210537E+01  4.750000000E+00  0.00000E+00  9.000E+00
      21     1     1     2   511   502 -1.269198816E+01 -4.149385369E+00 -7.043348092E+01  7.168806872E+01  1.348699152E-06  0.00000E+00  9.000E+00
#rwgt            1           9   100.40955357196744                8     2262024           0
</event>
<event>
      6   9999  3.45752E-01  1.00439E+01 -1.00000E+00  1.86994E-01
      21    -1     0     0   512   502  0.000000000E+00  0.000000000E+00  1.272561797E+01  1.272561797E+01  0.000000000E+00  0.00000E+00  9.000E+00
      21    -1     0     0   502   503  0.000000000E+00  0.000000000E+00 -7.211735185E+02  7.211735185E+02  0.000000000E+00  0.00000E+00  9.000E+00
      25     1     1     2     0     0 -5.386961586E+00  6.011958709E+00 -6.755463947E+02  6.870580451E+02  1.249826505E+02  0.00000E+00  9.000E+00
       5     1     1     2   501     0 -2.126905797E+00 -4.242088710E-01  2.489784834E+00  5.784912268E+00  4.750000000E+00  0.00000E+00  9.000E+00
      -5     1     1     2     0   503 -5.360334452E-01  4.187787878E-01 -2.843875833E+01  2.884073826E+01  4.750000000E+00  0.00000E+00  9.000E+00
      21     1     1     2   512   501  8.049900828E+00 -6.006528625E+00 -6.952532354E+00  1.221544087E+01  5.717076687E-07  0.00000E+00  9.000E+00
#rwgt            1           9   2.1132011388861568E-003           8     2264264           0
</event>
<event>
      6   9999  3.45752E-01  2.38667E+01 -1.00000E+00  1.54564E-01
      21    -1     0     0   501   502  0.000000000E+00  0.000000000E+00  5.802073127E+00  5.802073127E+00  0.000000000E+00  0.00000E+00  9.000E+00
      21    -1     0     0   511   503  0.000000000E+00  0.000000000E+00 -2.091732518E+03  2.091732518E+03  0.000000000E+00  0.00000E+00  9.000E+00
      25     1     1     2     0     0  1.315402987E+01 -1.653047352E+01 -1.343212410E+03  1.349181270E+03  1.249969502E+02  0.00000E+00  9.000E+00
       5     1     1     2   501     0  5.345098309E+00 -2.219107072E+00 -3.079858984E+00  8.095834947E+00  4.750000000E+00  0.00000E+00  9.000E+00
      -5     1     1     2     0   503 -1.585423475E+00  1.910808049E+00 -2.279529059E+02  2.280159085E+02  4.750000000E+00  0.00000E+00  9.000E+00
      21     1     1     2   511   502 -1.691370470E+01  1.683877254E+01 -5.116852705E+02  5.122415775E+02  9.344061824E-06  0.00000E+00  9.000E+00
#rwgt            1           9   1.1084729619672553E-003           8     2266664           0
</event>
<event>
      6   9999  3.45752E-01  7.18162E+00 -1.00000E+00  2.03731E-01
      21    -1     0     0   512   502  0.000000000E+00  0.000000000E+00  3.734473010E+02  3.734473010E+02  0.000000000E+00  0.00000E+00  9.000E+00
      21    -1     0     0   502   503  0.000000000E+00  0.000000000E+00 -3.161853262E+03  3.161853262E+03  0.000000000E+00  0.00000E+00  9.000E+00
      25     1     1     2     0     0 -6.372500821E+01 -3.935399768E+01 -2.303498402E+03  2.308103265E+03  1.250047115E+02  0.00000E+00  9.000E+00
       5     1     1     2   501     0  2.100365709E+00 -9.088814552E-02  1.546886743E+00  5.419885180E+00  4.750000000E+00  0.00000E+00  9.000E+00
      -5     1     1     2     0   503  5.512108461E+01  3.639868266E+01 -8.527969697E+02  8.553645025E+02  4.750000000E+00  0.00000E+00  9.000E+00
      21     1     1     2   512   501  6.503557893E+00  3.046203164E+00  3.663425244E+02  3.664129103E+02  9.344061824E-06  0.00000E+00  9.000E+00
#rwgt            1           9   3.1016401502337305E-003           8     2267722           0
</event>
<event>
      6   9999  3.45752E-01  1.84012E+01 -1.00000E+00  1.63022E-01
      21    -1     0     0   511   503  0.000000000E+00  0.000000000E+00  1.991718504E+01  1.991718504E+01  0.000000000E+00  0.00000E+00  9.000E+00
      21    -1     0     0   501   502  0.000000000E+00  0.000000000E+00 -8.394799534E+02  8.394799534E+02  0.000000000E+00  0.00000E+00  9.000E+00
      25     1     1     2     0     0 -6.563018870E+00  2.321861692E+01 -2.933740405E+02  3.198077656E+02  1.250060074E+02  0.00000E+00  9.000E+00
       5     1     1     2   501     0 -5.024963337E+00 -1.470464849E+00 -4.628557965E+02  4.629097789E+02  4.750000000E+00  0.00000E+00  9.000E+00
      -5     1     1     2     0   503 -2.355911445E+00 -9.740999612E+00 -5.564082542E+01  5.673536239E+01  4.750000000E+00  0.00000E+00  9.000E+00
      21     1     1     2   511   502  1.394389365E+01 -1.200715246E+01 -7.692105943E+00  1.994423160E+01  7.444617746E-07  0.00000E+00  9.000E+00
#rwgt            1           9   3523.4764585874609                8     2271198           0
</event>
<event>
      6   9999  3.45752E-01  1.97076E+01 -1.00000E+00  1.60700E-01
      21    -1     0     0   501   502  0.000000000E+00  0.000000000E+00  4.442083324E+01  4.442083324E+01  0.000000000E+00  0.00000E+00  9.000E+00
       2    -1     0     0   502     0  0.000000000E+00  0.000000000E+00 -1.288905426E+03  1.288905426E+03  0.000000000E+00  0.00000E+00  9.000E+00
      25     1     1     2     0     0  2.886288922E+01 -1.576378777E+01 -2.465657335E+02  2.784190260E+02  1.250637026E+02  0.00000E+00  9.000E+00
       5     1     1     2   501     0  5.887153788E+00  4.426326093E+00  2.105083098E+01  2.280243248E+01  4.750000000E+00  0.00000E+00  9.000E+00
      -5     1     1     2     0   503 -1.661023127E+01  1.904046495E+01 -1.906875469E+01  3.200967032E+01  4.750000000E+00  0.00000E+00  9.000E+00
       2     1     1     2   503     0 -1.813981174E+01 -7.703003271E+00 -9.999009352E+02  1.000095130E+03  1.078959322E-05  0.00000E+00  9.000E+00
#rwgt            1           9   8.9750696164390064E-004           8     2272709           0
</event>
<event>
      6   9999  3.45752E-01  1.08400E+01 -1.00000E+00  1.83578E-01
      21    -1     0     0   511   502  0.000000000E+00  0.000000000E+00  4.020573116E+02  4.020573116E+02  0.000000000E+00  0.00000E+00  9.000E+00
      21    -1     0     0   502   503  0.000000000E+00  0.000000000E+00 -7.392470165E+01  7.392470165E+01  0.000000000E+00  0.00000E+00  9.000E+00
      25     1     1     2     0     0 -8.111740320E+00  3.249111122E+00  3.006631459E+02  3.257300279E+02  1.250014668E+02  0.00000E+00  9.000E+00
       5     1     1     2   501     0 -2.336480062E+00 -1.050382699E+00  7.504092426E+01  7.523473438E+01  4.750000000E+00  0.00000E+00  9.000E+00
      -5     1     1     2     0   503  3.270426466E+00 -1.032184502E+01 -5.846539731E+01  5.964898454E+01  4.750000000E+00  0.00000E+00  9.000E+00
      21     1     1     2   511   501  7.177793916E+00  8.123116600E+00  1.089393713E+01  1.536826649E+01  2.384185791E-07  0.00000E+00  9.000E+00
#rwgt            1           9   8.4028917646111582E-003           8     2274382           0
</event>
<event>
      6   9999  3.45752E-01  4.45546E+00 -1.00000E+00  2.38539E-01
       3    -1     0     0   501     0  0.000000000E+00  0.000000000E+00  1.997366580E+01  1.997366580E+01  0.000000000E+00  0.00000E+00  9.000E+00
      21    -1     0     0   502   503  0.000000000E+00  0.000000000E+00 -2.078414567E+03  2.078414567E+03  0.000000000E+00  0.00000E+00  9.000E+00
      25     1     1     2     0     0  2.480176740E+01  6.571164237E+00 -1.682656475E+03  1.687487715E+03  1.249946633E+02  0.00000E+00  9.000E+00
       5     1     1     2   501     0 -3.837442175E+00 -1.490253999E-01  7.759090369E+00  9.874925537E+00  4.750000000E+00  0.00000E+00  9.000E+00
      -5     1     1     2     0   503 -2.540727185E+01 -6.755802140E+00 -3.912300295E+02  3.921411338E+02  4.750000000E+00  0.00000E+00  9.000E+00
       3     1     1     2   502     0  4.442946624E+00  3.336633033E-01  7.686513667E+00  8.884458242E+00  1.072883606E-06  0.00000E+00  9.000E+00
#rwgt            1           9   312.90005297952848                8     2277410           0
</event>
<event>
      6   9999  3.45752E-01  1.18695E+01 -1.00000E+00  1.79680E-01
      21    -1     0     0   501   502  0.000000000E+00  0.000000000E+00  2.609980219E+01  2.609980219E+01  0.000000000E+00  0.00000E+00  9.000E+00
      21    -1     0     0   511   503  0.000000000E+00  0.000000000E+00 -1.146469028E+03  1.146469028E+03  0.000000000E+00  0.00000E+00  9.000E+00
      25     1     1     2     0     0  7.397010335E+00 -1.052453228E+00 -8.581173910E+02  8.672058678E+02  1.249989485E+02  0.00000E+00  9.000E+00
       5     1     1     2   501     0  1.679845190E+00 -1.722675447E+00  2.037496410E+01  2.105922963E+01  4.750000000E+00  0.00000E+00  9.000E+00
      -5     1     1     2     0   503 -9.312226369E+00  1.464228971E+01 -1.337600899E+02  1.349645818E+02  4.750000000E+00  0.00000E+00  9.000E+00
      21     1     1     2   511   502  2.353708443E-01 -1.186716104E+01 -1.488667087E+02  1.493391505E+02  1.907348633E-06  0.00000E+00  9.000E+00
#rwgt            1           9   3.2413945666481245E-004           8     2282663           0
</event>
<event>
      6   9999  3.45752E-01  2.11565E+01 -1.00000E+00  1.58369E-01
      21    -1     0     0   502   512  0.000000000E+00  0.000000000E+00  7.884665702E+01  7.884665702E+01  0.000000000E+00  0.00000E+00  9.000E+00
      21    -1     0     0   501   502  0.000000000E+00  0.000000000E+00 -1.094799636E+02  1.094799636E+02  0.000000000E+00  0.00000E+00  9.000E+00
      25     1     1     2     0     0 -1.869208543E+01  2.088864937E+01 -5.601257004E+01  1.398159753E+02  1.250014769E+02  0.00000E+00  9.000E+00
       5     1     1     2   501     0 -7.537937725E-01  1.903005267E+00  1.124177985E+01  1.237456053E+01  4.750000000E+00  0.00000E+00  9.000E+00
      -5     1     1     2     0   503  6.594074890E+00 -5.986029582E+00  1.068715126E+01  1.470007060E+01  4.750000000E+00  0.00000E+00  9.000E+00
      21     1     1     2   503   512  1.285180431E+01 -1.680562506E+01  3.450332383E+00  2.143601412E+01  2.230201594E-07  0.00000E+00  9.000E+00
#rwgt            1           9   2.3521290330776974E-003           8     2285789           0
</event>
<event>
      6   9999  3.45752E-01  1.93571E+01 -1.00000E+00  1.61301E-01
      21    -1     0     0   501   502  0.000000000E+00  0.000000000E+00  1.276650267E+02  1.276650267E+02  0.000000000E+00  0.00000E+00  9.000E+00
      -2    -1     0     0     0   503  0.000000000E+00  0.000000000E+00 -1.391102979E+03  1.391102979E+03  0.000000000E+00  0.00000E+00  9.000E+00
      25     1     1     2     0     0  2.153539635E+01  2.596846294E+00 -2.334412932E+02  2.656841814E+02  1.249909197E+02  0.00000E+00  9.000E+00
       5     1     1     2   501     0 -3.977066866E+00  3.543410941E+00  1.110169212E+02  1.112460881E+02  4.750000000E+00  0.00000E+00  9.000E+00
      -5     1     1     2     0   503 -2.505435098E+00 -1.831015814E+01 -3.027720028E+02  3.033726871E+02  4.750000000E+00  0.00000E+00  9.000E+00
      -2     1     1     2     0   502 -1.505289438E+01  1.216990090E+01 -8.382415779E+02  8.384650494E+02  0.000000000E+00  0.00000E+00  9.000E+00
#rwgt            1           9  0.34876043218164571                8     2287077           0
</event>
<event>
      6   9999  3.45752E-01  1.21804E+01 -1.00000E+00  1.78600E-01
      21    -1     0     0   501   502  0.000000000E+00  0.000000000E+00  2.840898607E+01  2.840898607E+01  0.000000000E+00  0.00000E+00  9.000E+00
      21    -1     0     0   502   511  0.000000000E+00  0.000000000E+00 -1.141783751E+03  1.141783751E+03  0.000000000E+00  0.00000E+00  9.000E+00
      25     1     1     2     0     0 -1.057643479E-01 -1.602761685E+01 -9.805155639E+02  9.885811237E+02  1.249998853E+02  0.00000E+00  9.000E+00
       5     1     1     2   501     0  1.842909471E+00  4.582864386E-01  2.299973529E+01  2.356176277E+01  4.750000000E+00  0.00000E+00  9.000E+00
      -5     1     1     2     0   503  6.892562400E+00  6.973315004E+00 -1.120725017E+02  1.126008112E+02  4.750000000E+00  0.00000E+00  9.000E+00
      21     1     1     2   503   511 -8.629707523E+00  8.596015411E+00 -4.378643451E+01  4.544903938E+01  1.066240300E-06  0.00000E+00  9.000E+00
#rwgt            1           9   1.4808260083368899E-004           8     2289544           0
</event>
<event>
      6   9999  3.45752E-01  7.28290E+00 -1.00000E+00  2.02970E-01
      21    -1     0     0   501   512  0.000000000E+00  0.000000000E+00  8.295029387E+00  8.295029387E+00  0.000000000E+00  0.00000E+00  9.000E+00
      21    -1     0     0   502   503  0.000000000E+00  0.000000000E+00 -1.360392177E+03  1.360392177E+03  0.000000000E+00  0.00000E+00  9.000E+00
      25     1     1     2     0     0  9.508895017E+00  1.289714952E+01 -9.808304090E+02  9.888932038E+02  1.249988870E+02  0.00000E+00  9.000E+00
       5     1     1     2   501     0 -1.025918157E-01 -3.833568259E-01 -1.456420723E+01  1.532436360E+01  4.750000000E+00  0.00000E+00  9.000E+00
      -5     1     1     2     0   503 -1.569895732E+01 -1.618028660E+01 -3.564380939E+02  3.571819371E+02  4.750000000E+00  0.00000E+00  9.000E+00
      21     1     1     2   502   512  6.292654121E+00  3.666493907E+00 -2.644376520E-01  7.287702019E+00  3.632110281E-07  0.00000E+00  9.000E+00
#rwgt            1           9   1.3866567940447397E-003           8     2292192           0
</event>
<event>
      6   9999  3.45752E-01  9.38171E+00 -1.00000E+00  1.90161E-01
      21    -1     0     0   501   511  0.000000000E+00  0.000000000E+00  4.911637311E+01  4.911637311E+01  0.000000000E+00  0.00000E+00  9.000E+00
      21    -1     0     0   502   503  0.000000000E+00  0.000000000E+00 -9.990954593E+02  9.990954593E+02  0.000000000E+00  0.00000E+00  9.000E+00
      25     1     1     2     0     0 -1.012073108E+02 -4.868598543E+00 -4.727831336E+02  4.994149784E+02  1.249992249E+02  0.00000E+00  9.000E+00
       5     1     1     2   501     0 -3.090598199E+00 -9.784561281E+00 -5.358406590E+01  5.476407632E+01  4.750000000E+00  0.00000E+00  9.000E+00
      -5     1     1     2     0   503  1.113941224E+02  8.516372215E+00 -4.512226729E+02  4.648716405E+02  4.750000000E+00  0.00000E+00  9.000E+00
      21     1     1     2   502   511 -7.096213408E+00  6.136787610E+00  2.761078620E+01  2.916113718E+01  0.000000000E+00  0.00000E+00  9.000E+00
#rwgt            1           9   7.3068518966289450E-002           8     2294851           0
</event>
<event>
      6   9999  3.45752E-01  2.40591E+01 -1.00000E+00  1.54317E-01
      21    -1     0     0   501   512  0.000000000E+00  0.000000000E+00  3.121050303E+01  3.121050303E+01  0.000000000E+00  0.00000E+00  9.000E+00
      21    -1     0     0   502   503  0.000000000E+00  0.000000000E+00 -1.142098953E+03  1.142098953E+03  0.000000000E+00  0.00000E+00  9.000E+00
      25     1     1     2     0     0 -6.874388496E+01 -5.975235538E+01 -5.288063217E+02  5.509505731E+02  1.249573625E+02  0.00000E+00  9.000E+00
       5     1     1     2   501     0 -8.883204382E-02 -1.590702817E+00  1.164836941E+01  1.268011185E+01  4.750000000E+00  0.00000E+00  9.000E+00
      -5     1     1     2     0   503  7.876246060E+01  3.942868199E+01 -5.665672041E+02  5.733926276E+02  4.750000000E+00  0.00000E+00  9.000E+00
      21     1     1     2   502   512 -9.929743597E+00  2.191437620E+01 -2.716329382E+01  3.628614368E+01  3.371747881E-07  0.00000E+00  9.000E+00
#rwgt            1           9   1.8667540561574027E-003           8     2298760           0
</event>
<event>
      6   9999  3.45752E-01  6.97668E+00 -1.00000E+00  2.05323E-01
      21    -1     0     0   501   502  0.000000000E+00  0.000000000E+00  4.569758827E+01  4.569758827E+01  0.000000000E+00  0.00000E+00  9.000E+00
      21    -1     0     0   511   503  0.000000000E+00  0.000000000E+00 -1.577468488E+03  1.577468488E+03  0.000000000E+00  0.00000E+00  9.000E+00
      25     1     1     2     0     0 -5.619042752E+00 -1.611781814E+01 -9.542875365E+02  9.625900672E+02  1.249943097E+02  0.00000E+00  9.000E+00
       5     1     1     2   501     0  1.166295665E+01 -1.291129957E+00  4.040576695E+01  4.234241463E+01  4.750000000E+00  0.00000E+00  9.000E+00
      -5     1     1     2     0   503 -1.442636522E+00  1.216468058E+01 -3.330888998E+02  3.333479238E+02  4.750000000E+00  0.00000E+00  9.000E+00
      21     1     1     2   511   502 -4.601277371E+00  5.244267519E+00 -2.848002303E+02  2.848856706E+02  0.000000000E+00  0.00000E+00  9.000E+00
#rwgt            1           9  0.25880625426424958                8     2300707           0
</event>
<event>
      6   9999 -3.45752E-01  2.47020E+00 -1.00000E+00  3.01023E-01
      21    -1     0     0   501   512  0.000000000E+00  0.000000000E+00  9.795803137E+00  9.795803137E+00  0.000000000E+00  0.00000E+00  9.000E+00
      21    -1     0     0   502   503  0.000000000E+00  0.000000000E+00 -7.027644355E+02  7.027644355E+02  0.000000000E+00  0.00000E+00  9.000E+00
      25     1     1     2     0     0  3.607429590E+00 -1.324514044E+00 -6.556024188E+02  6.674184855E+02  1.249725383E+02  0.00000E+00  9.000E+00
       5     1     1     2   501     0 -2.607384394E-01  1.988499703E-01 -5.410436266E+00  7.207138574E+00  4.750000000E+00  0.00000E+00  9.000E+00
      -5     1     1     2     0   503 -2.435354832E+00 -1.170274554E+00 -3.417789499E+01  3.461201384E+01  4.750000000E+00  0.00000E+00  9.000E+00
      21     1     1     2   502   512 -9.113363180E-01  2.295938628E+00  2.222117751E+00  3.322600693E+00  1.812804499E-07  0.00000E+00  9.000E+00
#rwgt            1           9  -1.2171919507802674E-004           8     2305613           0
</event>
<event>
      6   9999  3.45752E-01  7.74404E+00 -1.00000E+00  1.99702E-01
      21    -1     0     0   511   502  0.000000000E+00  0.000000000E+00  4.661005193E+02  4.661005193E+02  0.000000000E+00  0.00000E+00  9.000E+00
      21    -1     0     0   502   503  0.000000000E+00  0.000000000E+00 -1.087529430E+03  1.087529430E+03  0.000000000E+00  0.00000E+00  9.000E+00
      25     1     1     2     0     0  3.213576466E+01  3.057781968E+01 -1.543205232E+02  2.034863762E+02  1.249966840E+02  0.00000E+00  9.000E+00
       5     1     1     2   501     0 -2.092126241E-01 -5.237362207E-01  6.221844289E-01  4.823658675E+00  4.750000000E+00  0.00000E+00  9.000E+00
      -5     1     1     2     0   503 -2.468827119E+01 -3.280679200E+01 -9.060198927E+02  9.069621849E+02  4.750000000E+00  0.00000E+00  9.000E+00
      21     1     1     2   511   501 -7.238280853E+00  2.752708535E+00  4.382893209E+02  4.383577294E+02  9.344061824E-06  0.00000E+00  9.000E+00
#rwgt            1           9  0.31085128126824352                8     2311398           0
</event>
<event>
      6   9999  3.45752E-01  1.56821E+01 -1.00000E+00  1.68714E-01
      21    -1     0     0   501   512  0.000000000E+00  0.000000000E+00  5.438653887E+01  5.438653887E+01  0.000000000E+00  0.00000E+00  9.000E+00
      21    -1     0     0   502   503  0.000000000E+00  0.000000000E+00 -1.294273452E+03  1.294273452E+03  0.000000000E+00  0.00000E+00  9.000E+00
      25     1     1     2     0     0 -2.756568695E+01  2.390740695E+01 -1.022830875E+03  1.031086480E+03  1.249996012E+02  0.00000E+00  9.000E+00
       5     1     1     2   501     0  3.259663325E-01  5.556896821E+00  4.572531051E+01  4.630714715E+01  4.750000000E+00  0.00000E+00  9.000E+00
      -5     1     1     2     0   503  1.671672847E+01 -4.109169029E+01 -2.364212842E+02  2.405941856E+02  4.750000000E+00  0.00000E+00  9.000E+00
      21     1     1     2   502   512  1.052299214E+01  1.162738651E+01 -2.636006445E+01  3.067217759E+01  3.371747881E-07  0.00000E+00  9.000E+00
#rwgt            1           9   6.4812207256207871E-005           8     2315576           0
</event>
<event>
      6   9999  3.45752E-01  6.05792E+00 -1.00000E+00  2.13478E-01
      21    -1     0     0   501   502  0.000000000E+00  0.000000000E+00  1.787192392E+01  1.787192392E+01  0.000000000E+00  0.00000E+00  9.000E+00
      21    -1     0     0   502   511  0.000000000E+00  0.000000000E+00 -1.342618930E+03  1.342618930E+03  0.000000000E+00  0.00000E+00  9.000E+00
      25     1     1     2     0     0  3.483710076E+00  2.637889492E+00 -1.112918851E+03  1.119926708E+03  1.250134706E+02  0.00000E+00  9.000E+00
       5     1     1     2   501     0 -7.031403050E+00  2.485091341E+00  1.278893705E+01  1.554785254E+01  4.750000000E+00  0.00000E+00  9.000E+00
      -5     1     1     2     0   503  5.345500517E-01  1.324280246E-01 -3.783389719E+01  3.813488636E+01  4.750000000E+00  0.00000E+00  9.000E+00
      21     1     1     2   503   511  3.013142923E+00 -5.255408857E+00 -1.867831949E+02  1.868814069E+02  2.697398305E-06  0.00000E+00  9.000E+00
#rwgt            1           9   3.7592527417806110E-004           8     2318882           0
</event>
<event>
      6   9999  3.45752E-01  9.50990E+00 -1.00000E+00  1.89522E-01
       1    -1     0     0   501     0  0.000000000E+00  0.000000000E+00  1.789648714E+01  1.789648714E+01  0.000000000E+00  0.00000E+00  9.000E+00
      21    -1     0     0   502   503  0.000000000E+00  0.000000000E+00 -7.109847404E+02  7.109847404E+02  0.000000000E+00  0.00000E+00  9.000E+00
      25     1     1     2     0     0  3.687007051E+00 -4.851923804E+00 -6.270286508E+02  6.393954672E+02  1.249979977E+02  0.00000E+00  9.000E+00
       5     1     1     2   501     0  4.068961153E-02 -7.133697749E+00 -3.827272919E+01  3.922060172E+01  4.750000000E+00  0.00000E+00  9.000E+00
      -5     1     1     2     0   503  4.225928602E+00  6.772359218E+00 -3.631944199E+01  3.748850075E+01  4.750000000E+00  0.00000E+00  9.000E+00
       1     1     1     2   502     0 -7.953625264E+00  5.213262335E+00  8.532568654E+00  1.277665789E+01  5.462855929E-07  0.00000E+00  9.000E+00
#rwgt            1           9   1.1559277154458323E-002           8     2322711           0
</event>
<event>
      6   9999  3.45752E-01  3.54520E+01 -1.00000E+00  1.43295E-01
      21    -1     0     0   511   502  0.000000000E+00  0.000000000E+00  6.660674156E+01  6.660674156E+01  0.000000000E+00  0.00000E+00  9.000E+00
      21    -1     0     0   502   503  0.000000000E+00  0.000000000E+00 -1.296710486E+03  1.296710486E+03  0.000000000E+00  0.00000E+00  9.000E+00
      25     1     1     2     0     0 -6.236296401E+01  2.094824691E+02 -6.370491040E+02  6.850028501E+02  1.250011984E+02  0.00000E+00  9.000E+00
       5     1     1     2   501     0  5.305193176E+01 -4.486397813E+01 -1.141348472E+02  1.337034399E+02  4.750000000E+00  0.00000E+00  9.000E+00
      -5     1     1     2     0   503  3.485507145E+01 -1.400349864E+02 -4.872505850E+02  5.081932393E+02  4.750000000E+00  0.00000E+00  9.000E+00
      21     1     1     2   511   501 -2.554403920E+01 -2.458350457E+01  8.330791942E+00  3.641769803E+01  3.153981341E-07  0.00000E+00  9.000E+00
#rwgt            1           9   1.0379954199215560E-003           8     2324637           0
</event>
<event>
      6   9999  3.45752E-01  1.03488E+01 -1.00000E+00  1.85639E-01
      21    -1     0     0   501   502  0.000000000E+00  0.000000000E+00  1.369488959E+01  1.369488959E+01  0.000000000E+00  0.00000E+00  9.000E+00
      21    -1     0     0   512   503  0.000000000E+00  0.000000000E+00 -1.041028206E+03  1.041028206E+03  0.000000000E+00  0.00000E+00  9.000E+00
      25     1     1     2     0     0 -4.442407133E+00  9.620990134E+00 -7.803000483E+02  7.903206700E+02  1.250051902E+02  0.00000E+00  9.000E+00
       5     1     1     2   501     0 -6.861082065E-01 -1.362241471E-01  7.625367520E+00  9.010995023E+00  4.750000000E+00  0.00000E+00  9.000E+00
      -5     1     1     2     0   503 -1.540274186E+00 -1.571121018E+00 -2.729842716E+01  2.779581787E+01  4.750000000E+00  0.00000E+00  9.000E+00
      21     1     1     2   512   502  6.668789525E+00 -7.913644969E+00 -2.273602083E+02  2.275956126E+02  0.000000000E+00  0.00000E+00  9.000E+00
#rwgt            1           9   1.5375539346607686E-002           8     2326288           0
</event>
<event>
      6   9999  3.45752E-01  1.20329E+01 -1.00000E+00  1.79107E-01
      21    -1     0     0   501   511  0.000000000E+00  0.000000000E+00  1.364291865E+01  1.364291865E+01  0.000000000E+00  0.00000E+00  9.000E+00
      21    -1     0     0   502   503  0.000000000E+00  0.000000000E+00 -1.727855332E+03  1.727855332E+03  0.000000000E+00  0.00000E+00  9.000E+00
      25     1     1     2     0     0  2.732260277E+01  2.942331744E+01 -1.586991294E+03  1.592412568E+03  1.249966572E+02  0.00000E+00  9.000E+00
       5     1     1     2   501     0 -3.263577632E+00  4.339072736E+00  5.919021980E+00  9.331442137E+00  4.750000000E+00  0.00000E+00  9.000E+00
      -5     1     1     2     0   503 -2.002311984E+01 -2.242649452E+01 -9.703766536E+01  1.016992821E+02  4.750000000E+00  0.00000E+00  9.000E+00
      21     1     1     2   502   511 -4.035905302E+00 -1.133589566E+01 -3.610247598E+01  3.805495808E+01  8.259061849E-07  0.00000E+00  9.000E+00
#rwgt            1           9   2.9081813376955796E-004           8     2328666           0
</event>
<event>
      6   9999  3.45752E-01  5.08285E+00 -1.00000E+00  2.24611E-01
      21    -1     0     0   502   503  0.000000000E+00  0.000000000E+00  7.039364771E+00  7.039364771E+00  0.000000000E+00  0.00000E+00  9.000E+00
      21    -1     0     0   512   502  0.000000000E+00  0.000000000E+00 -7.555762111E+02  7.555762111E+02  0.000000000E+00  0.00000E+00  9.000E+00
      25     1     1     2     0     0  7.706593542E+00 -1.995538563E+00 -6.126818410E+02  6.253544436E+02  1.250030724E+02  0.00000E+00  9.000E+00
       5     1     1     2   501     0 -3.654567979E+00 -8.829709149E-01 -3.890088213E+01  3.936974263E+01  4.750000000E+00  0.00000E+00  9.000E+00
      -5     1     1     2     0   503 -6.816642321E+00 -1.386725338E+00 -5.886072733E+01  5.946038464E+01  4.750000000E+00  0.00000E+00  9.000E+00
      21     1     1     2   512   501  2.764616758E+00  4.265234816E+00 -3.809339582E+01  3.843100491E+01  0.000000000E+00  0.00000E+00  9.000E+00
#rwgt            1           9   4.1118938181506449E-002           8     2331360           0
</event>
<event>
      6   9999  3.45752E-01  1.36452E+01 -1.00000E+00  1.74013E-01
      21    -1     0     0   501   502  0.000000000E+00  0.000000000E+00  1.200285078E+01  1.200285078E+01  0.000000000E+00  0.00000E+00  9.000E+00
      21    -1     0     0   502   511  0.000000000E+00  0.000000000E+00 -9.405791802E+02  9.405791802E+02  0.000000000E+00  0.00000E+00  9.000E+00
      25     1     1     2     0     0 -1.795097472E+01  1.857074061E+01 -4.929562002E+02  5.092132239E+02  1.250007288E+02  0.00000E+00  9.000E+00
       5     1     1     2   501     0  1.537200393E+00  1.254147681E+00  1.129466439E+00  5.270110615E+00  4.750000000E+00  0.00000E+00  9.000E+00
      -5     1     1     2     0   503  1.909019832E+01 -6.444733424E+00 -2.584039339E+02  2.592317994E+02  4.750000000E+00  0.00000E+00  9.000E+00
      21     1     1     2   503   511 -2.676423992E+00 -1.338015486E+01 -1.783456617E+02  1.788668970E+02  3.303624740E-06  0.00000E+00  9.000E+00
#rwgt            1           9   2.0408012127123916E-004           8     2334860           0
</event>
<event>
      6   9999  3.45752E-01  1.26128E+01 -1.00000E+00  1.77165E-01
      21    -1     0     0   501   502  0.000000000E+00  0.000000000E+00  6.165226509E+01  6.165226509E+01  0.000000000E+00  0.00000E+00  9.000E+00
      21    -1     0     0   502   512  0.000000000E+00  0.000000000E+00 -1.150760310E+02  1.150760310E+02  0.000000000E+00  0.00000E+00  9.000E+00
      25     1     1     2     0     0 -1.788145571E+01 -1.004899427E+00 -5.909555055E+01  1.392693182E+02  1.248314969E+02  0.00000E+00  9.000E+00
       5     1     1     2   501     0  7.784683243E+00 -5.298821789E+00  1.440545326E+01  1.785380601E+01  4.750000000E+00  0.00000E+00  9.000E+00
      -5     1     1     2     0   503 -2.433726602E-01 -9.187010468E-01 -1.529099131E+00  5.079752555E+00  4.750000000E+00  0.00000E+00  9.000E+00
      21     1     1     2   503   512  1.034014513E+01  7.222422262E+00 -7.204569495E+00  1.452541931E+01  0.000000000E+00  0.00000E+00  9.000E+00
#rwgt            1           9   5.6251640559914703E-004           8     2336823           0
</event>
<event>
      6   9999  3.45752E-01  4.77717E+00 -1.00000E+00  2.32901E-01
      21    -1     0     0   502   503  0.000000000E+00  0.000000000E+00  4.420456001E+03  4.420456001E+03  0.000000000E+00  0.00000E+00  9.000E+00
       3    -1     0     0   501     0  0.000000000E+00  0.000000000E+00 -7.058780037E+00  7.058780037E+00  0.000000000E+00  0.00000E+00  9.000E+00
      25     1     1     2     0     0  2.578231734E+01 -3.277688836E+01  3.935158461E+03  3.937364170E+03  1.250017578E+02  0.00000E+00  9.000E+00
       5     1     1     2   501     0  1.824065615E-01 -8.808625062E-01  2.176119627E+01  2.229173286E+01  4.750000000E+00  0.00000E+00  9.000E+00
      -5     1     1     2     0   503 -2.670761344E+01  2.893869486E+01  4.601355810E+02  4.618420294E+02  4.750000000E+00  0.00000E+00  9.000E+00
       3     1     1     2   502     0  7.428895363E-01  4.719056006E+00 -3.658017727E+00  6.016848689E+00  1.657180640E-06  0.00000E+00  9.000E+00
#rwgt            1           9   1.6078207320760485E-002           8     2338746           0
</event>
<event>
      6   9999  3.45752E-01  1.18553E+02 -1.00000E+00  1.17376E-01
      21    -1     0     0   501   502  0.000000000E+00  0.000000000E+00  2.906003339E+03  2.906003339E+03  0.000000000E+00  0.00000E+00  9.000E+00
      21    -1     0     0   511   503  0.000000000E+00  0.000000000E+00 -2.061522404E+02  2.061522404E+02  0.000000000E+00  0.00000E+00  9.000E+00
      25     1     1     2     0     0  8.842708885E+01 -1.356245921E+02  1.008813765E+02  2.280680029E+02  1.249983271E+02  0.00000E+00  9.000E+00
       5     1     1     2   501     0  6.141334978E+00  2.727382480E+01  2.422097941E+03  2.422263936E+03  4.750000000E+00  0.00000E+00  9.000E+00
      -5     1     1     2     0   503 -3.974610060E+01  2.134666159E+02  2.431311025E+02  3.260108037E+02  4.750000000E+00  0.00000E+00  9.000E+00
      21     1     1     2   511   502 -5.482232323E+01 -1.051158487E+02 -6.625932193E+01  1.358128363E+02  0.000000000E+00  0.00000E+00  9.000E+00
#rwgt            1           9   2.3629695810168074E-002           8     2342743           0
</event>
<event>
      6   9999  3.45752E-01  2.56984E+01 -1.00000E+00  1.52322E-01
      21    -1     0     0   501   512  0.000000000E+00  0.000000000E+00  4.935739317E+02  4.935739317E+02  0.000000000E+00  0.00000E+00  9.000E+00
      21    -1     0     0   502   503  0.000000000E+00  0.000000000E+00 -1.964430232E+03  1.964430232E+03  0.000000000E+00  0.00000E+00  9.000E+00
      25     1     1     2     0     0  1.017817917E+01  2.998562900E+01 -1.877971709E+03  1.882393689E+03  1.250021083E+02  0.00000E+00  9.000E+00
       5     1     1     2   501     0 -5.396840909E+00  6.329476671E-01  4.255867315E+01  4.316630253E+01  4.750000000E+00  0.00000E+00  9.000E+00
      -5     1     1     2     0   503 -1.735688086E+01 -8.207352062E+00 -8.240447099E+01  8.474480090E+01  4.750000000E+00  0.00000E+00  9.000E+00
      21     1     1     2   502   512  1.257554260E+01 -2.241122461E+01  4.469612064E+02  4.476993715E+02  5.394796609E-06  0.00000E+00  9.000E+00
#rwgt            1           9   1.6477258386222822E-004           8     2343622           0
</event>
<event>
      6   9999  3.45752E-01  4.27699E+01 -1.00000E+00  1.38520E-01
      21    -1     0     0   501   511  0.000000000E+00  0.000000000E+00  1.701177067E+02  1.701177067E+02  0.000000000E+00  0.00000E+00  9.000E+00
      21    -1     0     0   502   503  0.000000000E+00  0.000000000E+00 -9.420159255E+02  9.420159255E+02  0.000000000E+00  0.00000E+00  9.000E+00
      25     1     1     2     0     0  2.909092110E+01 -1.247443855E+01 -8.438973416E+02  8.536915180E+02  1.249983657E+02  0.00000E+00  9.000E+00
       5     1     1     2   501     0 -7.800416401E+00  4.845846512E+01 -1.897986780E+01  5.283812278E+01  4.750000000E+00  0.00000E+00  9.000E+00
      -5     1     1     2     0   503  6.370504309E+00 -3.362975964E+00 -5.387815165E+01  5.456473823E+01  4.750000000E+00  0.00000E+00  9.000E+00
      21     1     1     2   502   511 -2.766100900E+01 -3.262105060E+01  1.448571422E+02  1.510392532E+02  3.814697266E-06  0.00000E+00  9.000E+00
#rwgt            1           9   2.6312911510403612                8     2345716           0
</event>
<event>
      6   9999  3.45752E-01  8.46815E+00 -1.00000E+00  1.95135E-01
      21    -1     0     0   512   502  0.000000000E+00  0.000000000E+00  3.178848033E+01  3.178848033E+01  0.000000000E+00  0.00000E+00  9.000E+00
      21    -1     0     0   502   503  0.000000000E+00  0.000000000E+00 -1.088049666E+03  1.088049666E+03  0.000000000E+00  0.00000E+00  9.000E+00
      25     1     1     2     0     0  1.187335236E+01 -8.423609056E+00 -9.600492478E+02  9.682623745E+02  1.250021364E+02  0.00000E+00  9.000E+00
       5     1     1     2   501     0 -3.124666466E+00  1.122781039E+01  2.062771823E+01  2.416386820E+01  4.750000000E+00  0.00000E+00  9.000E+00
      -5     1     1     2     0   503 -6.776981997E+00  5.431209382E+00 -1.183899052E+02  1.188030205E+02  4.750000000E+00  0.00000E+00  9.000E+00
      21     1     1     2   512   501 -1.971703900E+00 -8.235410720E+00  1.550248614E+00  8.608883596E+00  1.976862425E-07  0.00000E+00  9.000E+00
#rwgt            1           9   3.0081404488742721E-004           8     2347171           0
</event>
<event>
      6   9999  3.45752E-01  7.24129E+01 -1.00000E+00  1.26709E-01
      21    -1     0     0   501   502  0.000000000E+00  0.000000000E+00  1.329779837E+02  1.329779837E+02  0.000000000E+00  0.00000E+00  9.000E+00
      21    -1     0     0   511   503  0.000000000E+00  0.000000000E+00 -2.781765428E+03  2.781765428E+03  0.000000000E+00  0.00000E+00  9.000E+00
      25     1     1     2     0     0  3.065665011E+02 -3.304959874E+02 -1.182588699E+03  1.271749983E+03  1.249854808E+02  0.00000E+00  9.000E+00
       5     1     1     2   501     0 -5.250175281E-01 -9.388333273E+00  5.358931332E+01  5.461495625E+01  4.750000000E+00  0.00000E+00  9.000E+00
      -5     1     1     2     0   503 -2.501568055E+02  2.938350948E+02 -1.201613736E+03  1.262067995E+03  4.750000000E+00  0.00000E+00  9.000E+00
      21     1     1     2   511   502 -5.588467803E+01  4.604922580E+01 -3.181743225E+02  3.263104778E+02  6.607249480E-06  0.00000E+00  9.000E+00
#rwgt            1           9   4.0675866530212193E-003           8     2350962           0
</event>
<event>
      6   9999 -3.45752E-01  2.26852E+00 -1.00000E+00  3.13063E-01
      21    -1     0     0   501   502  0.000000000E+00  0.000000000E+00  1.078361489E+01  1.078361489E+01  0.000000000E+00  0.00000E+00  9.000E+00
      21    -1     0     0   502   512  0.000000000E+00  0.000000000E+00 -8.459737205E+02  8.459737205E+02  0.000000000E+00  0.00000E+00  9.000E+00
      25     1     1     2     0     0  1.609027601E+01 -1.343928343E+01 -7.236547947E+02  7.346725741E+02  1.250120710E+02  0.00000E+00  9.000E+00
       5     1     1     2   501     0 -9.902362835E-01 -5.470103333E-01  2.572985035E+00  5.519288015E+00  4.750000000E+00  0.00000E+00  9.000E+00
      -5     1     1     2     0   503 -1.392924708E+01  1.204325212E+01 -7.437992627E+01  7.677238942E+01  4.750000000E+00  0.00000E+00  9.000E+00
      21     1     1     2   503   512 -1.170792646E+00  1.943041641E+00 -3.972836972E+01  3.979308390E+01  4.768371582E-07  0.00000E+00  9.000E+00
#rwgt            1           9  -7.1351861158999215E-005           8     2352261           0
</event>
<event>
      6   9999  3.45752E-01  4.01768E+00 -1.00000E+00  2.47454E-01
      21    -1     0     0   501   511  0.000000000E+00  0.000000000E+00  2.910431946E+01  2.910431946E+01  0.000000000E+00  0.00000E+00  9.000E+00
      21    -1     0     0   502   503  0.000000000E+00  0.000000000E+00 -8.138652385E+02  8.138652385E+02  0.000000000E+00  0.00000E+00  9.000E+00
      25     1     1     2     0     0 -5.388718026E-02  1.673107723E-01 -7.680101170E+02  7.781176159E+02  1.250098138E+02  0.00000E+00  9.000E+00
       5     1     1     2   501     0  6.381168246E-02 -3.519171837E+00  3.964976960E+00  7.118439762E+00  4.750000000E+00  0.00000E+00  9.000E+00
      -5     1     1     2     0   503  4.485343491E-01 -6.395736845E-01 -3.885632508E+01  3.915337452E+01  4.750000000E+00  0.00000E+00  9.000E+00
      21     1     1     2   502   511 -4.584588513E-01  3.991434749E+00  1.814054606E+01  1.858012775E+01  1.066240300E-06  0.00000E+00  9.000E+00
#rwgt            1           9   1.2460339818658409E-003           8     2359425           0
</event>
<event>
      6   9999  3.45752E-01  2.09976E+00 -1.00000E+00  3.24916E-01
      21    -1     0     0   501   502  0.000000000E+00  0.000000000E+00  1.594865092E+01  1.594865092E+01  0.000000000E+00  0.00000E+00  9.000E+00
      21    -1     0     0   502   512  0.000000000E+00  0.000000000E+00 -1.968838936E+03  1.968838936E+03  0.000000000E+00  0.00000E+00  9.000E+00
      25     1     1     2     0     0 -4.242497867E+01 -1.115173635E+01 -6.525306881E+02  6.658406920E+02  1.249931528E+02  0.00000E+00  9.000E+00
       5     1     1     2   501     0 -1.447185646E+00 -3.047535826E+00  6.298669173E+00  8.580067264E+00  4.750000000E+00  0.00000E+00  9.000E+00
      -5     1     1     2     0   503  4.361109176E+01  1.211580356E+01 -2.775650600E+02  2.812714793E+02  4.750000000E+00  0.00000E+00  9.000E+00
      21     1     1     2   503   512  2.610725470E-01  2.083468617E+00 -1.029093206E+03  1.029095348E+03  1.525878906E-05  0.00000E+00  9.000E+00
#rwgt            1           9   1.5271843718670515E-003           8     2364785           0
</event>
<event>
      6   9999  3.45752E-01  1.24078E+01 -1.00000E+00  1.77836E-01
      21    -1     0     0   511   502  0.000000000E+00  0.000000000E+00  5.345500422E+02  5.345500422E+02  0.000000000E+00  0.00000E+00  9.000E+00
      21    -1     0     0   502   503  0.000000000E+00  0.000000000E+00 -1.566388898E+02  1.566388898E+02  0.000000000E+00  0.00000E+00  9.000E+00
      25     1     1     2     0     0  1.323512270E+02  3.387126837E+01 -6.213108931E+00  1.852783719E+02  1.250014490E+02  0.00000E+00  9.000E+00
       5     1     1     2   501     0 -6.735138719E+00  3.696081261E+00  2.944995147E+02  2.946379979E+02  4.750000000E+00  0.00000E+00  9.000E+00
      -5     1     1     2     0   503 -1.368757874E+02 -4.278018358E+01  2.522023643E+01  1.456837263E+02  4.750000000E+00  0.00000E+00  9.000E+00
      21     1     1     2   511   501  1.125969914E+01  5.212833953E+00  6.440451014E+01  6.558883585E+01  0.000000000E+00  0.00000E+00  9.000E+00
#rwgt            1           9   4.5525196429240842E-005           8     2372938           0
</event>
<event>
      6   9999  3.45752E-01  1.90773E+01 -1.00000E+00  1.61792E-01
      21    -1     0     0   512   502  0.000000000E+00  0.000000000E+00  1.505535629E+01  1.505535629E+01  0.000000000E+00  0.00000E+00  9.000E+00
      21    -1     0     0   502   503  0.000000000E+00  0.000000000E+00 -8.001001663E+02  8.001001663E+02  0.000000000E+00  0.00000E+00  9.000E+00
      25     1     1     2     0     0  1.610303738E+00  1.165444671E+01 -5.792574774E+02  5.927082842E+02  1.250018633E+02  0.00000E+00  9.000E+00
       5     1     1     2   501     0  2.124899023E+00 -1.531877875E+00 -1.401939082E+00  5.602658197E+00  4.750000000E+00  0.00000E+00  9.000E+00
      -5     1     1     2     0   503  9.312840845E+00 -2.403988508E+01 -1.926956961E+02  1.944706633E+02  4.750000000E+00  0.00000E+00  9.000E+00
      21     1     1     2   512   501 -1.304804361E+01  1.391731625E+01 -1.168969746E+01  2.237391696E+01  4.768371582E-07  0.00000E+00  9.000E+00
#rwgt            1           9   1.5766162174133154E-004           8     2377216           0
</event>
<event>
      6   9999  3.45752E-01  9.38793E+00 -1.00000E+00  1.90130E-01
      21    -1     0     0   501   502  0.000000000E+00  0.000000000E+00  2.057791541E+03  2.057791541E+03  0.000000000E+00  0.00000E+00  9.000E+00
      21    -1     0     0   511   503  0.000000000E+00  0.000000000E+00 -3.855005606E+00  3.855005606E+00  0.000000000E+00  0.00000E+00  9.000E+00
      25     1     1     2     0     0 -1.667772636E+00 -1.006009658E+01  1.172117511E+03  1.178807796E+03  1.249974928E+02  0.00000E+00  9.000E+00
       5     1     1     2   501     0  6.016238720E-01 -1.128582274E+00  7.739231992E+02  7.739388324E+02  4.750000000E+00  0.00000E+00  9.000E+00
      -5     1     1     2     0   503 -1.024627520E+00  2.036522862E+00  3.298790581E+01  3.340601318E+01  4.750000000E+00  0.00000E+00  9.000E+00
      21     1     1     2   511   502  2.090776283E+00  9.152155991E+00  7.490791914E+01  7.549390476E+01  1.348699152E-06  0.00000E+00  9.000E+00
#rwgt            1           9   1.9463805130821263E-004           8     2378998           0
</event>
<event>
      6   9999  3.45752E-01  3.16689E+01 -1.00000E+00  1.46333E-01
      21    -1     0     0   512   502  0.000000000E+00  0.000000000E+00  8.321994283E+00  8.321994283E+00  0.000000000E+00  0.00000E+00  9.000E+00
      21    -1     0     0   502   503  0.000000000E+00  0.000000000E+00 -9.311097172E+02  9.311097172E+02  0.000000000E+00  0.00000E+00  9.000E+00
      25     1     1     2     0     0  2.056771704E+01  5.327044971E+00 -7.162296896E+02  7.273655233E+02  1.249969113E+02  0.00000E+00  9.000E+00
       5     1     1     2   501     0  1.203005151E+00  8.964447526E-02 -1.318931357E+01  1.407038556E+01  4.750000000E+00  0.00000E+00  9.000E+00
      -5     1     1     2     0   503  9.365512500E+00  3.673416884E-01 -3.761216638E+01  3.905234082E+01  4.750000000E+00  0.00000E+00  9.000E+00
      21     1     1     2   512   501 -3.113623469E+01 -5.784031135E+00 -1.557565533E+02  1.589434617E+02  3.303624740E-06  0.00000E+00  9.000E+00
#rwgt            1           9   8.6127527447967531E-004           8     2381124           0
</event>
<event>
      6   9999  3.45752E-01  1.36152E+01 -1.00000E+00  1.74100E-01
      21    -1     0     0   501   511  0.000000000E+00  0.000000000E+00  1.346120315E+01  1.346120315E+01  0.000000000E+00  0.00000E+00  9.000E+00
      21    -1     0     0   502   503  0.000000000E+00  0.000000000E+00 -8.599279094E+02  8.599279094E+02  0.000000000E+00  0.00000E+00  9.000E+00
      25     1     1     2     0     0  2.400440165E+01  7.317900880E+00 -6.527664872E+02  6.651005256E+02  1.249994375E+02  0.00000E+00  9.000E+00
       5     1     1     2   501     0 -3.003993892E+00 -2.655918158E-01  1.781064129E+00  5.901627551E+00  4.750000000E+00  0.00000E+00  9.000E+00
      -5     1     1     2     0   503 -3.441844767E+01 -4.743480267E+00 -1.691193911E+02  1.727167076E+02  4.750000000E+00  0.00000E+00  9.000E+00
      21     1     1     2   502   511  1.341803991E+01 -2.308828796E+00 -2.636189204E+01  2.967025172E+01  3.371747881E-07  0.00000E+00  9.000E+00
#rwgt            1           9   1.5735880106428105E-003           8     2381760           0
</event>
<event>
      6   9999  3.45752E-01  2.88282E+01 -1.00000E+00  1.48966E-01
      21    -1     0     0   502   503  0.000000000E+00  0.000000000E+00  5.658456999E+01  5.658456999E+01  0.000000000E+00  0.00000E+00  9.000E+00
      21    -1     0     0   512   502  0.000000000E+00  0.000000000E+00 -1.713977956E+02  1.713977956E+02  0.000000000E+00  0.00000E+00  9.000E+00
      25     1     1     2     0     0 -2.361132649E+01 -5.899856602E-01 -3.406544819E+01  1.316971730E+02  1.250033911E+02  0.00000E+00  9.000E+00
       5     1     1     2   501     0  5.555326139E-01 -1.309531000E+01 -1.247485339E+01  1.870775849E+01  4.750000000E+00  0.00000E+00  9.000E+00
      -5     1     1     2     0   503 -1.610125757E+00 -1.236455221E+00 -2.447570033E+00  5.716154786E+00  4.750000000E+00  0.00000E+00  9.000E+00
      21     1     1     2   512   501  2.466591964E+01  1.492175088E+01 -6.582535396E+01  7.186127932E+01  9.536743164E-07  0.00000E+00  9.000E+00
#rwgt            1           9   4.3117770847189318E-002           8     2383399           0
</event>
<event>
      6   9999  3.45752E-01  1.94786E+01 -1.00000E+00  1.61091E-01
      -4    -1     0     0     0   502  0.000000000E+00  0.000000000E+00  6.888233318E+01  6.888233318E+01  0.000000000E+00  0.00000E+00  9.000E+00
      21    -1     0     0   501   511  0.000000000E+00  0.000000000E+00 -2.076265102E+03  2.076265102E+03  0.000000000E+00  0.00000E+00  9.000E+00
      25     1     1     2     0     0 -4.114602967E+01 -1.931679496E+02 -6.603501113E+02  7.004957761E+02  1.250008412E+02  0.00000E+00  9.000E+00
       5     1     1     2   501     0  2.062735012E+02  2.368843321E+02 -6.059613760E+02  6.825501416E+02  4.750000000E+00  0.00000E+00  9.000E+00
      -5     1     1     2     0   502 -1.459035579E+02 -4.057682178E+01 -5.652527972E+02  5.852073256E+02  4.750000000E+00  0.00000E+00  9.000E+00
      -4     1     1     2     0   511 -1.922391363E+01 -3.139560718E+00 -1.758184841E+02  1.768941917E+02  1.907348633E-06  0.00000E+00  9.000E+00
#rwgt            1           5   2.1106178995822678E-004           8     2384706           0
</event>
<event>
      6   9999  3.45752E-01  2.31349E+00 -1.00000E+00  3.10197E-01
      21    -1     0     0   501   502  0.000000000E+00  0.000000000E+00  2.062444265E+01  2.062444265E+01  0.000000000E+00  0.00000E+00  9.000E+00
      21    -1     0     0   512   503  0.000000000E+00  0.000000000E+00 -7.415442150E+02  7.415442150E+02  0.000000000E+00  0.00000E+00  9.000E+00
      25     1     1     2     0     0 -1.140430236E+00  7.759465729E+00 -3.560222719E+02  3.774101955E+02  1.250003506E+02  0.00000E+00  9.000E+00
       5     1     1     2   501     0  2.192938432E+00  1.758590933E+00  8.992404489E+00  1.055118285E+01  4.750000000E+00  0.00000E+00  9.000E+00
      -5     1     1     2     0   503  7.424911727E-01 -1.097758844E+01 -2.415071304E+02  2.418042912E+02  4.750000000E+00  0.00000E+00  9.000E+00
      21     1     1     2   512   502 -1.794999369E+00  1.459531776E+00 -1.323827745E+02  1.324029880E+02  2.697398305E-06  0.00000E+00  9.000E+00
#rwgt            1           9   4.7313870058495418E-002           8     2385941           0
</event>
<event>
      6   9999  3.45752E-01  3.62600E+01 -1.00000E+00  1.42704E-01
      21    -1     0     0   501   502  0.000000000E+00  0.000000000E+00  2.196162573E+01  2.196162573E+01  0.000000000E+00  0.00000E+00  9.000E+00
      21    -1     0     0   502   511  0.000000000E+00  0.000000000E+00 -1.434908006E+03  1.434908006E+03  0.000000000E+00  0.00000E+00  9.000E+00
      25     1     1     2     0     0 -4.137110661E+01 -3.783342224E+01 -5.429900510E+02  5.600041950E+02  1.249942665E+02  0.00000E+00  9.000E+00
       5     1     1     2   501     0 -1.311564613E+01  3.565990046E+00  6.752546386E+00  1.590269918E+01  4.750000000E+00  0.00000E+00  9.000E+00
      -5     1     1     2     0   503  1.931277459E+01  4.307513599E+01 -3.836875541E+02  3.866098192E+02  4.750000000E+00  0.00000E+00  9.000E+00
      21     1     1     2   503   511  3.517397815E+01 -8.807703788E+00 -4.930213219E+02  4.943529187E+02  0.000000000E+00  0.00000E+00  9.000E+00
#rwgt            1           9   3.9900103127789273E-003           8     2394032           0
</event>
<event>
      6   9999  3.45752E-01  4.88485E+01 -1.00000E+00  1.35331E-01
      21    -1     0     0   501   512  0.000000000E+00  0.000000000E+00  2.608047695E+01  2.608047695E+01  0.000000000E+00  0.00000E+00  9.000E+00
      21    -1     0     0   502   503  0.000000000E+00  0.000000000E+00 -9.995993139E+02  9.995993139E+02  0.000000000E+00  0.00000E+00  9.000E+00
      25     1     1     2     0     0  2.117206528E+01 -7.069415789E+01 -7.291921119E+02  7.434889934E+02  1.249352910E+02  0.00000E+00  9.000E+00
       5     1     1     2   501     0 -2.513497364E+00 -7.325973454E+00  2.008688275E+00  9.305099926E+00  4.750000000E+00  0.00000E+00  9.000E+00
      -5     1     1     2     0   503 -4.044703791E+01  3.430015853E+01 -1.945159776E+02  2.016717427E+02  4.750000000E+00  0.00000E+00  9.000E+00
      21     1     1     2   502   512  2.178846999E+01  4.371997281E+01 -5.181943575E+01  7.121395487E+01  1.168007728E-06  0.00000E+00  9.000E+00
#rwgt            1           9   4.6305640905446304E-004           8     2395270           0
</event>
<event>
      6   9999  3.45752E-01  1.83307E+01 -1.00000E+00  1.63154E-01
      21    -1     0     0   511   502  0.000000000E+00  0.000000000E+00  3.028363425E+02  3.028363425E+02  0.000000000E+00  0.00000E+00  9.000E+00
      21    -1     0     0   502   503  0.000000000E+00  0.000000000E+00 -7.087480434E+02  7.087480434E+02  0.000000000E+00  0.00000E+00  9.000E+00
      25     1     1     2     0     0 -1.243460575E+01  8.583919449E+00 -6.455388951E+02  6.577030651E+02  1.249982146E+02  0.00000E+00  9.000E+00
       5     1     1     2   501     0 -1.077359376E-01  2.701986136E+00 -3.215261120E+01  3.261388114E+01  4.750000000E+00  0.00000E+00  9.000E+00
      -5     1     1     2     0   503  3.216548682E-01  2.376749339E+00 -2.417084933E+01  2.474964357E+01  4.750000000E+00  0.00000E+00  9.000E+00
      21     1     1     2   511   501  1.222068682E+01 -1.366265492E+01  2.959506548E+02  2.965177961E+02  0.000000000E+00  0.00000E+00  9.000E+00
#rwgt            1           9   2.2480794055198966E-005           8     2396108           0
</event>
<event>
      6   9999  3.45752E-01  1.81372E+01 -1.00000E+00  1.63520E-01
      -1    -1     0     0     0   512  0.000000000E+00  0.000000000E+00  4.135155891E+01  4.135155891E+01  0.000000000E+00  0.00000E+00  9.000E+00
       1    -1     0     0   501     0  0.000000000E+00  0.000000000E+00 -1.211466407E+03  1.211466407E+03  0.000000000E+00  0.00000E+00  9.000E+00
      25     1     1     2     0     0  1.386185730E+02  1.027773228E+02 -6.948437151E+02  7.267819776E+02  1.250038710E+02  0.00000E+00  9.000E+00
       5     1     1     2   501     0 -7.408698627E+01 -1.152645486E+02 -3.101954703E+02  3.391439075E+02  4.750000000E+00  0.00000E+00  9.000E+00
      -5     1     1     2     0   502 -4.907746651E+01  2.993631862E+00 -1.608567430E+02  1.682706565E+02  4.750000000E+00  0.00000E+00  9.000E+00
      21     1     1     2   502   512 -1.545412025E+01  9.493593884E+00 -4.218919605E+00  1.862142423E+01  6.502099105E-07  0.00000E+00  9.000E+00
#rwgt            1           1   4.0730553694054205E-004           8     2397339           0
</event>
<event>
      6   9999  3.45752E-01  6.90870E+00 -1.00000E+00  2.05868E-01
      21    -1     0     0   501   502  0.000000000E+00  0.000000000E+00  9.296820661E+00  9.296820661E+00  0.000000000E+00  0.00000E+00  9.000E+00
      21    -1     0     0   502   511  0.000000000E+00  0.000000000E+00 -9.051824006E+02  9.051824006E+02  0.000000000E+00  0.00000E+00  9.000E+00
      25     1     1     2     0     0  2.790749780E+00  1.241749190E+00 -7.141033612E+02  7.249703858E+02  1.250164772E+02  0.00000E+00  9.000E+00
       5     1     1     2   501     0  2.937922912E+00  6.128662408E-02  1.263291918E+00  5.726565599E+00  4.750000000E+00  0.00000E+00  9.000E+00
      -5     1     1     2     0   503  1.113916442E+00 -2.256490127E+00 -2.434212133E+01  2.492857654E+01  4.750000000E+00  0.00000E+00  9.000E+00
      21     1     1     2   503   511 -6.842589135E+00  9.534543132E-01 -1.587033893E+02  1.588536933E+02  1.907348633E-06  0.00000E+00  9.000E+00
#rwgt            1           9   7.9362069726236828E-002           8     2397930           0
</event>
<event>
      6   9999  3.45752E-01  1.15857E+01 -1.00000E+00  1.80703E-01
      21    -1     0     0   501   502  0.000000000E+00  0.000000000E+00  4.242035459E+02  4.242035459E+02  0.000000000E+00  0.00000E+00  9.000E+00
      21    -1     0     0   502   512  0.000000000E+00  0.000000000E+00 -7.625867531E+02  7.625867531E+02  0.000000000E+00  0.00000E+00  9.000E+00
      25     1     1     2     0     0 -3.785443636E+01  9.979658362E+01  2.760043209E+02  3.212403394E+02  1.249986163E+02  0.00000E+00  9.000E+00
       5     1     1     2   501     0 -3.846962525E+00 -6.221740441E-01  1.067347195E+02  1.069114075E+02  4.750000000E+00  0.00000E+00  9.000E+00
      -5     1     1     2     0   503  3.337959764E+01 -9.111366723E+01 -1.074557117E+02  1.448626604E+02  4.750000000E+00  0.00000E+00  9.000E+00
      21     1     1     2   503   512  8.321801236E+00 -8.060742343E+00 -6.136665358E+02  6.137758916E+02  1.078959322E-05  0.00000E+00  9.000E+00
#rwgt            1           9   2.1080092076792511E-003           8     2401236           0
</event>
<event>
      6   9999  3.45752E-01  3.61873E+01 -1.00000E+00  1.42756E-01
      21    -1     0     0   501   502  0.000000000E+00  0.000000000E+00  3.641550066E+01  3.641550066E+01  0.000000000E+00  0.00000E+00  9.000E+00
      21    -1     0     0   511   503  0.000000000E+00  0.000000000E+00 -1.392659536E+03  1.392659536E+03  0.000000000E+00  0.00000E+00  9.000E+00
      25     1     1     2     0     0 -1.248956778E+02 -4.012712912E+01 -3.795549398E+02  4.205892970E+02  1.249971505E+02  0.00000E+00  9.000E+00
       5     1     1     2   501     0 -2.744269756E+01  3.456799840E+01 -2.106858871E+02  2.153117593E+02  4.750000000E+00  0.00000E+00  9.000E+00
      -5     1     1     2     0   503  1.631117366E+02 -2.898729274E+01 -5.597689822E+02  5.837889838E+02  4.750000000E+00  0.00000E+00  9.000E+00
      21     1     1     2   511   502 -1.077336123E+01  3.454642346E+01 -2.062342258E+02  2.093849960E+02  2.697398305E-06  0.00000E+00  9.000E+00
#rwgt            1           9   8.2292185489207543E-003           8     2404868           0
</event>
<event>
      6   9999 -3.45752E-01  1.22954E+01 -1.00000E+00  1.78211E-01
       1    -1     0     0   501     0  0.000000000E+00  0.000000000E+00  6.708203371E+01  6.708203371E+01  0.000000000E+00  0.00000E+00  9.000E+00
      21    -1     0     0   502   503  0.000000000E+00  0.000000000E+00 -1.500516258E+03  1.500516258E+03  0.000000000E+00  0.00000E+00  9.000E+00
      25     1     1     2     0     0 -4.418199578E+01 -4.732154719E+01 -6.186730268E+02  6.344864018E+02  1.250012095E+02  0.00000E+00  9.000E+00
       5     1     1     2   501     0  1.855888500E+01  4.054062767E+01 -3.767731744E+02  3.794318940E+02  4.750000000E+00  0.00000E+00  9.000E+00
      -5     1     1     2     0   503  1.587377160E+01  1.427265202E+01 -4.949364638E+02  4.954193688E+02  4.750000000E+00  0.00000E+00  9.000E+00
       1     1     1     2   502     0  9.749339173E+00 -7.491732494E+00  5.694844121E+01  5.826062672E+01  1.507891493E-06  0.00000E+00  9.000E+00
#rwgt            1           9  -6.2476959426166816E-002           8     2406451           0
</event>
<event>
      6   9999  3.45752E-01  9.64155E+00 -1.00000E+00  1.88879E-01
      21    -1     0     0   501   511  0.000000000E+00  0.000000000E+00  2.443673336E+01  2.443673336E+01  0.000000000E+00  0.00000E+00  9.000E+00
      21    -1     0     0   502   503  0.000000000E+00  0.000000000E+00 -5.644032468E+03  5.644032468E+03  0.000000000E+00  0.00000E+00  9.000E+00
      25     1     1     2     0     0 -1.601496201E+00 -1.722032851E+01 -5.459039783E+03  5.460498101E+03  1.250002015E+02  0.00000E+00  9.000E+00
       5     1     1     2   501     0 -7.586521348E+00  5.957685204E+00  2.057643619E+01  2.321640681E+01  4.750000000E+00  0.00000E+00  9.000E+00
      -5     1     1     2     0   503  1.203790282E+00  5.857861594E+00 -1.693859765E+02  1.695580585E+02  4.750000000E+00  0.00000E+00  9.000E+00
      21     1     1     2   502   511  7.984227267E+00  5.404781710E+00 -1.174641146E+01  1.519663557E+01  8.085167388E-07  0.00000E+00  9.000E+00
#rwgt            1           9   3.3578486563468329E-004           8     2409316           0
</event>
<event>
      6   9999 -3.45752E-01  4.89665E+01 -1.00000E+00  1.35275E-01
      21    -1     0     0   501   512  0.000000000E+00  0.000000000E+00  1.775623667E+02  1.775623667E+02  0.000000000E+00  0.00000E+00  9.000E+00
      21    -1     0     0   502   503  0.000000000E+00  0.000000000E+00 -9.026614649E+02  9.026614649E+02  0.000000000E+00  0.00000E+00  9.000E+00
      25     1     1     2     0     0  1.912694173E+01 -5.639773605E+01 -8.364827549E+02  8.478718179E+02  1.250466943E+02  0.00000E+00  9.000E+00
       5     1     1     2   501     0  2.260468148E+01  3.979011226E+01 -2.653852884E+01  5.311384633E+01  4.750000000E+00  0.00000E+00  9.000E+00
      -5     1     1     2     0   503  3.163161820E+00 -2.941719575E+00 -1.625227554E+01  1.747450334E+01  4.750000000E+00  0.00000E+00  9.000E+00
      21     1     1     2   502   512 -4.489478503E+01  1.954934337E+01  1.541744611E+02  1.617636641E+02  3.814697266E-06  0.00000E+00  9.000E+00
#rwgt            1           9  -3.3028110415201841E-003           8     2413793           0
</event>
<event>
      6   9999  3.45752E-01  2.63652E+01 -1.00000E+00  1.51560E-01
      21    -1     0     0   501   511  0.000000000E+00  0.000000000E+00  1.223181321E+01  1.223181321E+01  0.000000000E+00  0.00000E+00  9.000E+00
      21    -1     0     0   502   503  0.000000000E+00  0.000000000E+00 -8.046728618E+02  8.046728618E+02  0.000000000E+00  0.00000E+00  9.000E+00
      25     1     1     2     0     0  7.048624210E+00 -1.231361658E+01 -5.083311230E+02  5.236674656E+02  1.250031027E+02  0.00000E+00  9.000E+00
       5     1     1     2   501     0 -5.245416090E-01 -1.444560072E+00 -4.180013984E+00  6.511291317E+00  4.750000000E+00  0.00000E+00  9.000E+00
      -5     1     1     2     0   503 -8.384182544E+00 -1.254132239E+01 -2.274139923E+02  2.279632990E+02  4.750000000E+00  0.00000E+00  9.000E+00
      21     1     1     2   502   511  1.860099942E+00  2.629949904E+01 -5.251591934E+01  5.876261912E+01  9.536743164E-07  0.00000E+00  9.000E+00
#rwgt            1           9   2.6042944990349912E-002           8     2414990           0
</event>
<event>
      6   9999  3.45752E-01  1.15841E+01 -1.00000E+00  1.80709E-01
      21    -1     0     0   501   502  0.000000000E+00  0.000000000E+00  7.629636172E+01  7.629636172E+01  0.000000000E+00  0.00000E+00  9.000E+00
      21    -1     0     0   502   512  0.000000000E+00  0.000000000E+00 -1.554195158E+02  1.554195158E+02  0.000000000E+00  0.00000E+00  9.000E+00
      25     1     1     2     0     0  7.805286035E+00  5.890074320E+00 -8.674632224E+01  1.524881739E+02  1.250284099E+02  0.00000E+00  9.000E+00
       5     1     1     2   501     0  1.937141315E+00 -9.169211353E-01  4.080148522E+01  4.113291817E+01  4.750000000E+00  0.00000E+00  9.000E+00
      -5     1     1     2     0   503  2.329645921E-01  9.159864912E-01 -2.826657965E+00  5.607655393E+00  4.750000000E+00  0.00000E+00  9.000E+00
      21     1     1     2   503   512 -9.975391942E+00 -5.889139675E+00 -3.035165906E+01  3.248713004E+01  5.840038640E-07  0.00000E+00  9.000E+00
#rwgt            1           9   3.8964331314050042                8     2416351           0
</event>
<event>
      6   9999  3.45752E-01  5.27470E+00 -1.00000E+00  2.22161E-01
      21    -1     0     0   501   502  0.000000000E+00  0.000000000E+00  1.973672861E+01  1.973672861E+01  0.000000000E+00  0.00000E+00  9.000E+00
      21    -1     0     0   502   511  0.000000000E+00  0.000000000E+00 -1.324057996E+03  1.324057996E+03  0.000000000E+00  0.00000E+00  9.000E+00
      25     1     1     2     0     0  1.578500729E+00 -4.739944280E+01 -8.028520466E+02  8.139071566E+02  1.249970083E+02  0.00000E+00  9.000E+00
       5     1     1     2   501     0 -2.840274225E+00  2.844487060E+00  1.086608223E+01  1.252168149E+01  4.750000000E+00  0.00000E+00  9.000E+00
      -5     1     1     2     0   503 -2.783040744E+00  4.116941249E+01 -1.703769150E+02  1.753668199E+02  4.750000000E+00  0.00000E+00  9.000E+00
      21     1     1     2   503   511  4.044814240E+00  3.385543254E+00 -3.419583880E+02  3.419990666E+02  3.814697266E-06  0.00000E+00  9.000E+00
#rwgt            1           9   1.5748539345936089E-004           8     2418700           0
</event>
<event>
      6   9999  3.45752E-01  2.16291E+01 -1.00000E+00  1.57657E-01
      21    -1     0     0   512   503  0.000000000E+00  0.000000000E+00  7.828099835E+01  7.828099835E+01  0.000000000E+00  0.00000E+00  9.000E+00
      21    -1     0     0   501   502  0.000000000E+00  0.000000000E+00 -9.061542985E+02  9.061542985E+02  0.000000000E+00  0.00000E+00  9.000E+00
      25     1     1     2     0     0 -7.068587083E+01  3.806750551E+01 -6.956227432E+02  7.113084652E+02  1.249924178E+02  0.00000E+00  9.000E+00
       5     1     1     2   501     0  5.513239883E+01 -4.025000057E+01 -1.730582005E+02  1.860949951E+02  4.750000000E+00  0.00000E+00  9.000E+00
      -5     1     1     2     0   503 -6.040826232E+00  9.552051525E-01 -2.055688077E+01  2.196706274E+01  4.750000000E+00  0.00000E+00  9.000E+00
      21     1     1     2   512   502  2.159429823E+01  1.227289909E+00  6.136452427E+01  6.506477384E+01  2.132480600E-06  0.00000E+00  9.000E+00
#rwgt            1           9   1.7360857388571856E-002           8     2423243           0
</event>
<event>
      6   9999  3.45752E-01  1.67238E+01 -1.00000E+00  1.66376E-01
      21    -1     0     0   501   502  0.000000000E+00  0.000000000E+00  6.760470149E+02  6.760470149E+02  0.000000000E+00  0.00000E+00  9.000E+00
      21    -1     0     0   511   503  0.000000000E+00  0.000000000E+00 -1.029219139E+02  1.029219139E+02  0.000000000E+00  0.00000E+00  9.000E+00
      25     1     1     2     0     0 -1.026297727E+00 -2.112163483E+01 -4.553802329E+01  1.346808413E+02  1.249721597E+02  0.00000E+00  9.000E+00
       5     1     1     2   501     0  9.058314070E-01  3.761231701E+00  6.144279117E+02  6.144584515E+02  4.750000000E+00  0.00000E+00  9.000E+00
      -5     1     1     2     0   503 -5.667538475E+00  1.670137797E+00 -6.475336547E+00  9.970097092E+00  4.750000000E+00  0.00000E+00  9.000E+00
      21     1     1     2   511   502  5.788004794E+00  1.569026534E+01  1.071054910E+01  1.985953896E+01  2.064765462E-07  0.00000E+00  9.000E+00
#rwgt            1           9   1.7797752476312785                8     2424695           0
</event>
<event>
      6   9999  3.45752E-01  6.36516E+00 -1.00000E+00  2.10545E-01
      21    -1     0     0   501   502  0.000000000E+00  0.000000000E+00  2.328720327E+03  2.328720327E+03  0.000000000E+00  0.00000E+00  9.000E+00
      21    -1     0     0   512   503  0.000000000E+00  0.000000000E+00 -1.566061050E+01  1.566061050E+01  0.000000000E+00  0.00000E+00  9.000E+00
      25     1     1     2     0     0 -9.162839708E+00 -1.802322270E+00  1.057312281E+03  1.064731873E+03  1.251299225E+02  0.00000E+00  9.000E+00
       5     1     1     2   501     0  7.682083539E-01 -9.086205026E-01  1.206971225E+03  1.206981158E+03  4.750000000E+00  0.00000E+00  9.000E+00
      -5     1     1     2     0   503  2.036352071E+00  2.415112985E+00  5.972850978E+01  6.000030735E+01  4.750000000E+00  0.00000E+00  9.000E+00
      21     1     1     2   512   502  6.358279283E+00  2.958297874E-01 -1.095229830E+01  1.266759917E+01  1.395308961E-06  0.00000E+00  9.000E+00
#rwgt            1           9   2.1498853438437844E-003           8     2427974           0
</event>
<event>
      6   9999  3.45752E-01  9.45256E+00 -1.00000E+00  1.89807E-01
       3    -1     0     0   501     0  0.000000000E+00  0.000000000E+00  1.170869424E+03  1.170869424E+03  0.000000000E+00  0.00000E+00  9.000E+00
      21    -1     0     0   502   503  0.000000000E+00  0.000000000E+00 -1.327620394E+01  1.327620394E+01  0.000000000E+00  0.00000E+00  9.000E+00
      25     1     1     2     0     0  4.295271626E+00  6.825331237E+00  2.986148963E+02  3.238212004E+02  1.249971159E+02  0.00000E+00  9.000E+00
       5     1     1     2   501     0 -3.582078412E-01  9.689602427E-01  9.703987807E+01  9.716155429E+01  4.750000000E+00  0.00000E+00  9.000E+00
      -5     1     1     2     0   503  4.721275532E-01  5.669190074E-01  9.333961281E+00  1.049903018E+01  4.750000000E+00  0.00000E+00  9.000E+00
       3     1     1     2   502     0 -4.409191338E+00 -8.361210487E+00  7.526044845E+02  7.526638432E+02  1.525878906E-05  0.00000E+00  9.000E+00
#rwgt            1           9   1.1090174602270042E-004           8     2431249           0
</event>
<event>
      6   9999  3.45752E-01  1.14665E+01 -1.00000E+00  1.81143E-01
      21    -1     0     0   511   503  0.000000000E+00  0.000000000E+00  1.315492392E+01  1.315492392E+01  0.000000000E+00  0.00000E+00  9.000E+00
      21    -1     0     0   501   502  0.000000000E+00  0.000000000E+00 -2.242504741E+03  2.242504741E+03  0.000000000E+00  0.00000E+00  9.000E+00
      25     1     1     2     0     0 -5.478139376E+00 -9.616314858E+00 -2.111245842E+03  2.114972085E+03  1.250017273E+02  0.00000E+00  9.000E+00
       5     1     1     2   501     0  7.418548139E-02 -8.706441970E-02 -4.884232708E+01  4.907288965E+01  4.750000000E+00  0.00000E+00  9.000E+00
      -5     1     1     2     0   503 -2.719076279E-01 -2.598335634E-01 -7.740449548E+01  7.755101461E+01  4.750000000E+00  0.00000E+00  9.000E+00
      21     1     1     2   511   502  5.675861522E+00  9.963212841E+00  8.142847285E+00  1.406367577E+01  2.239739207E-06  0.00000E+00  9.000E+00
#rwgt            1           9   3.2862341841864905E-005           8     2433558           0
</event>
<event>
      6   9999  3.45752E-01  4.82928E+00 -1.00000E+00  2.32048E-01
      21    -1     0     0   501   502  0.000000000E+00  0.000000000E+00  3.230890877E+02  3.230890877E+02  0.000000000E+00  0.00000E+00  9.000E+00
       1    -1     0     0   502     0  0.000000000E+00  0.000000000E+00 -4.309672160E+02  4.309672160E+02  0.000000000E+00  0.00000E+00  9.000E+00
      25     1     1     2     0     0 -2.154888351E+01 -3.152962940E+01  4.485203092E+01  1.381889551E+02  1.250040428E+02  0.00000E+00  9.000E+00
       5     1     1     2   501     0  7.679512232E+00 -2.751404196E+00  2.246439871E+02  2.248422304E+02  4.750000000E+00  0.00000E+00  9.000E+00
      -5     1     1     2     0   503  1.845781603E+01  3.277502046E+01 -4.597846117E+01  5.959424746E+01  4.750000000E+00  0.00000E+00  9.000E+00
       1     1     1     2   503     0 -4.588444751E+00  1.506013135E+00 -3.313956852E+02  3.314308708E+02  3.814697266E-06  0.00000E+00  9.000E+00
#rwgt            1           9   5.0498270407553546E-003           8     2435406           0
</event>
<event>
      6   9999  3.45752E-01  9.96680E+00 -1.00000E+00  1.87346E-01
      21    -1     0     0   501   502  0.000000000E+00  0.000000000E+00  1.242870037E+02  1.242870037E+02  0.000000000E+00  0.00000E+00  9.000E+00
      21    -1     0     0   502   511  0.000000000E+00  0.000000000E+00 -4.951875434E+02  4.951875434E+02  0.000000000E+00  0.00000E+00  9.000E+00
      25     1     1     2     0     0 -8.040202406E+01 -3.576720315E+01 -3.052560560E+02  3.413959693E+02  1.250046794E+02  0.00000E+00  9.000E+00
       5     1     1     2   501     0  1.082793220E+00 -1.960629364E+00  9.244436439E+01  9.259340968E+01  4.750000000E+00  0.00000E+00  9.000E+00
      -5     1     1     2     0   503  7.138657598E+01  4.376191751E+01 -1.220071032E+02  1.480521678E+02  4.750000000E+00  0.00000E+00  9.000E+00
      21     1     1     2   503   511  7.932654867E+00 -6.034085001E+00 -3.608174493E+01  3.743300031E+01  4.768371582E-07  0.00000E+00  9.000E+00
#rwgt            1           9   1.6612361299135668E-003           8     2440838           0
</event>
<event>
      6   9999  3.45752E-01  1.55617E+01 -1.00000E+00  1.68999E-01
      21    -1     0     0   501   502  0.000000000E+00  0.000000000E+00  5.199701425E+01  5.199701425E+01  0.000000000E+00  0.00000E+00  9.000E+00
      21    -1     0     0   502   512  0.000000000E+00  0.000000000E+00 -3.490472204E+02  3.490472204E+02  0.000000000E+00  0.00000E+00  9.000E+00
      25     1     1     2     0     0 -2.376069520E+01 -1.872402055E+01 -2.878134146E+02  3.152404235E+02  1.249992137E+02  0.00000E+00  9.000E+00
       5     1     1     2   501     0  6.022128824E+00 -9.589326218E-01  2.041923484E+01  2.183330573E+01  4.750000000E+00  0.00000E+00  9.000E+00
      -5     1     1     2     0   503  3.278270843E+01  1.570290751E+01 -8.368741770E+00  3.760167037E+01  4.750000000E+00  0.00000E+00  9.000E+00
      21     1     1     2   503   512 -1.504414206E+01  3.980045667E+00 -2.128728462E+01  2.636883502E+01  4.129530925E-07  0.00000E+00  9.000E+00
#rwgt            1           9   4.6474754152618205E-005           8     2444590           0
</event>
<event>
      6   9999  3.45752E-01  5.02487E+00 -1.00000E+00  2.25382E-01
      21    -1     0     0   501   502  0.000000000E+00  0.000000000E+00  1.713808161E+01  1.713808161E+01  0.000000000E+00  0.00000E+00  9.000E+00
      21    -1     0     0   502   511  0.000000000E+00  0.000000000E+00 -8.716625817E+02  8.716625817E+02  0.000000000E+00  0.00000E+00  9.000E+00
      25     1     1     2     0     0  1.466945620E+01 -1.844051298E+01 -8.010270127E+02  8.110653583E+02  1.250099790E+02  0.00000E+00  9.000E+00
       5     1     1     2   501     0  1.250377697E+00  1.532788962E+00  8.359974191E+00  9.816544956E+00  4.750000000E+00  0.00000E+00  9.000E+00
      -5     1     1     2     0   503 -1.557013091E+01  1.189503783E+01 -3.334028526E+01  3.896226409E+01  4.750000000E+00  0.00000E+00  9.000E+00
      21     1     1     2   503   511 -3.497029899E-01  5.012686190E+00 -2.851717626E+01  2.895649594E+01  3.371747881E-07  0.00000E+00  9.000E+00
#rwgt            1           9   4.3212873030811498E-006           8     2446506           0
</event>
<event>
      6   9999  3.45752E-01  9.19535E+00 -1.00000E+00  1.91115E-01
      21    -1     0     0   512   502  0.000000000E+00  0.000000000E+00  3.354240954E+01  3.354240954E+01  0.000000000E+00  0.00000E+00  9.000E+00
      21    -1     0     0   502   503  0.000000000E+00  0.000000000E+00 -9.245356454E+02  9.245356454E+02  0.000000000E+00  0.00000E+00  9.000E+00
      25     1     1     2     0     0  1.730999858E+01 -4.904368770E+01 -5.658944835E+02  5.818637073E+02  1.249955520E+02  0.00000E+00  9.000E+00
       5     1     1     2   501     0  1.782816787E+00 -2.942942418E-01  2.029355023E+00  5.472278009E+00  4.750000000E+00  0.00000E+00  9.000E+00
      -5     1     1     2     0   503 -1.654696280E+01  4.050208310E+01 -3.465078853E+02  3.492914224E+02  4.750000000E+00  0.00000E+00  9.000E+00
      21     1     1     2   512   501 -2.545852573E+00  8.835898833E+00  1.937977792E+01  2.145064721E+01  1.168007728E-06  0.00000E+00  9.000E+00
#rwgt            1           9   1.0117478067822458E-004           8     2451819           0
</event>
<event>
      6   9999  3.45752E-01  9.55797E+00 -1.00000E+00  1.89286E-01
      21    -1     0     0   501   502  0.000000000E+00  0.000000000E+00  6.059273064E+01  6.059273064E+01  0.000000000E+00  0.00000E+00  9.000E+00
      21    -1     0     0   511   503  0.000000000E+00  0.000000000E+00 -1.667243864E+03  1.667243864E+03  0.000000000E+00  0.00000E+00  9.000E+00
      25     1     1     2     0     0  1.061060058E+01 -1.283309445E+00 -1.491586926E+03  1.496860741E+03  1.250851277E+02  0.00000E+00  9.000E+00
       5     1     1     2   501     0 -6.291583778E-01  1.816204089E+01  5.576766593E+01  5.884599080E+01  4.750000000E+00  0.00000E+00  9.000E+00
      -5     1     1     2     0   503 -3.675173442E+00 -9.696409639E+00 -8.315910060E+01  8.393763025E+01  4.750000000E+00  0.00000E+00  9.000E+00
      21     1     1     2   511   502 -6.306268759E+00 -7.182321810E+00 -8.767277300E+01  8.819223264E+01  9.536743164E-07  0.00000E+00  9.000E+00
#rwgt            1           9   1.4266808030460173E-002           8     2454532           0
</event>
<event>
      6   9999  3.45752E-01  8.22248E+00 -1.00000E+00  1.96615E-01
      21    -1     0     0   501   512  0.000000000E+00  0.000000000E+00  3.353593731E+02  3.353593731E+02  0.000000000E+00  0.00000E+00  9.000E+00
      21    -1     0     0   502   503  0.000000000E+00  0.000000000E+00 -9.972291791E+02  9.972291791E+02  0.000000000E+00  0.00000E+00  9.000E+00
      25     1     1     2     0     0  1.950042918E+01  1.952950373E+00 -6.389556457E+02  6.513617086E+02  1.249947100E+02  0.00000E+00  9.000E+00
       5     1     1     2   501     0  9.850086465E-01  3.281527815E+00  1.263591974E+01  1.392722638E+01  4.750000000E+00  0.00000E+00  9.000E+00
      -5     1     1     2     0   503 -1.226359178E+01 -5.336429904E+00 -3.512279938E+02  3.515146359E+02  4.750000000E+00  0.00000E+00  9.000E+00
      21     1     1     2   502   512 -8.221846045E+00  1.019517157E-01  3.156779138E+02  3.157849813E+02  6.607249480E-06  0.00000E+00  9.000E+00
#rwgt            1           9   1.5648683629854313E-003           8     2459863           0
</event>
<event>
      6   9999 -3.45752E-01  1.45074E+01 -1.00000E+00  1.71638E-01
      21    -1     0     0   501   502  0.000000000E+00  0.000000000E+00  4.434006139E+01  4.434006139E+01  0.000000000E+00  0.00000E+00  9.000E+00
      21    -1     0     0   502   511  0.000000000E+00  0.000000000E+00 -1.610862841E+03  1.610862841E+03  0.000000000E+00  0.00000E+00  9.000E+00
      25     1     1     2     0     0  6.810356975E+01  5.670806770E+00 -1.226282148E+03  1.234529262E+03  1.249973542E+02  0.00000E+00  9.000E+00
       5     1     1     2   501     0  5.620067320E-01 -1.067482727E+00  2.276049316E+01  2.328213736E+01  4.750000000E+00  0.00000E+00  9.000E+00
      -5     1     1     2     0   503 -5.600000059E+01  2.471120111E+00 -2.939915869E+01  6.347424306E+01  4.750000000E+00  0.00000E+00  9.000E+00
      21     1     1     2   503   511 -1.266557589E+01 -7.074444154E+00 -3.336019655E+02  3.339172591E+02  5.394796609E-06  0.00000E+00  9.000E+00
#rwgt            1           9  -1.2856239978063804E-004           8     2463429           0
</event>
<event>
      6   9999  3.45752E-01  3.46784E+01 -1.00000E+00  1.43879E-01
      21    -1     0     0   501   502  0.000000000E+00  0.000000000E+00  6.354379359E+01  6.354379359E+01  0.000000000E+00  0.00000E+00  9.000E+00
       2    -1     0     0   502     0  0.000000000E+00  0.000000000E+00 -2.756640246E+03  2.756640246E+03  0.000000000E+00  0.00000E+00  9.000E+00
      25     1     1     2     0     0 -8.115194072E+01 -7.424072087E+01 -1.158374851E+03  1.170279554E+03  1.249984750E+02  0.00000E+00  9.000E+00
       5     1     1     2   501     0 -1.529961788E-01 -1.359801688E+00  4.194625617E+01  4.223651708E+01  4.750000000E+00  0.00000E+00  9.000E+00
      -5     1     1     2     0   503  1.134145878E+02  6.250237808E+01 -2.596131702E+02  2.901568139E+02  4.750000000E+00  0.00000E+00  9.000E+00
       2     1     1     2   503     0 -3.210965088E+01  1.309814448E+01 -1.317054688E+03  1.317511154E+03  2.642899792E-05  0.00000E+00  9.000E+00
#rwgt            1           9   1.5079888390243603E-005           8     2466607           0
</event>
<event>
      6   9999  3.45752E-01  1.05634E+01 -1.00000E+00  1.84721E-01
      21    -1     0     0   502   511  0.000000000E+00  0.000000000E+00  4.657923616E+01  4.657923616E+01  0.000000000E+00  0.00000E+00  9.000E+00
      21    -1     0     0   501   502  0.000000000E+00  0.000000000E+00 -7.324974425E+02  7.324974425E+02  0.000000000E+00  0.00000E+00  9.000E+00
      25     1     1     2     0     0  1.566152359E+01 -2.764215337E+01 -5.223591046E+02  5.380467393E+02  1.250035499E+02  0.00000E+00  9.000E+00
       5     1     1     2   501     0  1.276761556E-01  9.041841856E+00 -1.024239235E+02  1.029319864E+02  4.750000000E+00  0.00000E+00  9.000E+00
      -5     1     1     2     0   503 -5.236327819E+00  1.812791812E+01 -9.791583980E+01  9.983042987E+01  4.750000000E+00  0.00000E+00  9.000E+00
      21     1     1     2   503   511 -1.055287193E+01  4.723933928E-01  3.678066160E+01  3.826752316E+01  4.768371582E-07  0.00000E+00  9.000E+00
#rwgt            1           9   1.2824339306361197E-003           8     2468367           0
</event>
<event>
      6   9999  3.45752E-01  9.91912E+00 -1.00000E+00  1.87566E-01
      21    -1     0     0   501   502  0.000000000E+00  0.000000000E+00  7.772977383E+00  7.772977383E+00  0.000000000E+00  0.00000E+00  9.000E+00
      21    -1     0     0   512   503  0.000000000E+00  0.000000000E+00 -7.653527306E+02  7.653527306E+02  0.000000000E+00  0.00000E+00  9.000E+00
      25     1     1     2     0     0  8.670803466E+00  6.809710938E+00 -6.091034477E+02  6.218962145E+02  1.250053460E+02  0.00000E+00  9.000E+00
       5     1     1     2   501     0  9.617130537E-02  4.727623871E-01 -8.325446033E+00  9.597307167E+00  4.750000000E+00  0.00000E+00  9.000E+00
      -5     1     1     2     0   503 -3.191562694E+00  9.214106018E-01 -1.487782586E+01  1.596706837E+01  4.750000000E+00  0.00000E+00  9.000E+00
      21     1     1     2   512   502 -5.575412077E+00 -8.203883927E+00 -1.252730336E+02  1.256651179E+02  0.000000000E+00  0.00000E+00  9.000E+00
#rwgt            1           9   2.9130288980164801E-004           8     2470367           0
</event>
<event>
      6   9999  3.45752E-01  3.06215E+02 -1.00000E+00  1.02855E-01
      21    -1     0     0   511   503  0.000000000E+00  0.000000000E+00  1.510325727E+02  1.510325727E+02  0.000000000E+00  0.00000E+00  9.000E+00
      21    -1     0     0   501   502  0.000000000E+00  0.000000000E+00 -1.719435534E+03  1.719435534E+03  0.000000000E+00  0.00000E+00  9.000E+00
      25     1     1     2     0     0 -3.574070499E+02 -4.414815273E+00 -1.387538719E+03  1.438279461E+03  1.249992828E+02  0.00000E+00  9.000E+00
       5     1     1     2   501     0  8.848607273E-01  7.897154827E+00 -5.033506459E+01  5.117938316E+01  4.750000000E+00  0.00000E+00  9.000E+00
      -5     1     1     2     0   503  5.044547845E+01  5.703975848E+00 -1.018768232E+01  5.199647111E+01  4.750000000E+00  0.00000E+00  9.000E+00
      21     1     1     2   511   502  3.060767108E+02 -9.186315402E+00 -1.203414947E+02  3.290127910E+02  4.862803949E-06  0.00000E+00  9.000E+00
#rwgt            1           9   9.0851762100723939E-003           8     2472216           0
</event>
<event>
      6   9999  3.45752E-01  1.92776E+01 -1.00000E+00  1.61440E-01
      21    -1     0     0   512   502  0.000000000E+00  0.000000000E+00  1.024068756E+02  1.024068756E+02  0.000000000E+00  0.00000E+00  9.000E+00
      21    -1     0     0   502   503  0.000000000E+00  0.000000000E+00 -2.700578108E+02  2.700578108E+02  0.000000000E+00  0.00000E+00  9.000E+00
      25     1     1     2     0     0  6.656848967E+01 -1.092447580E+00 -1.106648669E+01  1.420557423E+02  1.249992381E+02  0.00000E+00  9.000E+00
       5     1     1     2   501     0 -4.755961013E-01 -4.050359495E-01  2.107058784E+01  2.160838767E+01  4.750000000E+00  0.00000E+00  9.000E+00
      -5     1     1     2     0   503 -6.477640204E+01 -1.773506268E+01 -1.771536662E+02  1.895164865E+02  4.750000000E+00  0.00000E+00  9.000E+00
      21     1     1     2   512   501 -1.316491532E+00  1.923254621E+01 -5.013701605E-01  1.928407000E+01  1.010645923E-07  0.00000E+00  9.000E+00
#rwgt            1           9   1.5503939976427829E-002           8     2472655           0
</event>
<event>
      6   9999  3.45752E-01  9.28668E+00 -1.00000E+00  1.90644E-01
      21    -1     0     0   511   503  0.000000000E+00  0.000000000E+00  1.456411921E+01  1.456411921E+01  0.000000000E+00  0.00000E+00  9.000E+00
      21    -1     0     0   501   502  0.000000000E+00  0.000000000E+00 -8.567576019E+02  8.567576019E+02  0.000000000E+00  0.00000E+00  9.000E+00
      25     1     1     2     0     0  2.222259940E+01  4.931706441E+00 -3.971884145E+02  4.170146808E+02  1.249977671E+02  0.00000E+00  9.000E+00
       5     1     1     2   501     0 -8.062326232E-02 -7.960429202E+00 -3.404105166E+02  3.405367194E+02  4.750000000E+00  0.00000E+00  9.000E+00
      -5     1     1     2     0   503 -3.051394786E+01  7.047746964E+00 -9.609609721E+01  1.011819853E+02  4.750000000E+00  0.00000E+00  9.000E+00
      21     1     1     2   511   502  8.371971718E+00 -4.019024202E+00 -8.498454361E+00  1.258833557E+01  3.576278687E-07  0.00000E+00  9.000E+00
#rwgt            1           9  0.31461112394603385                8     2474649           0
</event>
<event>
      6   9999  3.45752E-01  1.82472E+01 -1.00000E+00  1.63311E-01
      21    -1     0     0   512   502  0.000000000E+00  0.000000000E+00  1.361691621E+02  1.361691621E+02  0.000000000E+00  0.00000E+00  9.000E+00
      21    -1     0     0   502   503  0.000000000E+00  0.000000000E+00 -9.586303630E+01  9.586303630E+01  0.000000000E+00  0.00000E+00  9.000E+00
      25     1     1     2     0     0  1.393137524E+01 -1.131501305E+01 -1.575934479E+01  1.272729845E+02  1.250117711E+02  0.00000E+00  9.000E+00
       5     1     1     2   501     0 -7.893947481E-01 -7.935768329E-01  1.142220891E+01  1.242104120E+01  4.750000000E+00  0.00000E+00  9.000E+00
      -5     1     1     2     0   503 -1.966542556E+01 -4.932729851E+00 -1.773089445E+01  2.734973317E+01  4.750000000E+00  0.00000E+00  9.000E+00
      21     1     1     2   512   501  6.523445067E+00  1.704131974E+01  6.237415609E+01  6.498843945E+01  0.000000000E+00  0.00000E+00  9.000E+00
#rwgt            1           9   2.3989947797451526E-004           8     2477158           0
</event>
<event>
      6   9999  3.45752E-01  9.76069E+00 -1.00000E+00  1.88309E-01
      21    -1     0     0   511   503  0.000000000E+00  0.000000000E+00  1.626827613E+02  1.626827613E+02  0.000000000E+00  0.00000E+00  9.000E+00
      21    -1     0     0   501   502  0.000000000E+00  0.000000000E+00 -7.420017951E+02  7.420017951E+02  0.000000000E+00  0.00000E+00  9.000E+00
      25     1     1     2     0     0 -8.755525102E+00 -2.859821332E+00 -5.140645334E+02  5.291239810E+02  1.250000198E+02  0.00000E+00  9.000E+00
       5     1     1     2   501     0 -2.110757374E+00  1.057655551E+01 -1.444514072E+02  1.449313298E+02  4.750000000E+00  0.00000E+00  9.000E+00
      -5     1     1     2     0   503  1.195332113E+01  1.983237852E+00 -7.500146808E+01  7.612225583E+01  4.750000000E+00  0.00000E+00  9.000E+00
      21     1     1     2   511   502 -1.087038651E+00 -9.699972034E+00  1.541983749E+02  1.545069899E+02  2.697398305E-06  0.00000E+00  9.000E+00
#rwgt            1           9   1.4336771575642285E-003           8     2478666           0
</event>
<event>
      6   9999  3.45752E-01  7.06186E+00 -1.00000E+00  2.04653E-01
      21    -1     0     0   501   512  0.000000000E+00  0.000000000E+00  9.116808500E+02  9.116808500E+02  0.000000000E+00  0.00000E+00  9.000E+00
      21    -1     0     0   502   503  0.000000000E+00  0.000000000E+00 -9.063013742E+02  9.063013742E+02  0.000000000E+00  0.00000E+00  9.000E+00
      25     1     1     2     0     0  1.191135388E+01  5.431380072E+00 -5.759685828E+02  5.895222487E+02  1.250011721E+02  0.00000E+00  9.000E+00
       5     1     1     2   501     0  3.677699475E+00  6.292728869E-01  5.981772543E+00  8.500915277E+00  4.750000000E+00  0.00000E+00  9.000E+00
      -5     1     1     2     0   503 -1.028521975E+01 -1.072318935E+01 -3.220937362E+02  3.224712545E+02  4.750000000E+00  0.00000E+00  9.000E+00
      21     1     1     2   502   512 -5.303833600E+00  4.662536393E+00  8.974600223E+02  8.974878058E+02  1.078959322E-05  0.00000E+00  9.000E+00
#rwgt            1           9   1.5110364614998890E-002           8     2481021           0
</event>
<event>
      6   9999  3.45752E-01  1.88217E+01 -1.00000E+00  1.62250E-01
      21    -1     0     0   511   503  0.000000000E+00  0.000000000E+00  4.231755111E+00  4.231755111E+00  0.000000000E+00  0.00000E+00  9.000E+00
      21    -1     0     0   501   502  0.000000000E+00  0.000000000E+00 -5.757151368E+03  5.757151368E+03  0.000000000E+00  0.00000E+00  9.000E+00
      25     1     1     2     0     0  7.004031718E+00  3.927635448E+01 -1.492565468E+03  1.498320538E+03  1.249842778E+02  0.00000E+00  9.000E+00
       5     1     1     2   501     0 -4.913039972E+01  1.295089426E+01 -2.957595857E+03  2.958036061E+03  4.750000000E+00  0.00000E+00  9.000E+00
      -5     1     1     2     0   503  2.500518951E+01 -4.440918785E+01 -1.145966999E+03  1.147109568E+03  4.750000000E+00  0.00000E+00  9.000E+00
      21     1     1     2   511   502  1.712117850E+01 -7.818060894E+00 -1.567912891E+02  1.579169565E+02  3.814697266E-06  0.00000E+00  9.000E+00
#rwgt            1           9   2.8774594755633227E-002           8     2484466           0
</event>
<event>
      6   9999  3.45752E-01  4.41810E+01 -1.00000E+00  1.37727E-01
      21    -1     0     0   501   502  0.000000000E+00  0.000000000E+00  7.466038480E+01  7.466038480E+01  0.000000000E+00  0.00000E+00  9.000E+00
       2    -1     0     0   502     0  0.000000000E+00  0.000000000E+00 -2.225241762E+03  2.225241762E+03  0.000000000E+00  0.00000E+00  9.000E+00
      25     1     1     2     0     0 -9.184413559E+01  3.808639037E+01 -5.729305800E+01  1.696849370E+02  1.249982599E+02  0.00000E+00  9.000E+00
       5     1     1     2   501     0  5.178126179E-01 -8.261160367E-01  1.397231497E+01  1.478981687E+01  4.750000000E+00  0.00000E+00  9.000E+00
      -5     1     1     2     0   503  1.167528956E+02 -7.339129231E+01 -1.398419206E+03  1.405210432E+03  4.750000000E+00  0.00000E+00  9.000E+00
       2     1     1     2   503     0 -2.542657265E+01  3.613101798E+01 -7.088414284E+02  7.102169610E+02  0.000000000E+00  0.00000E+00  9.000E+00
#rwgt            1           9   6.7649302597727772E-007           8     2485852           0
</event>
<event>
      6   9999  3.45752E-01  1.54471E+01 -1.00000E+00  1.69273E-01
      21    -1     0     0   501   502  0.000000000E+00  0.000000000E+00  7.615187786E+00  7.615187786E+00  0.000000000E+00  0.00000E+00  9.000E+00
       2    -1     0     0   502     0  0.000000000E+00  0.000000000E+00 -3.115663506E+03  3.115663506E+03  0.000000000E+00  0.00000E+00  9.000E+00
      25     1     1     2     0     0 -2.573802272E-01  1.711929057E+01 -6.410799855E+02  6.533773038E+02  1.250008681E+02  0.00000E+00  9.000E+00
       5     1     1     2   501     0  5.805630602E-01  8.182736145E-01 -4.510091596E+00  6.626465979E+00  4.750000000E+00  0.00000E+00  9.000E+00
      -5     1     1     2     0   503  2.275285985E+00 -2.710624444E+00 -2.246547475E+01  2.323326208E+01  4.750000000E+00  0.00000E+00  9.000E+00
       2     1     1     2   503     0 -2.598468818E+00 -1.522693974E+01 -2.439992766E+03  2.440041662E+03  3.051757812E-05  0.00000E+00  9.000E+00
#rwgt            1           9   3.2968152112996960E-004           8     2487989           0
</event>
<event>
      6   9999  3.45752E-01  8.96309E+00 -1.00000E+00  1.92345E-01
      21    -1     0     0   511   502  0.000000000E+00  0.000000000E+00  4.826088538E+01  4.826088538E+01  0.000000000E+00  0.00000E+00  9.000E+00
      21    -1     0     0   502   503  0.000000000E+00  0.000000000E+00 -4.145858362E+02  4.145858362E+02  0.000000000E+00  0.00000E+00  9.000E+00
      25     1     1     2     0     0  5.959027071E+00  1.834507376E+00 -3.820235189E+02  4.020038821E+02  1.250051070E+02  0.00000E+00  9.000E+00
       5     1     1     2   501     0 -4.646057674E-01 -7.067023648E-01  2.822538751E+01  2.863477408E+01  4.750000000E+00  0.00000E+00  9.000E+00
      -5     1     1     2     0   503  3.463247902E+00 -1.439444107E+00 -1.977537887E+01  2.068076872E+01  4.750000000E+00  0.00000E+00  9.000E+00
      21     1     1     2   511   501 -8.957669206E+00  3.116390952E-01  7.248559416E+00  1.152729674E+01  3.371747881E-07  0.00000E+00  9.000E+00
#rwgt            1           9   1.4305097128393045                8     2490044           0
</event>
<event>
      6   9999  3.45752E-01  1.40850E+01 -1.00000E+00  1.72775E-01
      21    -1     0     0   512   502  0.000000000E+00  0.000000000E+00  2.280084605E+02  2.280084605E+02  0.000000000E+00  0.00000E+00  9.000E+00
      21    -1     0     0   502   503  0.000000000E+00  0.000000000E+00 -4.589684156E+01  4.589684156E+01  0.000000000E+00  0.00000E+00  9.000E+00
      25     1     1     2     0     0 -2.580692107E+00  1.360049875E+01  5.331670983E+01  1.365961755E+02  1.249968403E+02  0.00000E+00  9.000E+00
       5     1     1     2   501     0 -3.843118997E+00  8.802546317E-01  5.677590593E+01  5.711051046E+01  4.750000000E+00  0.00000E+00  9.000E+00
      -5     1     1     2     0   503 -7.307143937E+00 -1.134265231E+01  1.237588528E+01  1.891494516E+01  4.750000000E+00  0.00000E+00  9.000E+00
      21     1     1     2   512   501  1.373095504E+01 -3.138101081E+00  5.964311788E+01  6.128367087E+01  9.536743164E-07  0.00000E+00  9.000E+00
#rwgt            1           9   4.4258342545370523E-005           8     2493413           0
</event>
<event>
      6   9999  3.45752E-01  3.36871E+01 -1.00000E+00  1.44654E-01
      21    -1     0     0   501   511  0.000000000E+00  0.000000000E+00  1.664306214E+01  1.664306214E+01  0.000000000E+00  0.00000E+00  9.000E+00
      21    -1     0     0   502   503  0.000000000E+00  0.000000000E+00 -7.903826933E+02  7.903826933E+02  0.000000000E+00  0.00000E+00  9.000E+00
      25     1     1     2     0     0 -2.575386533E+01 -2.936588486E+01 -6.281894130E+02  6.416941264E+02  1.249951860E+02  0.00000E+00  9.000E+00
       5     1     1     2   501     0 -2.257096314E+00 -1.284644518E+00 -3.898146126E+00  6.671044785E+00  4.750000000E+00  0.00000E+00  9.000E+00
      -5     1     1     2     0   503  1.059661964E+00  1.044034830E+01 -1.153443487E+02  1.159180963E+02  4.750000000E+00  0.00000E+00  9.000E+00
      21     1     1     2   502   511  2.695129968E+01  2.021018107E+01 -2.630772335E+01  4.274248801E+01  3.371747881E-07  0.00000E+00  9.000E+00
#rwgt            1           9   2.6037574790906381E-005           8     2495245           0
</event>
<event>
      6   9999  3.45752E-01  2.08774E+01 -1.00000E+00  1.58800E-01
      21    -1     0     0   501   502  0.000000000E+00  0.000000000E+00  9.593316699E+01  9.593316699E+01  0.000000000E+00  0.00000E+00  9.000E+00
      21    -1     0     0   502   512  0.000000000E+00  0.000000000E+00 -2.391208579E+03  2.391208579E+03  0.000000000E+00  0.00000E+00  9.000E+00
      25     1     1     2     0     0 -1.924163119E+01  1.604195726E+01 -1.426282276E+03  1.431968599E+03  1.250014113E+02  0.00000E+00  9.000E+00
       5     1     1     2   501     0  7.370796028E+00 -9.259225366E+00  9.237651117E+01  9.325258283E+01  4.750000000E+00  0.00000E+00  9.000E+00
      -5     1     1     2     0   503 -8.947359332E+00 -5.211268387E+00 -2.814168894E+02  2.816473694E+02  4.750000000E+00  0.00000E+00  9.000E+00
      21     1     1     2   503   512  2.081819449E+01 -1.571463504E+00 -6.799527577E+02  6.802731947E+02  7.629394531E-06  0.00000E+00  9.000E+00
#rwgt            1           9   4.8696155389039457E-003           8     2495931           0
</event>
<event>
      6   9999 -3.45752E-01  1.03972E+01 -1.00000E+00  1.85429E-01
      21    -1     0     0   501   502  0.000000000E+00  0.000000000E+00  1.454465333E+03  1.454465333E+03  0.000000000E+00  0.00000E+00  9.000E+00
      21    -1     0     0   511   503  0.000000000E+00  0.000000000E+00 -5.662652025E+00  5.662652025E+00  0.000000000E+00  0.00000E+00  9.000E+00
      25     1     1     2     0     0  3.690906491E-01 -1.406123833E+01  8.378056207E+02  8.471962794E+02  1.250016924E+02  0.00000E+00  9.000E+00
       5     1     1     2   501     0  8.943628519E-01 -2.041788697E-01  4.575535835E+02  4.575791581E+02  4.750000000E+00  0.00000E+00  9.000E+00
      -5     1     1     2     0   503  2.809771790E+00  4.699344555E+00  1.223954988E+02  1.226099477E+02  4.750000000E+00  0.00000E+00  9.000E+00
      21     1     1     2   511   502 -4.073225291E+00  9.566072645E+00  3.104797801E+01  3.274259990E+01  8.259061849E-07  0.00000E+00  9.000E+00
#rwgt            1           9  -8.0991430177698384E-004           8     2499334           0
</event>
<event>
      6   9999  3.45752E-01  9.94905E+00 -1.00000E+00  1.87428E-01
      21    -1     0     0   512   502  0.000000000E+00  0.000000000E+00  1.274736580E+01  1.274736580E+01  0.000000000E+00  0.00000E+00  9.000E+00
      21    -1     0     0   502   503  0.000000000E+00  0.000000000E+00 -2.100600664E+03  2.100600664E+03  0.000000000E+00  0.00000E+00  9.000E+00
      25     1     1     2     0     0 -6.580981624E+00 -6.230704113E+00 -1.945118719E+03  1.949151980E+03  1.249979154E+02  0.00000E+00  9.000E+00
       5     1     1     2   501     0 -9.422898651E-01 -1.792370249E-01 -7.634288181E+01  7.649652370E+01  4.750000000E+00  0.00000E+00  9.000E+00
      -5     1     1     2     0   503  2.352902764E-01 -3.627138498E-01 -7.463006143E+01  7.478232072E+01  4.750000000E+00  0.00000E+00  9.000E+00
      21     1     1     2   512   501  7.287981213E+00  6.772654988E+00  8.238364727E+00  1.291720477E+01  1.261592536E-06  0.00000E+00  9.000E+00
#rwgt            1           9   6.6775780514145532E-003           8     2502374           0
</event>
<event>
      6   9999 -3.45752E-01  5.01115E+01 -1.00000E+00  1.34736E-01
      21    -1     0     0   501   511  0.000000000E+00  0.000000000E+00  7.642385900E+01  7.642385900E+01  0.000000000E+00  0.00000E+00  9.000E+00
      21    -1     0     0   502   503  0.000000000E+00  0.000000000E+00 -1.033511750E+03  1.033511750E+03  0.000000000E+00  0.00000E+00  9.000E+00
      25     1     1     2     0     0  3.502856098E+01 -2.916011872E+01 -8.906003033E+02  9.004846159E+02  1.250053224E+02  0.00000E+00  9.000E+00
       5     1     1     2   501     0 -5.892591661E+01 -8.072533602E+00 -6.595667923E+01  8.893972949E+01  4.750000000E+00  0.00000E+00  9.000E+00
      -5     1     1     2     0   503 -1.086130030E+01  1.135557396E+00 -4.922075383E+01  5.064091668E+01  4.750000000E+00  0.00000E+00  9.000E+00
      21     1     1     2   502   511  3.475865593E+01  3.609709493E+01  4.868984500E+01  6.987034729E+01  2.132480600E-06  0.00000E+00  9.000E+00
#rwgt            1           9  -1.1847378507137178E-002           8     2504370           0
</event>
<event>
      6   9999  3.45752E-01  5.13377E+00 -1.00000E+00  2.23946E-01
      21    -1     0     0   501   512  0.000000000E+00  0.000000000E+00  1.244793887E+01  1.244793887E+01  0.000000000E+00  0.00000E+00  9.000E+00
      21    -1     0     0   502   503  0.000000000E+00  0.000000000E+00 -8.557439325E+02  8.557439325E+02  0.000000000E+00  0.00000E+00  9.000E+00
      25     1     1     2     0     0  2.464085610E-01 -1.369872927E+01 -5.772524017E+02  5.907902860E+02  1.250004434E+02  0.00000E+00  9.000E+00
       5     1     1     2   501     0  2.859448831E+00  1.442198060E+00  3.516166435E+00  6.721778728E+00  4.750000000E+00  0.00000E+00  9.000E+00
      -5     1     1     2     0   503  2.002994721E+00  1.276175936E+01 -2.522394869E+02  2.526147180E+02  4.750000000E+00  0.00000E+00  9.000E+00
      21     1     1     2   502   512 -5.108852114E+00 -5.052281447E-01 -1.732027148E+01  1.806508869E+01  2.384185791E-07  0.00000E+00  9.000E+00
#rwgt            1           9   7.1263172801225936E-005           8     2505630           0
</event>
<event>
      6   9999  3.45752E-01  8.77612E+00 -1.00000E+00  1.93371E-01
      21    -1     0     0   501   502  0.000000000E+00  0.000000000E+00  1.112645624E+03  1.112645624E+03  0.000000000E+00  0.00000E+00  9.000E+00
      21    -1     0     0   502   511  0.000000000E+00  0.000000000E+00 -6.875052170E+01  6.875052170E+01  0.000000000E+00  0.00000E+00  9.000E+00
      25     1     1     2     0     0 -7.993058370E+00 -2.007899996E+01  2.530843245E+02  2.830975097E+02  1.250018779E+02  0.00000E+00  9.000E+00
       5     1     1     2   501     0  1.533937701E+00  2.234864044E+00  8.373699994E+02  8.373878588E+02  4.750000000E+00  0.00000E+00  9.000E+00
      -5     1     1     2     0   503  3.046867290E-01  1.158767978E+01  9.826756955E-01  1.256563998E+01  4.750000000E+00  0.00000E+00  9.000E+00
      21     1     1     2   503   511  6.154433941E+00  6.256456146E+00 -4.754189728E+01  4.834513727E+01  0.000000000E+00  0.00000E+00  9.000E+00
#rwgt            1           9   12.825552048296064                8     2509685           0
</event>
<event>
      6   9999  3.45752E-01  1.62961E+01 -1.00000E+00  1.67310E-01
      21    -1     0     0   501   502  0.000000000E+00  0.000000000E+00  5.820069796E+01  5.820069796E+01  0.000000000E+00  0.00000E+00  9.000E+00
      21    -1     0     0   512   503  0.000000000E+00  0.000000000E+00 -2.977924176E+02  2.977924176E+02  0.000000000E+00  0.00000E+00  9.000E+00
      25     1     1     2     0     0  5.365451483E+00 -1.586658792E+00 -7.143139834E+01  1.440805717E+02  1.250018436E+02  0.00000E+00  9.000E+00
       5     1     1     2   501     0  2.368151032E+00 -1.204215672E+00  1.278140513E+01  1.389190742E+01  4.750000000E+00  0.00000E+00  9.000E+00
      -5     1     1     2     0   503  8.165834060E+00 -7.827194919E-01  5.439029755E+00  1.092881697E+01  4.750000000E+00  0.00000E+00  9.000E+00
      21     1     1     2   512   502 -1.589943657E+01  3.573593956E+00 -1.863807562E+02  1.870918196E+02  0.000000000E+00  0.00000E+00  9.000E+00
#rwgt            1           9   1.8637168873322521E-002           8     2513160           0
</event>
<event>
      6   9999  3.45752E-01  6.62145E+00 -1.00000E+00  2.08265E-01
      21    -1     0     0   511   502  0.000000000E+00  0.000000000E+00  3.979775596E+01  3.979775596E+01  0.000000000E+00  0.00000E+00  9.000E+00
      21    -1     0     0   502   503  0.000000000E+00  0.000000000E+00 -1.602072919E+03  1.602072919E+03  0.000000000E+00  0.00000E+00  9.000E+00
      25     1     1     2     0     0 -5.573806105E+00 -1.941266690E+01 -1.479552508E+03  1.484960975E+03  1.250022168E+02  0.00000E+00  9.000E+00
       5     1     1     2   501     0  1.586282418E+00  9.948893596E+00  3.317765636E+01  3.499737357E+01  4.750000000E+00  0.00000E+00  9.000E+00
      -5     1     1     2     0   503 -2.350295784E+00  7.546591436E+00 -1.148362719E+02  1.152059321E+02  4.750000000E+00  0.00000E+00  9.000E+00
      21     1     1     2   511   501  6.337819471E+00  1.917181870E+00 -1.064039127E+00  6.706394056E+00  2.706930358E-07  0.00000E+00  9.000E+00
#rwgt            1           9   2.2496573681048161E-003           8     2514694           0
</event>
<event>
      6   9999  3.45752E-01  1.54268E+01 -1.00000E+00  1.69322E-01
      21    -1     0     0   501   502  0.000000000E+00  0.000000000E+00  2.440294358E+03  2.440294358E+03  0.000000000E+00  0.00000E+00  9.000E+00
      21    -1     0     0   502   512  0.000000000E+00  0.000000000E+00 -6.417745678E+00  6.417745678E+00  0.000000000E+00  0.00000E+00  9.000E+00
      25     1     1     2     0     0  1.420659407E+01  3.346949847E+01  9.048648110E+02  9.141824252E+02  1.250085820E+02  0.00000E+00  9.000E+00
       5     1     1     2   501     0  5.067841697E-01  1.381491346E+00  3.520531053E+02  3.520882230E+02  4.750000000E+00  0.00000E+00  9.000E+00
      -5     1     1     2     0   503 -1.251953033E+01 -1.958095602E+01  1.141809342E+03  1.142055729E+03  4.750000000E+00  0.00000E+00  9.000E+00
      21     1     1     2   503   512 -2.193847916E+00 -1.527003379E+01  3.514935390E+01  3.838572626E+01  1.846782373E-06  0.00000E+00  9.000E+00
#rwgt            1           9  0.12161677830492620                8     2520308           0
</event>
<event>
      6   9999  3.45752E-01  1.46965E+01 -1.00000E+00  1.71144E-01
      21    -1     0     0   501   502  0.000000000E+00  0.000000000E+00  2.694856254E+01  2.694856254E+01  0.000000000E+00  0.00000E+00  9.000E+00
      21    -1     0     0   502   511  0.000000000E+00  0.000000000E+00 -8.732196821E+02  8.732196821E+02  0.000000000E+00  0.00000E+00  9.000E+00
      25     1     1     2     0     0  3.167917479E+01 -4.955793139E-01 -4.169481458E+02  4.364339521E+02  1.250000902E+02  0.00000E+00  9.000E+00
       5     1     1     2   501     0  1.451536656E+00 -2.347106442E+00  1.386766051E+01  1.491611127E+01  4.750000000E+00  0.00000E+00  9.000E+00
      -5     1     1     2     0   503 -2.101887452E+01 -5.481485862E+00 -4.346266883E+01  4.882013781E+01  4.750000000E+00  0.00000E+00  9.000E+00
      21     1     1     2   503   511 -1.211183692E+01  8.324171618E+00 -3.997279654E+02  3.999980435E+02  5.394796609E-06  0.00000E+00  9.000E+00
#rwgt            1           9   7.6371526228578643                8     2522128           0
</event>
<event>
      6   9999  3.45752E-01  7.58366E+00 -1.00000E+00  2.00804E-01
      -4    -1     0     0     0   502  0.000000000E+00  0.000000000E+00  8.305936392E+01  8.305936392E+01  0.000000000E+00  0.00000E+00  9.000E+00
      21    -1     0     0   502   503  0.000000000E+00  0.000000000E+00 -8.839930955E+02  8.839930955E+02  0.000000000E+00  0.00000E+00  9.000E+00
      25     1     1     2     0     0 -9.450431241E+00 -3.023482849E+00 -8.341315791E+02  8.435035450E+02  1.249971482E+02  0.00000E+00  9.000E+00
       5     1     1     2   501     0 -1.307540767E+00  5.243572016E+00  1.232138638E+01  1.426827854E+01  4.750000000E+00  0.00000E+00  9.000E+00
      -5     1     1     2     0   503  3.398117263E+00 -3.913089223E-01 -4.378573010E+01  4.417525307E+01  4.750000000E+00  0.00000E+00  9.000E+00
      -4     1     1     2     0   501  7.359854746E+00 -1.828780244E+00  6.466219123E+01  6.510538283E+01  2.132480600E-06  0.00000E+00  9.000E+00
#rwgt            1           9   1.2352283217173857E-004           8     2523829           0
</event>
<event>
      6   9999  3.45752E-01  8.68397E+00 -1.00000E+00  1.93889E-01
      21    -1     0     0   501   502  0.000000000E+00  0.000000000E+00  4.231187823E+01  4.231187823E+01  0.000000000E+00  0.00000E+00  9.000E+00
      21    -1     0     0   502   511  0.000000000E+00  0.000000000E+00 -1.555423392E+03  1.555423392E+03  0.000000000E+00  0.00000E+00  9.000E+00
      25     1     1     2     0     0  8.993934674E+01  3.219575344E+01 -2.791468732E+02  3.204216366E+02  1.249855821E+02  0.00000E+00  9.000E+00
       5     1     1     2   501     0 -1.201292902E+00  4.516062142E+00  1.897804228E+01  2.011383878E+01  4.750000000E+00  0.00000E+00  9.000E+00
      -5     1     1     2     0   503 -8.716546632E+01 -2.817142666E+01 -1.026372727E+03  1.030463481E+03  4.750000000E+00  0.00000E+00  9.000E+00
      21     1     1     2   503   511 -1.572587516E+00 -8.540388927E+00 -2.265699556E+02  2.267363139E+02  2.697398305E-06  0.00000E+00  9.000E+00
#rwgt            1           9   3.1881070377740738E-004           8     2527526           0
</event>
<event>
      6   9999  3.45752E-01  6.20242E+01 -1.00000E+00  1.29963E-01
      21    -1     0     0   501   512  0.000000000E+00  0.000000000E+00  5.569582509E+02  5.569582509E+02  0.000000000E+00  0.00000E+00  9.000E+00
      21    -1     0     0   502   503  0.000000000E+00  0.000000000E+00 -1.057487879E+03  1.057487879E+03  0.000000000E+00  0.00000E+00  9.000E+00
      25     1     1     2     0     0 -6.980856245E+01  5.226880625E+01 -5.047744643E+02  5.272831454E+02  1.249999686E+02  0.00000E+00  9.000E+00
       5     1     1     2   501     0 -1.027602277E+01 -7.481376803E+01 -2.682548499E+02  2.787219466E+02  4.750000000E+00  0.00000E+00  9.000E+00
      -5     1     1     2     0   503  2.721301356E+01  5.497327910E+01 -2.626243311E+02  2.697345200E+02  4.750000000E+00  0.00000E+00  9.000E+00
      21     1     1     2   502   512  5.287157166E+01 -3.242831732E+01  5.351240170E+02  5.387065179E+02  1.078959322E-05  0.00000E+00  9.000E+00
#rwgt            1           9   2.1041466903766459E-003           8     2531722           0
</event>
<event>
      6   9999  3.45752E-01  3.36973E+00 -1.00000E+00  2.64344E-01
      21    -1     0     0   511   502  0.000000000E+00  0.000000000E+00  6.977651549E+01  6.977651549E+01  0.000000000E+00  0.00000E+00  9.000E+00
      21    -1     0     0   502   503  0.000000000E+00  0.000000000E+00 -5.939614045E+02  5.939614045E+02  0.000000000E+00  0.00000E+00  9.000E+00
      25     1     1     2     0     0  2.422532717E+00 -5.317633066E+00 -5.218585788E+02  5.366537350E+02  1.250068364E+02  0.00000E+00  9.000E+00
       5     1     1     2   501     0  2.461460686E-01  4.498903194E-01 -1.256719002E-01  4.779255445E+00  4.750000000E+00  0.00000E+00  9.000E+00
      -5     1     1     2     0   503 -4.796806206E+00  2.255049802E+00 -6.200176310E+01  6.240893948E+01  4.750000000E+00  0.00000E+00  9.000E+00
      21     1     1     2   511   501  2.128127420E+00  2.612692944E+00  5.980112483E+01  5.989599003E+01  6.743495762E-07  0.00000E+00  9.000E+00
#rwgt            1           9  0.11300523586372059                8     2532351           0
</event>
<event>
      6   9999 -3.45752E-01  8.52641E+00 -1.00000E+00  1.94794E-01
      21    -1     0     0   512   502  0.000000000E+00  0.000000000E+00  8.434503652E+00  8.434503652E+00  0.000000000E+00  0.00000E+00  9.000E+00
      21    -1     0     0   502   503  0.000000000E+00  0.000000000E+00 -8.555307983E+02  8.555307983E+02  0.000000000E+00  0.00000E+00  9.000E+00
      25     1     1     2     0     0 -4.694794422E+00 -5.082826959E+00 -7.844958631E+02  7.944231407E+02  1.250059640E+02  0.00000E+00  9.000E+00
       5     1     1     2   501     0  3.814084703E-01 -7.715274476E-01  1.299259304E-01  4.829089746E+00  4.750000000E+00  0.00000E+00  9.000E+00
      -5     1     1     2     0   503 -1.172317331E+00 -6.730265998E-01 -4.212184293E+01  4.241036954E+01  4.750000000E+00  0.00000E+00  9.000E+00
      21     1     1     2   512   501  5.485703283E+00  6.527381007E+00 -2.060851458E+01  2.230270200E+01  4.768371582E-07  0.00000E+00  9.000E+00
#rwgt            1           9  -4.2154520048002068E-003           8     2537198           0
</event>
<event>
      6   9999  3.45752E-01  1.62152E+01 -1.00000E+00  1.67491E-01
      21    -1     0     0   502   511  0.000000000E+00  0.000000000E+00  1.767829599E+01  1.767829599E+01  0.000000000E+00  0.00000E+00  9.000E+00
      21    -1     0     0   501   502  0.000000000E+00  0.000000000E+00 -9.853513242E+02  9.853513242E+02  0.000000000E+00  0.00000E+00  9.000E+00
      25     1     1     2     0     0  1.020685970E+01 -1.508901328E+01 -2.765276305E+02  3.040133217E+02  1.249988441E+02  0.00000E+00  9.000E+00
       5     1     1     2   501     0  5.993299892E+00 -3.206024588E+00 -6.436943508E+02  6.437477596E+02  4.750000000E+00  0.00000E+00  9.000E+00
      -5     1     1     2     0   503 -4.768801783E+00  6.794680608E+00 -7.506137590E+00  1.215786809E+01  4.750000000E+00  0.00000E+00  9.000E+00
      21     1     1     2   503   511 -1.143135781E+01  1.150035726E+01 -3.994490937E+01  4.311067087E+01  0.000000000E+00  0.00000E+00  9.000E+00
#rwgt            1           9   9.6500608144714950E-002           8     2540004           0
</event>
<event>
      6   9999  3.45752E-01  2.10231E+01 -1.00000E+00  1.58574E-01
      21    -1     0     0   502   503  0.000000000E+00  0.000000000E+00  1.062388170E+01  1.062388170E+01  0.000000000E+00  0.00000E+00  9.000E+00
      21    -1     0     0   512   502  0.000000000E+00  0.000000000E+00 -1.420487829E+03  1.420487829E+03  0.000000000E+00  0.00000E+00  9.000E+00
      25     1     1     2     0     0 -1.605832625E+01  1.004110147E+01 -4.005021911E+02  4.199804163E+02  1.249914057E+02  0.00000E+00  9.000E+00
       5     1     1     2   501     0  1.708173751E+01  1.067458867E+01 -2.712884749E+02  2.720767019E+02  4.750000000E+00  0.00000E+00  9.000E+00
      -5     1     1     2     0   503  5.240742791E+00 -6.475449999E-01 -3.754442986E+01  3.821035740E+01  4.750000000E+00  0.00000E+00  9.000E+00
      21     1     1     2   512   501 -6.264154048E+00 -2.006814514E+01 -7.005288515E+02  7.008442351E+02  1.078959322E-05  0.00000E+00  9.000E+00
#rwgt            1           9   1.5762960051837304E-003           8     2542200           0
</event>
<event>
      6   9999  3.45752E-01  5.86269E+00 -1.00000E+00  2.15468E-01
       1    -1     0     0   501     0  0.000000000E+00  0.000000000E+00  2.300348281E+02  2.300348281E+02  0.000000000E+00  0.00000E+00  9.000E+00
      21    -1     0     0   502   503  0.000000000E+00  0.000000000E+00 -1.563470273E+03  1.563470273E+03  0.000000000E+00  0.00000E+00  9.000E+00
      25     1     1     2     0     0  4.060370620E+01 -2.386181364E+01 -1.096894595E+03  1.104996414E+03  1.249850997E+02  0.00000E+00  9.000E+00
       5     1     1     2   501     0 -9.905749778E+00 -2.260020697E+00  7.177032174E+01  7.264140111E+01  4.750000000E+00  0.00000E+00  9.000E+00
      -5     1     1     2     0   503 -2.989705790E+01  3.192955840E+01 -4.609854806E+02  4.630804537E+02  4.750000000E+00  0.00000E+00  9.000E+00
       1     1     1     2   502     0 -8.008985218E-01 -5.807724065E+00  1.526743097E+02  1.527868317E+02  3.303624740E-06  0.00000E+00  9.000E+00
#rwgt            1           9   2.5720793634448836E-002           8     2544062           0
</event>
<event>
      6   9999  3.45752E-01  4.61540E+00 -1.00000E+00  2.35651E-01
      21    -1     0     0   501   502  0.000000000E+00  0.000000000E+00  1.794616155E+01  1.794616155E+01  0.000000000E+00  0.00000E+00  9.000E+00
      21    -1     0     0   511   503  0.000000000E+00  0.000000000E+00 -9.721013314E+02  9.721013314E+02  0.000000000E+00  0.00000E+00  9.000E+00
      25     1     1     2     0     0 -7.067536564E+01 -3.459969684E+01 -4.051684575E+02  4.312510347E+02  1.249953188E+02  0.00000E+00  9.000E+00
       5     1     1     2   501     0  4.257854219E-01 -1.013239887E+01 -1.895440364E+01  2.201541999E+01  4.750000000E+00  0.00000E+00  9.000E+00
      -5     1     1     2     0   503  6.569713748E+01  4.549184464E+01 -5.082056159E+02  5.144717021E+02  4.750000000E+00  0.00000E+00  9.000E+00
      21     1     1     2   511   502  4.552442731E+00 -7.597489310E-01 -2.182669289E+01  2.230933606E+01  3.371747881E-07  0.00000E+00  9.000E+00
#rwgt            1           9   4.6841629941142866                8     2551071           0
</event>
<event>
      6   9999  3.45752E-01  6.18387E+00 -1.00000E+00  2.12248E-01
      21    -1     0     0   512   502  0.000000000E+00  0.000000000E+00  8.433444831E+01  8.433444831E+01  0.000000000E+00  0.00000E+00  9.000E+00
      21    -1     0     0   502   503  0.000000000E+00  0.000000000E+00 -2.144645544E+03  2.144645544E+03  0.000000000E+00  0.00000E+00  9.000E+00
      25     1     1     2     0     0 -2.049205156E+02 -1.608702133E+02 -1.413705659E+03  1.442933827E+03  1.249907827E+02  0.00000E+00  9.000E+00
       5     1     1     2   501     0  1.620071298E+00  3.200205878E+00  7.791504383E+00  9.804896186E+00  4.750000000E+00  0.00000E+00  9.000E+00
      -5     1     1     2     0   503  2.043127302E+02  1.637704614E+02 -6.910808718E+02  7.390397754E+02  4.750000000E+00  0.00000E+00  9.000E+00
      21     1     1     2   512   501 -1.012285928E+00 -6.100453980E+00  3.668393137E+01  3.720149301E+01  1.581489940E-06  0.00000E+00  9.000E+00
#rwgt            1           9   1.3373898894192325E-004           8     2556194           0
</event>
<event>
      6   9999  3.45752E-01  1.10226E+01 -1.00000E+00  1.82847E-01
      21    -1     0     0   501   511  0.000000000E+00  0.000000000E+00  7.127746066E+01  7.127746066E+01  0.000000000E+00  0.00000E+00  9.000E+00
      21    -1     0     0   502   503  0.000000000E+00  0.000000000E+00 -7.293747601E+02  7.293747601E+02  0.000000000E+00  0.00000E+00  9.000E+00
      25     1     1     2     0     0 -1.136551919E+01 -5.610667009E+00 -6.622275166E+02  6.740415676E+02  1.250043858E+02  0.00000E+00  9.000E+00
       5     1     1     2   501     0 -2.418930443E-01 -2.831381354E-01 -1.228187452E+00  4.920327618E+00  4.750000000E+00  0.00000E+00  9.000E+00
      -5     1     1     2     0   503  1.492483094E+00  1.513621671E+00 -5.756955894E+01  5.780428334E+01  4.750000000E+00  0.00000E+00  9.000E+00
      21     1     1     2   502   511  1.011492914E+01  4.380183473E+00  6.292796353E+01  6.388604224E+01  2.023048729E-06  0.00000E+00  9.000E+00
#rwgt            1           9   6.0444276828093622E-004           8     2562215           0
</event>
<event>
      6   9999 -3.45752E-01  4.01664E+01 -1.00000E+00  1.40081E-01
      21    -1     0     0   501   512  0.000000000E+00  0.000000000E+00  7.856204973E+01  7.856204973E+01  0.000000000E+00  0.00000E+00  9.000E+00
      21    -1     0     0   502   503  0.000000000E+00  0.000000000E+00 -1.569267577E+03  1.569267577E+03  0.000000000E+00  0.00000E+00  9.000E+00
      25     1     1     2     0     0  9.622228774E+01 -2.237048902E+01 -1.206033188E+03  1.216511369E+03  1.249987715E+02  0.00000E+00  9.000E+00
       5     1     1     2   501     0  1.237625259E+01 -8.901411256E-01  5.580088942E+01  5.736083803E+01  4.750000000E+00  0.00000E+00  9.000E+00
      -5     1     1     2     0   503 -7.194910263E+01  3.969707342E+01 -3.168335068E+02  3.273508279E+02  4.750000000E+00  0.00000E+00  9.000E+00
      21     1     1     2   502   512 -3.664943771E+01 -1.643644327E+01 -2.363972202E+01  4.660659190E+01  9.536743164E-07  0.00000E+00  9.000E+00
#rwgt            1           9  -4.3463249339233175E-003           8     2564397           0
</event>
<event>
      6   9999  3.45752E-01  1.42142E+01 -1.00000E+00  1.72422E-01
      21    -1     0     0   501   502  0.000000000E+00  0.000000000E+00  1.584663455E+01  1.584663455E+01  0.000000000E+00  0.00000E+00  9.000E+00
      21    -1     0     0   511   503  0.000000000E+00  0.000000000E+00 -1.050198955E+03  1.050198955E+03  0.000000000E+00  0.00000E+00  9.000E+00
      25     1     1     2     0     0 -3.336679735E+01 -5.907067880E-01 -6.248884325E+02  6.381414907E+02  1.250012675E+02  0.00000E+00  9.000E+00
       5     1     1     2   501     0 -3.109244544E+00 -1.151502340E+00  7.371581522E+00  9.375290577E+00  4.750000000E+00  0.00000E+00  9.000E+00
      -5     1     1     2     0   503  2.245546346E+01  4.080220404E+00 -2.722996862E+02  2.732957696E+02  4.750000000E+00  0.00000E+00  9.000E+00
      21     1     1     2   511   502  1.402057843E+01 -2.338011276E+00 -1.445357827E+02  1.452330383E+02  2.697398305E-06  0.00000E+00  9.000E+00
#rwgt            1           9   2.9571697355518468E-003           8     2566104           0
</event>
<event>
      6   9999  3.45752E-01  2.03498E+01 -1.00000E+00  1.59638E-01
      21    -1     0     0   501   502  0.000000000E+00  0.000000000E+00  1.529868481E+01  1.529868481E+01  0.000000000E+00  0.00000E+00  9.000E+00
      21    -1     0     0   512   503  0.000000000E+00  0.000000000E+00 -1.217688063E+03  1.217688063E+03  0.000000000E+00  0.00000E+00  9.000E+00
      25     1     1     2     0     0  5.175333943E+00 -4.315196952E+01 -8.303278837E+02  8.408071294E+02  1.249934315E+02  0.00000E+00  9.000E+00
       5     1     1     2   501     0  9.533656084E-01 -1.874882471E+00  5.706323667E+00  7.716781716E+00  4.750000000E+00  0.00000E+00  9.000E+00
      -5     1     1     2     0   503  3.696417551E+00  2.720605499E+01 -6.123382332E+01  6.727537848E+01  4.750000000E+00  0.00000E+00  9.000E+00
      21     1     1     2   512   502 -9.825117102E+00  1.782079700E+01 -3.165339947E+02  3.171874580E+02  5.394796609E-06  0.00000E+00  9.000E+00
#rwgt            1           9   2.0061288957383497E-004           8     2568223           0
</event>
<event>
      6   9999  3.45752E-01  5.01463E+00 -1.00000E+00  2.25519E-01
      21    -1     0     0   501   502  0.000000000E+00  0.000000000E+00  6.480087369E+02  6.480087369E+02  0.000000000E+00  0.00000E+00  9.000E+00
      21    -1     0     0   511   503  0.000000000E+00  0.000000000E+00 -2.167433890E+01  2.167433890E+01  0.000000000E+00  0.00000E+00  9.000E+00
      25     1     1     2     0     0 -1.147345159E+01  7.588931515E-01  2.089488495E+02  2.437551532E+02  1.249989480E+02  0.00000E+00  9.000E+00
       5     1     1     2   501     0  3.086971328E-01  6.248875789E-01  3.247681303E+02  3.248036126E+02  4.750000000E+00  0.00000E+00  9.000E+00
      -5     1     1     2     0   503  1.415874055E+01 -5.406532985E+00  9.445691386E+01  9.578294007E+01  4.750000000E+00  0.00000E+00  9.000E+00
      21     1     1     2   511   502 -2.993986094E+00  4.022752255E+00 -1.839495679E+00  5.341369936E+00  9.424321831E-08  0.00000E+00  9.000E+00
#rwgt            1           9   2.1436889862621678E-003           8     2570414           0
</event>
<event>
      6   9999  3.45752E-01  2.60164E+01 -1.00000E+00  1.51955E-01
      21    -1     0     0   501   502  0.000000000E+00  0.000000000E+00  9.955590992E+02  9.955590992E+02  0.000000000E+00  0.00000E+00  9.000E+00
      21    -1     0     0   502   512  0.000000000E+00  0.000000000E+00 -7.542748713E+01  7.542748713E+01  0.000000000E+00  0.00000E+00  9.000E+00
      25     1     1     2     0     0 -3.063264017E+01 -2.203175063E+01  3.940165185E+02  4.150876989E+02  1.250000970E+02  0.00000E+00  9.000E+00
       5     1     1     2   501     0  3.842121401E+00  1.875749965E+00  2.985190412E+02  2.985874424E+02  4.750000000E+00  0.00000E+00  9.000E+00
      -5     1     1     2     0   503  4.712028502E+01  3.639031515E+01  2.866366192E+02  2.927929136E+02  4.750000000E+00  0.00000E+00  9.000E+00
      21     1     1     2   503   512 -2.032976625E+01 -1.623431449E+01 -5.904056680E+01  6.451853138E+01  2.132480600E-06  0.00000E+00  9.000E+00
#rwgt            1           9   2.1220980516407654E-004           8     2575091           0
</event>
<event>
      6   9999  3.45752E-01  1.18010E+01 -1.00000E+00  1.79923E-01
      21    -1     0     0   501   502  0.000000000E+00  0.000000000E+00  2.055519873E+01  2.055519873E+01  0.000000000E+00  0.00000E+00  9.000E+00
      21    -1     0     0   502   511  0.000000000E+00  0.000000000E+00 -1.025528461E+03  1.025528461E+03  0.000000000E+00  0.00000E+00  9.000E+00
      25     1     1     2     0     0 -4.150826663E+01 -1.765873456E+01 -8.328790410E+02  8.434138911E+02  1.249989111E+02  0.00000E+00  9.000E+00
       5     1     1     2   501     0  6.661662500E-01 -3.476572045E-01  1.155752229E+01  1.251812544E+01  4.750000000E+00  0.00000E+00  9.000E+00
      -5     1     1     2     0   503  2.980306318E+01  2.217815988E+01 -1.427929308E+02  1.476227521E+02  4.750000000E+00  0.00000E+00  9.000E+00
      21     1     1     2   503   511  1.103903720E+01 -4.171768122E+00 -4.085881294E+01  4.252889120E+01  4.768371582E-07  0.00000E+00  9.000E+00
#rwgt            1           9   2.0325370563435327E-005           8     2576143           0
</event>
<event>
      6   9999  3.45752E-01  1.17908E+01 -1.00000E+00  1.79960E-01
      21    -1     0     0   501   502  0.000000000E+00  0.000000000E+00  1.804355285E+01  1.804355285E+01  0.000000000E+00  0.00000E+00  9.000E+00
       1    -1     0     0   502     0  0.000000000E+00  0.000000000E+00 -5.021711796E+02  5.021711796E+02  0.000000000E+00  0.00000E+00  9.000E+00
      25     1     1     2     0     0  5.308244106E+00  4.769986264E+00 -2.682979787E+02  2.960715186E+02  1.249944340E+02  0.00000E+00  9.000E+00
       5     1     1     2   501     0  1.442771092E+00  1.615408667E-01  1.594605504E+00  5.216603357E+00  4.750000000E+00  0.00000E+00  9.000E+00
      -5     1     1     2     0   503  2.936618394E+00  1.789574407E+00 -1.423559225E+01  1.539613233E+01  4.750000000E+00  0.00000E+00  9.000E+00
       1     1     1     2   503     0 -9.687633591E+00 -6.721101537E+00 -2.031886613E+02  2.035304782E+02  3.814697266E-06  0.00000E+00  9.000E+00
#rwgt            1           9   4.3613276650353448E-005           8     2578591           0
</event>
<event>
      6   9999  3.45752E-01  7.09953E+00 -1.00000E+00  2.04360E-01
      21    -1     0     0   501   502  0.000000000E+00  0.000000000E+00  6.850935597E+00  6.850935597E+00  0.000000000E+00  0.00000E+00  9.000E+00
      21    -1     0     0   502   511  0.000000000E+00  0.000000000E+00 -1.286149087E+03  1.286149087E+03  0.000000000E+00  0.00000E+00  9.000E+00
      25     1     1     2     0     0  7.539999017E+00 -4.042189872E+00 -6.419167452E+02  6.540307810E+02  1.250038553E+02  0.00000E+00  9.000E+00
       5     1     1     2   501     0 -4.711168639E+00 -2.536534551E+00 -2.751628165E+01  2.843127456E+01  4.750000000E+00  0.00000E+00  9.000E+00
      -5     1     1     2     0   503  1.432252756E+00  9.001270005E-01 -1.985861558E+01  2.048874543E+01  4.750000000E+00  0.00000E+00  9.000E+00
      21     1     1     2   503   511 -4.261083133E+00  5.678597423E+00 -5.900065090E+02  5.900492217E+02  7.629394531E-06  0.00000E+00  9.000E+00
#rwgt            1           9   4.7723617913308133E-004           8     2582709           0
</event>
<event>
      6   9999  3.45752E-01  1.06402E+01 -1.00000E+00  1.84399E-01
      21    -1     0     0   501   502  0.000000000E+00  0.000000000E+00  1.813450393E+01  1.813450393E+01  0.000000000E+00  0.00000E+00  9.000E+00
      21    -1     0     0   512   503  0.000000000E+00  0.000000000E+00 -1.065868871E+03  1.065868871E+03  0.000000000E+00  0.00000E+00  9.000E+00
      25     1     1     2     0     0 -8.886687758E+00  2.655065070E+01 -8.561674531E+02  8.656979931E+02  1.250055886E+02  0.00000E+00  9.000E+00
       5     1     1     2   501     0  5.102686033E-01 -5.335474047E+00  9.170682502E+00  1.163578854E+01  4.750000000E+00  0.00000E+00  9.000E+00
      -5     1     1     2     0   503  3.580470166E+00 -3.071322810E+01 -8.733639570E+01  9.277031131E+01  4.750000000E+00  0.00000E+00  9.000E+00
      21     1     1     2   512   502  4.795948988E+00  9.498051447E+00 -1.134012012E+02  1.138992825E+02  1.348699152E-06  0.00000E+00  9.000E+00
#rwgt            1           9   2.5670002852181195E-005           8     2585631           0
</event>
<event>
      6   9999  3.45752E-01  1.08486E+01 -1.00000E+00  1.83543E-01
      21    -1     0     0   501   502  0.000000000E+00  0.000000000E+00  1.782798265E+01  1.782798265E+01  0.000000000E+00  0.00000E+00  9.000E+00
      21    -1     0     0   502   511  0.000000000E+00  0.000000000E+00 -1.332686136E+03  1.332686136E+03  0.000000000E+00  0.00000E+00  9.000E+00
      25     1     1     2     0     0  6.944351628E+00  1.213383603E+01 -7.557936870E+02  7.662396106E+02  1.253139640E+02  0.00000E+00  9.000E+00
       5     1     1     2   501     0  5.091772353E-01 -7.130441218E-01  1.170627600E+01  1.266361288E+01  4.750000000E+00  0.00000E+00  9.000E+00
      -5     1     1     2     0   503 -1.417210524E+01 -2.902998099E+00 -1.665379632E+02  1.672325675E+02  4.750000000E+00  0.00000E+00  9.000E+00
      21     1     1     2   503   511  6.718576381E+00 -8.517793813E+00 -4.042327787E+02  4.043783272E+02  0.000000000E+00  0.00000E+00  9.000E+00
#rwgt            1           9   1.9345691032653771E-003           8     2588287           0
</event>
<event>
      6   9999  3.45752E-01  9.63920E+00 -1.00000E+00  1.88891E-01
      21    -1     0     0   512   502  0.000000000E+00  0.000000000E+00  2.161948237E+01  2.161948237E+01  0.000000000E+00  0.00000E+00  9.000E+00
      21    -1     0     0   502   503  0.000000000E+00  0.000000000E+00 -1.400804324E+03  1.400804324E+03  0.000000000E+00  0.00000E+00  9.000E+00
      25     1     1     2     0     0 -3.163790005E+00  5.538509624E+00 -1.351797862E+03  1.357580487E+03  1.250065428E+02  0.00000E+00  9.000E+00
       5     1     1     2   501     0 -3.687616707E+00  1.589403659E+00 -8.416753843E-02  6.220474672E+00  4.750000000E+00  0.00000E+00  9.000E+00
      -5     1     1     2     0   503 -2.514685489E-01 -6.115173733E-01 -4.132760804E+01  4.160493812E+01  4.750000000E+00  0.00000E+00  9.000E+00
      21     1     1     2   512   501  7.102875261E+00 -6.516395910E+00  1.402479550E+01  1.701790649E+01  9.536743164E-07  0.00000E+00  9.000E+00
#rwgt            1           9   1.5699142530086526E-002           8     2590845           0
</event>
<event>
      6   9999 -3.45752E-01  5.71160E+00 -1.00000E+00  2.17082E-01
      21    -1     0     0   501   502  0.000000000E+00  0.000000000E+00  2.123151599E+01  2.123151599E+01  0.000000000E+00  0.00000E+00  9.000E+00
      21    -1     0     0   511   503  0.000000000E+00  0.000000000E+00 -1.403162126E+03  1.403162126E+03  0.000000000E+00  0.00000E+00  9.000E+00
      25     1     1     2     0     0  1.932778863E+01 -3.538712525E+01 -1.152696119E+03  1.160154542E+03  1.249976194E+02  0.00000E+00  9.000E+00
       5     1     1     2   501     0 -4.057455344E-01 -2.723770828E+00  1.243720889E+01  1.359522791E+01  4.750000000E+00  0.00000E+00  9.000E+00
      -5     1     1     2     0   503 -2.084623954E+01  3.273317849E+01 -8.172895690E+01  9.059918086E+01  4.750000000E+00  0.00000E+00  9.000E+00
      21     1     1     2   511   502  1.924196435E+00  5.377717584E+00 -1.599427426E+02  1.600446916E+02  0.000000000E+00  0.00000E+00  9.000E+00
#rwgt            1           9  -1.0345052591154753                8     2593357           0
</event>
<event>
      6   9999  3.45752E-01  7.89447E+00 -1.00000E+00  1.98701E-01
      21    -1     0     0   512   502  0.000000000E+00  0.000000000E+00  4.040366572E+01  4.040366572E+01  0.000000000E+00  0.00000E+00  9.000E+00
      21    -1     0     0   502   503  0.000000000E+00  0.000000000E+00 -2.520748480E+02  2.520748480E+02  0.000000000E+00  0.00000E+00  9.000E+00
      25     1     1     2     0     0  7.197674478E+00 -6.142340285E+00 -2.227205926E+02  2.555779710E+02  1.250044081E+02  0.00000E+00  9.000E+00
       5     1     1     2   501     0  2.910100116E-01 -1.053646935E+00  3.566434149E+00  6.039603566E+00  4.750000000E+00  0.00000E+00  9.000E+00
      -5     1     1     2     0   503 -5.294328140E-01  3.468859953E+00 -1.003643839E+01  1.164499395E+01  4.750000000E+00  0.00000E+00  9.000E+00
      21     1     1     2   512   501 -6.959251676E+00  3.727127266E+00  1.751941456E+01  1.921594515E+01  5.840038640E-07  0.00000E+00  9.000E+00
#rwgt            1           9  0.20913991690467412                8     2598311           0
</event>
<event>
      6   9999  3.45752E-01  1.23431E+01 -1.00000E+00  1.78051E-01
      21    -1     0     0   501   511  0.000000000E+00  0.000000000E+00  3.713647183E+01  3.713647183E+01  0.000000000E+00  0.00000E+00  9.000E+00
      21    -1     0     0   502   503  0.000000000E+00  0.000000000E+00 -9.443696544E+02  9.443696544E+02  0.000000000E+00  0.00000E+00  9.000E+00
      25     1     1     2     0     0  5.811621048E+01  4.936824719E+01 -7.765607526E+02  7.902444430E+02  1.249998378E+02  0.00000E+00  9.000E+00
       5     1     1     2   501     0  3.066866447E-01 -2.170472566E-01  1.166613383E+00  4.905573666E+00  4.750000000E+00  0.00000E+00  9.000E+00
      -5     1     1     2     0   503 -5.778440821E+01 -3.682464469E+01 -1.496654216E+02  1.646735960E+02  4.750000000E+00  0.00000E+00  9.000E+00
      21     1     1     2   502   511 -6.384889134E-01 -1.232655524E+01  1.782637828E+01  2.168251357E+01  1.143415337E-06  0.00000E+00  9.000E+00
#rwgt            1           9   5.7071489158745291E-005           8     2601209           0
</event>
<event>
      6   9999  3.45752E-01  1.10032E+01 -1.00000E+00  1.82924E-01
      21    -1     0     0   501   502  0.000000000E+00  0.000000000E+00  1.405858747E+01  1.405858747E+01  0.000000000E+00  0.00000E+00  9.000E+00
      21    -1     0     0   502   512  0.000000000E+00  0.000000000E+00 -1.006018213E+03  1.006018213E+03  0.000000000E+00  0.00000E+00  9.000E+00
      25     1     1     2     0     0  8.156649861E+00 -1.553749064E+01 -3.599083619E+02  3.814020378E+02  1.250021637E+02  0.00000E+00  9.000E+00
       5     1     1     2   501     0  7.031841707E-01 -1.964117889E+00  7.783951842E-01  5.246010496E+00  4.750000000E+00  0.00000E+00  9.000E+00
      -5     1     1     2     0   503 -2.284521951E-01  1.067736714E+01 -5.023518144E+02  5.024877773E+02  4.750000000E+00  0.00000E+00  9.000E+00
      21     1     1     2   503   512 -8.631381837E+00  6.824241398E+00 -1.304778443E+02  1.309409748E+02  1.907348633E-06  0.00000E+00  9.000E+00
#rwgt            1           9   1.8346652054211630E-003           8     2604640           0
</event>
<event>
      6   9999 -3.45752E-01  1.15972E+01 -1.00000E+00  1.80660E-01
      21    -1     0     0   501   502  0.000000000E+00  0.000000000E+00  5.302287671E+01  5.302287671E+01  0.000000000E+00  0.00000E+00  9.000E+00
      21    -1     0     0   511   503  0.000000000E+00  0.000000000E+00 -1.393162655E+03  1.393162655E+03  0.000000000E+00  0.00000E+00  9.000E+00
      25     1     1     2     0     0 -3.654238676E+01  6.517864154E+00 -1.330415095E+03  1.336789350E+03  1.249944554E+02  0.00000E+00  9.000E+00
       5     1     1     2   501     0 -4.497919709E+00 -4.031993953E+00  3.064376111E+01  3.159257590E+01  4.750000000E+00  0.00000E+00  9.000E+00
      -5     1     1     2     0   503  3.155537940E+01  4.187325107E+00  3.550123644E+00  3.237964698E+01  4.750000000E+00  0.00000E+00  9.000E+00
      21     1     1     2   511   502  9.484927068E+00 -6.673195309E+00 -4.391856820E+01  4.542395854E+01  4.768371582E-07  0.00000E+00  9.000E+00
#rwgt            1           9  -3.1634751291909532E-005           8     2607173           0
</event>
<event>
      6   9999  3.45752E-01  1.55324E+01 -1.00000E+00  1.69069E-01
      21    -1     0     0   501   502  0.000000000E+00  0.000000000E+00  7.927551634E+01  7.927551634E+01  0.000000000E+00  0.00000E+00  9.000E+00
      21    -1     0     0   512   503  0.000000000E+00  0.000000000E+00 -1.663487765E+02  1.663487765E+02  0.000000000E+00  0.00000E+00  9.000E+00
      25     1     1     2     0     0 -3.892810406E+00 -2.080005845E+01 -1.750838897E+00  1.267885173E+02  1.249978651E+02  0.00000E+00  9.000E+00
       5     1     1     2   501     0 -7.305665526E-01 -1.224115763E+00  1.432021180E+01  1.515464130E+01  4.750000000E+00  0.00000E+00  9.000E+00
      -5     1     1     2     0   503  4.344781727E+00  6.494237507E+00 -1.456673434E+01  1.719896795E+01  4.750000000E+00  0.00000E+00  9.000E+00
      21     1     1     2   512   502  2.785952321E-01  1.552993670E+01 -8.507589874E+01  8.648216634E+01  0.000000000E+00  0.00000E+00  9.000E+00
#rwgt            1           9  0.20374073827562972                8     2611788           0
</event>
<event>
      6   9999  3.45752E-01  1.67063E+01 -1.00000E+00  1.66414E-01
      21    -1     0     0   501   502  0.000000000E+00  0.000000000E+00  3.376019467E+02  3.376019467E+02  0.000000000E+00  0.00000E+00  9.000E+00
       2    -1     0     0   502     0  0.000000000E+00  0.000000000E+00 -2.694796286E+02  2.694796286E+02  0.000000000E+00  0.00000E+00  9.000E+00
      25     1     1     2     0     0  1.032018665E+01  1.686239998E+01  1.673615544E+02  2.098236039E+02  1.250008323E+02  0.00000E+00  9.000E+00
       5     1     1     2   501     0  1.028272356E+00  1.693161700E+00  1.347232838E+02  1.348215482E+02  4.750000000E+00  0.00000E+00  9.000E+00
      -5     1     1     2     0   503  1.307262972E+00 -7.649966551E+00  1.247082420E+01  1.543745059E+01  4.750000000E+00  0.00000E+00  9.000E+00
       2     1     1     2   503     0 -1.265572198E+01 -1.090559513E+01 -2.464333443E+02  2.469989727E+02  2.697398305E-06  0.00000E+00  9.000E+00
#rwgt            1           9   4.9642275445590991E-004           8     2613246           0
</event>
<event>
      6   9999  3.45752E-01  2.20999E+01 -1.00000E+00  1.56970E-01
      21    -1     0     0   501   502  0.000000000E+00  0.000000000E+00  6.551015407E+01  6.551015407E+01  0.000000000E+00  0.00000E+00  9.000E+00
      21    -1     0     0   502   511  0.000000000E+00  0.000000000E+00 -1.737546775E+03  1.737546775E+03  0.000000000E+00  0.00000E+00  9.000E+00
      25     1     1     2     0     0  1.007493695E+02 -1.800247982E+02 -2.670395614E+02  3.598522096E+02  1.249964879E+02  0.00000E+00  9.000E+00
       5     1     1     2   501     0  7.971032000E-01 -8.818271783E-01  1.096305016E+01  1.200682979E+01  4.750000000E+00  0.00000E+00  9.000E+00
      -5     1     1     2     0   503 -8.639957539E+01  1.648138385E+02 -1.274253414E+03  1.287778247E+03  4.750000000E+00  0.00000E+00  9.000E+00
      21     1     1     2   503   511 -1.514689728E+01  1.609278692E+01 -1.417066957E+02  1.434196427E+02  0.000000000E+00  0.00000E+00  9.000E+00
#rwgt            1           9  0.29412007336716567                8     2614767           0
</event>
<event>
      6   9999  3.45752E-01  2.20616E+01 -1.00000E+00  1.57025E-01
      21    -1     0     0   501   512  0.000000000E+00  0.000000000E+00  1.477651400E+01  1.477651400E+01  0.000000000E+00  0.00000E+00  9.000E+00
      21    -1     0     0   502   503  0.000000000E+00  0.000000000E+00 -7.822133239E+02  7.822133239E+02  0.000000000E+00  0.00000E+00  9.000E+00
      25     1     1     2     0     0  8.384698164E+00 -2.481143241E+00 -6.590704004E+02  6.708786801E+02  1.250118057E+02  0.00000E+00  9.000E+00
       5     1     1     2   501     0 -2.575892824E+00  1.067650801E+00 -1.190761466E+01  1.311978998E+01  4.750000000E+00  0.00000E+00  9.000E+00
      -5     1     1     2     0   503 -2.514666336E+01  1.203236600E+01 -8.168096858E+01  8.643769801E+01  4.750000000E+00  0.00000E+00  9.000E+00
      21     1     1     2   502   512  1.933785802E+01 -1.061887356E+01 -1.477782628E+01  2.655366977E+01  8.596304120E-07  0.00000E+00  9.000E+00
#rwgt            1           9   3.8400138929519295E-004           8     2617308           0
</event>
<event>
      6   9999 -3.45752E-01  1.45269E+01 -1.00000E+00  1.71587E-01
      21    -1     0     0   501   502  0.000000000E+00  0.000000000E+00  1.443017024E+01  1.443017024E+01  0.000000000E+00  0.00000E+00  9.000E+00
      21    -1     0     0   511   503  0.000000000E+00  0.000000000E+00 -8.905478596E+02  8.905478596E+02  0.000000000E+00  0.00000E+00  9.000E+00
      25     1     1     2     0     0  3.217105665E+00 -1.021582780E+01 -7.739918632E+02  7.840937584E+02  1.249996188E+02  0.00000E+00  9.000E+00
       5     1     1     2   501     0 -1.408118440E-01  2.157830646E+00  4.631417643E+00  6.977721007E+00  4.750000000E+00  0.00000E+00  9.000E+00
      -5     1     1     2     0   503  6.998556155E+00  1.852350842E+01 -3.334730501E+01  3.907307774E+01  4.750000000E+00  0.00000E+00  9.000E+00
      21     1     1     2   511   502 -1.007484998E+01 -1.046551127E+01 -7.340993878E+01  7.483347272E+01  9.536743164E-07  0.00000E+00  9.000E+00
#rwgt            1           9  -1.8145660792426646E-004           8     2618482           0
</event>
<event>
      6   9999  3.45752E-01  2.16888E+00 -1.00000E+00  3.19836E-01
      21    -1     0     0   512   502  0.000000000E+00  0.000000000E+00  1.095019135E+01  1.095019135E+01  0.000000000E+00  0.00000E+00  9.000E+00
      21    -1     0     0   502   503  0.000000000E+00  0.000000000E+00 -8.194914514E+02  8.194914514E+02  0.000000000E+00  0.00000E+00  9.000E+00
      25     1     1     2     0     0  7.539503229E+00 -9.098862618E+00 -7.626212364E+02  7.728886451E+02  1.250042960E+02  0.00000E+00  9.000E+00
       5     1     1     2   501     0 -4.885585383E-01 -1.636579475E+00  2.985290814E+00  5.864430328E+00  4.750000000E+00  0.00000E+00  9.000E+00
      -5     1     1     2     0   503 -4.960572373E+00  1.131369640E+01 -4.691051849E+01  4.874183265E+01  4.750000000E+00  0.00000E+00  9.000E+00
      21     1     1     2   512   501 -2.090372319E+00 -5.782543092E-01 -1.994795914E+00  2.946734670E+00  8.161702119E-08  0.00000E+00  9.000E+00
#rwgt            1           9   7.7149700857139167E-003           8     2620596           0
</event>
<event>
      6   9999  3.45752E-01  6.27336E+00 -1.00000E+00  2.11398E-01
      21    -1     0     0   501   502  0.000000000E+00  0.000000000E+00  3.530370624E+01  3.530370624E+01  0.000000000E+00  0.00000E+00  9.000E+00
      21    -1     0     0   502   511  0.000000000E+00  0.000000000E+00 -1.231113496E+03  1.231113496E+03  0.000000000E+00  0.00000E+00  9.000E+00
      25     1     1     2     0     0 -7.679004909E+00 -4.635165925E+00 -1.082486324E+03  1.089716448E+03  1.249993820E+02  0.00000E+00  9.000E+00
       5     1     1     2   501     0  6.782690903E+00 -1.733825338E+00  3.060712678E+01  3.175483831E+01  4.750000000E+00  0.00000E+00  9.000E+00
      -5     1     1     2     0   503 -4.385215596E+00  2.983657414E+00 -1.198590511E+02  1.200703417E+02  4.750000000E+00  0.00000E+00  9.000E+00
      21     1     1     2   503   511  5.281529602E+00  3.385333849E+00 -2.407154191E+01  2.487557377E+01  0.000000000E+00  0.00000E+00  9.000E+00
#rwgt            1           9   5.8569373738412899E-003           8     2627627           0
</event>
<event>
      6   9999  3.45752E-01  1.63837E+01 -1.00000E+00  1.67116E-01
       1    -1     0     0   501     0  0.000000000E+00  0.000000000E+00  1.615797845E+02  1.615797845E+02  0.000000000E+00  0.00000E+00  9.000E+00
      21    -1     0     0   502   503  0.000000000E+00  0.000000000E+00 -1.131204338E+03  1.131204338E+03  0.000000000E+00  0.00000E+00  9.000E+00
      25     1     1     2     0     0 -9.428579683E+01 -3.626415881E+01 -3.506944339E+02  3.857672940E+02  1.249996738E+02  0.00000E+00  9.000E+00
       5     1     1     2   501     0  7.158707487E-01 -7.277333216E-01  1.002922056E+01  1.114404916E+01  4.750000000E+00  0.00000E+00  9.000E+00
      -5     1     1     2     0   503  7.843526815E+01  3.071743973E+01 -7.595686021E+02  7.642399336E+02  4.750000000E+00  0.00000E+00  9.000E+00
       1     1     1     2   502     0  1.513465793E+01  6.274452407E+00  1.306092622E+02  1.316328455E+02  0.000000000E+00  0.00000E+00  9.000E+00
#rwgt            1           9   8.8482038965378865E-004           8     2632265           0
</event>
<event>
      6   9999  3.45752E-01  2.28134E+01 -1.00000E+00  1.55967E-01
      21    -1     0     0   501   502  0.000000000E+00  0.000000000E+00  6.487328191E+01  6.487328191E+01  0.000000000E+00  0.00000E+00  9.000E+00
      21    -1     0     0   502   511  0.000000000E+00  0.000000000E+00 -1.850434234E+03  1.850434234E+03  0.000000000E+00  0.00000E+00  9.000E+00
      25     1     1     2     0     0 -7.463852365E+01 -6.939519921E+01 -1.026519118E+03  1.039111588E+03  1.249991604E+02  0.00000E+00  9.000E+00
       5     1     1     2   501     0 -1.562781979E+01  1.001161895E+01  5.136067596E+01  5.481735856E+01  4.750000000E+00  0.00000E+00  9.000E+00
      -5     1     1     2     0   503  6.766122266E+01  5.630806578E+01 -3.688873539E+02  3.792744147E+02  4.750000000E+00  0.00000E+00  9.000E+00
      21     1     1     2   503   511  2.260512078E+01  3.075514483E+00 -4.415151561E+02  4.421041544E+02  7.629394531E-06  0.00000E+00  9.000E+00
#rwgt            1           9   2.1496283602423911E-004           8     2634643           0
</event>
<event>
      6   9999  3.45752E-01  2.62724E+01 -1.00000E+00  1.51665E-01
      21    -1     0     0   512   502  0.000000000E+00  0.000000000E+00  2.092980291E+01  2.092980291E+01  0.000000000E+00  0.00000E+00  9.000E+00
      21    -1     0     0   502   503  0.000000000E+00  0.000000000E+00 -1.059039961E+03  1.059039961E+03  0.000000000E+00  0.00000E+00  9.000E+00
      25     1     1     2     0     0 -3.330594723E+01  8.577561248E+00 -8.430933213E+02  8.530029489E+02  1.249992868E+02  0.00000E+00  9.000E+00
       5     1     1     2   501     0  1.052707200E+00 -1.203272635E+00  1.277218068E+01  1.372031912E+01  4.750000000E+00  0.00000E+00  9.000E+00
      -5     1     1     2     0   503  1.411767412E+01  1.163464560E+01 -1.240848474E+02  1.255160769E+02  4.750000000E+00  0.00000E+00  9.000E+00
      21     1     1     2   512   501  1.813556591E+01 -1.900893422E+01 -8.370416954E+01  8.773041849E+01  1.348699152E-06  0.00000E+00  9.000E+00
#rwgt            1           9   1.7358342546901562E-004           8     2636911           0
</event>
<event>
      6   9999  3.45752E-01  2.46786E+01 -1.00000E+00  1.53541E-01
      21    -1     0     0   511   502  0.000000000E+00  0.000000000E+00  5.229258365E+01  5.229258365E+01  0.000000000E+00  0.00000E+00  9.000E+00
      21    -1     0     0   502   503  0.000000000E+00  0.000000000E+00 -1.719720038E+03  1.719720038E+03  0.000000000E+00  0.00000E+00  9.000E+00
      25     1     1     2     0     0 -9.104684117E+01  4.968669336E+01 -4.826347740E+02  5.092340112E+02  1.249986332E+02  0.00000E+00  9.000E+00
       5     1     1     2   501     0  8.904442492E+01 -8.173276950E+01 -9.797011989E+02  9.871403937E+02  4.750000000E+00  0.00000E+00  9.000E+00
      -5     1     1     2     0   503  1.179104598E+01  5.470030895E+01 -2.322493561E+02  2.389424167E+02  4.750000000E+00  0.00000E+00  9.000E+00
      21     1     1     2   511   501 -9.788629727E+00 -2.265423281E+01  2.715787508E+01  3.669579969E+01  1.685873940E-06  0.00000E+00  9.000E+00
#rwgt            1           9   1.3218949664579922                8     2638274           0
</event>
<event>
      6   9999  3.45752E-01  3.38497E+01 -1.00000E+00  1.44524E-01
      21    -1     0     0   501   502  0.000000000E+00  0.000000000E+00  1.100855901E+02  1.100855901E+02  0.000000000E+00  0.00000E+00  9.000E+00
      21    -1     0     0   502   512  0.000000000E+00  0.000000000E+00 -1.822152078E+03  1.822152078E+03  0.000000000E+00  0.00000E+00  9.000E+00
      25     1     1     2     0     0 -1.413658468E+01  2.851308240E+01 -1.561706796E+03  1.567024248E+03  1.249961537E+02  0.00000E+00  9.000E+00
       5     1     1     2   501     0 -2.540205133E+00  5.093988777E+00  1.055764681E+02  1.058364516E+02  4.750000000E+00  0.00000E+00  9.000E+00
      -5     1     1     2     0   503 -2.583728577E+00 -5.771264089E+00 -3.664567202E+01  3.748934409E+01  4.750000000E+00  0.00000E+00  9.000E+00
      21     1     1     2   503   512  1.926051839E+01 -2.783580709E+01 -2.192904881E+02  2.218876245E+02  2.697398305E-06  0.00000E+00  9.000E+00
#rwgt            1           9   3.0679021089815038E-004           8     2639991           0
</event>
<event>
      6   9999  3.45752E-01  5.65565E+00 -1.00000E+00  2.17697E-01
      21    -1     0     0   501   502  0.000000000E+00  0.000000000E+00  6.519671855E+01  6.519671855E+01  0.000000000E+00  0.00000E+00  9.000E+00
      21    -1     0     0   502   511  0.000000000E+00  0.000000000E+00 -1.660400837E+03  1.660400837E+03  0.000000000E+00  0.00000E+00  9.000E+00
      25     1     1     2     0     0 -9.900275812E+00  8.171907521E+00 -1.511962235E+03  1.517174446E+03  1.249948132E+02  0.00000E+00  9.000E+00
       5     1     1     2   501     0  1.695333717E+01  3.950999495E+00  6.078387915E+01  6.340558732E+01  4.750000000E+00  0.00000E+00  9.000E+00
      -5     1     1     2     0   503 -4.321732172E+00 -7.170510415E+00 -5.690582428E+01  5.771420038E+01  4.750000000E+00  0.00000E+00  9.000E+00
      21     1     1     2   503   511 -2.731329191E+00 -4.952396600E+00 -8.711993780E+01  8.730332155E+01  2.336015456E-06  0.00000E+00  9.000E+00
#rwgt            1           9   8.9100022207456010E-004           8     2642679           0
</event>
<event>
      6   9999 -3.45752E-01  2.54566E+01 -1.00000E+00  1.52604E-01
      21    -1     0     0   501   502  0.000000000E+00  0.000000000E+00  1.078401571E+02  1.078401571E+02  0.000000000E+00  0.00000E+00  9.000E+00
      21    -1     0     0   502   512  0.000000000E+00  0.000000000E+00 -8.636674061E+02  8.636674061E+02  0.000000000E+00  0.00000E+00  9.000E+00
      25     1     1     2     0     0  2.615259981E+01 -2.410583838E+01 -7.699782626E+02  7.808686988E+02  1.249973997E+02  0.00000E+00  9.000E+00
       5     1     1     2   501     0 -4.138034205E-01  7.857015708E-01  4.272850701E+01  4.300088803E+01  4.750000000E+00  0.00000E+00  9.000E+00
      -5     1     1     2     0   503 -7.034012066E+00  6.052535134E+00  5.721058630E+01  5.815259402E+01  4.750000000E+00  0.00000E+00  9.000E+00
      21     1     1     2   503   512 -1.870478432E+01  1.726760168E+01 -8.578807980E+01  8.948538238E+01  9.536743164E-07  0.00000E+00  9.000E+00
#rwgt            1           9  -7.0561275886094725E-003           8     2649408           0
</event>
<event>
      6   9999  3.45752E-01  1.12941E+01 -1.00000E+00  1.81793E-01
      21    -1     0     0   511   502  0.000000000E+00  0.000000000E+00  9.691576206E+00  9.691576206E+00  0.000000000E+00  0.00000E+00  9.000E+00
      21    -1     0     0   502   503  0.000000000E+00  0.000000000E+00 -6.358682922E+02  6.358682922E+02  0.000000000E+00  0.00000E+00  9.000E+00
      25     1     1     2     0     0  7.394603008E+00 -2.691200393E+00 -5.798705188E+02  5.932428637E+02  1.250014159E+02  0.00000E+00  9.000E+00
       5     1     1     2   501     0  2.662172177E+00 -1.581008929E+00 -9.950927753E+00  1.145295652E+01  4.750000000E+00  0.00000E+00  9.000E+00
      -5     1     1     2     0   503  4.245113108E-01  6.517613231E-02 -2.244494808E+01  2.294608141E+01  4.750000000E+00  0.00000E+00  9.000E+00
      21     1     1     2   511   501 -1.048128650E+01  4.207033189E+00 -1.391032130E+01  1.791796678E+01  4.768371582E-07  0.00000E+00  9.000E+00
#rwgt            1           9   3.8896732367553808E-004           8     2651611           0
</event>
<event>
      6   9999  3.45752E-01  3.56482E+00 -1.00000E+00  2.58680E-01
      21    -1     0     0   501   502  0.000000000E+00  0.000000000E+00  1.030599876E+02  1.030599876E+02  0.000000000E+00  0.00000E+00  9.000E+00
      21    -1     0     0   512   503  0.000000000E+00  0.000000000E+00 -2.172537438E+03  2.172537438E+03  0.000000000E+00  0.00000E+00  9.000E+00
      25     1     1     2     0     0 -6.840887632E+01 -1.765983067E+02 -1.378308541E+02  2.654949339E+02  1.249939170E+02  0.00000E+00  9.000E+00
       5     1     1     2   501     0 -1.374107815E+00 -7.213715463E+00  3.225729812E+01  3.342187375E+01  4.750000000E+00  0.00000E+00  9.000E+00
      -5     1     1     2     0   503  7.150255489E+01  1.806893613E+02 -1.473739207E+03  1.486502967E+03  4.750000000E+00  0.00000E+00  9.000E+00
      21     1     1     2   512   502 -1.719570754E+00  3.122660895E+00 -4.901646873E+02  4.901776501E+02  9.344061824E-06  0.00000E+00  9.000E+00
#rwgt            1           9   8.0593677094918970E-005           8     2653182           0
</event>
<event>
      6   9999  3.45752E-01  6.95259E+00 -1.00000E+00  2.05515E-01
      21    -1     0     0   502   503  0.000000000E+00  0.000000000E+00  8.561231952E+00  8.561231952E+00  0.000000000E+00  0.00000E+00  9.000E+00
       1    -1     0     0   501     0  0.000000000E+00  0.000000000E+00 -7.752196313E+02  7.752196313E+02  0.000000000E+00  0.00000E+00  9.000E+00
      25     1     1     2     0     0 -6.927830054E-01 -2.696188749E+00 -5.570029970E+02  5.708636746E+02  1.250009877E+02  0.00000E+00  9.000E+00
       5     1     1     2   501     0 -1.311463298E-01 -4.189316844E-01 -7.354107923E+00  8.765734793E+00  4.750000000E+00  0.00000E+00  9.000E+00
      -5     1     1     2     0   503 -4.684719336E+00 -1.126725151E+00 -1.242377305E+01  1.414668659E+01  4.750000000E+00  0.00000E+00  9.000E+00
       1     1     1     2   502     0  5.508648671E+00  4.241845585E+00 -1.898775213E+02  1.900047672E+02  4.672030912E-06  0.00000E+00  9.000E+00
#rwgt            1           9   1.4757124431906857E-004           8     2662068           0
</event>
<event>
      6   9999  3.45752E-01  1.00824E+01 -1.00000E+00  1.86819E-01
      21    -1     0     0   501   502  0.000000000E+00  0.000000000E+00  3.606458375E+01  3.606458375E+01  0.000000000E+00  0.00000E+00  9.000E+00
      21    -1     0     0   502   511  0.000000000E+00  0.000000000E+00 -1.667752971E+03  1.667752971E+03  0.000000000E+00  0.00000E+00  9.000E+00
      25     1     1     2     0     0 -4.880955012E+00 -4.225409564E+01 -1.255890191E+02  1.822274433E+02  1.250000283E+02  0.00000E+00  9.000E+00
       5     1     1     2   501     0  6.331207211E-01  6.338327240E-01  6.638738345E+00  8.212060191E+00  4.750000000E+00  0.00000E+00  9.000E+00
      -5     1     1     2     0   503  7.538934505E+00  3.209012605E+01 -1.042407058E+03  1.042938947E+03  4.750000000E+00  0.00000E+00  9.000E+00
      21     1     1     2   503   511 -3.291100214E+00  9.530136865E+00 -4.703310486E+02  4.704391035E+02  5.394796609E-06  0.00000E+00  9.000E+00
#rwgt            1           9   1.7968907377775760E-003           8     2664605           0
</event>
<event>
      6   9999  3.45752E-01  1.38424E+01 -1.00000E+00  1.73451E-01
      21    -1     0     0   512   502  0.000000000E+00  0.000000000E+00  3.973071699E+01  3.973071699E+01  0.000000000E+00  0.00000E+00  9.000E+00
      21    -1     0     0   502   503  0.000000000E+00  0.000000000E+00 -1.114488549E+03  1.114488549E+03  0.000000000E+00  0.00000E+00  9.000E+00
      25     1     1     2     0     0 -8.662818561E+00  1.205578144E+01 -1.021723262E+03  1.029447631E+03  1.249944592E+02  0.00000E+00  9.000E+00
       5     1     1     2   501     0  3.822506108E+00 -3.455186406E-01  2.425399142E+01  2.501098831E+01  4.750000000E+00  0.00000E+00  9.000E+00
      -5     1     1     2     0   503  2.028491998E+00  1.843543842E+00 -8.413785606E+01  8.431639672E+01  4.750000000E+00  0.00000E+00  9.000E+00
      21     1     1     2   512   501  2.811820455E+00 -1.355380664E+01  6.849294785E+00  1.544424967E+01  6.194296387E-07  0.00000E+00  9.000E+00
#rwgt            1           9   8.3557220237409296E-006           8     2668396           0
</event>
<event>
      6   9999  3.45752E-01  7.64211E+00 -1.00000E+00  2.00398E-01
      21    -1     0     0   511   503  0.000000000E+00  0.000000000E+00  1.968936621E+01  1.968936621E+01  0.000000000E+00  0.00000E+00  9.000E+00
      21    -1     0     0   501   502  0.000000000E+00  0.000000000E+00 -9.792409741E+02  9.792409741E+02  0.000000000E+00  0.00000E+00  9.000E+00
      25     1     1     2     0     0 -5.930003649E+01  1.767855821E+00 -8.649031364E+02  8.759009981E+02  1.250020142E+02  0.00000E+00  9.000E+00
       5     1     1     2   501     0  5.254019927E+01 -5.714734371E+00 -8.517326010E+01  1.003502739E+02  4.750000000E+00  0.00000E+00  9.000E+00
      -5     1     1     2     0   503 -8.531426555E-01  3.280232616E+00  4.078531154E+00  7.119318421E+00  4.750000000E+00  0.00000E+00  9.000E+00
      21     1     1     2   511   502  7.612979876E+00  6.666459333E-01 -1.355374259E+01  1.555974992E+01  3.371747881E-07  0.00000E+00  9.000E+00
#rwgt            1           9   1.4776605941802766E-002           8     2671015           0
</event>
<event>
      6   9999  3.45752E-01  9.02818E+00 -1.00000E+00  1.91995E-01
      21    -1     0     0   512   502  0.000000000E+00  0.000000000E+00  3.069465353E+01  3.069465353E+01  0.000000000E+00  0.00000E+00  9.000E+00
      21    -1     0     0   502   503  0.000000000E+00  0.000000000E+00 -7.072018456E+02  7.072018456E+02  0.000000000E+00  0.00000E+00  9.000E+00
      25     1     1     2     0     0 -9.056222670E+00 -2.921322712E+00 -6.298744165E+02  6.422280433E+02  1.249981194E+02  0.00000E+00  9.000E+00
       5     1     1     2   501     0  2.084876951E+00 -4.149248829E+00 -2.461111315E+01  2.549180983E+01  4.750000000E+00  0.00000E+00  9.000E+00
      -5     1     1     2     0   503  7.976322662E+00 -1.901497521E+00 -4.473873719E+01  4.573132976E+01  4.750000000E+00  0.00000E+00  9.000E+00
      21     1     1     2   512   501 -1.004976943E+00  8.972069063E+00  2.271707471E+01  2.444531622E+01  1.752011592E-06  0.00000E+00  9.000E+00
#rwgt            1           9   2.1570093807120823E-004           8     2674528           0
</event>
<event>
      6   9999  3.45752E-01  1.48951E+01 -1.00000E+00  1.70636E-01
      21    -1     0     0   511   503  0.000000000E+00  0.000000000E+00  3.061401825E+01  3.061401825E+01  0.000000000E+00  0.00000E+00  9.000E+00
      21    -1     0     0   501   502  0.000000000E+00  0.000000000E+00 -1.150660650E+03  1.150660650E+03  0.000000000E+00  0.00000E+00  9.000E+00
      25     1     1     2     0     0  3.828593718E+01  2.606798289E+01 -3.679256618E+02  3.913313158E+02  1.250022136E+02  0.00000E+00  9.000E+00
       5     1     1     2   501     0  6.887715374E-01 -8.444613812E-01 -6.988603406E+02  6.988773323E+02  4.750000000E+00  0.00000E+00  9.000E+00
      -5     1     1     2     0   503 -3.159700886E+01 -3.816318064E+01 -1.824110744E+01  5.301037470E+01  4.750000000E+00  0.00000E+00  9.000E+00
      21     1     1     2   511   502 -7.377699859E+00  1.293965914E+01 -3.501952229E+01  3.805564577E+01  4.768371582E-07  0.00000E+00  9.000E+00
#rwgt            1           9   4.5130128458430456E-004           8     2677441           0
</event>
<event>
      6   9999  3.45752E-01  1.65695E+01 -1.00000E+00  1.66709E-01
      21    -1     0     0   512   502  0.000000000E+00  0.000000000E+00  7.573150860E+01  7.573150860E+01  0.000000000E+00  0.00000E+00  9.000E+00
      21    -1     0     0   502   503  0.000000000E+00  0.000000000E+00 -1.344953463E+03  1.344953463E+03  0.000000000E+00  0.00000E+00  9.000E+00
      25     1     1     2     0     0 -4.587241842E+01  5.502418711E+01 -4.343756160E+01  1.504746162E+02  1.249953936E+02  0.00000E+00  9.000E+00
       5     1     1     2   501     0 -1.122069152E+00 -3.990608835E-01  7.604591170E+00  9.044920986E+00  4.750000000E+00  0.00000E+00  9.000E+00
      -5     1     1     2     0   503  4.989327316E+01 -3.831119350E+01 -1.241231592E+03  1.242833662E+03  4.750000000E+00  0.00000E+00  9.000E+00
      21     1     1     2   512   501 -2.898785587E+00 -1.631393272E+01  7.842607788E+00  1.833177175E+01  6.795975119E-07  0.00000E+00  9.000E+00
#rwgt            1           9   3.7500862645645067E-003           8     2680467           0
</event>
<event>
      6   9999  3.45752E-01  2.55451E+01 -1.00000E+00  1.52500E-01
       2    -1     0     0   501     0  0.000000000E+00  0.000000000E+00  1.312154104E+02  1.312154104E+02  0.000000000E+00  0.00000E+00  9.000E+00
      21    -1     0     0   502   503  0.000000000E+00  0.000000000E+00 -9.357430150E+02  9.357430150E+02  0.000000000E+00  0.00000E+00  9.000E+00
      25     1     1     2     0     0 -2.170196269E+01  6.074924304E+00 -8.928355161E+02  9.018247921E+02  1.249992678E+02  0.00000E+00  9.000E+00
       5     1     1     2   501     0 -8.353059280E+00  9.215518259E+00  7.518005567E+00  1.528994061E+01  4.750000000E+00  0.00000E+00  9.000E+00
      -5     1     1     2     0   503  9.449257389E+00 -1.922829075E-01 -3.225672589E+01  3.394678635E+01  4.750000000E+00  0.00000E+00  9.000E+00
       2     1     1     2   502     0  2.060576458E+01 -1.509815966E+01  1.130466318E+02  1.158969064E+02  3.303624740E-06  0.00000E+00  9.000E+00
#rwgt            1           9   8.3049675509598830E-005           8     2683867           0
</event>
<event>
      6   9999 -3.45752E-01  2.39064E+01 -1.00000E+00  1.54513E-01
      21    -1     0     0   511   502  0.000000000E+00  0.000000000E+00  2.063670993E+01  2.063670993E+01  0.000000000E+00  0.00000E+00  9.000E+00
      21    -1     0     0   502   503  0.000000000E+00  0.000000000E+00 -9.128090545E+02  9.128090545E+02  0.000000000E+00  0.00000E+00  9.000E+00
      25     1     1     2     0     0  4.121687526E+01 -1.383730453E+01 -8.027036434E+02  8.135410012E+02  1.250020785E+02  0.00000E+00  9.000E+00
       5     1     1     2   501     0  1.801823728E+00  8.937639793E-01  2.129325344E+00  5.580493635E+00  4.750000000E+00  0.00000E+00  9.000E+00
      -5     1     1     2     0   503 -2.641571622E+01  3.014409674E+01 -7.516089879E+01  8.531224905E+01  4.750000000E+00  0.00000E+00  9.000E+00
      21     1     1     2   511   501 -1.660298278E+01 -1.720055619E+01 -1.643712770E+01  2.901202057E+01  7.539457465E-07  0.00000E+00  9.000E+00
#rwgt            1           9  -3.9625578464050865E-005           8     2685129           0
</event>
<event>
      6   9999  3.45752E-01  9.30933E+00 -1.00000E+00  1.90528E-01
      21    -1     0     0   512   503  0.000000000E+00  0.000000000E+00  2.246321646E+00  2.246321646E+00  0.000000000E+00  0.00000E+00  9.000E+00
      21    -1     0     0   501   502  0.000000000E+00  0.000000000E+00 -3.170933265E+03  3.170933265E+03  0.000000000E+00  0.00000E+00  9.000E+00
      25     1     1     2     0     0  1.245720098E+01 -2.674370467E+01 -2.582534459E+03  2.585726229E+03  1.250019635E+02  0.00000E+00  9.000E+00
       5     1     1     2   501     0 -1.078692312E-01 -2.100205931E-01 -6.168267054E+01  6.186574246E+01  4.750000000E+00  0.00000E+00  9.000E+00
      -5     1     1     2     0   503 -1.322168624E+01  1.768536292E+01 -4.452834811E+02  4.458559477E+02  4.750000000E+00  0.00000E+00  9.000E+00
      21     1     1     2   512   502  8.723544867E-01  9.268362340E+00 -7.918633230E+01  7.973166727E+01  2.861022949E-06  0.00000E+00  9.000E+00
#rwgt            1           9   2.3335456790627217E-003           8     2686472           0
</event>
<event>
      6   9999  3.45752E-01  1.19785E+01 -1.00000E+00  1.79296E-01
      21    -1     0     0   501   502  0.000000000E+00  0.000000000E+00  3.298218881E+01  3.298218881E+01  0.000000000E+00  0.00000E+00  9.000E+00
      21    -1     0     0   502   511  0.000000000E+00  0.000000000E+00 -2.504067508E+03  2.504067508E+03  0.000000000E+00  0.00000E+00  9.000E+00
      25     1     1     2     0     0 -1.482089998E+01  7.207386693E+01 -2.347590545E+02  2.759560771E+02  1.250025658E+02  0.00000E+00  9.000E+00
       5     1     1     2   501     0 -2.407959983E+00 -1.263546685E-01  1.105754137E+01  1.227379150E+01  4.750000000E+00  0.00000E+00  9.000E+00
      -5     1     1     2     0   503  2.546196987E+01 -6.324687827E+01 -1.889858867E+03  1.891094281E+03  4.750000000E+00  0.00000E+00  9.000E+00
      21     1     1     2   503   511 -8.233109906E+00 -8.700633989E+00 -3.575249385E+02  3.577255467E+02  5.394796609E-06  0.00000E+00  9.000E+00
#rwgt            1           9   6.8794507162793197                8     2689114           0
</event>
<event>
      6   9999  3.45752E-01  1.32890E+01 -1.00000E+00  1.75060E-01
      21    -1     0     0   512   502  0.000000000E+00  0.000000000E+00  1.719975591E+01  1.719975591E+01  0.000000000E+00  0.00000E+00  9.000E+00
      21    -1     0     0   502   503  0.000000000E+00  0.000000000E+00 -9.754880725E+02  9.754880725E+02  0.000000000E+00  0.00000E+00  9.000E+00
      25     1     1     2     0     0 -1.076217047E+00  2.822083846E+00 -3.043705027E+02  3.290519366E+02  1.249986067E+02  0.00000E+00  9.000E+00
       5     1     1     2   501     0 -1.300059289E+00 -1.273488735E+00  1.664913571E+00  5.352229901E+00  4.750000000E+00  0.00000E+00  9.000E+00
      -5     1     1     2     0   503 -1.088756775E+01 -7.309486155E-01 -6.227474922E+02  6.228612004E+02  4.750000000E+00  0.00000E+00  9.000E+00
      21     1     1     2   512   501  1.326384408E+01 -8.176464960E-01 -3.283523525E+01  3.542246151E+01  6.743495762E-07  0.00000E+00  9.000E+00
#rwgt            1           9   9.5373012111907816E-003           8     2692988           0
</event>
<event>
      6   9999  3.45752E-01  7.93148E+01 -1.00000E+00  1.24873E-01
      21    -1     0     0   501   511  0.000000000E+00  0.000000000E+00  2.065560068E+02  2.065560068E+02  0.000000000E+00  0.00000E+00  9.000E+00
      21    -1     0     0   502   503  0.000000000E+00  0.000000000E+00 -2.295585188E+03  2.295585188E+03  0.000000000E+00  0.00000E+00  9.000E+00
      25     1     1     2     0     0 -1.861902133E+01 -2.733002319E+01 -2.918265797E+02  3.191904008E+02  1.250046447E+02  0.00000E+00  9.000E+00
       5     1     1     2   501     0  4.950576783E+01 -9.913136526E+01 -5.493456169E+01  1.237667855E+02  4.750000000E+00  0.00000E+00  9.000E+00
      -5     1     1     2     0   503  3.728561890E+01  8.592296109E+01 -1.889564574E+03  1.891890540E+03  4.750000000E+00  0.00000E+00  9.000E+00
      21     1     1     2   502   511 -6.817236539E+01  4.053842736E+01  1.472965346E+02  1.672934685E+02  7.864199878E-06  0.00000E+00  9.000E+00
#rwgt            1           9   7.2422593861133949E-002           8     2695409           0
</event>
<event>
      6   9999  3.45752E-01  2.18052E+01 -1.00000E+00  1.57398E-01
      21    -1     0     0   501   512  0.000000000E+00  0.000000000E+00  1.415218508E+01  1.415218508E+01  0.000000000E+00  0.00000E+00  9.000E+00
      21    -1     0     0   502   503  0.000000000E+00  0.000000000E+00 -1.372743843E+03  1.372743843E+03  0.000000000E+00  0.00000E+00  9.000E+00
      25     1     1     2     0     0  3.365196171E+01  2.822097361E+01 -9.965496722E+02  1.005318634E+03  1.250017159E+02  0.00000E+00  9.000E+00
       5     1     1     2   501     0 -3.632541469E+00 -8.651053756E-01 -1.394190914E-01  6.043649768E+00  4.750000000E+00  0.00000E+00  9.000E+00
      -5     1     1     2     0   503 -4.931715153E+01 -3.750795747E+01 -3.358941609E+02  3.415940253E+02  4.750000000E+00  0.00000E+00  9.000E+00
      21     1     1     2   502   512  1.929773129E+01  1.015208923E+01 -2.600840553E+01  3.393971872E+01  1.390207266E-06  0.00000E+00  9.000E+00
#rwgt            1           9   1.3923230559605048E-004           8     2696659           0
</event>
<event>
      6   9999  3.45752E-01  1.58484E+01 -1.00000E+00  1.68326E-01
      21    -1     0     0   501   502  0.000000000E+00  0.000000000E+00  6.066172901E+01  6.066172901E+01  0.000000000E+00  0.00000E+00  9.000E+00
      21    -1     0     0   502   511  0.000000000E+00  0.000000000E+00 -2.654707152E+02  2.654707152E+02  0.000000000E+00  0.00000E+00  9.000E+00
      25     1     1     2     0     0 -5.263437463E+00  1.588445055E+01 -9.042733172E+01  1.551862280E+02  1.250025740E+02  0.00000E+00  9.000E+00
       5     1     1     2   501     0 -1.431690888E+00  1.482292148E+00  2.437086170E+01  2.491482147E+01  4.750000000E+00  0.00000E+00  9.000E+00
      -5     1     1     2     0   503  3.053393177E+00 -1.942385181E+00  3.947308498E-01  5.984511887E+00  4.750000000E+00  0.00000E+00  9.000E+00
      21     1     1     2   503   511  3.641735175E+00 -1.542435751E+01 -1.391472470E+02  1.400468829E+02  2.697398305E-06  0.00000E+00  9.000E+00
#rwgt            1           9   7.3313651212982621E-005           8     2698086           0
</event>
<event>
      6   9999  3.45752E-01  7.36555E+00 -1.00000E+00  2.02361E-01
      21    -1     0     0   501   502  0.000000000E+00  0.000000000E+00  1.579064749E+01  1.579064749E+01  0.000000000E+00  0.00000E+00  9.000E+00
      21    -1     0     0   512   503  0.000000000E+00  0.000000000E+00 -3.769545222E+02  3.769545222E+02  0.000000000E+00  0.00000E+00  9.000E+00
      25     1     1     2     0     0  1.035297354E+01  9.611124974E+00 -2.990599370E+02  3.244410778E+02  1.250024369E+02  0.00000E+00  9.000E+00
       5     1     1     2   501     0  5.347551263E-02  1.751438516E-01 -1.134239797E+00  4.886976050E+00  4.750000000E+00  0.00000E+00  9.000E+00
      -5     1     1     2     0   503 -3.192856092E+00 -8.297841016E+00 -3.474794353E+01  3.618052756E+01  4.750000000E+00  0.00000E+00  9.000E+00
      21     1     1     2   512   502 -7.213592962E+00 -1.488427810E+00 -2.622175436E+01  2.723658830E+01  3.371747881E-07  0.00000E+00  9.000E+00
#rwgt            1           9   1.4509320477816424E-005           8     2699999           0
</event>
<event>
      6   9999  3.45752E-01  1.87561E+02 -1.00000E+00  1.09867E-01
       2    -1     0     0   501     0  0.000000000E+00  0.000000000E+00  4.449211328E+02  4.449211328E+02  0.000000000E+00  0.00000E+00  9.000E+00
      21    -1     0     0   511   502  0.000000000E+00  0.000000000E+00 -1.205191734E+03  1.205191734E+03  0.000000000E+00  0.00000E+00  9.000E+00
      25     1     1     2     0     0 -1.107982702E+02 -9.224982785E+01 -3.618037022E+02  4.090403075E+02  1.250030673E+02  0.00000E+00  9.000E+00
       5     1     1     2   501     0  1.768248160E+01 -5.488828368E+00 -2.529935245E+02  2.537145706E+02  4.750000000E+00  0.00000E+00  9.000E+00
      -5     1     1     2     0   502  3.831046511E+01 -8.163670001E+01 -5.415969391E+02  5.490738106E+02  4.750000000E+00  0.00000E+00  9.000E+00
       2     1     1     2   511     0  5.480532346E+01  1.793753562E+02  3.961235648E+02  4.382841778E+02  9.344061824E-06  0.00000E+00  9.000E+00
#rwgt            1           4   1.9363700490828312E-006           8     2702865           0
</event>
<event>
      6   9999  3.45752E-01  5.96323E+00 -1.00000E+00  2.14430E-01
      21    -1     0     0   502   503  0.000000000E+00  0.000000000E+00  4.066399815E+01  4.066399815E+01  0.000000000E+00  0.00000E+00  9.000E+00
      21    -1     0     0   501   512  0.000000000E+00  0.000000000E+00 -1.646018668E+03  1.646018668E+03  0.000000000E+00  0.00000E+00  9.000E+00
      25     1     1     2     0     0 -7.231954739E+00 -4.422557407E+01 -7.487195157E+01  1.524452511E+02  1.250021715E+02  0.00000E+00  9.000E+00
       5     1     1     2   501     0  1.009671031E+01  4.015456842E+01 -1.280486879E+03  1.281164916E+03  4.750000000E+00  0.00000E+00  9.000E+00
      -5     1     1     2     0   503 -1.611907569E+00 -1.759135134E+00 -3.199652765E+00  6.204279188E+00  4.750000000E+00  0.00000E+00  9.000E+00
      21     1     1     2   502   512 -1.252848000E+00  5.830140782E+00 -2.467961869E+02  2.468682200E+02  2.697398305E-06  0.00000E+00  9.000E+00
#rwgt            1           9   4.4006297333052400E-003           8     2702934           0
</event>
<event>
      6   9999  3.45752E-01  1.76562E+01 -1.00000E+00  1.64455E-01
      21    -1     0     0   501   502  0.000000000E+00  0.000000000E+00  2.312236750E+03  2.312236750E+03  0.000000000E+00  0.00000E+00  9.000E+00
      21    -1     0     0   511   503  0.000000000E+00  0.000000000E+00 -1.878821475E+01  1.878821475E+01  0.000000000E+00  0.00000E+00  9.000E+00
      25     1     1     2     0     0  3.936275710E+01  1.771635549E+01  1.421755381E+03  1.427892320E+03  1.249992680E+02  0.00000E+00  9.000E+00
       5     1     1     2   501     0  6.018584980E-01 -1.486464369E+00  4.105001335E+02  4.105307466E+02  4.750000000E+00  0.00000E+00  9.000E+00
      -5     1     1     2     0   503 -4.380005919E+01 -3.346448184E+01  4.697392525E+02  4.729860934E+02  4.750000000E+00  0.00000E+00  9.000E+00
      21     1     1     2   511   502  3.835443594E+00  1.723459071E+01 -8.546231568E+00  1.961580533E+01  5.057621821E-07  0.00000E+00  9.000E+00
#rwgt            1           9   5.9314528523030162E-004           8     2708556           0
</event>
<event>
      6   9999 -3.45752E-01  5.16752E+00 -1.00000E+00  2.23512E-01
      21    -1     0     0   501   502  0.000000000E+00  0.000000000E+00  8.854331446E+00  8.854331446E+00  0.000000000E+00  0.00000E+00  9.000E+00
       2    -1     0     0   502     0  0.000000000E+00  0.000000000E+00 -3.615440167E+03  3.615440167E+03  0.000000000E+00  0.00000E+00  9.000E+00
      25     1     1     2     0     0  2.204904602E+01 -1.176183271E+01 -3.460014899E+03  3.462362931E+03  1.250178721E+02  0.00000E+00  9.000E+00
       5     1     1     2   501     0 -2.619338544E+00 -5.174142451E+00  1.179750362E+00  7.588609585E+00  4.750000000E+00  0.00000E+00  9.000E+00
      -5     1     1     2     0   503 -2.226791142E+01  1.261766342E+01 -4.924538201E+01  5.570220336E+01  4.750000000E+00  0.00000E+00  9.000E+00
       2     1     1     2   503     0  2.838203948E+00  4.318311737E+00 -9.850530467E+01  9.864075358E+01  1.907348633E-06  0.00000E+00  9.000E+00
#rwgt            1           9  -2.1284552664284302E-004           8     2710163           0
</event>
<event>
      6   9999 -3.45752E-01  4.37128E+00 -1.00000E+00  2.40132E-01
      21    -1     0     0   501   511  0.000000000E+00  0.000000000E+00  1.008004593E+01  1.008004593E+01  0.000000000E+00  0.00000E+00  9.000E+00
      21    -1     0     0   502   503  0.000000000E+00  0.000000000E+00 -1.971841175E+03  1.971841175E+03  0.000000000E+00  0.00000E+00  9.000E+00
      25     1     1     2     0     0 -1.425967609E-01  2.350645909E+00 -1.904907360E+03  1.909005563E+03  1.249985870E+02  0.00000E+00  9.000E+00
       5     1     1     2   501     0 -2.753833965E+00 -3.316198682E-01 -2.959012959E+00  6.245945160E+00  4.750000000E+00  0.00000E+00  9.000E+00
      -5     1     1     2     0   503 -1.369516133E+00 -1.065188184E+00 -5.941415994E+01  5.962897871E+01  4.750000000E+00  0.00000E+00  9.000E+00
      21     1     1     2   502   511  4.265946859E+00 -9.538378573E-01  5.519403686E+00  7.040733364E+00  1.143415337E-06  0.00000E+00  9.000E+00
#rwgt            1           9  -2.8544729841225788E-004           8     2715575           0
</event>
<event>
      6   9999  3.45752E-01  3.34467E+01 -1.00000E+00  1.44846E-01
      21    -1     0     0   502   503  0.000000000E+00  0.000000000E+00  2.754728770E+01  2.754728770E+01  0.000000000E+00  0.00000E+00  9.000E+00
      21    -1     0     0   512   502  0.000000000E+00  0.000000000E+00 -1.772208604E+03  1.772208604E+03  0.000000000E+00  0.00000E+00  9.000E+00
      25     1     1     2     0     0  2.871868769E-01 -9.298834203E+01 -2.387742929E+02  2.851039948E+02  1.249968426E+02  0.00000E+00  9.000E+00
       5     1     1     2   501     0  4.045786337E+01  9.441662774E+01 -1.321799465E+03  1.325793244E+03  4.750000000E+00  0.00000E+00  9.000E+00
      -5     1     1     2     0   503 -7.314597771E+00 -3.859925469E-01 -3.686371682E+01  3.788335319E+01  4.750000000E+00  0.00000E+00  9.000E+00
      21     1     1     2   512   501 -3.343045248E+01 -1.042293166E+00 -1.472238419E+02  1.509752998E+02  1.907348633E-06  0.00000E+00  9.000E+00
#rwgt            1           9   3.0120501349036131E-004           8     2720031           0
</event>
<event>
      6   9999  3.45752E-01  1.45857E+01 -1.00000E+00  1.71432E-01
      21    -1     0     0   501   502  0.000000000E+00  0.000000000E+00  2.698765391E+01  2.698765391E+01  0.000000000E+00  0.00000E+00  9.000E+00
      21    -1     0     0   502   511  0.000000000E+00  0.000000000E+00 -1.134212349E+03  1.134212349E+03  0.000000000E+00  0.00000E+00  9.000E+00
      25     1     1     2     0     0  5.832648915E+01 -3.096786724E+01 -8.312821793E+02  8.432180717E+02  1.250026673E+02  0.00000E+00  9.000E+00
       5     1     1     2   501     0 -9.305560807E-01 -1.848765465E+00  1.681904944E+01  1.759905658E+01  4.750000000E+00  0.00000E+00  9.000E+00
      -5     1     1     2     0   503 -4.317927185E+01  2.955648422E+01 -2.359032336E+02  2.416835398E+02  4.750000000E+00  0.00000E+00  9.000E+00
      21     1     1     2   503   511 -1.421666121E+01  3.260148490E+00 -5.685833137E+01  5.869933450E+01  6.743495762E-07  0.00000E+00  9.000E+00
#rwgt            1           9   5.1596948106174586E-006           8     2722289           0
</event>
<event>
      6   9999  3.45752E-01  2.15092E+01 -1.00000E+00  1.57836E-01
      21    -1     0     0   501   502  0.000000000E+00  0.000000000E+00  3.025634817E+01  3.025634817E+01  0.000000000E+00  0.00000E+00  9.000E+00
      21    -1     0     0   502   512  0.000000000E+00  0.000000000E+00 -4.890720718E+03  4.890720718E+03  0.000000000E+00  0.00000E+00  9.000E+00
      25     1     1     2     0     0 -1.788190275E+02 -1.926081518E+02 -1.530369889E+03  1.557796831E+03  1.249993004E+02  0.00000E+00  9.000E+00
       5     1     1     2   501     0  1.992782408E+00  2.723229992E+00  1.055492953E+01  1.205637593E+01  4.750000000E+00  0.00000E+00  9.000E+00
      -5     1     1     2     0   503  1.584803025E+02  1.786567150E+02 -3.192179856E+03  3.201104344E+03  4.750000000E+00  0.00000E+00  9.000E+00
      21     1     1     2   503   512  1.834594251E+01  1.122820690E+01 -1.484695547E+02  1.500195151E+02  1.907348633E-06  0.00000E+00  9.000E+00
#rwgt            1           9   1.6704362592229625E-004           8     2725035           0
</event>
<event>
      6   9999  3.45752E-01  9.63400E+00 -1.00000E+00  1.88916E-01
      21    -1     0     0   501   502  0.000000000E+00  0.000000000E+00  1.196527568E+02  1.196527568E+02  0.000000000E+00  0.00000E+00  9.000E+00
       2    -1     0     0   502     0  0.000000000E+00  0.000000000E+00 -2.667635630E+03  2.667635630E+03  0.000000000E+00  0.00000E+00  9.000E+00
      25     1     1     2     0     0 -5.437243583E+01  2.775311775E+00  2.970334821E+01  1.395437220E+02  1.250043892E+02  0.00000E+00  9.000E+00
       5     1     1     2   501     0  1.205199343E+00 -9.318065234E-01  2.713387214E+01  2.758858978E+01  4.750000000E+00  0.00000E+00  9.000E+00
      -5     1     1     2     0   503  6.050781656E+01  4.395873894E+00 -1.132199528E+02  1.285373089E+02  4.750000000E+00  0.00000E+00  9.000E+00
       2     1     1     2   503     0 -7.340580067E+00 -6.239379146E+00 -2.491600141E+03  2.491618767E+03  3.051757812E-05  0.00000E+00  9.000E+00
#rwgt            1           9   9.0089152991227519E-003           8     2728639           0
</event>
<event>
      6   9999  3.45752E-01  1.36900E+01 -1.00000E+00  1.73884E-01
      21    -1     0     0   511   502  0.000000000E+00  0.000000000E+00  1.191089377E+01  1.191089377E+01  0.000000000E+00  0.00000E+00  9.000E+00
      21    -1     0     0   502   503  0.000000000E+00  0.000000000E+00 -8.666502839E+02  8.666502839E+02  0.000000000E+00  0.00000E+00  9.000E+00
      25     1     1     2     0     0  1.240235120E+01 -3.574752315E+00 -7.079730422E+02  7.190393567E+02  1.250006833E+02  0.00000E+00  9.000E+00
       5     1     1     2   501     0 -2.334795539E+00  3.741573230E+00  2.278223192E+00  6.870476065E+00  4.750000000E+00  0.00000E+00  9.000E+00
      -5     1     1     2     0   503 -1.268651940E+01  1.327030995E+01 -9.700502238E+01  9.884121492E+01  4.750000000E+00  0.00000E+00  9.000E+00
      21     1     1     2   511   501  2.618963743E+00 -1.343713087E+01 -5.203954871E+01  5.381012997E+01  0.000000000E+00  0.00000E+00  9.000E+00
#rwgt            1           9   1.0161525393044605E-005           8     2731936           0
</event>
<event>
      6   9999 -3.45752E-01  1.90847E+01 -1.00000E+00  1.61779E-01
       2    -1     0     0   501     0  0.000000000E+00  0.000000000E+00  3.031236275E+03  3.031236275E+03  0.000000000E+00  0.00000E+00  9.000E+00
      21    -1     0     0   502   503  0.000000000E+00  0.000000000E+00 -3.167808919E+01  3.167808919E+01  0.000000000E+00  0.00000E+00  9.000E+00
      25     1     1     2     0     0  7.392950986E+00  8.031142208E+00  1.539645792E+02  1.986170265E+02  1.249979063E+02  0.00000E+00  9.000E+00
       5     1     1     2   501     0  6.149682464E+00 -7.954389724E+00  2.290728744E+03  2.290755734E+03  4.750000000E+00  0.00000E+00  9.000E+00
      -5     1     1     2     0   503  1.828865310E+00  1.123443999E+01 -5.031186021E+00  1.332038750E+01  4.750000000E+00  0.00000E+00  9.000E+00
       2     1     1     2   502     0 -1.537149876E+01 -1.131119248E+01  5.598960482E+02  5.602212159E+02  0.000000000E+00  0.00000E+00  9.000E+00
#rwgt            1           9  -3.0986954087025151                8     2734421           0
</event>
<event>
      6   9999  3.45752E-01  2.87339E+01 -1.00000E+00  1.49060E-01
      21    -1     0     0   501   502  0.000000000E+00  0.000000000E+00  3.617339081E+01  3.617339081E+01  0.000000000E+00  0.00000E+00  9.000E+00
      21    -1     0     0   511   503  0.000000000E+00  0.000000000E+00 -2.291494858E+03  2.291494858E+03  0.000000000E+00  0.00000E+00  9.000E+00
      25     1     1     2     0     0 -1.072456975E+02  3.762041177E-01 -3.608918663E+02  3.967121915E+02  1.250433627E+02  0.00000E+00  9.000E+00
       5     1     1     2   501     0  4.189787416E-01  5.351634831E+00  1.505083051E+01  1.667049902E+01  4.750000000E+00  0.00000E+00  9.000E+00
      -5     1     1     2     0   503  8.197875790E+01  8.701846675E+00 -1.767438351E+03  1.769366306E+03  4.750000000E+00  0.00000E+00  9.000E+00
      21     1     1     2   511   502  2.484796088E+01 -1.442968562E+01 -1.420420808E+02  1.449192524E+02  3.303624740E-06  0.00000E+00  9.000E+00
#rwgt            1           9   4.8934561636886864E-002           8     2736861           0
</event>
<event>
      6   9999  3.45752E-01  1.02615E+01 -1.00000E+00  1.86020E-01
      21    -1     0     0   501   502  0.000000000E+00  0.000000000E+00  8.239903857E+00  8.239903857E+00  0.000000000E+00  0.00000E+00  9.000E+00
      21    -1     0     0   502   512  0.000000000E+00  0.000000000E+00 -1.327129395E+03  1.327129395E+03  0.000000000E+00  0.00000E+00  9.000E+00
      25     1     1     2     0     0  1.607204752E+01 -1.536673129E+01 -5.909349346E+02  6.044206502E+02  1.250031134E+02  0.00000E+00  9.000E+00
       5     1     1     2   501     0  7.751232562E-01 -1.888634436E-01 -4.547059343E+00  6.623800580E+00  4.750000000E+00  0.00000E+00  9.000E+00
      -5     1     1     2     0   503 -7.088671470E+00  1.238219091E+01 -1.361880129E+02  1.370157118E+02  4.750000000E+00  0.00000E+00  9.000E+00
      21     1     1     2   503   512 -9.758499306E+00  3.173403822E+00 -5.872194840E+02  5.873091360E+02  7.629394531E-06  0.00000E+00  9.000E+00
#rwgt            1           9   1.0322131146901106E-004           8     2738820           0
</event>
<event>
      6   9999 -3.45752E-01  6.12972E+01 -1.00000E+00  1.30218E-01
      21    -1     0     0   501   511  0.000000000E+00  0.000000000E+00  3.256341226E+01  3.256341226E+01  0.000000000E+00  0.00000E+00  9.000E+00
      21    -1     0     0   502   503  0.000000000E+00  0.000000000E+00 -1.126884002E+03  1.126884002E+03  0.000000000E+00  0.00000E+00  9.000E+00
      25     1     1     2     0     0 -3.566392453E+01 -5.599997796E+01 -5.413731725E+02  5.595687945E+02  1.249976429E+02  0.00000E+00  9.000E+00
       5     1     1     2   501     0  4.433445406E+00  4.421796489E+00  3.036919724E+00  8.425740547E+00  4.750000000E+00  0.00000E+00  9.000E+00
      -5     1     1     2     0   503  8.005209061E+01  8.864288477E+01 -4.754416649E+02  4.902379396E+02  4.750000000E+00  0.00000E+00  9.000E+00
      21     1     1     2   502   511 -4.882161148E+01 -3.706470330E+01 -8.054267177E+01  1.012149394E+02  1.651812370E-06  0.00000E+00  9.000E+00
#rwgt            1           9  -4.1573613647124430E-005           8     2740700           0
</event>
<event>
      6   9999  3.45752E-01  7.34798E+00 -1.00000E+00  2.02489E-01
      21    -1     0     0   501   502  0.000000000E+00  0.000000000E+00  1.501882884E+02  1.501882884E+02  0.000000000E+00  0.00000E+00  9.000E+00
      21    -1     0     0   502   512  0.000000000E+00  0.000000000E+00 -5.367314981E+02  5.367314981E+02  0.000000000E+00  0.00000E+00  9.000E+00
      25     1     1     2     0     0 -8.173426642E-01  2.766882807E+01 -1.320471983E+02  1.839219353E+02  1.249983344E+02  0.00000E+00  9.000E+00
       5     1     1     2   501     0 -5.451355460E+00 -6.080650122E+00  1.174023512E+02  1.177818583E+02  4.750000000E+00  0.00000E+00  9.000E+00
      -5     1     1     2     0   503  8.073436096E+00 -2.871107883E+01 -2.782624034E+01  4.106541817E+01  4.750000000E+00  0.00000E+00  9.000E+00
      21     1     1     2   503   512 -1.804737972E+00  7.122900886E+00 -3.440721222E+02  3.441505747E+02  7.629394531E-06  0.00000E+00  9.000E+00
#rwgt            1           9   2.1889958219569620E-002           8     2741329           0
</event>
<event>
      6   9999  3.45752E-01  3.33873E+01 -1.00000E+00  1.44894E-01
      21    -1     0     0   501   511  0.000000000E+00  0.000000000E+00  1.944045697E+01  1.944045697E+01  0.000000000E+00  0.00000E+00  9.000E+00
      21    -1     0     0   502   503  0.000000000E+00  0.000000000E+00 -1.280612508E+03  1.280612508E+03  0.000000000E+00  0.00000E+00  9.000E+00
      25     1     1     2     0     0 -1.970306924E+01 -9.793185465E+00 -6.493614262E+02  6.616491291E+02  1.250007631E+02  0.00000E+00  9.000E+00
       5     1     1     2   501     0  2.049136130E+00 -5.083753633E+00 -1.801623816E+00  7.473410082E+00  4.750000000E+00  0.00000E+00  9.000E+00
      -5     1     1     2     0   503  2.271599974E+01 -1.812441477E+01 -5.924987185E+02  5.932299765E+02  4.750000000E+00  0.00000E+00  9.000E+00
      21     1     1     2   502   511 -5.062066630E+00  3.300135387E+01 -1.751028227E+01  3.770044908E+01  9.536743164E-07  0.00000E+00  9.000E+00
#rwgt            1           9   6.7766781039054429                8     2745340           0
</event>
<event>
      6   9999  3.45752E-01  9.58385E+00 -1.00000E+00  1.89159E-01
      21    -1     0     0   501   502  0.000000000E+00  0.000000000E+00  4.904696930E+01  4.904696930E+01  0.000000000E+00  0.00000E+00  9.000E+00
      21    -1     0     0   512   503  0.000000000E+00  0.000000000E+00 -3.490214482E+02  3.490214482E+02  0.000000000E+00  0.00000E+00  9.000E+00
      25     1     1     2     0     0 -1.744633922E+01  1.202230696E+01 -1.934195810E+02  2.312663397E+02  1.249962998E+02  0.00000E+00  9.000E+00
       5     1     1     2   501     0  2.048458391E+00 -4.189350577E+00  2.691824193E+01  2.772906577E+01  4.750000000E+00  0.00000E+00  9.000E+00
      -5     1     1     2     0   503  1.592362530E+01  1.736461037E+00 -2.435508933E+01  2.953489488E+01  4.750000000E+00  0.00000E+00  9.000E+00
      21     1     1     2   512   502 -5.257444717E-01 -9.569417422E+00 -1.091180505E+02  1.095381172E+02  1.907348633E-06  0.00000E+00  9.000E+00
#rwgt            1           9  0.46749173051429610                8     2746188           0
</event>
<event>
      6   9999 -3.45752E-01  4.19405E+01 -1.00000E+00  1.39003E-01
      21    -1     0     0   501   511  0.000000000E+00  0.000000000E+00  2.241293379E+02  2.241293379E+02  0.000000000E+00  0.00000E+00  9.000E+00
      21    -1     0     0   502   503  0.000000000E+00  0.000000000E+00 -9.681708337E+02  9.681708337E+02  0.000000000E+00  0.00000E+00  9.000E+00
      25     1     1     2     0     0 -5.577688435E+01 -6.168277014E+01 -3.931115110E+02  4.208067935E+02  1.250034897E+02  0.00000E+00  9.000E+00
       5     1     1     2   501     0  1.797326663E+01  2.131266669E+01 -9.573681591E+01  9.982669230E+01  4.750000000E+00  0.00000E+00  9.000E+00
      -5     1     1     2     0   503  1.926957777E+01  7.799311401E+01 -4.577717178E+02  4.647921584E+02  4.750000000E+00  0.00000E+00  9.000E+00
      21     1     1     2   502   511  1.853403996E+01 -3.762301056E+01  2.025785489E+02  2.068745273E+02  2.697398305E-06  0.00000E+00  9.000E+00
#rwgt            1           9  -1.1665783470138405E-002           8     2748875           0
</event>
<event>
      6   9999  3.45752E-01  2.20184E+01 -1.00000E+00  1.57087E-01
      21    -1     0     0   501   502  0.000000000E+00  0.000000000E+00  2.881835147E+01  2.881835147E+01  0.000000000E+00  0.00000E+00  9.000E+00
      21    -1     0     0   502   512  0.000000000E+00  0.000000000E+00 -6.879048107E+02  6.879048107E+02  0.000000000E+00  0.00000E+00  9.000E+00
      25     1     1     2     0     0  9.230699286E+01  2.788464964E+01 -4.311811278E+02  4.591735062E+02  1.250000370E+02  0.00000E+00  9.000E+00
       5     1     1     2   501     0  1.324388064E+00  1.463286509E+00  3.425083220E+00  6.179717325E+00  4.750000000E+00  0.00000E+00  9.000E+00
      -5     1     1     2     0   503 -7.221179334E+01 -2.424776661E+01 -1.779286707E+02  1.936070031E+02  4.750000000E+00  0.00000E+00  9.000E+00
      21     1     1     2   503   512 -2.141958758E+01 -5.100169542E+00 -5.340174404E+01  5.776293559E+01  6.743495762E-07  0.00000E+00  9.000E+00
#rwgt            1           9   2.2078438890138724E-005           8     2749733           0
</event>
<event>
      6   9999 -3.45752E-01  8.02292E+00 -1.00000E+00  1.97868E-01
      21    -1     0     0   511   502  0.000000000E+00  0.000000000E+00  2.775975761E+02  2.775975761E+02  0.000000000E+00  0.00000E+00  9.000E+00
      21    -1     0     0   502   503  0.000000000E+00  0.000000000E+00 -7.728586703E+02  7.728586703E+02  0.000000000E+00  0.00000E+00  9.000E+00
      25     1     1     2     0     0 -1.129833699E+01  3.513959405E+00 -6.654787763E+02  6.772164400E+02  1.249804167E+02  0.00000E+00  9.000E+00
       5     1     1     2   501     0 -1.807216154E+00 -1.791321567E+00  1.575414133E+00  5.614204563E+00  4.750000000E+00  0.00000E+00  9.000E+00
      -5     1     1     2     0   503  5.142642210E+00 -2.702090320E+00 -9.929004002E+01  9.957320226E+01  4.750000000E+00  0.00000E+00  9.000E+00
      21     1     1     2   511   501  7.962910937E+00  9.794524812E-01  2.679323080E+02  2.680523997E+02  3.814697266E-06  0.00000E+00  9.000E+00
#rwgt            1           9  -2.3832985192615185E-002           8     2751148           0
</event>
<event>
      6   9999  3.45752E-01  3.37586E+00 -1.00000E+00  2.64157E-01
      21    -1     0     0   501   512  0.000000000E+00  0.000000000E+00  1.728247242E+01  1.728247242E+01  0.000000000E+00  0.00000E+00  9.000E+00
      21    -1     0     0   502   503  0.000000000E+00  0.000000000E+00 -7.362477574E+02  7.362477574E+02  0.000000000E+00  0.00000E+00  9.000E+00
      25     1     1     2     0     0  4.533647358E+00  1.162457331E+00 -5.966838019E+02  6.096536157E+02  1.249962656E+02  0.00000E+00  9.000E+00
       5     1     1     2   501     0 -1.529114637E+00  3.150342387E-01  2.572260542E+00  5.622851807E+00  4.750000000E+00  0.00000E+00  9.000E+00
      -5     1     1     2     0   503 -2.040476632E+00  1.757789159E+00 -1.310680279E+02  1.311817205E+02  4.750000000E+00  0.00000E+00  9.000E+00
      21     1     1     2   502   512 -9.640560884E-01 -3.235280729E+00  6.214284279E+00  7.072041759E+00  3.769728732E-07  0.00000E+00  9.000E+00
#rwgt            1           9   1.3959539268760450E-003           8     2754221           0
</event>
<event>
      6   9999  3.45752E-01  5.67216E+00 -1.00000E+00  2.17514E-01
      21    -1     0     0   501   502  0.000000000E+00  0.000000000E+00  8.361500360E+01  8.361500360E+01  0.000000000E+00  0.00000E+00  9.000E+00
       2    -1     0     0   502     0  0.000000000E+00  0.000000000E+00 -1.889120058E+03  1.889120058E+03  0.000000000E+00  0.00000E+00  9.000E+00
      25     1     1     2     0     0 -2.184491543E+01  8.660320519E+00 -1.234111760E+03  1.240648719E+03  1.250008277E+02  0.00000E+00  9.000E+00
       5     1     1     2   501     0  1.031986526E+01  6.345116681E-01  7.974826488E+01  8.055588418E+01  4.750000000E+00  0.00000E+00  9.000E+00
      -5     1     1     2     0   503  1.168694589E+01 -3.624983117E+00 -2.465571155E+02  2.469062554E+02  4.750000000E+00  0.00000E+00  9.000E+00
       2     1     1     2   503     0 -1.618957130E-01 -5.669849070E+00 -4.045844431E+02  4.046242022E+02  0.000000000E+00  0.00000E+00  9.000E+00
#rwgt            1           9   2.5536360168014385E-004           8     2759938           0
</event>
<event>
      6   9999 -3.45752E-01  2.75072E+01 -1.00000E+00  1.50317E-01
      21    -1     0     0   501   502  0.000000000E+00  0.000000000E+00  8.874172776E+01  8.874172776E+01  0.000000000E+00  0.00000E+00  9.000E+00
       2    -1     0     0   502     0  0.000000000E+00  0.000000000E+00 -3.999115417E+02  3.999115417E+02  0.000000000E+00  0.00000E+00  9.000E+00
      25     1     1     2     0     0  1.494092092E+01  6.866076621E+00 -1.198449179E+02  1.739466103E+02  1.249969790E+02  0.00000E+00  9.000E+00
       5     1     1     2   501     0 -7.783073552E+00  3.231182376E+00  3.891470438E+01  4.009904600E+01  4.750000000E+00  0.00000E+00  9.000E+00
      -5     1     1     2     0   503 -2.913662136E+01  6.443038358E+00  1.073624558E+01  3.206688193E+01  4.750000000E+00  0.00000E+00  9.000E+00
       2     1     1     2   503     0  2.197877399E+01 -1.654029736E+01 -2.409758460E+02  2.425407312E+02  3.814697266E-06  0.00000E+00  9.000E+00
#rwgt            1           9  -4.9614888139251712E-003           8     2766355           0
</event>
<event>
      6   9999 -3.45752E-01  5.54825E+00 -1.00000E+00  2.18905E-01
      21    -1     0     0   501   502  0.000000000E+00  0.000000000E+00  1.349407967E+01  1.349407967E+01  0.000000000E+00  0.00000E+00  9.000E+00
      21    -1     0     0   502   511  0.000000000E+00  0.000000000E+00 -1.066319778E+03  1.066319778E+03  0.000000000E+00  0.00000E+00  9.000E+00
      25     1     1     2     0     0 -1.472739349E+01 -1.530837451E+01 -7.897762556E+02  7.998892115E+02  1.249998973E+02  0.00000E+00  9.000E+00
       5     1     1     2   501     0  1.891747927E+00 -1.034710670E+00  5.626879061E+00  7.672913681E+00  4.750000000E+00  0.00000E+00  9.000E+00
      -5     1     1     2     0   503  1.213016955E+01  2.184630092E+01 -9.097532738E+01  9.446414436E+01  4.750000000E+00  0.00000E+00  9.000E+00
      21     1     1     2   503   511  7.054760086E-01 -5.503215745E+00 -1.777009945E+02  1.777875882E+02  1.907348633E-06  0.00000E+00  9.000E+00
#rwgt            1           9  -7.7184676926505227E-002           8     2767885           0
</event>
<event>
      6   9999  3.45752E-01  2.69367E+01 -1.00000E+00  1.50929E-01
      21    -1     0     0   501   502  0.000000000E+00  0.000000000E+00  5.119540282E+01  5.119540282E+01  0.000000000E+00  0.00000E+00  9.000E+00
      21    -1     0     0   512   503  0.000000000E+00  0.000000000E+00 -1.524504558E+03  1.524504558E+03  0.000000000E+00  0.00000E+00  9.000E+00
      25     1     1     2     0     0 -7.626611843E+01 -1.535174841E+02 -3.442516355E+02  4.043730576E+02  1.249969697E+02  0.00000E+00  9.000E+00
       5     1     1     2   501     0  8.451488841E-01  1.718996629E-01  1.435481597E+01  1.514486935E+01  4.750000000E+00  0.00000E+00  9.000E+00
      -5     1     1     2     0   503  6.003060772E+01  1.312385577E+02 -9.554557668E+02  9.663050852E+02  4.750000000E+00  0.00000E+00  9.000E+00
      21     1     1     2   512   502  1.539036183E+01  2.210702673E+01 -1.879565684E+02  1.898769482E+02  3.814697266E-06  0.00000E+00  9.000E+00
#rwgt            1           9   3.7284975534557322E-004           8     2772304           0
</event>
<event>
      6   9999  3.45752E-01  1.02091E+02 -1.00000E+00  1.20054E-01
      21    -1     0     0   501   502  0.000000000E+00  0.000000000E+00  1.165607620E+02  1.165607620E+02  0.000000000E+00  0.00000E+00  9.000E+00
      21    -1     0     0   511   503  0.000000000E+00  0.000000000E+00 -1.197676498E+03  1.197676498E+03  0.000000000E+00  0.00000E+00  9.000E+00
      25     1     1     2     0     0 -2.493783144E+02  9.134054742E+01 -4.120267923E+02  5.058881343E+02  1.249963503E+02  0.00000E+00  9.000E+00
       5     1     1     2   501     0 -3.145351065E+00 -4.990266245E-01  6.413628444E+00  8.592984971E+00  4.750000000E+00  0.00000E+00  9.000E+00
      -5     1     1     2     0   503  1.590564915E+02 -1.319089824E+02 -1.286578778E+02  2.434632604E+02  4.750000000E+00  0.00000E+00  9.000E+00
      21     1     1     2   511   502  9.346717395E+01  4.106746162E+01 -5.468446942E+02  5.562928802E+02  0.000000000E+00  0.00000E+00  9.000E+00
#rwgt            1           9   2.0458123408552465E-003           8     2774433           0
</event>
<event>
      6   9999  3.45752E-01  7.69173E+00 -1.00000E+00  2.00057E-01
      21    -1     0     0   501   512  0.000000000E+00  0.000000000E+00  1.351587469E+02  1.351587469E+02  0.000000000E+00  0.00000E+00  9.000E+00
      21    -1     0     0   502   503  0.000000000E+00  0.000000000E+00 -8.079060167E+02  8.079060167E+02  0.000000000E+00  0.00000E+00  9.000E+00
      25     1     1     2     0     0  3.817673948E+01 -2.720423742E+01 -4.280036181E+02  4.483403714E+02  1.249978301E+02  0.00000E+00  9.000E+00
       5     1     1     2   501     0  3.863133984E-01 -2.909569270E-01  3.519698128E-01  4.787512582E+00  4.750000000E+00  0.00000E+00  9.000E+00
      -5     1     1     2     0   503 -3.593978675E+01  2.026461878E+01 -3.662205332E+02  3.685679916E+02  4.750000000E+00  0.00000E+00  9.000E+00
      21     1     1     2   502   512 -2.623266137E+00  7.230575563E+00  1.211249116E+02  1.213688879E+02  3.015782986E-06  0.00000E+00  9.000E+00
#rwgt            1           9   5.5707660176891225E-004           8     2775869           0
</event>
<event>
      6   9999  3.45752E-01  2.62538E+01 -1.00000E+00  1.51686E-01
      21    -1     0     0   501   502  0.000000000E+00  0.000000000E+00  3.572652021E+01  3.572652021E+01  0.000000000E+00  0.00000E+00  9.000E+00
      21    -1     0     0   511   503  0.000000000E+00  0.000000000E+00 -1.174122746E+03  1.174122746E+03  0.000000000E+00  0.00000E+00  9.000E+00
      25     1     1     2     0     0  9.739910348E+01 -6.361937716E+01 -4.067845678E+02  4.411694504E+02  1.249911554E+02  0.00000E+00  9.000E+00
       5     1     1     2   501     0 -6.364840143E+00 -1.293295685E+00  8.066403176E+00  1.139355800E+01  4.750000000E+00  0.00000E+00  9.000E+00
      -5     1     1     2     0   503 -1.172850375E+02  6.451570480E+01 -6.579352218E+02  6.714308414E+02  4.750000000E+00  0.00000E+00  9.000E+00
      21     1     1     2   511   502  2.625077416E+01  3.969680527E-01 -8.174283941E+01  8.585541638E+01  0.000000000E+00  0.00000E+00  9.000E+00
#rwgt            1           9   3.1910747755387514E-005           8     2779050           0
</event>
<event>
      6   9999 -3.45752E-01  4.14781E+01 -1.00000E+00  1.39278E-01
      21    -1     0     0   501   512  0.000000000E+00  0.000000000E+00  2.294493545E+01  2.294493545E+01  0.000000000E+00  0.00000E+00  9.000E+00
      21    -1     0     0   502   503  0.000000000E+00  0.000000000E+00 -7.962350609E+02  7.962350609E+02  0.000000000E+00  0.00000E+00  9.000E+00
      25     1     1     2     0     0 -8.840051485E+00  5.276356907E+01 -4.325873030E+02  4.534522838E+02  1.250002331E+02  0.00000E+00  9.000E+00
       5     1     1     2   501     0 -9.019264541E+00 -8.363397928E+00 -8.792739384E+01  8.891053169E+01  4.750000000E+00  0.00000E+00  9.000E+00
      -5     1     1     2     0   503 -4.000105900E+00 -9.149659086E+00 -2.284799890E+02  2.287474262E+02  4.750000000E+00  0.00000E+00  9.000E+00
      21     1     1     2   502   512  2.185942192E+01 -3.525051206E+01 -2.429543964E+01  4.806975467E+01  9.536743164E-07  0.00000E+00  9.000E+00
#rwgt            1           9  -1.4896815727246106E-004           8     2780575           0
</event>
<event>
      6   9999 -3.45752E-01  2.08371E+01 -1.00000E+00  1.58863E-01
      21    -1     0     0   501   502  0.000000000E+00  0.000000000E+00  3.840094064E+01  3.840094064E+01  0.000000000E+00  0.00000E+00  9.000E+00
      -2    -1     0     0     0   503  0.000000000E+00  0.000000000E+00 -2.635955258E+03  2.635955258E+03  0.000000000E+00  0.00000E+00  9.000E+00
      25     1     1     2     0     0 -8.607369030E+00  5.195492081E+00 -3.619608235E+02  3.830680902E+02  1.249977761E+02  0.00000E+00  9.000E+00
       5     1     1     2   501     0  5.768638077E+00 -5.367763905E+00  2.687962065E+01  2.841067724E+01  4.750000000E+00  0.00000E+00  9.000E+00
      -5     1     1     2     0   503 -3.000427359E+00 -1.982996126E+01 -8.457871015E+02  8.460381868E+02  4.750000000E+00  0.00000E+00  9.000E+00
      -2     1     1     2     0   502  5.839158312E+00  2.000223309E+01 -1.416686013E+03  1.416839245E+03  2.157918644E-05  0.00000E+00  9.000E+00
#rwgt            1           9  -4.8540774753881919E-005           8     2781725           0
</event>
<event>
      6   9999 -3.45752E-01  7.43857E+00 -1.00000E+00  2.01832E-01
      21    -1     0     0   501   502  0.000000000E+00  0.000000000E+00  2.072251364E+02  2.072251364E+02  0.000000000E+00  0.00000E+00  9.000E+00
      21    -1     0     0   502   511  0.000000000E+00  0.000000000E+00 -1.062443027E+02  1.062443027E+02  0.000000000E+00  0.00000E+00  9.000E+00
      25     1     1     2     0     0 -9.097854001E+00 -6.868281061E+00 -2.053309485E+01  1.271835755E+02  1.249964386E+02  0.00000E+00  9.000E+00
       5     1     1     2   501     0  1.876217494E-01  4.258700744E+00  1.429614217E+02  1.431038166E+02  4.750000000E+00  0.00000E+00  9.000E+00
      -5     1     1     2     0   503  2.941874522E+00  7.049289538E+00  8.469088424E+00  1.235455654E+01  4.750000000E+00  0.00000E+00  9.000E+00
      21     1     1     2   503   511  5.968357729E+00 -4.439709220E+00 -2.991658154E+01  3.082749038E+01  4.768371582E-07  0.00000E+00  9.000E+00
#rwgt            1           9  -1.4524719551044143                8     2783809           0
</event>
<event>
      6   9999  3.45752E-01  2.77961E+00 -1.00000E+00  2.85875E-01
      21    -1     0     0   501   512  0.000000000E+00  0.000000000E+00  1.687002252E+01  1.687002252E+01  0.000000000E+00  0.00000E+00  9.000E+00
      21    -1     0     0   502   503  0.000000000E+00  0.000000000E+00 -1.396557628E+03  1.396557628E+03  0.000000000E+00  0.00000E+00  9.000E+00
      25     1     1     2     0     0 -3.624565254E+00  1.608019596E+01 -9.632393252E+02  9.714562207E+02  1.250019240E+02  0.00000E+00  9.000E+00
       5     1     1     2   501     0 -3.975112928E+00 -1.950083847E+00  7.653912881E+00  1.003739170E+01  4.750000000E+00  0.00000E+00  9.000E+00
      -5     1     1     2     0   503  7.026630716E+00 -1.141021135E+01 -4.273913032E+02  4.276277061E+02  4.750000000E+00  0.00000E+00  9.000E+00
      21     1     1     2   502   512  5.730474665E-01 -2.719900768E+00  3.289110489E+00  4.306331548E+00  5.057621821E-07  0.00000E+00  9.000E+00
#rwgt            1           9   6.3611130733598963E-004           8     2787217           0
</event>
<event>
      6   9999  3.45752E-01  2.18992E+01 -1.00000E+00  1.57260E-01
      21    -1     0     0   501   502  0.000000000E+00  0.000000000E+00  9.260801548E+00  9.260801548E+00  0.000000000E+00  0.00000E+00  9.000E+00
      21    -1     0     0   502   511  0.000000000E+00  0.000000000E+00 -9.847029365E+02  9.847029365E+02  0.000000000E+00  0.00000E+00  9.000E+00
      25     1     1     2     0     0 -1.040571859E+01 -4.986573491E+00 -6.215273014E+02  6.340785248E+02  1.250049772E+02  0.00000E+00  9.000E+00
       5     1     1     2   501     0 -2.463243562E+00 -2.385628844E-01 -8.603229013E-01  5.424678478E+00  4.750000000E+00  0.00000E+00  9.000E+00
      -5     1     1     2     0   503 -6.663023983E+00 -4.678280230E+00 -1.261743767E+02  1.265259579E+02  4.750000000E+00  0.00000E+00  9.000E+00
      21     1     1     2   503   511  1.953198614E+01  9.903416606E+00 -2.268801339E+02  2.279345768E+02  4.672030912E-06  0.00000E+00  9.000E+00
#rwgt            1           9   1.7508691547060289E-004           8     2794778           0
</event>
<event>
      6   9999  3.45752E-01  3.16801E+01 -1.00000E+00  1.46323E-01
      21    -1     0     0   501   502  0.000000000E+00  0.000000000E+00  4.483800189E+02  4.483800189E+02  0.000000000E+00  0.00000E+00  9.000E+00
      21    -1     0     0   512   503  0.000000000E+00  0.000000000E+00 -1.278956834E+02  1.278956834E+02  0.000000000E+00  0.00000E+00  9.000E+00
      25     1     1     2     0     0  2.757675258E+01 -6.736882501E+00 -2.049989516E+01  1.298084701E+02  1.249965213E+02  0.00000E+00  9.000E+00
       5     1     1     2   501     0  3.059252606E-01 -8.406174525E+00  3.732049710E+02  3.733299750E+02  4.750000000E+00  0.00000E+00  9.000E+00
      -5     1     1     2     0   503 -4.511453806E+00 -6.244148723E+00 -3.959011265E+01  4.061135467E+01  4.750000000E+00  0.00000E+00  9.000E+00
      21     1     1     2   512   502 -2.337122403E+01  2.138720575E+01  7.369372391E+00  3.252590248E+01  2.384185791E-07  0.00000E+00  9.000E+00
#rwgt            1           9   65.329063809184277                8     2796276           0
</event>
<event>
      6   9999 -3.45752E-01  1.24016E+01 -1.00000E+00  1.77856E-01
      21    -1     0     0   501   502  0.000000000E+00  0.000000000E+00  2.591062620E+01  2.591062620E+01  0.000000000E+00  0.00000E+00  9.000E+00
      21    -1     0     0   511   503  0.000000000E+00  0.000000000E+00 -1.329662862E+03  1.329662862E+03  0.000000000E+00  0.00000E+00  9.000E+00
      25     1     1     2     0     0 -1.949708538E+01  2.744237534E+01 -1.137561918E+03  1.144903930E+03  1.249986899E+02  0.00000E+00  9.000E+00
       5     1     1     2   501     0  7.235217348E+00  4.212496246E+00  1.863267860E+01  2.097218888E+01  4.750000000E+00  0.00000E+00  9.000E+00
      -5     1     1     2     0   503  1.249462521E+01 -1.925543445E+01 -6.256346210E+01  6.681045356E+01  4.750000000E+00  0.00000E+00  9.000E+00
      21     1     1     2   511   502 -2.327571768E-01 -1.239943714E+01 -1.222595341E+02  1.228869151E+02  1.348699152E-06  0.00000E+00  9.000E+00
#rwgt            1           9  -1.4210620838116019E-002           8     2798007           0
</event>
<event>
      6   9999  3.45752E-01  1.56612E+01 -1.00000E+00  1.68764E-01
      21    -1     0     0   501   502  0.000000000E+00  0.000000000E+00  2.248004467E+01  2.248004467E+01  0.000000000E+00  0.00000E+00  9.000E+00
      21    -1     0     0   502   512  0.000000000E+00  0.000000000E+00 -2.268388352E+03  2.268388352E+03  0.000000000E+00  0.00000E+00  9.000E+00
      25     1     1     2     0     0 -6.659184748E+01 -1.980511442E+01 -1.690286772E+03  1.696325942E+03  1.250024423E+02  0.00000E+00  9.000E+00
       5     1     1     2   501     0 -5.694737588E-01 -6.655837279E+00  1.609289367E+01  1.806012727E+01  4.750000000E+00  0.00000E+00  9.000E+00
      -5     1     1     2     0   503  5.150272843E+01  2.674508518E+01 -4.624299272E+02  4.660813563E+02  4.750000000E+00  0.00000E+00  9.000E+00
      21     1     1     2   503   512  1.565859280E+01 -2.841334795E-01 -1.092845015E+02  1.104009716E+02  0.000000000E+00  0.00000E+00  9.000E+00
#rwgt            1           9   1.5418732467454253E-003           8     2800931           0
</event>
<event>
      6   9999  3.45752E-01  6.80578E+00 -1.00000E+00  2.06708E-01
      21    -1     0     0   511   502  0.000000000E+00  0.000000000E+00  1.854589428E+03  1.854589428E+03  0.000000000E+00  0.00000E+00  9.000E+00
      21    -1     0     0   502   503  0.000000000E+00  0.000000000E+00 -1.879103170E+03  1.879103170E+03  0.000000000E+00  0.00000E+00  9.000E+00
      25     1     1     2     0     0  2.221713902E+01  1.320925243E+00 -1.780856806E+03  1.785378194E+03  1.250159486E+02  0.00000E+00  9.000E+00
       5     1     1     2   501     0 -5.485092649E+00 -3.215823737E+00  3.331242484E+00  8.607406123E+00  4.750000000E+00  0.00000E+00  9.000E+00
      -5     1     1     2     0   503 -2.226553032E+01 -2.067316793E+00 -9.194163655E+01  9.474098728E+01  4.750000000E+00  0.00000E+00  9.000E+00
      21     1     1     2   511   501  5.533483954E+00  3.962215287E+00  1.844953457E+03  1.844966010E+03  2.157918644E-05  0.00000E+00  9.000E+00
#rwgt            1           9   1.9023015995229964E-004           8     2803518           0
</event>
<event>
      6   9999  3.45752E-01  1.05456E+02 -1.00000E+00  1.19463E-01
      21    -1     0     0   512   502  0.000000000E+00  0.000000000E+00  2.824337965E+01  2.824337965E+01  0.000000000E+00  0.00000E+00  9.000E+00
       2    -1     0     0   501     0  0.000000000E+00  0.000000000E+00 -1.445205720E+03  1.445205720E+03  0.000000000E+00  0.00000E+00  9.000E+00
      25     1     1     2     0     0 -4.075463889E+01 -4.220981207E+01 -4.659957349E+02  4.860250346E+02  1.250028019E+02  0.00000E+00  9.000E+00
       5     1     1     2   501     0  3.729600912E+01  7.001777122E+01 -2.806952749E+02  2.917291217E+02  4.750000000E+00  0.00000E+00  9.000E+00
      -5     1     1     2     0   502 -3.434523127E+01  7.063931355E+01 -3.404055232E+02  3.493822981E+02  4.750000000E+00  0.00000E+00  9.000E+00
       2     1     1     2   512     0  3.780386104E+01 -9.844727269E+01 -3.298658078E+02  3.463126457E+02  5.394796609E-06  0.00000E+00  9.000E+00
#rwgt            1           3   6.0066473290539061E-005           8     2806913           0
</event>
<event>
      6   9999  3.45752E-01  5.56608E+00 -1.00000E+00  2.18702E-01
      21    -1     0     0   511   502  0.000000000E+00  0.000000000E+00  5.027521779E+01  5.027521779E+01  0.000000000E+00  0.00000E+00  9.000E+00
      21    -1     0     0   502   503  0.000000000E+00  0.000000000E+00 -6.692862919E+02  6.692862919E+02  0.000000000E+00  0.00000E+00  9.000E+00
      25     1     1     2     0     0  3.719510388E+00 -5.449035565E+00 -5.949891418E+02  6.080177046E+02  1.250196925E+02  0.00000E+00  9.000E+00
       5     1     1     2   501     0 -5.470985628E-01 -1.670369502E-01 -2.848540056E+00  5.568114459E+00  4.750000000E+00  0.00000E+00  9.000E+00
      -5     1     1     2     0   503 -3.760248548E+00  8.112265943E-02 -6.324647848E+01  6.353601805E+01  4.750000000E+00  0.00000E+00  9.000E+00
      21     1     1     2   511   501  5.878367225E-01  5.534949855E+00  4.207308624E+01  4.243967257E+01  9.536743164E-07  0.00000E+00  9.000E+00
#rwgt            1           9   4.0345273850405051E-003           8     2807735           0
</event>
<event>
      6   9999  3.45752E-01  1.46909E+00 -1.00000E+00  4.05094E-01
      21    -1     0     0   512   502  0.000000000E+00  0.000000000E+00  6.762219986E+01  6.762219986E+01  0.000000000E+00  0.00000E+00  9.000E+00
      21    -1     0     0   502   503  0.000000000E+00  0.000000000E+00 -1.884874158E+03  1.884874158E+03  0.000000000E+00  0.00000E+00  9.000E+00
      25     1     1     2     0     0 -1.378876067E+01 -4.980796380E+00 -1.643724224E+03  1.648535829E+03  1.250044663E+02  0.00000E+00  9.000E+00
       5     1     1     2   501     0  4.689018029E+00  9.763478409E+00  6.184175679E+01  6.296251093E+01  4.750000000E+00  0.00000E+00  9.000E+00
      -5     1     1     2     0   503  1.051684185E+01 -4.395316779E+00 -2.378202749E+02  2.381406484E+02  4.750000000E+00  0.00000E+00  9.000E+00
      21     1     1     2   512   501 -1.417099209E+00 -3.873652510E-01  2.450783656E+00  2.857369863E+00  1.397852826E-07  0.00000E+00  9.000E+00
#rwgt            1           9  0.32010293482091695                8     2811363           0
</event>
<event>
      6   9999  3.45752E-01  2.05795E+01 -1.00000E+00  1.59269E-01
      21    -1     0     0   501   502  0.000000000E+00  0.000000000E+00  1.582771572E+01  1.582771572E+01  0.000000000E+00  0.00000E+00  9.000E+00
      21    -1     0     0   502   511  0.000000000E+00  0.000000000E+00 -9.826874137E+02  9.826874137E+02  0.000000000E+00  0.00000E+00  9.000E+00
      25     1     1     2     0     0 -3.308787178E+00 -2.262677597E+01 -4.962441757E+02  5.122635653E+02  1.250310332E+02  0.00000E+00  9.000E+00
       5     1     1     2   501     0 -2.605382614E+00  7.766283657E-01  4.354949109E+00  6.994229903E+00  4.750000000E+00  0.00000E+00  9.000E+00
      -5     1     1     2     0   503 -7.457202405E+00  3.749368238E+01 -3.869657417E+02  3.888784306E+02  4.750000000E+00  0.00000E+00  9.000E+00
      21     1     1     2   503   511  1.337137220E+01 -1.564353477E+01 -8.800472966E+01  9.037890361E+01  9.536743164E-07  0.00000E+00  9.000E+00
#rwgt            1           9   1.2745271774585950E-004           8     2827520           0
</event>
<event>
      6   9999  3.45752E-01  1.51997E+01 -1.00000E+00  1.69875E-01
      21    -1     0     0   512   502  0.000000000E+00  0.000000000E+00  4.907848525E+01  4.907848525E+01  0.000000000E+00  0.00000E+00  9.000E+00
      21    -1     0     0   502   503  0.000000000E+00  0.000000000E+00 -1.320035494E+03  1.320035494E+03  0.000000000E+00  0.00000E+00  9.000E+00
      25     1     1     2     0     0 -1.354190942E+01 -1.654377248E+02 -2.815110302E+02  3.498957930E+02  1.250023272E+02  0.00000E+00  9.000E+00
       5     1     1     2   501     0  7.543959254E+00  4.249296651E+00 -9.221790819E-01  9.918707452E+00  4.750000000E+00  0.00000E+00  9.000E+00
      -5     1     1     2     0   503 -3.983951928E+00  1.726511397E+02 -9.703401649E+02  9.855997595E+02  4.750000000E+00  0.00000E+00  9.000E+00
      21     1     1     2   512   501  9.981902096E+00 -1.146271162E+01 -1.818363503E+01  2.369971962E+01  4.129530925E-07  0.00000E+00  9.000E+00
#rwgt            1           9   2.9083241844977691E-002           8     2829865           0
</event>
<event>
      6   9999  3.45752E-01  1.19470E+01 -1.00000E+00  1.79407E-01
      21    -1     0     0   501   502  0.000000000E+00  0.000000000E+00  2.846920883E+01  2.846920883E+01  0.000000000E+00  0.00000E+00  9.000E+00
      21    -1     0     0   511   503  0.000000000E+00  0.000000000E+00 -2.109787680E+02  2.109787680E+02  0.000000000E+00  0.00000E+00  9.000E+00
      25     1     1     2     0     0  7.850584234E+00  4.191011943E+00 -1.568219460E+02  2.007422531E+02  1.250005327E+02  0.00000E+00  9.000E+00
       5     1     1     2   501     0  2.651193875E-01  7.516536518E-01 -5.750935871E-01  4.850618944E+00  4.750000000E+00  0.00000E+00  9.000E+00
      -5     1     1     2     0   503 -5.150099000E+00  6.630418551E+00 -6.140332793E+00  1.143469093E+01  4.750000000E+00  0.00000E+00  9.000E+00
      21     1     1     2   511   502 -2.965604622E+00 -1.157308415E+01 -1.897218677E+01  2.242041387E+01  2.384185791E-07  0.00000E+00  9.000E+00
#rwgt            1           9   2.9342333207304717E-007           8     2832689           0
</event>
<event>
      6   9999 -3.45752E-01  1.89266E+01 -1.00000E+00  1.62061E-01
      21    -1     0     0   501   502  0.000000000E+00  0.000000000E+00  9.850583317E+02  9.850583317E+02  0.000000000E+00  0.00000E+00  9.000E+00
      21    -1     0     0   502   512  0.000000000E+00  0.000000000E+00 -2.457339364E+01  2.457339364E+01  0.000000000E+00  0.00000E+00  9.000E+00
      25     1     1     2     0     0  7.783014949E+01 -5.757025470E+01  5.648738335E+02  5.865842255E+02  1.250069576E+02  0.00000E+00  9.000E+00
       5     1     1     2   501     0  2.239708949E+00  7.693005725E-02  2.275315316E+02  2.275921409E+02  4.750000000E+00  0.00000E+00  9.000E+00
      -5     1     1     2     0   503 -6.655386728E+01  4.424444458E+01  1.255401494E+02  1.488955329E+02  4.750000000E+00  0.00000E+00  9.000E+00
      21     1     1     2   503   512 -1.351599116E+01  1.324888007E+01  4.253942364E+01  4.655982608E+01  4.768371582E-07  0.00000E+00  9.000E+00
#rwgt            1           9  -3.7801244166744885E-003           8     2834401           0
</event>
<event>
      6   9999  3.45752E-01  3.57218E+01 -1.00000E+00  1.43096E-01
      21    -1     0     0   501   511  0.000000000E+00  0.000000000E+00  2.358387638E+01  2.358387638E+01  0.000000000E+00  0.00000E+00  9.000E+00
      21    -1     0     0   502   503  0.000000000E+00  0.000000000E+00 -3.408165193E+02  3.408165193E+02  0.000000000E+00  0.00000E+00  9.000E+00
      25     1     1     2     0     0 -1.850086446E+01 -2.752047465E+01 -2.474031155E+02  2.791659088E+02  1.250025782E+02  0.00000E+00  9.000E+00
       5     1     1     2   501     0 -1.236592604E+00 -1.388298389E+00 -1.324324221E+00  5.269996995E+00  4.750000000E+00  0.00000E+00  9.000E+00
      -5     1     1     2     0   503 -1.185889883E+00 -4.395077802E-02 -1.366950692E+01  1.451985488E+01  4.750000000E+00  0.00000E+00  9.000E+00
      21     1     1     2   502   511  2.092334695E+01  2.895272382E+01 -5.483569623E+01  6.544463496E+01  9.536743164E-07  0.00000E+00  9.000E+00
#rwgt            1           9   1.4830046429372638E-003           8     2836175           0
</event>
<event>
      6   9999  3.45752E-01  1.42363E+01 -1.00000E+00  1.72362E-01
      21    -1     0     0   501   502  0.000000000E+00  0.000000000E+00  1.455082468E+03  1.455082468E+03  0.000000000E+00  0.00000E+00  9.000E+00
      21    -1     0     0   502   512  0.000000000E+00  0.000000000E+00 -1.480026547E+01  1.480026547E+01  0.000000000E+00  0.00000E+00  9.000E+00
      25     1     1     2     0     0  2.279959724E+01  6.533347474E+00  8.146350283E+02  8.245121407E+02  1.250101380E+02  0.00000E+00  9.000E+00
       5     1     1     2   501     0  1.907481948E+00  8.409125903E-01  6.135103315E+02  6.135322608E+02  4.750000000E+00  0.00000E+00  9.000E+00
      -5     1     1     2     0   503 -1.060860072E+01 -9.350251418E+00  8.399374579E+00  1.711962629E+01  4.750000000E+00  0.00000E+00  9.000E+00
      21     1     1     2   503   512 -1.409847846E+01  1.975991354E+00  3.737468458E+00  1.471870603E+01  6.664001875E-07  0.00000E+00  9.000E+00
#rwgt            1           9   7.0895712887802179E-002           8     2837035           0
</event>
<event>
      6   9999  3.45752E-01  1.75618E+01 -1.00000E+00  1.64643E-01
      21    -1     0     0   502   511  0.000000000E+00  0.000000000E+00  4.849934004E+01  4.849934004E+01  0.000000000E+00  0.00000E+00  9.000E+00
      21    -1     0     0   501   502  0.000000000E+00  0.000000000E+00 -2.087404932E+03  2.087404932E+03  0.000000000E+00  0.00000E+00  9.000E+00
      25     1     1     2     0     0  8.848622138E+01  5.749228254E+01 -9.632805756E+02  9.770717990E+02  1.249986361E+02  0.00000E+00  9.000E+00
       5     1     1     2   501     0 -1.109196702E+02 -5.503924996E+01 -1.024846967E+03  1.032311175E+03  4.750000000E+00  0.00000E+00  9.000E+00
      -5     1     1     2     0   503  6.079043987E+00  3.946302613E+00 -8.638524001E+01  8.681877834E+01  4.750000000E+00  0.00000E+00  9.000E+00
      21     1     1     2   503   511  1.635440481E+01 -6.399335189E+00  3.560719105E+01  3.970252010E+01  2.611744678E-06  0.00000E+00  9.000E+00
#rwgt            1           9   14.212418672684944                8     2839725           0
</event>
<event>
      6   9999 -3.45752E-01  5.02007E+00 -1.00000E+00  2.25446E-01
      21    -1     0     0   501   502  0.000000000E+00  0.000000000E+00  1.936205138E+01  1.936205138E+01  0.000000000E+00  0.00000E+00  9.000E+00
      21    -1     0     0   502   512  0.000000000E+00  0.000000000E+00 -1.325663661E+03  1.325663661E+03  0.000000000E+00  0.00000E+00  9.000E+00
      25     1     1     2     0     0 -2.644339482E+01  3.874981155E+01 -4.125205480E+02  4.335880113E+02  1.249982400E+02  0.00000E+00  9.000E+00
       5     1     1     2   501     0 -3.144068128E-01  2.076125994E+00  6.752657687E+00  8.518804882E+00  4.750000000E+00  0.00000E+00  9.000E+00
      -5     1     1     2     0   503  2.258945186E+01 -4.362342917E+01 -5.165694145E+02  5.189217758E+02  4.750000000E+00  0.00000E+00  9.000E+00
      21     1     1     2   503   512  4.168349774E+00  2.797491628E+00 -3.839643047E+02  3.839971203E+02  7.629394531E-06  0.00000E+00  9.000E+00
#rwgt            1           9  -9.6554275358458813E-002           8     2841741           0
</event>
<event>
      6   9999  3.45752E-01  5.49356E+00 -1.00000E+00  2.19535E-01
      21    -1     0     0   501   502  0.000000000E+00  0.000000000E+00  1.066158541E+01  1.066158541E+01  0.000000000E+00  0.00000E+00  9.000E+00
      21    -1     0     0   502   511  0.000000000E+00  0.000000000E+00 -8.866581884E+02  8.866581884E+02  0.000000000E+00  0.00000E+00  9.000E+00
      25     1     1     2     0     0  4.370368592E+01 -1.686560679E+01 -6.259192748E+02  6.399956707E+02  1.250002366E+02  0.00000E+00  9.000E+00
       5     1     1     2   501     0  2.759705244E-02  3.758018613E-01 -3.193739261E+00  5.736240851E+00  4.750000000E+00  0.00000E+00  9.000E+00
      -5     1     1     2     0   503 -3.841654796E+01  1.509955771E+01 -1.928207093E+02  1.972465874E+02  4.750000000E+00  0.00000E+00  9.000E+00
      21     1     1     2   503   511 -5.314735016E+00  1.390247215E+00 -5.406287963E+01  5.434127482E+01  6.743495762E-07  0.00000E+00  9.000E+00
#rwgt            1           9   2.3601604500365664E-004           8     2846132           0
</event>
<event>
      6   9999 -3.45752E-01  1.27445E+01 -1.00000E+00  1.76742E-01
      21    -1     0     0   512   502  0.000000000E+00  0.000000000E+00  2.176624818E+01  2.176624818E+01  0.000000000E+00  0.00000E+00  9.000E+00
      21    -1     0     0   502   503  0.000000000E+00  0.000000000E+00 -1.032008096E+03  1.032008096E+03  0.000000000E+00  0.00000E+00  9.000E+00
      25     1     1     2     0     0 -6.156693878E+01  3.851478035E+01 -8.074256745E+02  8.202646651E+02  1.249960988E+02  0.00000E+00  9.000E+00
       5     1     1     2   501     0 -2.196633099E+00 -2.608348145E-01  8.185847979E+00  9.719250944E+00  4.750000000E+00  0.00000E+00  9.000E+00
      -5     1     1     2     0   503  5.316237879E+01 -3.118017569E+01 -1.761995551E+02  1.867278436E+02  4.750000000E+00  0.00000E+00  9.000E+00
      21     1     1     2   512   501  1.060119309E+01 -7.073769841E+00 -3.480246619E+01  3.706258447E+01  6.743495762E-07  0.00000E+00  9.000E+00
#rwgt            1           9  -8.5209982631284138E-005           8     2850105           0
</event>
<event>
      6   9999  3.45752E-01  1.06703E+01 -1.00000E+00  1.84274E-01
      21    -1     0     0   511   502  0.000000000E+00  0.000000000E+00  2.181465006E+01  2.181465006E+01  0.000000000E+00  0.00000E+00  9.000E+00
      21    -1     0     0   502   503  0.000000000E+00  0.000000000E+00 -8.981948808E+02  8.981948808E+02  0.000000000E+00  0.00000E+00  9.000E+00
      25     1     1     2     0     0  1.460592919E+01  3.015624806E+01 -8.320285576E+02  8.420328647E+02  1.250003687E+02  0.00000E+00  9.000E+00
       5     1     1     2   501     0  1.286417410E-01  3.128791771E+00  4.944862326E+00  7.537907539E+00  4.750000000E+00  0.00000E+00  9.000E+00
      -5     1     1     2     0   503 -1.531335702E+01 -2.263043829E+01 -5.243366465E+01  5.931683849E+01  4.750000000E+00  0.00000E+00  9.000E+00
      21     1     1     2   511   501  5.787860824E-01 -1.065460155E+01  3.137129173E+00  1.112192011E+01  4.440446027E-07  0.00000E+00  9.000E+00
#rwgt            1           9   9.3286613598123937E-004           8     2853030           0
</event>
<event>
      6   9999  3.45752E-01  5.98967E+01 -1.00000E+00  1.30721E-01
      21    -1     0     0   501   502  0.000000000E+00  0.000000000E+00  5.420963033E+01  5.420963033E+01  0.000000000E+00  0.00000E+00  9.000E+00
      21    -1     0     0   502   512  0.000000000E+00  0.000000000E+00 -1.757301301E+03  1.757301301E+03  0.000000000E+00  0.00000E+00  9.000E+00
      25     1     1     2     0     0  6.560796521E+01  1.847137213E+02 -8.479634566E+02  8.792557535E+02  1.250003694E+02  0.00000E+00  9.000E+00
       5     1     1     2   501     0 -8.733418258E+01  2.296368748E+00 -4.755200659E+01  9.958056330E+01  4.750000000E+00  0.00000E+00  9.000E+00
      -5     1     1     2     0   503 -8.726215513E+00 -1.354323533E+02 -4.474907200E+02  4.676415039E+02  4.750000000E+00  0.00000E+00  9.000E+00
      21     1     1     2   503   512  3.045243288E+01 -5.157773666E+01 -3.600854871E+02  3.650331103E+02  5.394796609E-06  0.00000E+00  9.000E+00
#rwgt            1           9   5.6626586862676864E-004           8     2855679           0
</event>
<event>
      6   9999 -3.45752E-01  2.01176E+01 -1.00000E+00  1.60016E-01
      21    -1     0     0   501   502  0.000000000E+00  0.000000000E+00  1.661695067E+02  1.661695067E+02  0.000000000E+00  0.00000E+00  9.000E+00
      21    -1     0     0   511   503  0.000000000E+00  0.000000000E+00 -1.765881955E+02  1.765881955E+02  0.000000000E+00  0.00000E+00  9.000E+00
      25     1     1     2     0     0  5.050595999E+01  2.843088437E+01 -1.201752273E+02  1.828295526E+02  1.250015714E+02  0.00000E+00  9.000E+00
       5     1     1     2   501     0  4.077240510E+00 -4.198459275E+00  7.365268178E+01  7.403736208E+01  4.750000000E+00  0.00000E+00  9.000E+00
      -5     1     1     2     0   503 -3.668049469E+01 -3.340915625E+01  4.172642711E+01  6.500221251E+01  4.750000000E+00  0.00000E+00  9.000E+00
      21     1     1     2   511   502 -1.790270581E+01  9.176731156E+00 -5.622570375E+00  2.088857505E+01  4.578319638E-07  0.00000E+00  9.000E+00
#rwgt            1           9  -1.3059071237077667E-003           8     2856684           0
</event>
<event>
      6   9999  3.45752E-01  3.52710E+01 -1.00000E+00  1.43430E-01
      21    -1     0     0   502   503  0.000000000E+00  0.000000000E+00  2.900743874E+03  2.900743874E+03  0.000000000E+00  0.00000E+00  9.000E+00
      -3    -1     0     0     0   502  0.000000000E+00  0.000000000E+00 -1.367567029E+02  1.367567029E+02  0.000000000E+00  0.00000E+00  9.000E+00
      25     1     1     2     0     0  1.176433712E+01 -1.586229866E-01  2.366218127E+03  2.369546815E+03  1.250018400E+02  0.00000E+00  9.000E+00
       5     1     1     2   501     0 -9.845708062E-01 -1.193064634E+01  2.330669177E+02  2.334224932E+02  4.750000000E+00  0.00000E+00  9.000E+00
      -5     1     1     2     0   503  8.249293222E+00 -1.760816365E+01  2.969687747E+02  2.976425943E+02  4.750000000E+00  0.00000E+00  9.000E+00
      -3     1     1     2     0   501 -1.902905954E+01  2.969743298E+01 -1.322666488E+02  1.368886738E+02  8.313939941E-06  0.00000E+00  9.000E+00
#rwgt            1           9  0.15987194203515598                8     2858738           0
</event>
<event>
      6   9999  3.45752E-01  7.73311E+00 -1.00000E+00  1.99776E-01
      21    -1     0     0   501   502  0.000000000E+00  0.000000000E+00  1.358269773E+01  1.358269773E+01  0.000000000E+00  0.00000E+00  9.000E+00
      21    -1     0     0   511   503  0.000000000E+00  0.000000000E+00 -6.216335313E+02  6.216335313E+02  0.000000000E+00  0.00000E+00  9.000E+00
      25     1     1     2     0     0  1.896756803E+01  1.130699019E+01 -4.522976614E+02  4.697714578E+02  1.249977254E+02  0.00000E+00  9.000E+00
       5     1     1     2   501     0  4.985297853E-01 -1.228740380E+00  2.218067443E+00  5.407463181E+00  4.750000000E+00  0.00000E+00  9.000E+00
      -5     1     1     2     0   503 -1.174481135E+01 -1.050576239E+01 -1.292335705E+02  1.302773575E+02  4.750000000E+00  0.00000E+00  9.000E+00
      21     1     1     2   511   502 -7.721286465E+00  4.275125880E-01 -2.873766913E+01  2.975995059E+01  3.371747881E-07  0.00000E+00  9.000E+00
#rwgt            1           9   1.5502353838455427                8     2859459           0
</event>
<event>
      6   9999  3.45752E-01  9.71124E+00 -1.00000E+00  1.88544E-01
      21    -1     0     0   512   503  0.000000000E+00  0.000000000E+00  2.973971976E+02  2.973971976E+02  0.000000000E+00  0.00000E+00  9.000E+00
      21    -1     0     0   501   502  0.000000000E+00  0.000000000E+00 -7.107655606E+02  7.107655606E+02  0.000000000E+00  0.00000E+00  9.000E+00
      25     1     1     2     0     0  8.139470954E+00 -1.798317116E+00 -5.576928604E+02  5.715880193E+02  1.249882090E+02  0.00000E+00  9.000E+00
       5     1     1     2   501     0  1.505935120E+00  2.107507106E+00 -1.260634805E+02  1.261795271E+02  4.750000000E+00  0.00000E+00  9.000E+00
      -5     1     1     2     0   503  1.332091989E-02 -1.317726537E+00 -1.961741865E+01  2.022726366E+01  4.750000000E+00  0.00000E+00  9.000E+00
      21     1     1     2   512   502 -9.658726993E+00  1.008536547E+00  2.900053965E+02  2.901679482E+02  3.814697266E-06  0.00000E+00  9.000E+00
#rwgt            1           9   1.4656244292853848E-003           8     2862326           0
</event>
<event>
      6   9999  3.45752E-01  1.00597E+02 -1.00000E+00  1.20325E-01
      21    -1     0     0   511   502  0.000000000E+00  0.000000000E+00  4.034069736E+01  4.034069736E+01  0.000000000E+00  0.00000E+00  9.000E+00
       2    -1     0     0   501     0  0.000000000E+00  0.000000000E+00 -1.299460683E+03  1.299460683E+03  0.000000000E+00  0.00000E+00  9.000E+00
      25     1     1     2     0     0  2.164609057E+01 -2.964428262E+01 -9.992535524E+02  1.007710416E+03  1.250011334E+02  0.00000E+00  9.000E+00
       5     1     1     2   501     0 -1.244026296E+01 -2.547101525E+00 -2.085944848E+01  2.487824269E+01  4.750000000E+00  0.00000E+00  9.000E+00
      -5     1     1     2     0   502  8.472217408E+01 -3.825356753E+00 -6.798275678E+01  1.087965893E+02  4.750000000E+00  0.00000E+00  9.000E+00
       2     1     1     2   511     0 -9.392800169E+01  3.601674090E+01 -1.710242284E+02  1.984161330E+02  1.907348633E-06  0.00000E+00  9.000E+00
#rwgt            1           3   1.9414237515287718E-003           8     2864868           0
</event>
<event>
      6   9999  3.45752E-01  1.30142E+01 -1.00000E+00  1.75896E-01
      21    -1     0     0   501   502  0.000000000E+00  0.000000000E+00  7.131107993E+01  7.131107993E+01  0.000000000E+00  0.00000E+00  9.000E+00
      21    -1     0     0   502   512  0.000000000E+00  0.000000000E+00 -1.223591040E+02  1.223591040E+02  0.000000000E+00  0.00000E+00  9.000E+00
      25     1     1     2     0     0 -1.104112900E+01 -1.041738557E+01 -2.284631810E+01  1.279775658E+02  1.250034985E+02  0.00000E+00  9.000E+00
       5     1     1     2   501     0 -1.291021155E+00  1.002486805E+00  1.149331814E+01  1.254314862E+01  4.750000000E+00  0.00000E+00  9.000E+00
      -5     1     1     2     0   503  1.628420758E+00  1.681753918E+01 -3.528381229E+01  3.940801045E+01  4.750000000E+00  0.00000E+00  9.000E+00
      21     1     1     2   503   512  1.070372940E+01 -7.402640414E+00 -4.411211852E+00  1.374145910E+01  2.308477966E-07  0.00000E+00  9.000E+00
#rwgt            1           9   195.22455707347942                8     2865671           0
</event>
<event>
      6   9999 -3.45752E-01  1.54237E+01 -1.00000E+00  1.69330E-01
      21    -1     0     0   501   502  0.000000000E+00  0.000000000E+00  1.371559206E+03  1.371559206E+03  0.000000000E+00  0.00000E+00  9.000E+00
      21    -1     0     0   511   503  0.000000000E+00  0.000000000E+00 -1.592695025E+01  1.592695025E+01  0.000000000E+00  0.00000E+00  9.000E+00
      25     1     1     2     0     0  1.456992025E+01  1.144579066E+01  5.202999035E+02  5.354256131E+02  1.250012355E+02  0.00000E+00  9.000E+00
       5     1     1     2   501     0 -5.172092564E-01  4.565602695E-01  4.154802718E+02  4.155079959E+02  4.750000000E+00  0.00000E+00  9.000E+00
      -5     1     1     2     0   503 -2.548378716E+01 -1.547663119E+00  4.203203291E+02  4.211217879E+02  4.750000000E+00  0.00000E+00  9.000E+00
      21     1     1     2   511   502  1.143107616E+01 -1.035468782E+01 -4.682491164E-01  1.543075887E+01  7.038925915E-07  0.00000E+00  9.000E+00
#rwgt            1           9  -2.6824765751831979E-002           8     2867638           0
</event>
<event>
      6   9999  3.45752E-01  3.46475E+00 -1.00000E+00  2.61513E-01
      21    -1     0     0   501   512  0.000000000E+00  0.000000000E+00  1.013854008E+01  1.013854008E+01  0.000000000E+00  0.00000E+00  9.000E+00
      21    -1     0     0   502   503  0.000000000E+00  0.000000000E+00 -7.587920479E+02  7.587920479E+02  0.000000000E+00  0.00000E+00  9.000E+00
      25     1     1     2     0     0  9.245141732E+00  4.911139745E+00 -5.414607350E+02  5.558010088E+02  1.250017678E+02  0.00000E+00  9.000E+00
       5     1     1     2   501     0  1.649362630E+00 -5.194342182E-01 -2.669540129E+00  5.716568332E+00  4.750000000E+00  0.00000E+00  9.000E+00
      -5     1     1     2     0   503 -1.123420780E+01 -9.436479004E-01 -2.034045965E+02  2.037721528E+02  4.750000000E+00  0.00000E+00  9.000E+00
      21     1     1     2   502   512  3.397034365E-01 -3.448057626E+00 -1.118636221E+00  3.640857978E+00  9.541398641E-08  0.00000E+00  9.000E+00
#rwgt            1           9   5.4895790914814446                8     2869595           0
</event>
<event>
      6   9999  3.45752E-01  3.79599E+01 -1.00000E+00  1.41517E-01
      21    -1     0     0   501   502  0.000000000E+00  0.000000000E+00  4.882201753E+03  4.882201753E+03  0.000000000E+00  0.00000E+00  9.000E+00
      21    -1     0     0   511   503  0.000000000E+00  0.000000000E+00 -5.372768242E+02  5.372768242E+02  0.000000000E+00  0.00000E+00  9.000E+00
      25     1     1     2     0     0 -2.786961491E+01 -4.445272334E+01 -6.253882404E+01  1.492900032E+02  1.249945619E+02  0.00000E+00  9.000E+00
       5     1     1     2   501     0 -1.874492628E+01 -2.663235622E+01  4.819906835E+03  4.820019203E+03  4.749999999E+00  0.00000E+00  9.000E+00
      -5     1     1     2     0   503  6.504143073E+01  3.789769778E+01 -6.189332817E+01  9.757033248E+01  4.750000000E+00  0.00000E+00  9.000E+00
      21     1     1     2   511   502 -1.842688954E+01  3.318738179E+01 -3.505497537E+02  3.525990391E+02  1.375408659E-05  0.00000E+00  9.000E+00
#rwgt            1           9   9.8571631262606221E-003           8     2874728           0
</event>
<event>
      6   9999 -3.45752E-01  3.63485E+01 -1.00000E+00  1.42640E-01
      21    -1     0     0   502   503  0.000000000E+00  0.000000000E+00  3.366733531E+02  3.366733531E+02  0.000000000E+00  0.00000E+00  9.000E+00
      21    -1     0     0   501   512  0.000000000E+00  0.000000000E+00 -1.049055588E+02  1.049055588E+02  0.000000000E+00  0.00000E+00  9.000E+00
      25     1     1     2     0     0 -1.228256506E+02 -2.239955477E+01  2.478998378E+02  3.044130761E+02  1.250004432E+02  0.00000E+00  9.000E+00
       5     1     1     2   501     0  9.100920866E+01  8.280718510E+00 -1.477905559E+01  9.269427891E+01  4.750000000E+00  0.00000E+00  9.000E+00
      -5     1     1     2     0   503 -2.592136169E+00  2.402981729E+00  4.779772587E+00  7.609350635E+00  4.750000000E+00  0.00000E+00  9.000E+00
      21     1     1     2   502   512  3.440857813E+01  1.171585453E+01 -6.132760497E+00  3.686220622E+01  7.952251473E-07  0.00000E+00  9.000E+00
#rwgt            1           9  -4.5240258876490438E-003           8     2878134           0
</event>
<event>
      6   9999 -3.45752E-01  9.94984E+00 -1.00000E+00  1.87424E-01
      21    -1     0     0   501   511  0.000000000E+00  0.000000000E+00  8.800593907E+01  8.800593907E+01  0.000000000E+00  0.00000E+00  9.000E+00
      21    -1     0     0   502   503  0.000000000E+00  0.000000000E+00 -5.375955966E+02  5.375955966E+02  0.000000000E+00  0.00000E+00  9.000E+00
      25     1     1     2     0     0  1.862693739E+01  6.013518368E+01 -4.843068676E+02  5.041240825E+02  1.249989814E+02  0.00000E+00  9.000E+00
       5     1     1     2   501     0 -1.787678297E-01 -2.347497568E-01  8.742759449E+00  9.954165368E+00  4.750000000E+00  0.00000E+00  9.000E+00
      -5     1     1     2     0   503 -8.525388055E+00 -6.063377533E+01 -1.991898830E+01  6.456365500E+01  4.750000000E+00  0.00000E+00  9.000E+00
      21     1     1     2   502   511 -9.922781500E+00  7.333414049E-01  4.589343893E+01  4.695963287E+01  0.000000000E+00  0.00000E+00  9.000E+00
#rwgt            1           9  -1.4338756569221918E-003           8     2879263           0
</event>
<event>
      6   9999  3.45752E-01  8.17008E+00 -1.00000E+00  1.96940E-01
      21    -1     0     0   512   502  0.000000000E+00  0.000000000E+00  3.662474766E+02  3.662474766E+02  0.000000000E+00  0.00000E+00  9.000E+00
      21    -1     0     0   502   503  0.000000000E+00  0.000000000E+00 -7.242370245E+02  7.242370245E+02  0.000000000E+00  0.00000E+00  9.000E+00
      25     1     1     2     0     0  2.338305751E+00  9.085883006E+00 -6.281334156E+02  6.405187589E+02  1.249986871E+02  0.00000E+00  9.000E+00
       5     1     1     2   501     0  5.403801922E+00 -9.949586112E+00 -2.792633581E+01  3.050636115E+01  4.750000000E+00  0.00000E+00  9.000E+00
      -5     1     1     2     0   503 -6.829738886E-01  4.976957017E+00 -6.045101469E+01  6.084508387E+01  4.750000000E+00  0.00000E+00  9.000E+00
      21     1     1     2   512   501 -7.059133784E+00 -4.113253912E+00  3.585212182E+02  3.586142972E+02  3.814697266E-06  0.00000E+00  9.000E+00
#rwgt            1           9   1.2438065989880027E-003           8     2882003           0
</event>
<event>
      6   9999 -3.45752E-01  5.86572E+00 -1.00000E+00  2.15436E-01
      21    -1     0     0   501   502  0.000000000E+00  0.000000000E+00  1.608092837E+01  1.608092837E+01  0.000000000E+00  0.00000E+00  9.000E+00
      -2    -1     0     0     0   503  0.000000000E+00  0.000000000E+00 -1.034062317E+03  1.034062317E+03  0.000000000E+00  0.00000E+00  9.000E+00
      25     1     1     2     0     0 -1.508440017E+01  2.372402929E+01 -7.853189973E+02  7.957014461E+02  1.249979805E+02  0.00000E+00  9.000E+00
       5     1     1     2   501     0  4.369673067E-01  1.098580918E-01  5.215915981E+00  7.069037328E+00  4.750000000E+00  0.00000E+00  9.000E+00
      -5     1     1     2     0   503  9.769416811E+00 -2.709143794E+01 -4.057777949E+01  4.998505980E+01  4.750000000E+00  0.00000E+00  9.000E+00
      -2     1     1     2     0   502  4.878016054E+00  3.257550565E+00 -1.973005278E+02  1.973877021E+02  3.814697266E-06  0.00000E+00  9.000E+00
#rwgt            1           9  -4.4901518722788438E-006           8     2884452           0
</event>
<event>
      6   9999  3.45752E-01  8.31841E+00 -1.00000E+00  1.96029E-01
      21    -1     0     0   511   502  0.000000000E+00  0.000000000E+00  2.047296950E+01  2.047296950E+01  0.000000000E+00  0.00000E+00  9.000E+00
      21    -1     0     0   502   503  0.000000000E+00  0.000000000E+00 -1.004158742E+03  1.004158742E+03  0.000000000E+00  0.00000E+00  9.000E+00
      25     1     1     2     0     0 -8.936615276E+00  8.615833373E+00 -8.652038471E+02  8.742753315E+02  1.250022499E+02  0.00000E+00  9.000E+00
       5     1     1     2   501     0  1.444325710E+00 -7.886336755E+00  1.323978982E+01  1.619058117E+01  4.750000000E+00  0.00000E+00  9.000E+00
      -5     1     1     2     0   503  1.408928364E+01 -5.796605564E+00 -1.041837056E+02  1.053988404E+02  4.750000000E+00  0.00000E+00  9.000E+00
      21     1     1     2   511   501 -6.596994072E+00  5.067108946E+00 -2.753800944E+01  2.876695826E+01  3.371747881E-07  0.00000E+00  9.000E+00
#rwgt            1           9   3.3048803681214322E-004           8     2888343           0
</event>
<event>
      6   9999  3.45752E-01  3.25512E+01 -1.00000E+00  1.45581E-01
      21    -1     0     0   512   502  0.000000000E+00  0.000000000E+00  6.358270821E+02  6.358270821E+02  0.000000000E+00  0.00000E+00  9.000E+00
      21    -1     0     0   502   503  0.000000000E+00  0.000000000E+00 -8.961743468E+02  8.961743468E+02  0.000000000E+00  0.00000E+00  9.000E+00
      25     1     1     2     0     0  3.234255650E+00  3.767451050E+01 -3.698957389E+02  3.922724833E+02  1.250000572E+02  0.00000E+00  9.000E+00
       5     1     1     2   501     0  4.309721883E+00 -1.398276978E-02  1.964227010E+00  6.707800383E+00  4.750000000E+00  0.00000E+00  9.000E+00
      -5     1     1     2     0   503  2.500706745E+01 -3.776862299E+01 -5.112784002E+02  5.133030170E+02  4.750000000E+00  0.00000E+00  9.000E+00
      21     1     1     2   512   501 -3.255104498E+01  1.080952636E-01  6.188626473E+02  6.197181282E+02  1.078959322E-05  0.00000E+00  9.000E+00
#rwgt            1           9   1.0605946596751676E-002           8     2892543           0
</event>
<event>
      6   9999  3.45752E-01  5.17871E+01 -1.00000E+00  1.33977E-01
      21    -1     0     0   501   502  0.000000000E+00  0.000000000E+00  8.857766572E+02  8.857766572E+02  0.000000000E+00  0.00000E+00  9.000E+00
      21    -1     0     0   502   511  0.000000000E+00  0.000000000E+00 -2.192967752E+02  2.192967752E+02  0.000000000E+00  0.00000E+00  9.000E+00
      25     1     1     2     0     0 -1.794229562E+02 -1.964040276E+02  1.716823219E+02  3.404244157E+02  1.250872650E+02  0.00000E+00  9.000E+00
       5     1     1     2   501     0 -3.788870520E+00 -1.787551203E-01  4.953767712E+02  4.954140646E+02  4.750000000E+00  0.00000E+00  9.000E+00
      -5     1     1     2     0   503  1.460429097E+02  1.605220404E+02 -6.106881135E+00  2.171536631E+02  4.750000000E+00  0.00000E+00  9.000E+00
      21     1     1     2   503   511  3.716891698E+01  3.606074233E+01  5.527669971E+00  5.208128898E+01  4.256623047E-07  0.00000E+00  9.000E+00
#rwgt            1           9   7.0981660192592402E-002           8     2893643           0
</event>
<event>
      6   9999  3.45752E-01  1.17405E+01 -1.00000E+00  1.80140E-01
      21    -1     0     0   501   512  0.000000000E+00  0.000000000E+00  3.488841444E+02  3.488841444E+02  0.000000000E+00  0.00000E+00  9.000E+00
      21    -1     0     0   502   503  0.000000000E+00  0.000000000E+00 -9.430867748E+02  9.430867748E+02  0.000000000E+00  0.00000E+00  9.000E+00
      25     1     1     2     0     0 -9.544633561E+00  2.147470556E+00 -6.758687999E+02  6.874004146E+02  1.249999346E+02  0.00000E+00  9.000E+00
       5     1     1     2   501     0 -2.157745126E+00  4.959353457E+00  1.053699191E+01  1.276094625E+01  4.750000000E+00  0.00000E+00  9.000E+00
      -5     1     1     2     0   503  1.111863962E+00 -2.039331065E+00 -2.602093638E+02  2.602630797E+02  4.750000000E+00  0.00000E+00  9.000E+00
      21     1     1     2   502   512  1.059051473E+01 -5.067492948E+00  3.313385414E+02  3.315464787E+02  6.607249480E-06  0.00000E+00  9.000E+00
#rwgt            1           9  0.11417664330311249                8     2895148           0
</event>
<event>
      6   9999  3.45752E-01  6.48191E+00 -1.00000E+00  2.09489E-01
      21    -1     0     0   501   511  0.000000000E+00  0.000000000E+00  5.192236351E+01  5.192236351E+01  0.000000000E+00  0.00000E+00  9.000E+00
      21    -1     0     0   502   503  0.000000000E+00  0.000000000E+00 -1.278416987E+03  1.278416987E+03  0.000000000E+00  0.00000E+00  9.000E+00
      25     1     1     2     0     0  1.667247928E+02  1.045562479E+02 -5.562453141E+02  6.031280444E+02  1.250016917E+02  0.00000E+00  9.000E+00
       5     1     1     2   501     0 -6.847336564E-01 -1.456873150E+00  1.319936796E+01  1.412009753E+01  4.750000000E+00  0.00000E+00  9.000E+00
      -5     1     1     2     0   503 -1.701471209E+02 -9.808467467E+01 -6.691584228E+02  6.973996010E+02  4.750000000E+00  0.00000E+00  9.000E+00
      21     1     1     2   502   511  4.107061832E+00 -5.014700075E+00 -1.429025397E+01  1.569160707E+01  1.685873940E-07  0.00000E+00  9.000E+00
#rwgt            1           9   1.4482682135547283E-003           8     2897839           0
</event>
<event>
      6   9999  3.45752E-01  9.21631E+01 -1.00000E+00  1.21961E-01
      21    -1     0     0   502   503  0.000000000E+00  0.000000000E+00  1.988295950E+03  1.988295950E+03  0.000000000E+00  0.00000E+00  9.000E+00
      21    -1     0     0   501   512  0.000000000E+00  0.000000000E+00 -8.706300995E+01  8.706300995E+01  0.000000000E+00  0.00000E+00  9.000E+00
      25     1     1     2     0     0 -1.051827363E+02  1.614824255E+02  1.568370321E+03  1.585102708E+03  1.250006094E+02  0.00000E+00  9.000E+00
       5     1     1     2   501     0  5.215227291E-01 -1.552721927E+00 -2.907218182E+01  2.950317249E+01  4.750000000E+00  0.00000E+00  9.000E+00
      -5     1     1     2     0   503  1.473743574E+01 -1.801224293E+02  1.715098265E+02  2.491976417E+02  4.750000000E+00  0.00000E+00  9.000E+00
      21     1     1     2   502   512  8.992377780E+01  2.019272574E+01  1.904249744E+02  2.115554369E+02  2.697398305E-06  0.00000E+00  9.000E+00
#rwgt            1           9   5.8657512632633511                8     2903029           0
</event>
<event>
      6   9999  3.45752E-01  4.49026E+01 -1.00000E+00  1.37335E-01
      21    -1     0     0   502   503  0.000000000E+00  0.000000000E+00  3.178515372E+01  3.178515372E+01  0.000000000E+00  0.00000E+00  9.000E+00
      21    -1     0     0   501   511  0.000000000E+00  0.000000000E+00 -1.485944853E+03  1.485944853E+03  0.000000000E+00  0.00000E+00  9.000E+00
      25     1     1     2     0     0 -2.552631873E+01  3.396869263E+01 -1.755366533E+02  2.196463518E+02  1.250037528E+02  0.00000E+00  9.000E+00
       5     1     1     2   501     0 -1.840943197E+01 -2.875586719E+01 -2.790453168E+01  4.435123980E+01  4.750000000E+00  0.00000E+00  9.000E+00
      -5     1     1     2     0   503 -9.080117685E-01 -2.915384222E+00 -6.131162217E+00  8.335322469E+00  4.750000000E+00  0.00000E+00  9.000E+00
      21     1     1     2   502   511  4.484376247E+01 -2.297441212E+00 -1.244587352E+03  1.245397092E+03  2.642899792E-05  0.00000E+00  9.000E+00
#rwgt            1           9  0.45201453038647915                8     2904035           0
</event>
<event>
      6   9999 -3.45752E-01  4.17299E+01 -1.00000E+00  1.39128E-01
      21    -1     0     0   501   502  0.000000000E+00  0.000000000E+00  2.085042471E+01  2.085042471E+01  0.000000000E+00  0.00000E+00  9.000E+00
      21    -1     0     0   502   512  0.000000000E+00  0.000000000E+00 -1.667104279E+03  1.667104279E+03  0.000000000E+00  0.00000E+00  9.000E+00
      25     1     1     2     0     0 -4.934221043E+01 -5.272325984E+01 -6.150470946E+02  6.317636776E+02  1.250120787E+02  0.00000E+00  9.000E+00
       5     1     1     2   501     0  4.613772013E+01  9.889332635E+01 -2.487752522E+02  2.716988550E+02  4.750000000E+00  0.00000E+00  9.000E+00
      -5     1     1     2     0   503  4.274743831E+00 -4.453884403E+00 -3.328303358E+01  3.418235430E+01  4.750000000E+00  0.00000E+00  9.000E+00
      21     1     1     2   503   512 -1.070253528E+00 -4.171618210E+01 -7.491484738E+02  7.503098167E+02  0.000000000E+00  0.00000E+00  9.000E+00
#rwgt            1           9  -4.1827042959692785E-002           8     2904543           0
</event>
<event>
      6   9999  3.45752E-01  5.42753E+01 -1.00000E+00  1.32908E-01
      21    -1     0     0   502   511  0.000000000E+00  0.000000000E+00  3.855773822E+01  3.855773822E+01  0.000000000E+00  0.00000E+00  9.000E+00
      21    -1     0     0   501   502  0.000000000E+00  0.000000000E+00 -9.482352973E+02  9.482352973E+02  0.000000000E+00  0.00000E+00  9.000E+00
      25     1     1     2     0     0  2.706136003E+01 -3.527528671E+01 -3.615506653E+02  3.851254150E+02  1.250041545E+02  0.00000E+00  9.000E+00
       5     1     1     2   501     0 -3.723615359E+00 -5.025796733E+00 -1.485372386E+02  1.487447400E+02  4.750000000E+00  0.00000E+00  9.000E+00
      -5     1     1     2     0   503  2.490671189E+01  6.516640520E+01 -3.919190860E+02  3.981081977E+02  4.750000000E+00  0.00000E+00  9.000E+00
      21     1     1     2   503   511 -4.824445656E+01 -2.486532175E+01 -7.670569267E+00  5.481468277E+01  9.117757404E-07  0.00000E+00  9.000E+00
#rwgt            1           9  0.11730181347030871                8     2905485           0
</event>
<event>
      6   9999 -3.45752E-01  3.34018E+00 -1.00000E+00  2.65254E-01
      21    -1     0     0   512   502  0.000000000E+00  0.000000000E+00  1.503232385E+01  1.503232385E+01  0.000000000E+00  0.00000E+00  9.000E+00
      21    -1     0     0   502   503  0.000000000E+00  0.000000000E+00 -8.021801816E+02  8.021801816E+02  0.000000000E+00  0.00000E+00  9.000E+00
      25     1     1     2     0     0 -1.958839908E+01 -1.076049827E-01 -6.262734756E+02  6.389280192E+02  1.250073221E+02  0.00000E+00  9.000E+00
       5     1     1     2   501     0 -4.949523952E-01 -1.030221470E+00  1.850115946E+00  5.224151909E+00  4.750000000E+00  0.00000E+00  9.000E+00
      -5     1     1     2     0   503  2.185149444E+01 -1.695980520E+00 -1.665091240E+02  1.680125442E+02  4.750000000E+00  0.00000E+00  9.000E+00
      21     1     1     2   512   501 -1.768142963E+00  2.833806973E+00  3.784625868E+00  5.047790057E+00  3.264680848E-07  0.00000E+00  9.000E+00
#rwgt            1           9  -2.7453716992123907E-004           8     2906987           0
</event>
<event>
      6   9999  3.45752E-01  5.80725E+00 -1.00000E+00  2.16052E-01
      21    -1     0     0   511   502  0.000000000E+00  0.000000000E+00  2.238036341E+02  2.238036341E+02  0.000000000E+00  0.00000E+00  9.000E+00
      21    -1     0     0   502   503  0.000000000E+00  0.000000000E+00 -7.537929202E+02  7.537929202E+02  0.000000000E+00  0.00000E+00  9.000E+00
      25     1     1     2     0     0 -1.652057540E+01 -2.182101397E+00 -6.505357664E+02  6.626453706E+02  1.249976512E+02  0.00000E+00  9.000E+00
       5     1     1     2   501     0  1.529218073E+00  5.946793965E-01 -1.397486290E+01  1.485097453E+01  4.750000000E+00  0.00000E+00  9.000E+00
      -5     1     1     2     0   503  9.219183428E+00  9.501113622E-01 -8.242291023E+01  8.307824435E+01  4.750000000E+00  0.00000E+00  9.000E+00
      21     1     1     2   511   501  5.772173900E+00  6.373106380E-01  2.169442534E+02  2.170219649E+02  0.000000000E+00  0.00000E+00  9.000E+00
#rwgt            1           9   40.879690201621123                8     2912451           0
</event>
<event>
      6   9999 -3.45752E-01  4.82793E+01 -1.00000E+00  1.35606E-01
      21    -1     0     0   502   512  0.000000000E+00  0.000000000E+00  5.138832667E+01  5.138832667E+01  0.000000000E+00  0.00000E+00  9.000E+00
      21    -1     0     0   501   502  0.000000000E+00  0.000000000E+00 -1.323389872E+03  1.323389872E+03  0.000000000E+00  0.00000E+00  9.000E+00
      25     1     1     2     0     0 -9.262397342E+01 -9.844603406E+01 -2.649760915E+02  3.226607321E+02  1.250071874E+02  0.00000E+00  9.000E+00
       5     1     1     2   501     0 -2.875727680E+00 -1.329180633E+00 -6.474745291E+02  6.474997026E+02  4.750000000E+00  0.00000E+00  9.000E+00
      -5     1     1     2     0   503  5.417350737E+01  1.247358870E+02 -2.846904094E+02  3.155392244E+02  4.750000000E+00  0.00000E+00  9.000E+00
      21     1     1     2   503   512  4.132619373E+01 -2.496067233E+01 -7.486051497E+01  8.907853924E+01  1.348699152E-06  0.00000E+00  9.000E+00
#rwgt            1           9  -2.2360776858668361E-002           8     2915950           0
</event>
<event>
      6   9999  3.45752E-01  1.81201E+01 -1.00000E+00  1.63553E-01
      21    -1     0     0   501   502  0.000000000E+00  0.000000000E+00  2.155338832E+01  2.155338832E+01  0.000000000E+00  0.00000E+00  9.000E+00
      21    -1     0     0   502   511  0.000000000E+00  0.000000000E+00 -1.472226842E+03  1.472226842E+03  0.000000000E+00  0.00000E+00  9.000E+00
      25     1     1     2     0     0 -3.981004869E+00 -1.752832682E+01 -1.008510135E+03  1.016384187E+03  1.249841314E+02  0.00000E+00  9.000E+00
       5     1     1     2   501     0  7.575369980E+00  6.210181621E+00  1.221275314E+01  1.636051422E+01  4.750000000E+00  0.00000E+00  9.000E+00
      -5     1     1     2     0   503  3.782937768E+00  2.786847370E+01 -6.205287022E+01  6.829409672E+01  4.750000000E+00  0.00000E+00  9.000E+00
      21     1     1     2   503   511 -7.377302880E+00 -1.655032850E+01 -3.923232019E+02  3.927414324E+02  5.394796609E-06  0.00000E+00  9.000E+00
#rwgt            1           9   1.6449128917464867E-004           8     2917345           0
</event>
<event>
      6   9999  3.45752E-01  6.25535E+01 -1.00000E+00  1.29780E-01
      21    -1     0     0   512   503  0.000000000E+00  0.000000000E+00  3.443670727E+02  3.443670727E+02  0.000000000E+00  0.00000E+00  9.000E+00
      21    -1     0     0   501   502  0.000000000E+00  0.000000000E+00 -1.094192592E+03  1.094192592E+03  0.000000000E+00  0.00000E+00  9.000E+00
      25     1     1     2     0     0 -1.100303093E+02  3.761968607E+01 -2.926105717E+02  3.387752214E+02  1.250031768E+02  0.00000E+00  9.000E+00
       5     1     1     2   501     0  8.537421257E+01  1.747081488E+01 -7.477047882E+02  7.527808435E+02  4.750000000E+00  0.00000E+00  9.000E+00
      -5     1     1     2     0   503 -5.829176772E+00 -4.683113888E-01 -2.461894467E+01  2.574594248E+01  4.750000000E+00  0.00000E+00  9.000E+00
      21     1     1     2   512   502  3.048527350E+01 -5.462218957E+01  3.151087856E+02  3.212576571E+02  1.078959322E-05  0.00000E+00  9.000E+00
#rwgt            1           9   1.3066648038603734E-003           8     2919238           0
</event>
<event>
      6   9999  3.45752E-01  8.12460E+00 -1.00000E+00  1.97224E-01
      21    -1     0     0   511   503  0.000000000E+00  0.000000000E+00  1.999725044E+01  1.999725044E+01  0.000000000E+00  0.00000E+00  9.000E+00
      21    -1     0     0   501   502  0.000000000E+00  0.000000000E+00 -9.954119259E+02  9.954119259E+02  0.000000000E+00  0.00000E+00  9.000E+00
      25     1     1     2     0     0 -1.372469439E+01  6.307656678E+01 -2.910427214E+02  3.232600869E+02  1.249967904E+02  0.00000E+00  9.000E+00
       5     1     1     2   501     0  3.565034680E+00  3.010855853E+00 -1.126315615E+02  1.128282139E+02  4.750000000E+00  0.00000E+00  9.000E+00
      -5     1     1     2     0   503  1.564554530E+01 -7.208026987E+01 -5.610294819E+02  5.658771867E+02  4.750000000E+00  0.00000E+00  9.000E+00
      21     1     1     2   511   502 -5.485885590E+00  5.992847235E+00 -1.071091075E+01  1.344368877E+01  3.153981341E-07  0.00000E+00  9.000E+00
#rwgt            1           9   3.0414018543191506                8     2920134           0
</event>
<event>
      6   9999  3.45752E-01  6.29837E+00 -1.00000E+00  2.11164E-01
      21    -1     0     0   501   512  0.000000000E+00  0.000000000E+00  6.892866087E+01  6.892866087E+01  0.000000000E+00  0.00000E+00  9.000E+00
      21    -1     0     0   502   503  0.000000000E+00  0.000000000E+00 -8.826975028E+02  8.826975028E+02  0.000000000E+00  0.00000E+00  9.000E+00
      25     1     1     2     0     0  5.282503312E+00  2.699796434E+01 -4.428643163E+02  4.609823263E+02  1.249764283E+02  0.00000E+00  9.000E+00
       5     1     1     2   501     0 -2.494619234E+00 -3.327172066E+00  7.461871349E+00  9.774212147E+00  4.750000000E+00  0.00000E+00  9.000E+00
      -5     1     1     2     0   503 -8.900493772E+00 -2.518918941E+01 -4.289942322E+02  4.298515184E+02  4.750000000E+00  0.00000E+00  9.000E+00
      21     1     1     2   502   512  6.112609695E+00  1.518397142E+00  5.062783521E+01  5.101810684E+01  1.784161275E-06  0.00000E+00  9.000E+00
#rwgt            1           9   8.5624569252737534E-004           8     2923403           0
</event>
<event>
      6   9999  3.45752E-01  1.62012E+01 -1.00000E+00  1.67522E-01
      21    -1     0     0   501   502  0.000000000E+00  0.000000000E+00  1.210907107E+01  1.210907107E+01  0.000000000E+00  0.00000E+00  9.000E+00
       2    -1     0     0   502     0  0.000000000E+00  0.000000000E+00 -1.574348715E+03  1.574348715E+03  0.000000000E+00  0.00000E+00  9.000E+00
      25     1     1     2     0     0  3.806079412E+00  1.921445088E+01 -3.619111607E+02  3.833886605E+02  1.249939815E+02  0.00000E+00  9.000E+00
       5     1     1     2   501     0  3.591890610E-01  5.962552045E-01 -5.900868846E+00  7.607055290E+00  4.750000000E+00  0.00000E+00  9.000E+00
      -5     1     1     2     0   503  1.790536749E+00 -4.743913933E+00 -2.571272098E+01  2.663488805E+01  4.750000000E+00  0.00000E+00  9.000E+00
       2     1     1     2   503     0 -5.955805223E+00 -1.506679215E+01 -1.168714893E+03  1.168827182E+03  1.525878906E-05  0.00000E+00  9.000E+00
#rwgt            1           9   4.7824420266708370E-003           8     2926845           0
</event>
<event>
      6   9999  3.45752E-01  4.25352E+01 -1.00000E+00  1.38655E-01
      21    -1     0     0   502   503  0.000000000E+00  0.000000000E+00  5.271363679E+02  5.271363679E+02  0.000000000E+00  0.00000E+00  9.000E+00
      21    -1     0     0   511   502  0.000000000E+00  0.000000000E+00 -9.778985125E+01  9.778985125E+01  0.000000000E+00  0.00000E+00  9.000E+00
      25     1     1     2     0     0 -2.533953606E+01 -1.181367985E+02  3.124697216E+02  3.575764644E+02  1.250008229E+02  0.00000E+00  9.000E+00
       5     1     1     2   501     0  4.535125673E+01  9.008414283E+01  1.217134995E+02  1.581411639E+02  4.750000000E+00  0.00000E+00  9.000E+00
      -5     1     1     2     0   503  1.430231001E+01  2.917152032E+00  4.272650215E+01  4.540024597E+01  4.750000000E+00  0.00000E+00  9.000E+00
      21     1     1     2   511   501 -3.431403068E+01  2.513550365E+01 -4.756320661E+01  6.380834481E+01  1.348699152E-06  0.00000E+00  9.000E+00
#rwgt            1           9   54.188853196870916                8     2928412           0
</event>
<event>
      6   9999  3.45752E-01  8.90327E+00 -1.00000E+00  1.92669E-01
      21    -1     0     0   501   502  0.000000000E+00  0.000000000E+00  1.293060587E+02  1.293060587E+02  0.000000000E+00  0.00000E+00  9.000E+00
      21    -1     0     0   512   503  0.000000000E+00  0.000000000E+00 -1.330319664E+03  1.330319664E+03  0.000000000E+00  0.00000E+00  9.000E+00
      25     1     1     2     0     0  1.128307798E+02 -2.253734218E+01 -2.730464753E+02  3.215899190E+02  1.250079266E+02  0.00000E+00  9.000E+00
       5     1     1     2   501     0  2.453238215E+00  1.679325627E+01  1.007358798E+02  1.022658879E+02  4.750000000E+00  0.00000E+00  9.000E+00
      -5     1     1     2     0   503 -1.063816700E+02  5.615656702E+00 -1.001175986E+03  1.006838872E+03  4.750000000E+00  0.00000E+00  9.000E+00
      21     1     1     2   512   502 -8.902348065E+00  1.284292147E-01 -2.752702356E+01  2.893104424E+01  3.371747881E-07  0.00000E+00  9.000E+00
#rwgt            1           9   1.2930052248006225E-005           8     2929305           0
</event>
<event>
      6   9999  3.45752E-01  1.71772E+01 -1.00000E+00  1.65423E-01
      21    -1     0     0   501   502  0.000000000E+00  0.000000000E+00  6.729817013E+01  6.729817013E+01  0.000000000E+00  0.00000E+00  9.000E+00
      21    -1     0     0   511   503  0.000000000E+00  0.000000000E+00 -1.757750823E+03  1.757750823E+03  0.000000000E+00  0.00000E+00  9.000E+00
      25     1     1     2     0     0  1.839851474E+00 -1.044348637E+02 -8.044341955E+02  8.207625957E+02  1.250073510E+02  0.00000E+00  9.000E+00
       5     1     1     2   501     0 -4.390749364E+00 -4.105827163E+00  5.520518791E+01  5.573429616E+01  4.750000000E+00  0.00000E+00  9.000E+00
      -5     1     1     2     0   503  1.085343594E+01  9.350331153E+01 -6.471634665E+02  6.539906583E+02  4.750000000E+00  0.00000E+00  9.000E+00
      21     1     1     2   511   502 -8.302538046E+00  1.503737931E+01 -2.940601791E+02  2.945614432E+02  3.814697266E-06  0.00000E+00  9.000E+00
#rwgt            1           9   5.6857999261922165E-005           8     2934602           0
</event>
<event>
      6   9999  3.45752E-01  8.56491E+00 -1.00000E+00  1.94570E-01
      21    -1     0     0   501   502  0.000000000E+00  0.000000000E+00  3.673203887E+00  3.673203887E+00  0.000000000E+00  0.00000E+00  9.000E+00
      21    -1     0     0   512   503  0.000000000E+00  0.000000000E+00 -1.945480070E+03  1.945480070E+03  0.000000000E+00  0.00000E+00  9.000E+00
      25     1     1     2     0     0  1.418653027E+01 -1.871897724E+01 -1.662292457E+03  1.667151105E+03  1.249997437E+02  0.00000E+00  9.000E+00
       5     1     1     2   501     0  4.092697683E-01 -6.035263547E-01 -1.821680916E+01  1.884002075E+01  4.750000000E+00  0.00000E+00  9.000E+00
      -5     1     1     2     0   503 -9.263045408E+00  1.262030547E+01 -7.964996087E+01  8.131269819E+01  4.750000000E+00  0.00000E+00  9.000E+00
      21     1     1     2   512   502 -5.332754630E+00  6.702198120E+00 -1.816476388E+02  1.818494499E+02  2.697398305E-06  0.00000E+00  9.000E+00
#rwgt            1           9   2.8104972928961900E-004           8     2937665           0
</event>
<event>
      6   9999  3.45752E-01  2.35975E+01 -1.00000E+00  1.54914E-01
      21    -1     0     0   511   503  0.000000000E+00  0.000000000E+00  3.576931765E+01  3.576931765E+01  0.000000000E+00  0.00000E+00  9.000E+00
      21    -1     0     0   501   502  0.000000000E+00  0.000000000E+00 -8.824689204E+02  8.824689204E+02  0.000000000E+00  0.00000E+00  9.000E+00
      25     1     1     2     0     0 -1.461423564E+01 -4.212080955E+01 -7.520823144E+02  7.637018420E+02  1.249998294E+02  0.00000E+00  9.000E+00
       5     1     1     2   501     0 -6.993456808E+00  2.303740651E+01 -5.852204892E+01  6.345883111E+01  4.750000000E+00  0.00000E+00  9.000E+00
      -5     1     1     2     0   503  1.177688560E+01  4.053559777E+01 -4.845579721E+01  6.443878106E+01  4.750000000E+00  0.00000E+00  9.000E+00
      21     1     1     2   511   502  9.830806849E+00 -2.145219473E+01  1.236055773E+01  2.663878394E+01  1.507891493E-06  0.00000E+00  9.000E+00
#rwgt            1           9   9.7865838230423371E-004           8     2940270           0
</event>
<event>
      6   9999  3.45752E-01  1.12780E+01 -1.00000E+00  1.81855E-01
      21    -1     0     0   501   502  0.000000000E+00  0.000000000E+00  1.788499377E+02  1.788499377E+02  0.000000000E+00  0.00000E+00  9.000E+00
      21    -1     0     0   512   503  0.000000000E+00  0.000000000E+00 -4.241850534E+01  4.241850534E+01  0.000000000E+00  0.00000E+00  9.000E+00
      25     1     1     2     0     0  7.797701727E+00  6.051061547E+00  9.051675980E+01  1.546455331E+02  1.249981504E+02  0.00000E+00  9.000E+00
       5     1     1     2   501     0  4.217684387E-02  1.100065404E+00  4.757818275E+01  4.782737601E+01  4.750000000E+00  0.00000E+00  9.000E+00
      -5     1     1     2     0   503  1.973808043E-01  7.606089108E-01  3.922323440E+00  6.210040762E+00  4.750000000E+00  0.00000E+00  9.000E+00
      21     1     1     2   512   502 -8.037259375E+00 -7.911735862E+00 -5.585833598E+00  1.258549322E+01  2.528810911E-07  0.00000E+00  9.000E+00
#rwgt            1           9   1.4447957899876263E-003           8     2941712           0
</event>
<event>
      6   9999  3.45752E-01  1.64314E+01 -1.00000E+00  1.67011E-01
      21    -1     0     0   511   502  0.000000000E+00  0.000000000E+00  2.178907259E+01  2.178907259E+01  0.000000000E+00  0.00000E+00  9.000E+00
      21    -1     0     0   502   503  0.000000000E+00  0.000000000E+00 -9.834855197E+02  9.834855197E+02  0.000000000E+00  0.00000E+00  9.000E+00
      25     1     1     2     0     0 -1.106682553E+01  6.812374421E+00 -9.185097197E+02  9.270675316E+02  1.250008793E+02  0.00000E+00  9.000E+00
       5     1     1     2   501     0 -6.644355641E+00 -5.164895111E+00  1.269272745E+01  1.595278764E+01  4.750000000E+00  0.00000E+00  9.000E+00
      -5     1     1     2     0   503  1.283153271E+00 -1.312882490E+00 -3.646905404E+01  3.682288073E+01  4.750000000E+00  0.00000E+00  9.000E+00
      21     1     1     2   511   501  1.642802790E+01 -3.345968197E-01 -1.941040074E+01  2.543139226E+01  4.768371582E-07  0.00000E+00  9.000E+00
#rwgt            1           9   4.0129162243521255E-002           8     2943709           0
</event>
<event>
      6   9999  3.45752E-01  4.75034E+01 -1.00000E+00  1.35989E-01
      21    -1     0     0   501   502  0.000000000E+00  0.000000000E+00  7.730789501E+01  7.730789501E+01  0.000000000E+00  0.00000E+00  9.000E+00
      21    -1     0     0   512   503  0.000000000E+00  0.000000000E+00 -8.565121229E+02  8.565121229E+02  0.000000000E+00  0.00000E+00  9.000E+00
      25     1     1     2     0     0  1.608379849E+02 -8.498384133E+00 -3.624940169E+02  4.158930068E+02  1.249960036E+02  0.00000E+00  9.000E+00
       5     1     1     2   501     0  5.695166017E+00  6.738028949E-01  3.503178582E+01  3.581448651E+01  4.750000000E+00  0.00000E+00  9.000E+00
      -5     1     1     2     0   503 -1.194406887E+02  1.405948808E+01 -3.407654680E+02  3.613964776E+02  4.750000000E+00  0.00000E+00  9.000E+00
      21     1     1     2   512   502 -4.709246220E+01 -6.234906845E+00 -1.109765288E+02  1.207160470E+02  1.907348633E-06  0.00000E+00  9.000E+00
#rwgt            1           9   4.1355478366280396E-002           8     2945667           0
</event>
</LesHouchesEvents>
 #Random number generator exit values:            8       2946837             0
