<LesHouchesEvents version="3.0">
<!--
file generated with POWHEG-BOX-V2
Input file powheg.input contained:
numevts 1000    ! number of events to be generated

! Production parameters for ttH production
hmass 125.d0      ! mass of the HIggs boson [GeV]
hwidth 0.00498d0  ! width of the Higgs boson [GeV]

hdecaymode -1    ! -1 no decay
                ! 0 all decay channels open
                ! 1-6 d dbar, u ubar,..., t tbar
                ! 7-9 e+ e-, mu+ mu-, tau+ tau-
                ! 10  W+W-
                ! 11  ZZ
                ! 12  gamma gamma

#pythiatune 320	! PYTHIA tune


ih1   1           ! hadron 1 (1 for protons, -1 for antiprotons)
ih2   1           ! hadron 2 (1 for protons, -1 for antiprotons)
ebeam1 6500d0     ! energy of beam 1
ebeam2 6500d0     ! energy of beam 2

! To be set only if using 'native' pdfs
!ndns1 131         ! pdf set for hadron 1 (mlm numbering)
!ndns2 131         ! pdf set for hadron 2 (mlm numbering)
! To be set only if using LHA pdfs
! 10050 cteq6m
! 10042 cteq6l with LO alphas (corr. to vbfnlo LO set)
! 10041 cteq6l with NLO alphas
! 21000 MSTW2008 LO
! 21100 MSTW2008 NLO
! 23300 MSTW2008 NLO, NF=4
! 11082 CT10 Nf4

lhans1  23300      ! pdf set for hadron 1 (LHA numbering)
lhans2  23300      ! pdf set for hadron 2 (LHA numbering)

#bornktmin 1d0    ! Generation cut; minimum kt in underlying born
#bornsuppfact 1d0 ! (default 0d0) switch for Born suppression factor. If < 0 suppfact = 1
delta_mbbmin 0d0 ! generation cut on mbb (no gencut used, if set to 0)

use-old-grid    1 ! if 1 use old grid if file pwggrids.dat is present (<> 1 regenerate)
use-old-ubound  1 ! if 1 use norm of upper bounding function stored in pwgubound.dat, if present; <>

ncall1  500000  ! number of calls for initializing the integration grid
itmx1    2     ! number of iterations for initializing the integration grid
ncall2  50000  ! number of calls for computing the integral and finding upper bound
itmx2     1     ! number of iterations for computing the integral and finding upper bound
foldcsi   1    ! number of folds on csi integration
foldy     1    ! number of folds on  y  integration
foldphi   1    ! number of folds on phi integration
nubound 10000  ! number of bbarra calls to setup norm of upper bounding function
icsimax  1     ! <= 100, number of csi subdivision when computing the upper bounds
iymax    1     ! <= 100, number of y subdivision when computing the upper bounds
xupbound 2d0   ! increase upper bound for radiation generation

#runningscales 2	   ! default 0 (no running scales); 1,2: use running scales
renscfact 1d0   ! (default 1d0) ren scale factor: muren  = muref * renscfact
facscfact 1d0   ! (default 1d0) fac scale factor: mufact = muref * facscfact
testplots  1       ! (default 0, do not) do NLO and PWHG distributions

#bornonly   1      ! (default 0) if 1 do Born only
#fakevirt   1      ! (default 0) if 1 use Born for virtuals

iseed    2

manyseeds  1       ! Used to perform multiple runs with different random
                   ! seeds in the same directory.
                   ! If set to 1, the program asks for an integer j;
                   ! The file pwgseeds.dat at line j is read, and the
                   ! integer at line j is used to initialize the random
                   ! sequence for the generation of the event.
                   ! The event file is called pwgevents-'j'.lhe

#storeinfo_rwgt 1   ! store info for reweighting events
#compute_rwgt 1   ! store info for reweighting events
#xgriditeration 1   ! identifier for grid generation
#parallelstage  4   ! identifier for parallel running stages


toploop 1	! 1 include top loop effects; 0 disregard top loop effects
msbar  1	! 1 MSbar renormalization; 0 On-Shell renormalization
parallelstage 4
End of powheg.input content
PDF package: lha
 Random number generator initialized with:            5             0             0
-->
<init>
     2212     2212  6.50000E+03  6.50000E+03     -1     -1     -1     -1     -4      1
  3.37328E-01  1.60874E-01  1.00000E+00   9999
</init>
<event>
      6   9999 -3.45752E-01  8.62897E+00 -1.00000E+00  1.94202E-01
      -4    -1     0     0     0   502  0.000000000E+00  0.000000000E+00  8.383603834E+01  8.383603834E+01  0.000000000E+00  0.00000E+00  9.000E+00
      21    -1     0     0   502   503  0.000000000E+00  0.000000000E+00 -1.889050213E+03  1.889050213E+03  0.000000000E+00  0.00000E+00  9.000E+00
      25     1     1     2     0     0 -2.525615004E+01  1.316438992E+01 -1.805635699E+03  1.810181321E+03  1.249998504E+02  0.00000E+00  9.000E+00
       5     1     1     2   501     0 -1.686037066E+00 -9.142112975E-01  8.820988217E+00  1.020053118E+01  4.750000000E+00  0.00000E+00  9.000E+00
      -5     1     1     2     0   503  2.004865129E+01 -7.059969995E+00 -7.870928974E+01  8.166704591E+01  4.750000000E+00  0.00000E+00  9.000E+00
      -4     1     1     2     0   501  6.893535820E+00 -5.190208625E+00  7.030982559E+01  7.083735368E+01  3.303624740E-06  0.00000E+00  9.000E+00
#rwgt            1           9 -0.56105713369855059                5         661           0
</event>
<event>
      6   9999  3.45752E-01  4.64212E+00 -1.00000E+00  2.35186E-01
      21    -1     0     0   501   502  0.000000000E+00  0.000000000E+00  1.316414136E+01  1.316414136E+01  0.000000000E+00  0.00000E+00  9.000E+00
      21    -1     0     0   511   503  0.000000000E+00  0.000000000E+00 -1.266039297E+03  1.266039297E+03  0.000000000E+00  0.00000E+00  9.000E+00
      25     1     1     2     0     0  3.662867867E+00 -5.975831798E+01 -5.501095569E+02  5.673008778E+02  1.250011526E+02  0.00000E+00  9.000E+00
       5     1     1     2   501     0 -8.419933857E-01  7.661213790E-01  1.513515762E+00  5.113621495E+00  4.750000000E+00  0.00000E+00  9.000E+00
      -5     1     1     2     0   503 -2.191744481E+00  5.439291086E+01 -6.302548572E+02  6.326192694E+02  4.750000000E+00  0.00000E+00  9.000E+00
      21     1     1     2   511   502 -6.291300008E-01  4.599285746E+00 -7.402425776E+01  7.416967015E+01  9.536743164E-07  0.00000E+00  9.000E+00
#rwgt            1           9   8.7689524473645933E-002           5        4092           0
</event>
<event>
      6   9999  3.45752E-01  2.35422E+00 -1.00000E+00  3.07696E-01
      21    -1     0     0   502   503  0.000000000E+00  0.000000000E+00  7.193787719E+00  7.193787719E+00  0.000000000E+00  0.00000E+00  9.000E+00
      21    -1     0     0   512   502  0.000000000E+00  0.000000000E+00 -7.685749048E+02  7.685749048E+02  0.000000000E+00  0.00000E+00  9.000E+00
      25     1     1     2     0     0 -7.205018607E+00  8.336011025E-02 -6.693798726E+02  6.809895953E+02  1.250019834E+02  0.00000E+00  9.000E+00
       5     1     1     2   501     0  8.587790581E-02  1.892067765E-01 -5.747996875E+00  7.459567165E+00  4.750000000E+00  0.00000E+00  9.000E+00
      -5     1     1     2     0   503  5.186236662E+00  1.071403493E+00 -2.425795934E+01  2.527955790E+01  4.750000000E+00  0.00000E+00  9.000E+00
      21     1     1     2   512   501  1.932904039E+00 -1.343970379E+00 -6.199528822E+01  6.203997208E+01  6.743495762E-07  0.00000E+00  9.000E+00
#rwgt            1           9   7.2905646055714305E-005           5        8645           0
</event>
<event>
      6   9999  3.45752E-01  7.71246E+00 -1.00000E+00  1.99916E-01
      21    -1     0     0   501   502  0.000000000E+00  0.000000000E+00  7.668569616E+01  7.668569616E+01  0.000000000E+00  0.00000E+00  9.000E+00
      21    -1     0     0   511   503  0.000000000E+00  0.000000000E+00 -1.828631489E+03  1.828631489E+03  0.000000000E+00  0.00000E+00  9.000E+00
      25     1     1     2     0     0 -8.278637782E+01  1.835707740E+02 -9.132892142E+02  9.435433961E+02  1.250005527E+02  0.00000E+00  9.000E+00
       5     1     1     2   501     0 -7.422661268E-01 -7.001700210E+01  3.016281855E+01  7.638906770E+01  4.750000000E+00  0.00000E+00  9.000E+00
      -5     1     1     2     0   503  7.591193100E+01 -1.147652454E+02 -5.673605676E+02  5.838272510E+02  4.750000000E+00  0.00000E+00  9.000E+00
      21     1     1     2   511   502  7.616712942E+00  1.211473455E+00 -3.014588295E+02  3.015574703E+02  5.394796609E-06  0.00000E+00  9.000E+00
#rwgt            1           9   7.1027295510144983E-003           5       15220           0
</event>
<event>
      6   9999  3.45752E-01  1.66961E+01 -1.00000E+00  1.66436E-01
      21    -1     0     0   501   502  0.000000000E+00  0.000000000E+00  6.544429497E+02  6.544429497E+02  0.000000000E+00  0.00000E+00  9.000E+00
      21    -1     0     0   502   512  0.000000000E+00  0.000000000E+00 -9.759702413E+01  9.759702413E+01  0.000000000E+00  0.00000E+00  9.000E+00
      25     1     1     2     0     0 -1.852167692E+02 -1.193511689E+02  3.955786070E+02  4.697412425E+02  1.249977900E+02  0.00000E+00  9.000E+00
       5     1     1     2   501     0  2.308973982E+01 -8.126047148E+00  2.176842334E+01  3.309978070E+01  4.750000000E+00  0.00000E+00  9.000E+00
      -5     1     1     2     0   503  1.495564400E+02  1.164889853E+02  1.308711234E+02  2.304053512E+02  4.750000000E+00  0.00000E+00  9.000E+00
      21     1     1     2   503   512  1.257058940E+01  1.098823072E+01  8.627771809E+00  1.879359941E+01  2.665600750E-07  0.00000E+00  9.000E+00
#rwgt            1           9   1.5486396432465286                5       20700           0
</event>
<event>
      6   9999  3.45752E-01  7.67194E+00 -1.00000E+00  2.00193E-01
      21    -1     0     0   501   502  0.000000000E+00  0.000000000E+00  6.297091311E+00  6.297091311E+00  0.000000000E+00  0.00000E+00  9.000E+00
      21    -1     0     0   511   503  0.000000000E+00  0.000000000E+00 -1.255793498E+03  1.255793498E+03  0.000000000E+00  0.00000E+00  9.000E+00
      25     1     1     2     0     0  7.267299164E+00  1.194559124E+01 -6.491107022E+02  6.611835985E+02  1.249941455E+02  0.00000E+00  9.000E+00
       5     1     1     2   501     0 -2.063733005E+00  1.619399989E-01 -6.219111524E+01  6.240659046E+01  4.750000000E+00  0.00000E+00  9.000E+00
      -5     1     1     2     0   503  7.834547957E-01 -7.310217468E+00 -3.978491006E+02  3.979453762E+02  4.750000000E+00  0.00000E+00  9.000E+00
      21     1     1     2   511   502 -5.987020955E+00 -4.797313773E+00 -1.403454888E+02  1.405550243E+02  2.697398305E-06  0.00000E+00  9.000E+00
#rwgt            1           9  0.11942334664824102                5       23578           0
</event>
<event>
      6   9999  3.45752E-01  9.62505E+00 -1.00000E+00  1.88959E-01
      21    -1     0     0   512   502  0.000000000E+00  0.000000000E+00  7.933765779E+01  7.933765779E+01  0.000000000E+00  0.00000E+00  9.000E+00
      21    -1     0     0   502   503  0.000000000E+00  0.000000000E+00 -1.310446043E+02  1.310446043E+02  0.000000000E+00  0.00000E+00  9.000E+00
      25     1     1     2     0     0 -4.294507609E+00 -1.096072211E+01 -9.574368676E+01  1.578920001E+02  1.249977996E+02  0.00000E+00  9.000E+00
       5     1     1     2   501     0 -1.606959978E+00 -1.578688150E+00  1.538463383E+01  1.625804523E+01  4.750000000E+00  0.00000E+00  9.000E+00
      -5     1     1     2     0   503 -1.935489369E+00  6.951600533E+00  3.535464799E+00  9.334499473E+00  4.750000000E+00  0.00000E+00  9.000E+00
      21     1     1     2   512   501  7.836956955E+00  5.587809727E+00  2.511664160E+01  2.689771732E+01  0.000000000E+00  0.00000E+00  9.000E+00
#rwgt            1           9   2.8323169220099991E-004           5       26519           0
</event>
<event>
      6   9999  3.45752E-01  1.70664E+01 -1.00000E+00  1.65653E-01
      21    -1     0     0   501   511  0.000000000E+00  0.000000000E+00  1.137248756E+02  1.137248756E+02  0.000000000E+00  0.00000E+00  9.000E+00
      21    -1     0     0   502   503  0.000000000E+00  0.000000000E+00 -7.541319088E+02  7.541319088E+02  0.000000000E+00  0.00000E+00  9.000E+00
      25     1     1     2     0     0 -1.200476028E+01 -8.564861737E-01 -6.576217615E+02  6.695054246E+02  1.250051385E+02  0.00000E+00  9.000E+00
       5     1     1     2   501     0 -1.489203076E-01  8.877842547E-01 -2.532920216E+01  2.578645614E+01  4.750000000E+00  0.00000E+00  9.000E+00
      -5     1     1     2     0   503 -1.774430048E+00  9.831214013E+00 -6.385494222E+01  6.480599908E+01  4.750000000E+00  0.00000E+00  9.000E+00
      21     1     1     2   502   511  1.392811063E+01 -9.862512094E+00  1.063988726E+02  1.077589046E+02  4.046097457E-06  0.00000E+00  9.000E+00
#rwgt            1           9   2.6950615989665340E-004           5       29228           0
</event>
<event>
      6   9999  3.45752E-01  4.35692E+00 -1.00000E+00  2.40410E-01
      21    -1     0     0   501   502  0.000000000E+00  0.000000000E+00  5.275737353E+02  5.275737353E+02  0.000000000E+00  0.00000E+00  9.000E+00
      21    -1     0     0   502   512  0.000000000E+00  0.000000000E+00 -1.601358072E+01  1.601358072E+01  0.000000000E+00  0.00000E+00  9.000E+00
      25     1     1     2     0     0  1.328126493E+01  5.874119881E+00  2.767181025E+02  3.039918890E+02  1.250090518E+02  0.00000E+00  9.000E+00
       5     1     1     2   501     0 -1.956998297E+00  1.526869061E+00  1.834795124E+02  1.835577706E+02  4.750000000E+00  0.00000E+00  9.000E+00
      -5     1     1     2     0   503 -1.566568165E+01 -7.033800493E+00  4.417387083E+01  4.763172572E+01  4.750000000E+00  0.00000E+00  9.000E+00
      21     1     1     2   503   512  4.341415014E+00 -3.671884496E-01  7.188668811E+00  8.405930701E+00  2.064765462E-07  0.00000E+00  9.000E+00
#rwgt            1           9   4.1612683667949325E-002           5       31822           0
</event>
<event>
      6   9999  3.45752E-01  2.37499E+00 -1.00000E+00  3.06454E-01
      21    -1     0     0   511   502  0.000000000E+00  0.000000000E+00  9.427228555E+00  9.427228555E+00  0.000000000E+00  0.00000E+00  9.000E+00
      21    -1     0     0   502   503  0.000000000E+00  0.000000000E+00 -1.078390503E+03  1.078390503E+03  0.000000000E+00  0.00000E+00  9.000E+00
      25     1     1     2     0     0  3.594459486E+00  1.185777071E+00 -1.024778957E+03  1.032381573E+03  1.250019056E+02  0.00000E+00  9.000E+00
       5     1     1     2   501     0 -9.516989602E-01 -9.299435053E-01  8.075923059E-01  4.998522898E+00  4.750000000E+00  0.00000E+00  9.000E+00
      -5     1     1     2     0   503 -6.648472834E-01  1.058859759E+00 -4.704350471E+01  4.729922876E+01  4.750000000E+00  0.00000E+00  9.000E+00
      21     1     1     2   511   501 -1.977913242E+00 -1.314693324E+00  2.051594325E+00  3.138407017E+00  3.358551165E-07  0.00000E+00  9.000E+00
#rwgt            1           9  0.12823518366439665                5       36160           0
</event>
<event>
      6   9999  3.45752E-01  1.59564E+02 -1.00000E+00  1.12399E-01
      21    -1     0     0   512   503  0.000000000E+00  0.000000000E+00  2.848091081E+02  2.848091081E+02  0.000000000E+00  0.00000E+00  9.000E+00
      21    -1     0     0   501   502  0.000000000E+00  0.000000000E+00 -3.400896400E+02  3.400896400E+02  0.000000000E+00  0.00000E+00  9.000E+00
      25     1     1     2     0     0 -1.117469451E+00  3.718350079E+01 -4.789204238E+01  1.389325132E+02  1.249989361E+02  0.00000E+00  9.000E+00
       5     1     1     2   501     0  4.715584468E+01 -4.735377942E+01 -1.022825375E+02  1.222715588E+02  4.750000000E+00  0.00000E+00  9.000E+00
      -5     1     1     2     0   503  9.606124447E+01  8.275388210E+01 -6.085433840E+01  1.407188001E+02  4.750000000E+00  0.00000E+00  9.000E+00
      21     1     1     2   512   502 -1.420996197E+02 -7.258360347E+01  1.557483864E+02  2.229758760E+02  0.000000000E+00  0.00000E+00  9.000E+00
#rwgt            1           9   156.21067675304650                5       42625           0
</event>
<event>
      6   9999 -3.45752E-01  2.86464E+01 -1.00000E+00  1.49147E-01
      21    -1     0     0   501   502  0.000000000E+00  0.000000000E+00  8.917640713E+00  8.917640713E+00  0.000000000E+00  0.00000E+00  9.000E+00
      21    -1     0     0   502   511  0.000000000E+00  0.000000000E+00 -1.503864873E+03  1.503864873E+03  0.000000000E+00  0.00000E+00  9.000E+00
      25     1     1     2     0     0 -2.401788189E+01 -1.706486550E+01 -6.121276486E+02  6.254663692E+02  1.250593958E+02  0.00000E+00  9.000E+00
       5     1     1     2   501     0 -2.725891130E+00 -1.092986645E+00 -2.329889074E+00  6.051114389E+00  4.750000000E+00  0.00000E+00  9.000E+00
      -5     1     1     2     0   503  3.868479488E+00  9.143023668E-01 -7.132931617E+01  7.159772991E+01  4.750000000E+00  0.00000E+00  9.000E+00
      21     1     1     2   503   511  2.287529353E+01  1.724354978E+01 -8.091603781E+02  8.096672999E+02  0.000000000E+00  0.00000E+00  9.000E+00
#rwgt            1           9  -2.9969432229550380E-004           5       42891           0
</event>
<event>
      6   9999  3.45752E-01  3.34614E+01 -1.00000E+00  1.44834E-01
      21    -1     0     0   502   503  0.000000000E+00  0.000000000E+00  8.168298427E+00  8.168298427E+00  0.000000000E+00  0.00000E+00  9.000E+00
      21    -1     0     0   501   512  0.000000000E+00  0.000000000E+00 -1.095281304E+03  1.095281304E+03  0.000000000E+00  0.00000E+00  9.000E+00
      25     1     1     2     0     0  6.863319980E+00  4.312497349E+01 -6.381994247E+02  6.517900499E+02  1.249995800E+02  0.00000E+00  9.000E+00
       5     1     1     2   501     0 -8.065847474E-01 -4.002082043E+00 -5.900373247E+01  5.933523562E+01  4.750000000E+00  0.00000E+00  9.000E+00
      -5     1     1     2     0   503 -2.360529882E+00 -5.866222349E+00 -3.723510791E+01  3.806573823E+01  4.750000000E+00  0.00000E+00  9.000E+00
      21     1     1     2   502   512 -3.696205351E+00 -3.325666910E+01 -3.526747405E+02  3.542585786E+02  0.000000000E+00  0.00000E+00  9.000E+00
#rwgt            1           9   9.8764744673234418E-003           5       43748           0
</event>
<event>
      6   9999  3.45752E-01  1.30726E+02 -1.00000E+00  1.15689E-01
      21    -1     0     0   511   502  0.000000000E+00  0.000000000E+00  8.579154652E+01  8.579154652E+01  0.000000000E+00  0.00000E+00  9.000E+00
       4    -1     0     0   501     0  0.000000000E+00  0.000000000E+00 -4.768141738E+02  4.768141738E+02  0.000000000E+00  0.00000E+00  9.000E+00
      25     1     1     2     0     0  1.215341644E+02  4.274594831E+00 -8.969951398E+01  1.961091295E+02  1.249958503E+02  0.00000E+00  9.000E+00
       5     1     1     2   501     0  1.073790573E+01 -1.996761321E+00  6.416940642E+00  1.352883226E+01  4.750000000E+00  0.00000E+00  9.000E+00
      -5     1     1     2     0   502 -4.489089952E+00 -2.986011645E+01 -1.894132126E+01  3.595990314E+01  4.750000000E+00  0.00000E+00  9.000E+00
       4     1     1     2   511     0 -1.277829802E+02  2.758228294E+01 -2.887987327E+02  3.170078554E+02  3.814697266E-06  0.00000E+00  9.000E+00
#rwgt            1           5   3.1599028521269189E-005           5       44431           0
</event>
<event>
      6   9999  3.45752E-01  1.23865E+01 -1.00000E+00  1.77907E-01
      21    -1     0     0   501   502  0.000000000E+00  0.000000000E+00  1.413026779E+03  1.413026779E+03  0.000000000E+00  0.00000E+00  9.000E+00
       2    -1     0     0   502     0  0.000000000E+00  0.000000000E+00 -1.346847747E+02  1.346847747E+02  0.000000000E+00  0.00000E+00  9.000E+00
      25     1     1     2     0     0  9.340521505E+00  1.369202865E+01  5.100202314E+01  1.360249214E+02  1.250074233E+02  0.00000E+00  9.000E+00
       5     1     1     2   501     0 -1.452001401E+00 -8.899887752E+00  1.316880865E+03  1.316920305E+03  4.750000000E+00  0.00000E+00  9.000E+00
      -5     1     1     2     0   503  4.145003723E+00 -1.856148740E+00 -2.796541161E+00  7.142092584E+00  4.750000000E+00  0.00000E+00  9.000E+00
       2     1     1     2   503     0 -1.203352383E+01 -2.935992159E+00 -8.674434167E+01  8.762423499E+01  3.015782986E-06  0.00000E+00  9.000E+00
#rwgt            1           9   8.9074788789122514E-005           5       44846           0
</event>
<event>
      6   9999 -3.45752E-01  8.39303E+00 -1.00000E+00  1.95581E-01
      21    -1     0     0   501   502  0.000000000E+00  0.000000000E+00  1.558819716E+01  1.558819716E+01  0.000000000E+00  0.00000E+00  9.000E+00
      21    -1     0     0   502   511  0.000000000E+00  0.000000000E+00 -1.276895032E+03  1.276895032E+03  0.000000000E+00  0.00000E+00  9.000E+00
      25     1     1     2     0     0  5.563042384E+01 -5.698734522E+00 -8.307953895E+02  8.420044133E+02  1.249929323E+02  0.00000E+00  9.000E+00
       5     1     1     2   501     0 -2.463309760E+00 -1.036644229E+00  6.455081091E+00  8.448260065E+00  4.750000000E+00  0.00000E+00  9.000E+00
      -5     1     1     2     0   503 -5.618459417E+01  1.456721853E+01 -3.739295245E+02  3.784372660E+02  4.750000000E+00  0.00000E+00  9.000E+00
      21     1     1     2   503   511  3.017480091E+00 -7.831839784E+00 -6.303700165E+01  6.359328956E+01  0.000000000E+00  0.00000E+00  9.000E+00
#rwgt            1           9  -5.7614540938589771E-003           5       48377           0
</event>
<event>
      6   9999  3.45752E-01  2.58222E+01 -1.00000E+00  1.52178E-01
      21    -1     0     0   501   502  0.000000000E+00  0.000000000E+00  5.892492594E+01  5.892492594E+01  0.000000000E+00  0.00000E+00  9.000E+00
      21    -1     0     0   502   512  0.000000000E+00  0.000000000E+00 -1.371783526E+02  1.371783526E+02  0.000000000E+00  0.00000E+00  9.000E+00
      25     1     1     2     0     0  2.895455876E+00  2.328989842E+01 -3.537771458E+01  1.320067319E+02  1.249935660E+02  0.00000E+00  9.000E+00
       5     1     1     2   501     0  2.631972616E-01  1.073144226E+00  3.687378418E+00  6.113932525E+00  4.750000000E+00  0.00000E+00  9.000E+00
      -5     1     1     2     0   503  3.915333062E+00  4.713535442E-01 -2.002386724E+01  2.095399166E+01  4.750000000E+00  0.00000E+00  9.000E+00
      21     1     1     2   503   512 -7.073986199E+00 -2.483439619E+01 -2.653922327E+01  3.702862253E+01  4.768371582E-07  0.00000E+00  9.000E+00
#rwgt            1           9   4.9384467642307533E-003           5       52154           0
</event>
<event>
      6   9999  3.45752E-01  9.92150E+01 -1.00000E+00  1.20581E-01
      21    -1     0     0   501   502  0.000000000E+00  0.000000000E+00  1.549486850E+03  1.549486850E+03  0.000000000E+00  0.00000E+00  9.000E+00
      21    -1     0     0   511   503  0.000000000E+00  0.000000000E+00 -8.409271241E+02  8.409271241E+02  0.000000000E+00  0.00000E+00  9.000E+00
      25     1     1     2     0     0 -2.145401548E+02  1.018958588E+01  4.178485776E+02  4.861615137E+02  1.249971115E+02  0.00000E+00  9.000E+00
       5     1     1     2   501     0  2.514918577E+01 -2.206812382E+00  1.057540961E+03  1.057852919E+03  4.750000000E+00  0.00000E+00  9.000E+00
      -5     1     1     2     0   503  2.412297263E+02  7.661247056E+01 -4.762630740E+02  5.393610383E+02  4.750000000E+00  0.00000E+00  9.000E+00
      21     1     1     2   511   502 -5.183875728E+01 -8.459524406E+01 -2.905667393E+02  3.070385025E+02  0.000000000E+00  0.00000E+00  9.000E+00
#rwgt            1           9   2.4512722307005997E-004           5       53046           0
</event>
<event>
      6   9999  3.45752E-01  6.06468E+01 -1.00000E+00  1.30450E-01
      21    -1     0     0   501   512  0.000000000E+00  0.000000000E+00  8.275105622E+01  8.275105622E+01  0.000000000E+00  0.00000E+00  9.000E+00
      21    -1     0     0   502   503  0.000000000E+00  0.000000000E+00 -1.513560824E+03  1.513560824E+03  0.000000000E+00  0.00000E+00  9.000E+00
      25     1     1     2     0     0 -1.960878791E+02 -1.788236977E+02 -5.393971410E+02  6.140052386E+02  1.249991442E+02  0.00000E+00  9.000E+00
       5     1     1     2   501     0  9.919802764E+00 -5.083146343E+01 -1.797615555E+02  1.871336942E+02  4.750000000E+00  0.00000E+00  9.000E+00
      -5     1     1     2     0   503  1.276823073E+02  2.136099739E+02 -6.852003270E+02  7.290089459E+02  4.750000000E+00  0.00000E+00  9.000E+00
      21     1     1     2   502   512  5.848576904E+01  1.604518719E+01 -2.645074395E+01  6.616400130E+01  1.545128989E-06  0.00000E+00  9.000E+00
#rwgt            1           9   5.1767027382050336E-003           5       54852           0
</event>
<event>
      6   9999  3.45752E-01  5.74227E+00 -1.00000E+00  2.16749E-01
      21    -1     0     0   501   502  0.000000000E+00  0.000000000E+00  5.356469268E+00  5.356469268E+00  0.000000000E+00  0.00000E+00  9.000E+00
       2    -1     0     0   502     0  0.000000000E+00  0.000000000E+00 -1.921223988E+03  1.921223988E+03  0.000000000E+00  0.00000E+00  9.000E+00
      25     1     1     2     0     0 -3.192115844E+00  5.749040297E+00 -1.741867251E+03  1.746360110E+03  1.250154970E+02  0.00000E+00  9.000E+00
       5     1     1     2   501     0 -2.062927238E+00 -2.001800471E+00  2.913707761E-01  5.559700608E+00  4.750000000E+00  0.00000E+00  9.000E+00
      -5     1     1     2     0   503  3.573915579E-02 -1.352980116E+00 -5.193145383E+01  5.216579559E+01  4.750000000E+00  0.00000E+00  9.000E+00
       2     1     1     2   503     0  5.219303927E+00 -2.394259710E+00 -1.223601853E+02  1.224948512E+02  2.336015456E-06  0.00000E+00  9.000E+00
#rwgt            1           9   7.3778543335518615E-002           5       55925           0
</event>
<event>
      6   9999  3.45752E-01  7.65651E+00 -1.00000E+00  2.00299E-01
      21    -1     0     0   501   502  0.000000000E+00  0.000000000E+00  3.319578381E+01  3.319578381E+01  0.000000000E+00  0.00000E+00  9.000E+00
      21    -1     0     0   502   511  0.000000000E+00  0.000000000E+00 -1.184377924E+03  1.184377924E+03  0.000000000E+00  0.00000E+00  9.000E+00
      25     1     1     2     0     0  1.463847605E+00 -1.551211452E+02 -5.103448950E+02  5.478533198E+02  1.250065425E+02  0.00000E+00  9.000E+00
       5     1     1     2   501     0 -1.054451047E+00 -1.203371500E+00  3.809307391E+00  6.295497818E+00  4.750000000E+00  0.00000E+00  9.000E+00
      -5     1     1     2     0   503 -1.842290649E+00  1.488032832E+02 -6.193431270E+02  6.369884478E+02  4.750000000E+00  0.00000E+00  9.000E+00
      21     1     1     2   503   511  1.432894091E+00  7.521233569E+00 -2.530342582E+01  2.643644262E+01  0.000000000E+00  0.00000E+00  9.000E+00
#rwgt            1           9   3.3226472920138702E-005           5       60433           0
</event>
<event>
      6   9999  3.45752E-01  5.77954E+00 -1.00000E+00  2.16348E-01
      21    -1     0     0   512   502  0.000000000E+00  0.000000000E+00  1.042864892E+01  1.042864892E+01  0.000000000E+00  0.00000E+00  9.000E+00
      21    -1     0     0   502   503  0.000000000E+00  0.000000000E+00 -6.575446907E+02  6.575446907E+02  0.000000000E+00  0.00000E+00  9.000E+00
      25     1     1     2     0     0  2.297349415E+00  1.278169464E+01 -4.908809087E+02  5.067036894E+02  1.249636460E+02  0.00000E+00  9.000E+00
       5     1     1     2   501     0 -2.506374323E-01  2.811042172E-01 -6.718017006E+00  8.236266824E+00  4.750000000E+00  0.00000E+00  9.000E+00
      -5     1     1     2     0   503 -1.208368120E+00 -7.344387975E+00 -1.460021861E+02  1.462689340E+02  4.750000000E+00  0.00000E+00  9.000E+00
      21     1     1     2   512   501 -8.383438633E-01 -5.718410881E+00 -3.514929977E+00  6.764449437E+00  9.424321831E-08  0.00000E+00  9.000E+00
#rwgt            1           9   2.0823148140151963E-004           5       64436           0
</event>
<event>
      6   9999  3.45752E-01  3.33647E+01 -1.00000E+00  1.44912E-01
      21    -1     0     0   501   511  0.000000000E+00  0.000000000E+00  1.529614228E+01  1.529614228E+01  0.000000000E+00  0.00000E+00  9.000E+00
      21    -1     0     0   502   503  0.000000000E+00  0.000000000E+00 -1.097220095E+03  1.097220095E+03  0.000000000E+00  0.00000E+00  9.000E+00
      25     1     1     2     0     0 -3.611992931E+01  2.828274198E+01 -7.356882640E+02  7.476447055E+02  1.250232819E+02  0.00000E+00  9.000E+00
       5     1     1     2   501     0  3.963255317E+00  3.334022252E+00  1.612763423E+00  7.210173572E+00  4.750000000E+00  0.00000E+00  9.000E+00
      -5     1     1     2     0   503  4.871529311E+01 -2.650997005E+00 -2.309546220E+02  2.360991476E+02  4.750000000E+00  0.00000E+00  9.000E+00
      21     1     1     2   502   511 -1.655861912E+01 -2.896576722E+01 -1.168938305E+02  1.215622110E+02  0.000000000E+00  0.00000E+00  9.000E+00
#rwgt            1           9   4.3278229636937483E-003           5       67865           0
</event>
<event>
      6   9999  3.45752E-01  2.13777E+01 -1.00000E+00  1.58033E-01
      21    -1     0     0   512   502  0.000000000E+00  0.000000000E+00  6.740442881E+01  6.740442881E+01  0.000000000E+00  0.00000E+00  9.000E+00
      21    -1     0     0   502   503  0.000000000E+00  0.000000000E+00 -5.690056936E+02  5.690056936E+02  0.000000000E+00  0.00000E+00  9.000E+00
      25     1     1     2     0     0 -4.952344257E+01  7.350417055E+00 -5.000023873E+02  5.178167249E+02  1.250006929E+02  0.00000E+00  9.000E+00
       5     1     1     2   501     0  6.503612348E-01  1.989412564E-01  4.295692157E+01  4.322409233E+01  4.750000000E+00  0.00000E+00  9.000E+00
      -5     1     1     2     0   503  3.726989620E+01  1.040537716E+01 -2.442424763E+01  4.600460204E+01  4.750000000E+00  0.00000E+00  9.000E+00
      21     1     1     2   512   501  1.160318513E+01 -1.795473548E+01 -2.013155145E+01  2.936470322E+01  4.129530925E-07  0.00000E+00  9.000E+00
#rwgt            1           9   5.3501508065355915E-004           5       69240           0
</event>
<event>
      6   9999 -3.45752E-01  3.37602E+01 -1.00000E+00  1.44595E-01
      21    -1     0     0   502   503  0.000000000E+00  0.000000000E+00  2.046265117E+01  2.046265117E+01  0.000000000E+00  0.00000E+00  9.000E+00
      21    -1     0     0   501   511  0.000000000E+00  0.000000000E+00 -1.569297552E+03  1.569297552E+03  0.000000000E+00  0.00000E+00  9.000E+00
      25     1     1     2     0     0  6.201532620E+00  9.703632184E+01 -4.209155419E+02  4.497206234E+02  1.249969557E+02  0.00000E+00  9.000E+00
       5     1     1     2   501     0 -2.264524649E+01 -3.423193077E+01 -3.265341477E+02  3.291378805E+02  4.750000000E+00  0.00000E+00  9.000E+00
      -5     1     1     2     0   503 -1.677442903E+01 -5.677887021E+01 -2.016079919E+02  2.101750853E+02  4.750000000E+00  0.00000E+00  9.000E+00
      21     1     1     2   502   511  3.321814290E+01 -6.025520857E+00 -5.997772193E+02  6.007266139E+02  7.629394531E-06  0.00000E+00  9.000E+00
#rwgt            1           9  -2.8948256403392935E-003           5       71184           0
</event>
<event>
      6   9999 -3.45752E-01  2.25833E+01 -1.00000E+00  1.56285E-01
      21    -1     0     0   501   502  0.000000000E+00  0.000000000E+00  9.458957786E+01  9.458957786E+01  0.000000000E+00  0.00000E+00  9.000E+00
      21    -1     0     0   512   503  0.000000000E+00  0.000000000E+00 -1.599493156E+03  1.599493156E+03  0.000000000E+00  0.00000E+00  9.000E+00
      25     1     1     2     0     0 -1.262243568E+02 -2.583863606E+02 -4.314660266E+02  5.333701085E+02  1.249985640E+02  0.00000E+00  9.000E+00
       5     1     1     2   501     0  1.901659903E+00 -3.501049131E+00  2.439900266E+01  2.517434183E+01  4.750000000E+00  0.00000E+00  9.000E+00
      -5     1     1     2     0   503  1.119375309E+02  2.430032002E+02 -1.014174098E+03  1.048881418E+03  4.750000000E+00  0.00000E+00  9.000E+00
      21     1     1     2   512   502  1.238516597E+01  1.888420949E+01 -8.366245560E+01  8.665686460E+01  2.132480600E-06  0.00000E+00  9.000E+00
#rwgt            1           9  -9.2982520626247250E-004           5       72296           0
</event>
<event>
      6   9999  3.45752E-01  1.97166E+01 -1.00000E+00  1.60685E-01
      21    -1     0     0   501   502  0.000000000E+00  0.000000000E+00  6.410793516E+00  6.410793516E+00  0.000000000E+00  0.00000E+00  9.000E+00
      21    -1     0     0   502   511  0.000000000E+00  0.000000000E+00 -2.384669780E+03  2.384669780E+03  0.000000000E+00  0.00000E+00  9.000E+00
      25     1     1     2     0     0  2.959567977E+01  6.964738637E+01 -1.152357587E+03  1.161584715E+03  1.249975103E+02  0.00000E+00  9.000E+00
       5     1     1     2   501     0  7.606556038E-01  1.252261041E+00 -1.035860564E+01  1.148955898E+01  4.750000000E+00  0.00000E+00  9.000E+00
      -5     1     1     2     0   503 -2.101498438E+01 -5.353639670E+01 -9.099338304E+02  9.117619829E+02  4.750000000E+00  0.00000E+00  9.000E+00
      21     1     1     2   503   511 -9.341351000E+00 -1.736325072E+01 -3.056089632E+02  3.062443170E+02  3.814697266E-06  0.00000E+00  9.000E+00
#rwgt            1           9   1.7018527593141430E-003           5       75061           0
</event>
<event>
      6   9999  3.45752E-01  6.80484E+00 -1.00000E+00  2.06716E-01
      21    -1     0     0   501   502  0.000000000E+00  0.000000000E+00  5.220291295E+01  5.220291295E+01  0.000000000E+00  0.00000E+00  9.000E+00
      21    -1     0     0   502   512  0.000000000E+00  0.000000000E+00 -1.454648767E+03  1.454648767E+03  0.000000000E+00  0.00000E+00  9.000E+00
      25     1     1     2     0     0  4.750898082E+01  1.324738473E+01 -3.126901762E+02  3.403419525E+02  1.249996077E+02  0.00000E+00  9.000E+00
       5     1     1     2   501     0  5.871905368E+00 -5.126996074E+00  3.669672673E+01  3.781504481E+01  4.750000000E+00  0.00000E+00  9.000E+00
      -5     1     1     2     0   503 -5.931886669E+01 -4.796802567E+00 -1.088572323E+03  1.090208238E+03  4.750000000E+00  0.00000E+00  9.000E+00
      21     1     1     2   503   512  5.937980497E+00 -3.323586085E+00 -3.788008135E+01  3.848644436E+01  4.768371582E-07  0.00000E+00  9.000E+00
#rwgt            1           9   4.6208432272067723                5       76783           0
</event>
<event>
      6   9999  3.45752E-01  4.57522E+00 -1.00000E+00  2.36361E-01
      21    -1     0     0   501   511  0.000000000E+00  0.000000000E+00  1.305662158E+01  1.305662158E+01  0.000000000E+00  0.00000E+00  9.000E+00
      21    -1     0     0   502   503  0.000000000E+00  0.000000000E+00 -8.612958598E+02  8.612958598E+02  0.000000000E+00  0.00000E+00  9.000E+00
      25     1     1     2     0     0  5.048904790E+00 -1.516738831E+00 -8.122255726E+02  8.218044929E+02  1.249978069E+02  0.00000E+00  9.000E+00
       5     1     1     2   501     0 -6.475672086E-01 -1.762862840E+00  6.689794103E+00  8.416820886E+00  4.750000000E+00  0.00000E+00  9.000E+00
      -5     1     1     2     0   503  1.732732682E-01  3.354390676E+00 -3.144406607E+01  3.197770710E+01  4.750000000E+00  0.00000E+00  9.000E+00
      21     1     1     2   502   511 -4.574610850E+00 -7.478900576E-02 -1.125939360E+01  1.215346050E+01  0.000000000E+00  0.00000E+00  9.000E+00
#rwgt            1           9   2.4300133703560548E-003           5       81633           0
</event>
<event>
      6   9999 -3.45752E-01  3.65988E+00 -1.00000E+00  2.56118E-01
      21    -1     0     0   501   512  0.000000000E+00  0.000000000E+00  1.736402947E+03  1.736402947E+03  0.000000000E+00  0.00000E+00  9.000E+00
      21    -1     0     0   502   503  0.000000000E+00  0.000000000E+00 -6.683303778E+00  6.683303778E+00  0.000000000E+00  0.00000E+00  9.000E+00
      25     1     1     2     0     0 -1.078408602E+01  2.120124511E+01  9.802648777E+02  9.884884516E+02  1.249975968E+02  0.00000E+00  9.000E+00
       5     1     1     2   501     0  7.201858860E-01  9.915919359E-01  3.006840971E+02  3.007241105E+02  4.750000000E+00  0.00000E+00  9.000E+00
      -5     1     1     2     0   503  1.369592651E+01 -2.264352414E+01  6.853027796E+01  7.361568505E+01  4.750000000E+00  0.00000E+00  9.000E+00
      21     1     1     2   502   512 -3.632026382E+00  4.506870917E-01  3.802403910E+02  3.802580041E+02  5.394796609E-06  0.00000E+00  9.000E+00
#rwgt            1           9  -5.3089601437332025E-002           5       86536           0
</event>
<event>
      6   9999  3.45752E-01  6.57282E+01 -1.00000E+00  1.28725E-01
      21    -1     0     0   511   502  0.000000000E+00  0.000000000E+00  9.548224768E+01  9.548224768E+01  0.000000000E+00  0.00000E+00  9.000E+00
      21    -1     0     0   502   503  0.000000000E+00  0.000000000E+00 -2.718750893E+03  2.718750893E+03  0.000000000E+00  0.00000E+00  9.000E+00
      25     1     1     2     0     0  5.609906502E+01 -2.443439480E+01 -1.987350755E+03  1.992218964E+03  1.250169258E+02  0.00000E+00  9.000E+00
       5     1     1     2   501     0  1.619682209E+01 -3.807561245E+00  4.013324615E+01  4.370439927E+01  4.750000000E+00  0.00000E+00  9.000E+00
      -5     1     1     2     0   503 -1.865136077E+01 -9.737757092E+00 -7.058235576E+02  7.061530671E+02  4.750000000E+00  0.00000E+00  9.000E+00
      21     1     1     2   511   501 -5.364452634E+01  3.797971313E+01  2.977242110E+01  7.215671053E+01  2.996875069E-06  0.00000E+00  9.000E+00
#rwgt            1           9   5.5675140386899323E-004           5       91101           0
</event>
<event>
      6   9999  3.45752E-01  1.56530E+01 -1.00000E+00  1.68783E-01
      21    -1     0     0   512   503  0.000000000E+00  0.000000000E+00  8.876369467E+02  8.876369467E+02  0.000000000E+00  0.00000E+00  9.000E+00
      21    -1     0     0   501   502  0.000000000E+00  0.000000000E+00 -8.262450522E+02  8.262450522E+02  0.000000000E+00  0.00000E+00  9.000E+00
      25     1     1     2     0     0 -1.171521151E+01  2.258904146E+01 -5.063478996E+02  5.221693665E+02  1.250005637E+02  0.00000E+00  9.000E+00
       5     1     1     2   501     0 -1.010521026E+01 -1.283799399E+00 -2.210337605E+02  2.213193376E+02  4.750000000E+00  0.00000E+00  9.000E+00
      -5     1     1     2     0   503  1.141328022E+01 -3.299741033E+01 -8.731904414E+01  9.416087310E+01  4.750000000E+00  0.00000E+00  9.000E+00
      21     1     1     2   512   502  1.040714155E+01  1.169216826E+01  8.760925987E+02  8.762324217E+02  1.868812365E-05  0.00000E+00  9.000E+00
#rwgt            1           9   1.8342253447272482E-004           5       92703           0
</event>
<event>
      6   9999  3.45752E-01  1.28554E+01 -1.00000E+00  1.76391E-01
      21    -1     0     0   501   502  0.000000000E+00  0.000000000E+00  7.508134508E+00  7.508134508E+00  0.000000000E+00  0.00000E+00  9.000E+00
      21    -1     0     0   502   511  0.000000000E+00  0.000000000E+00 -2.463332994E+03  2.463332994E+03  0.000000000E+00  0.00000E+00  9.000E+00
      25     1     1     2     0     0 -4.254402566E+01  1.278304542E+01 -1.355037513E+03  1.361515752E+03  1.250003230E+02  0.00000E+00  9.000E+00
       5     1     1     2   501     0 -3.695585631E+00 -1.769895349E+00  8.209605830E-01  6.326638837E+00  4.750000000E+00  0.00000E+00  9.000E+00
      -5     1     1     2     0   503  3.343925453E+01 -1.220097061E+01 -5.154326749E+02  5.166821579E+02  4.750000000E+00  0.00000E+00  9.000E+00
      21     1     1     2   503   511  1.280035676E+01  1.187820540E+00 -5.861756314E+02  5.863165791E+02  7.629394531E-06  0.00000E+00  9.000E+00
#rwgt            1           9   10.728310842266305                5       94312           0
</event>
<event>
      6   9999  3.45752E-01  1.03167E+01 -1.00000E+00  1.85779E-01
      21    -1     0     0   501   502  0.000000000E+00  0.000000000E+00  5.063986430E+01  5.063986430E+01  0.000000000E+00  0.00000E+00  9.000E+00
      21    -1     0     0   512   503  0.000000000E+00  0.000000000E+00 -1.646088675E+03  1.646088675E+03  0.000000000E+00  0.00000E+00  9.000E+00
      25     1     1     2     0     0  4.271226483E+00  1.375541283E+00 -1.165501977E+03  1.172194200E+03  1.249969935E+02  0.00000E+00  9.000E+00
       5     1     1     2   501     0 -1.441470462E+00 -2.317283542E+00  4.689019864E+01  4.720911849E+01  4.750000000E+00  0.00000E+00  9.000E+00
      -5     1     1     2     0   503  7.383131560E+00 -5.177880196E-01 -1.129037799E+02  1.132457715E+02  4.750000000E+00  0.00000E+00  9.000E+00
      21     1     1     2   512   502 -1.021288758E+01  1.459530278E+00 -3.639332526E+02  3.640794496E+02  0.000000000E+00  0.00000E+00  9.000E+00
#rwgt            1           9   6.6432112424422915E-003           5       96644           0
</event>
<event>
      6   9999 -3.45752E-01  1.56224E+00 -1.00000E+00  3.80808E-01
      21    -1     0     0   511   502  0.000000000E+00  0.000000000E+00  9.216497386E+00  9.216497386E+00  0.000000000E+00  0.00000E+00  9.000E+00
      21    -1     0     0   502   503  0.000000000E+00  0.000000000E+00 -7.181599270E+02  7.181599270E+02  0.000000000E+00  0.00000E+00  9.000E+00
      25     1     1     2     0     0 -6.894918855E+00  3.721168776E+00 -5.484871273E+02  5.626022094E+02  1.249869201E+02  0.00000E+00  9.000E+00
       5     1     1     2   501     0 -5.986821324E-01  5.517909089E-01 -1.630494578E+00  5.087622831E+00  4.750000000E+00  0.00000E+00  9.000E+00
      -5     1     1     2     0   503  8.191355073E+00 -2.875198186E+00 -1.568774474E+02  1.571892524E+02  4.750000000E+00  0.00000E+00  9.000E+00
      21     1     1     2   511   501 -6.977540852E-01 -1.397761499E+00 -1.948360316E+00  2.497339763E+00  1.010645923E-07  0.00000E+00  9.000E+00
#rwgt            1           9  -2.1447289606320572E-003           5      101465           0
</event>
<event>
      6   9999  3.45752E-01  1.35552E+01 -1.00000E+00  1.74274E-01
      21    -1     0     0   501   502  0.000000000E+00  0.000000000E+00  1.296833132E+01  1.296833132E+01  0.000000000E+00  0.00000E+00  9.000E+00
      21    -1     0     0   502   512  0.000000000E+00  0.000000000E+00 -1.229784355E+03  1.229784355E+03  0.000000000E+00  0.00000E+00  9.000E+00
      25     1     1     2     0     0 -1.678025685E+00  6.105767368E+01 -8.078159456E+02  8.197081110E+02  1.249957200E+02  0.00000E+00  9.000E+00
       5     1     1     2   501     0  2.122652817E+00  1.271408232E+00  3.112977697E+00  6.194777156E+00  4.750000000E+00  0.00000E+00  9.000E+00
      -5     1     1     2     0   503  7.725982675E-01 -4.882866406E+01 -3.164588618E+02  3.202399243E+02  4.750000000E+00  0.00000E+00  9.000E+00
      21     1     1     2   503   512 -1.217225400E+00 -1.350041785E+01 -9.565419385E+01  9.660987383E+01  1.348699152E-06  0.00000E+00  9.000E+00
#rwgt            1           9  0.19209906410852506                5      110325           0
</event>
<event>
      6   9999  3.45752E-01  9.03972E+00 -1.00000E+00  1.91934E-01
      21    -1     0     0   501   502  0.000000000E+00  0.000000000E+00  1.824964046E+02  1.824964046E+02  0.000000000E+00  0.00000E+00  9.000E+00
      21    -1     0     0   502   511  0.000000000E+00  0.000000000E+00 -3.644462685E+02  3.644462685E+02  0.000000000E+00  0.00000E+00  9.000E+00
      25     1     1     2     0     0 -1.166830807E+02  5.693576683E+00 -4.169306155E+01  1.760977749E+02  1.249990272E+02  0.00000E+00  9.000E+00
       5     1     1     2   501     0 -2.216460115E+00 -2.938909965E-01  1.004091580E+02  1.005463106E+02  4.750000000E+00  0.00000E+00  9.000E+00
      -5     1     1     2     0   503  1.101508399E+02 -3.124439246E+00 -1.976474599E+02  2.263405632E+02  4.750000000E+00  0.00000E+00  9.000E+00
      21     1     1     2   503   511  8.748700848E+00 -2.275246441E+00 -4.301850060E+01  4.395802438E+01  8.259061849E-07  0.00000E+00  9.000E+00
#rwgt            1           9   1.0684634063986672E-002           5      112642           0
</event>
<event>
      6   9999 -3.45752E-01  1.70049E+01 -1.00000E+00  1.65781E-01
      21    -1     0     0   512   502  0.000000000E+00  0.000000000E+00  5.701795322E+01  5.701795322E+01  0.000000000E+00  0.00000E+00  9.000E+00
      21    -1     0     0   502   503  0.000000000E+00  0.000000000E+00 -7.280298963E+02  7.280298963E+02  0.000000000E+00  0.00000E+00  9.000E+00
      25     1     1     2     0     0  5.484853218E+00 -2.066098662E+01 -6.345815250E+02  6.471285936E+02  1.249989793E+02  0.00000E+00  9.000E+00
       5     1     1     2   501     0  6.678422116E-01 -1.772566992E+00 -4.375726580E+00  6.730341006E+00  4.750000000E+00  0.00000E+00  9.000E+00
      -5     1     1     2     0   503  2.150092958E-01  6.665921808E+00 -7.994806894E+01  8.036626761E+01  4.750000000E+00  0.00000E+00  9.000E+00
      21     1     1     2   512   501 -6.367704725E+00  1.576763180E+01  4.789337743E+01  5.082264729E+01  2.611744678E-06  0.00000E+00  9.000E+00
#rwgt            1           9  -4.3861854521265898E-004           5      117122           0
</event>
<event>
      6   9999  3.45752E-01  3.13951E+00 -1.00000E+00  2.71849E-01
      21    -1     0     0   501   502  0.000000000E+00  0.000000000E+00  6.484069078E+00  6.484069078E+00  0.000000000E+00  0.00000E+00  9.000E+00
      21    -1     0     0   502   511  0.000000000E+00  0.000000000E+00 -1.684010210E+03  1.684010210E+03  0.000000000E+00  0.00000E+00  9.000E+00
      25     1     1     2     0     0  3.214192407E+01  1.107526977E+01 -1.070945836E+03  1.078750673E+03  1.249890566E+02  0.00000E+00  9.000E+00
       5     1     1     2   501     0  1.180590863E+00  3.594479053E-01 -1.159385728E+00  5.042784236E+00  4.750000000E+00  0.00000E+00  9.000E+00
      -5     1     1     2     0   503 -3.114678176E+01 -1.369805364E+01 -4.744401449E+02  4.756824279E+02  4.750000000E+00  0.00000E+00  9.000E+00
      21     1     1     2   503   511 -2.175733174E+00  2.263335959E+00 -1.309807740E+02  1.310183944E+02  1.907348633E-06  0.00000E+00  9.000E+00
#rwgt            1           9  0.82929061451403852                5      118778           0
</event>
<event>
      6   9999 -3.45752E-01  2.41140E+01 -1.00000E+00  1.54247E-01
      21    -1     0     0   501   502  0.000000000E+00  0.000000000E+00  4.130000626E+01  4.130000626E+01  0.000000000E+00  0.00000E+00  9.000E+00
      21    -1     0     0   502   512  0.000000000E+00  0.000000000E+00 -1.621572095E+03  1.621572095E+03  0.000000000E+00  0.00000E+00  9.000E+00
      25     1     1     2     0     0  7.463633072E+01  1.477993974E+00 -2.733951988E+02  3.097738660E+02  1.250685694E+02  0.00000E+00  9.000E+00
       5     1     1     2   501     0  5.779728239E+01  7.713045301E+01 -1.247535848E+02  1.577201701E+02  4.750000000E+00  0.00000E+00  9.000E+00
      -5     1     1     2     0   503 -1.392066068E+02 -5.546520114E+01 -9.186485022E+02  9.308020740E+02  4.750000000E+00  0.00000E+00  9.000E+00
      21     1     1     2   503   512  6.772993666E+00 -2.314324585E+01 -2.634748032E+02  2.645759914E+02  3.814697266E-06  0.00000E+00  9.000E+00
#rwgt            1           9  -6.0389071308487158E-004           5      124528           0
</event>
<event>
      6   9999  3.45752E-01  5.65248E+00 -1.00000E+00  2.17732E-01
      21    -1     0     0   502   503  0.000000000E+00  0.000000000E+00  5.412180264E+00  5.412180264E+00  0.000000000E+00  0.00000E+00  9.000E+00
      21    -1     0     0   501   511  0.000000000E+00  0.000000000E+00 -1.196433940E+03  1.196433940E+03  0.000000000E+00  0.00000E+00  9.000E+00
      25     1     1     2     0     0 -1.210866612E+01  1.100386186E+01 -7.919889373E+02  8.019597645E+02  1.250011291E+02  0.00000E+00  9.000E+00
       5     1     1     2   501     0  3.164061670E+00 -1.401762305E+00 -7.455154951E+01  7.478283398E+01  4.750000000E+00  0.00000E+00  9.000E+00
      -5     1     1     2     0   503  5.590033800E+00 -5.052660661E+00 -7.064592668E+01  7.120524780E+01  4.750000000E+00  0.00000E+00  9.000E+00
      21     1     1     2   502   511  3.354570649E+00 -4.549438893E+00 -2.538353463E+02  2.538982740E+02  2.697398305E-06  0.00000E+00  9.000E+00
#rwgt            1           9  0.25346828417163425                5      126580           0
</event>
<event>
      6   9999  3.45752E-01  2.30502E+01 -1.00000E+00  1.55643E-01
      21    -1     0     0   501   512  0.000000000E+00  0.000000000E+00  7.775721830E+01  7.775721830E+01  0.000000000E+00  0.00000E+00  9.000E+00
      21    -1     0     0   502   503  0.000000000E+00  0.000000000E+00 -2.823236177E+02  2.823236177E+02  0.000000000E+00  0.00000E+00  9.000E+00
      25     1     1     2     0     0  6.714999219E+01 -2.098536518E+01 -1.063865484E+02  1.785791360E+02  1.249916122E+02  0.00000E+00  9.000E+00
       5     1     1     2   501     0 -3.580963564E+01  2.924822898E+01 -4.135578599E+01  6.221456773E+01  4.750000000E+00  0.00000E+00  9.000E+00
      -5     1     1     2     0   503 -5.181649208E+01  2.322097993E+00 -7.403438596E+01  9.052068159E+01  4.750000000E+00  0.00000E+00  9.000E+00
      21     1     1     2   502   512  2.047613554E+01 -1.058496179E+01  1.721032092E+01  2.876645075E+01  5.840038640E-07  0.00000E+00  9.000E+00
#rwgt            1           9   5.9182409235064029E-002           5      130359           0
</event>
<event>
      6   9999  3.45752E-01  6.49489E+00 -1.00000E+00  2.09373E-01
      -1    -1     0     0     0   503  0.000000000E+00  0.000000000E+00  1.624934960E+02  1.624934960E+02  0.000000000E+00  0.00000E+00  9.000E+00
      21    -1     0     0   501   502  0.000000000E+00  0.000000000E+00 -8.276195801E+01  8.276195801E+01  0.000000000E+00  0.00000E+00  9.000E+00
      25     1     1     2     0     0 -3.785387020E+00  9.992990382E+00 -1.947900989E+01  1.269464404E+02  1.249871109E+02  0.00000E+00  9.000E+00
       5     1     1     2   501     0 -8.577551565E-01 -4.635262324E+00 -4.441708456E+00  8.031978258E+00  4.750000000E+00  0.00000E+00  9.000E+00
      -5     1     1     2     0   503  1.843498895E+00  5.027871332E-01 -1.171502753E+00  5.252256827E+00  4.750000000E+00  0.00000E+00  9.000E+00
      -1     1     1     2     0   502  2.799643281E+00 -5.860515191E+00  1.048237591E+02  1.050247785E+02  1.907348633E-06  0.00000E+00  9.000E+00
#rwgt            1           9   8.0044869257351617E-002           5      132069           0
</event>
<event>
      6   9999  3.45752E-01  2.63497E+00 -1.00000E+00  2.92530E-01
      21    -1     0     0   501   502  0.000000000E+00  0.000000000E+00  2.562623935E+01  2.562623935E+01  0.000000000E+00  0.00000E+00  9.000E+00
      21    -1     0     0   502   511  0.000000000E+00  0.000000000E+00 -2.295333810E+02  2.295333810E+02  0.000000000E+00  0.00000E+00  9.000E+00
      25     1     1     2     0     0 -6.019080573E-01  1.300039562E+00 -1.977589474E+02  2.339572122E+02  1.250012939E+02  0.00000E+00  9.000E+00
       5     1     1     2   501     0 -7.242788145E-01  2.791777556E-01  4.332716556E+00  6.475913277E+00  4.750000000E+00  0.00000E+00  9.000E+00
      -5     1     1     2     0   503 -1.256989588E+00 -1.059362109E+00 -1.323790503E+00  5.197806480E+00  4.750000000E+00  0.00000E+00  9.000E+00
      21     1     1     2   503   511  2.583176460E+00 -5.198552088E-01 -9.157120248E+00  9.528688330E+00  2.064765462E-07  0.00000E+00  9.000E+00
#rwgt            1           9   9.9300288929241531E-004           5      134941           0
</event>
<event>
      6   9999  3.45752E-01  8.87348E+01 -1.00000E+00  1.22683E-01
      21    -1     0     0   502   512  0.000000000E+00  0.000000000E+00  2.598972134E+01  2.598972134E+01  0.000000000E+00  0.00000E+00  9.000E+00
      21    -1     0     0   501   502  0.000000000E+00  0.000000000E+00 -1.132723286E+03  1.132723286E+03  0.000000000E+00  0.00000E+00  9.000E+00
      25     1     1     2     0     0  8.916541381E+01  2.211719070E+01 -8.148136838E+02  8.294503663E+02  1.250077191E+02  0.00000E+00  9.000E+00
       5     1     1     2   501     0 -3.559491088E+00 -2.283248160E+00 -1.246273823E+02  1.247895433E+02  4.750000000E+00  0.00000E+00  9.000E+00
      -5     1     1     2     0   503  1.832896278E+00 -4.723821157E+00  6.388963108E+00  9.436913939E+00  4.750000000E+00  0.00000E+00  9.000E+00
      21     1     1     2   503   512 -8.743881900E+01 -1.511012139E+01 -1.736814617E+02  1.950361838E+02  2.697398305E-06  0.00000E+00  9.000E+00
#rwgt            1           9   3.1775833698810096                5      141311           0
</event>
<event>
      6   9999  3.45752E-01  6.57879E+00 -1.00000E+00  2.08634E-01
      21    -1     0     0   501   511  0.000000000E+00  0.000000000E+00  2.446843110E+01  2.446843110E+01  0.000000000E+00  0.00000E+00  9.000E+00
      21    -1     0     0   502   503  0.000000000E+00  0.000000000E+00 -8.812061107E+02  8.812061107E+02  0.000000000E+00  0.00000E+00  9.000E+00
      25     1     1     2     0     0 -5.255646585E+00 -7.853529982E+00 -8.373191796E+02  8.466507085E+02  1.249988551E+02  0.00000E+00  9.000E+00
       5     1     1     2   501     0  3.227955696E+00 -1.158635412E+00  9.590018894E+00  1.123802013E+01  4.750000000E+00  0.00000E+00  9.000E+00
      -5     1     1     2     0   503 -1.887928025E-01  2.818000885E+00 -3.701382246E+01  3.742408750E+01  4.750000000E+00  0.00000E+00  9.000E+00
      21     1     1     2   502   511  2.216483691E+00  6.194164509E+00  8.005303617E+00  1.036172572E+01  6.529361695E-07  0.00000E+00  9.000E+00
#rwgt            1           9   2.9595133211180878E-004           5      141778           0
</event>
<event>
      6   9999  3.45752E-01  3.04455E+01 -1.00000E+00  1.47425E-01
      21    -1     0     0   501   502  0.000000000E+00  0.000000000E+00  3.346811276E+02  3.346811276E+02  0.000000000E+00  0.00000E+00  9.000E+00
      21    -1     0     0   502   512  0.000000000E+00  0.000000000E+00 -8.990719606E+01  8.990719606E+01  0.000000000E+00  0.00000E+00  9.000E+00
      25     1     1     2     0     0  4.272321129E+01  4.927594648E-01  8.593484555E+01  1.575910014E+02  1.249984417E+02  0.00000E+00  9.000E+00
       5     1     1     2   501     0  4.579646585E+00 -3.208760028E+00  1.001440845E+02  1.004124966E+02  4.750000000E+00  0.00000E+00  9.000E+00
      -5     1     1     2     0   503 -2.224594358E+01 -1.457799310E+01  1.065190307E+02  1.098920665E+02  4.750000000E+00  0.00000E+00  9.000E+00
      21     1     1     2   503   512 -2.505691430E+01  1.729399366E+01 -4.782402923E+01  5.669275917E+01  6.743495762E-07  0.00000E+00  9.000E+00
#rwgt            1           9   1.6861264349939922E-004           5      145423           0
</event>
<event>
      6   9999  3.45752E-01  1.51864E+01 -1.00000E+00  1.69908E-01
      21    -1     0     0   511   502  0.000000000E+00  0.000000000E+00  1.191383971E+03  1.191383971E+03  0.000000000E+00  0.00000E+00  9.000E+00
      21    -1     0     0   502   503  0.000000000E+00  0.000000000E+00 -9.647241592E+01  9.647241592E+01  0.000000000E+00  0.00000E+00  9.000E+00
      25     1     1     2     0     0 -2.066404948E+01  1.987237797E+01 -4.553096358E+01  1.360863904E+02  1.249980906E+02  0.00000E+00  9.000E+00
       5     1     1     2   501     0 -4.772344435E+00 -4.332837723E+00  1.049690455E+02  1.052739843E+02  4.750000000E+00  0.00000E+00  9.000E+00
      -5     1     1     2     0   503  1.026792612E+01 -1.627761544E+01  1.255426839E+01  2.346408375E+01  4.750000000E+00  0.00000E+00  9.000E+00
      21     1     1     2   511   501  1.516846779E+01  7.380751986E-01  1.022919205E+03  1.023031928E+03  1.078959322E-05  0.00000E+00  9.000E+00
#rwgt            1           9   2.0018954240618339E-003           5      146747           0
</event>
<event>
      6   9999  3.45752E-01  2.09323E+01 -1.00000E+00  1.58715E-01
      21    -1     0     0   512   503  0.000000000E+00  0.000000000E+00  1.191939929E+02  1.191939929E+02  0.000000000E+00  0.00000E+00  9.000E+00
      21    -1     0     0   501   502  0.000000000E+00  0.000000000E+00 -4.391878717E+02  4.391878717E+02  0.000000000E+00  0.00000E+00  9.000E+00
      25     1     1     2     0     0 -1.211542428E+02 -1.880563603E+01 -9.116243643E+01  1.974045623E+02  1.250038756E+02  0.00000E+00  9.000E+00
       5     1     1     2   501     0  7.567288889E+01 -3.827843547E+01 -2.546587752E+02  2.684497700E+02  4.750000000E+00  0.00000E+00  9.000E+00
      -5     1     1     2     0   503  3.929922780E+01  3.708551903E+01  3.987132229E+01  6.732050110E+01  4.750000000E+00  0.00000E+00  9.000E+00
      21     1     1     2   512   502  6.182126100E+00  1.999855247E+01 -1.404398944E+01  2.520703123E+01  2.920019320E-07  0.00000E+00  9.000E+00
#rwgt            1           9   103.43019769968701                5      148848           0
</event>
<event>
      6   9999  3.45752E-01  8.11274E+00 -1.00000E+00  1.97298E-01
      21    -1     0     0   501   502  0.000000000E+00  0.000000000E+00  1.060471735E+02  1.060471735E+02  0.000000000E+00  0.00000E+00  9.000E+00
      21    -1     0     0   502   511  0.000000000E+00  0.000000000E+00 -1.798137967E+03  1.798137967E+03  0.000000000E+00  0.00000E+00  9.000E+00
      25     1     1     2     0     0  9.934410375E+00  6.780538734E-01 -1.599098798E+03  1.604007832E+03  1.250000208E+02  0.00000E+00  9.000E+00
       5     1     1     2   501     0  1.747840845E+00  5.674654458E+00  1.026480871E+02  1.029293396E+02  4.750000000E+00  0.00000E+00  9.000E+00
      -5     1     1     2     0   503 -6.336971566E+00 -2.498739892E-01 -2.141069934E+01  2.282980928E+01  4.750000000E+00  0.00000E+00  9.000E+00
      21     1     1     2   503   511 -5.345279654E+00 -6.102834342E+00 -1.742293833E+02  1.744181602E+02  1.907348633E-06  0.00000E+00  9.000E+00
#rwgt            1           9   1.4154982336480533E-005           5      151140           0
</event>
<event>
      6   9999  3.45752E-01  6.27323E+00 -1.00000E+00  2.11399E-01
      21    -1     0     0   501   502  0.000000000E+00  0.000000000E+00  9.166523176E+01  9.166523176E+01  0.000000000E+00  0.00000E+00  9.000E+00
      21    -1     0     0   502   512  0.000000000E+00  0.000000000E+00 -2.972154888E+02  2.972154888E+02  0.000000000E+00  0.00000E+00  9.000E+00
      25     1     1     2     0     0  1.119323660E+00 -1.072668850E+01 -1.662285666E+02  2.082859269E+02  1.250390990E+02  0.00000E+00  9.000E+00
       5     1     1     2   501     0  1.493950633E+00  2.905030674E+00  7.001953893E+01  7.025645468E+01  4.750000000E+00  0.00000E+00  9.000E+00
      -5     1     1     2     0   503 -4.828423104E+00  1.952539234E+00 -3.325168473E+01  3.399063278E+01  4.750000000E+00  0.00000E+00  9.000E+00
      21     1     1     2   503   512  2.215148811E+00  5.869118592E+00 -7.608954460E+01  7.634770615E+01  9.536743164E-07  0.00000E+00  9.000E+00
#rwgt            1           9   4.0903758721287339E-004           5      156918           0
</event>
<event>
      6   9999  3.45752E-01  1.82359E+01 -1.00000E+00  1.63333E-01
      21    -1     0     0   511   502  0.000000000E+00  0.000000000E+00  7.397018846E+02  7.397018846E+02  0.000000000E+00  0.00000E+00  9.000E+00
      21    -1     0     0   502   503  0.000000000E+00  0.000000000E+00 -1.535946473E+01  1.535946473E+01  0.000000000E+00  0.00000E+00  9.000E+00
      25     1     1     2     0     0  7.404462679E+00  1.064035530E+01  2.766740268E+02  3.038780163E+02  1.250011538E+02  0.00000E+00  9.000E+00
       5     1     1     2   501     0 -1.578456256E-01  6.279622053E+00  3.496447295E+02  3.497334098E+02  4.750000000E+00  0.00000E+00  9.000E+00
      -5     1     1     2     0   503 -1.620230784E-01 -1.165420614E-01  6.094539634E+00  7.729537301E+00  4.750000000E+00  0.00000E+00  9.000E+00
      21     1     1     2   511   501 -7.084593975E+00 -1.680343530E+01  9.192912388E+01  9.372038587E+01  0.000000000E+00  0.00000E+00  9.000E+00
#rwgt            1           9   1.6664569340487814                5      160940           0
</event>
<event>
      6   9999  3.45752E-01  1.04551E+02 -1.00000E+00  1.19619E-01
      21    -1     0     0   501   502  0.000000000E+00  0.000000000E+00  5.192221513E+02  5.192221513E+02  0.000000000E+00  0.00000E+00  9.000E+00
       2    -1     0     0   502     0  0.000000000E+00  0.000000000E+00 -7.683773389E+02  7.683773389E+02  0.000000000E+00  0.00000E+00  9.000E+00
      25     1     1     2     0     0  1.462881102E+02  1.098392011E+02  1.263482230E+01  2.219117545E+02  1.249813057E+02  0.00000E+00  9.000E+00
       5     1     1     2   501     0  2.400873623E+01 -8.019830028E-01  3.693530597E+02  3.701638931E+02  4.750000000E+00  0.00000E+00  9.000E+00
      -5     1     1     2     0   503 -6.831966723E+01 -1.320948613E+02 -1.856061099E+02  2.378840471E+02  4.750000000E+00  0.00000E+00  9.000E+00
       2     1     1     2   503     0 -1.019771792E+02  2.305764328E+01 -4.455369596E+02  4.576397954E+02  5.394796609E-06  0.00000E+00  9.000E+00
#rwgt            1           9   5.0216020571283699E-005           5      162347           0
</event>
<event>
      6   9999  3.45752E-01  3.28418E+01 -1.00000E+00  1.45340E-01
      -1    -1     0     0     0   511  0.000000000E+00  0.000000000E+00  5.000400247E+01  5.000400247E+01  0.000000000E+00  0.00000E+00  9.000E+00
       1    -1     0     0   501     0  0.000000000E+00  0.000000000E+00 -1.256682724E+03  1.256682724E+03  0.000000000E+00  0.00000E+00  9.000E+00
      25     1     1     2     0     0 -4.196961927E+01  1.150830272E+01 -1.151433261E+03  1.159015149E+03  1.249946851E+02  0.00000E+00  9.000E+00
       5     1     1     2   501     0 -3.196505861E+01  2.074308656E+01  2.538883675E+00  3.848439999E+01  4.750000000E+00  0.00000E+00  9.000E+00
      -5     1     1     2     0   502  4.231311112E+01 -4.112052272E+01 -4.304387574E+01  7.318903265E+01  4.750000000E+00  0.00000E+00  9.000E+00
      21     1     1     2   502   511  3.162156676E+01  8.869133435E+00 -1.474046840E+01  3.599814468E+01  6.307962682E-07  0.00000E+00  9.000E+00
#rwgt            1           1   1.1705048583430501E-004           5      163462           0
</event>
<event>
      6   9999  3.45752E-01  2.49095E+01 -1.00000E+00  1.53259E-01
      21    -1     0     0   501   512  0.000000000E+00  0.000000000E+00  3.777906477E+02  3.777906477E+02  0.000000000E+00  0.00000E+00  9.000E+00
      21    -1     0     0   502   503  0.000000000E+00  0.000000000E+00 -2.419756815E+01  2.419756815E+01  0.000000000E+00  0.00000E+00  9.000E+00
      25     1     1     2     0     0  4.504704054E+01 -6.086097107E+00  2.108949793E+02  2.493342299E+02  1.249983579E+02  0.00000E+00  9.000E+00
       5     1     1     2   501     0 -6.307537610E+00  3.995598347E+00  3.709743012E+01  3.813832270E+01  4.750000000E+00  0.00000E+00  9.000E+00
      -5     1     1     2     0   503 -1.502430853E+01  9.711089118E+00  3.409039919E+01  3.879114481E+01  4.750000000E+00  0.00000E+00  9.000E+00
      21     1     1     2   502   512 -2.371519440E+01 -7.620590357E+00  7.151027097E+01  7.572451847E+01  9.536743164E-07  0.00000E+00  9.000E+00
#rwgt            1           9   3.1327839656988668E-002           5      163940           0
</event>
<event>
      6   9999  3.45752E-01  4.34275E+00 -1.00000E+00  2.40685E-01
      21    -1     0     0   501   511  0.000000000E+00  0.000000000E+00  8.732918128E+02  8.732918128E+02  0.000000000E+00  0.00000E+00  9.000E+00
      21    -1     0     0   502   503  0.000000000E+00  0.000000000E+00 -9.300323395E+00  9.300323395E+00  0.000000000E+00  0.00000E+00  9.000E+00
      25     1     1     2     0     0  2.988268668E+00  4.169582110E+00  6.096478204E+02  6.223517234E+02  1.249995502E+02  0.00000E+00  9.000E+00
       5     1     1     2   501     0 -5.651544573E-01 -3.372338990E-01  1.364234475E+02  1.365077018E+02  4.750000000E+00  0.00000E+00  9.000E+00
      -5     1     1     2     0   503  3.995275962E-01 -7.132674539E+00  3.556986184E+00  9.287051151E+00  4.750000000E+00  0.00000E+00  9.000E+00
      21     1     1     2   502   511 -2.822641807E+00  3.300326328E+00  1.143632354E+02  1.144456599E+02  1.907348633E-06  0.00000E+00  9.000E+00
#rwgt            1           9  0.21547434437593715                5      164999           0
</event>
<event>
      6   9999  3.45752E-01  6.65160E+00 -1.00000E+00  2.08005E-01
      21    -1     0     0   501   512  0.000000000E+00  0.000000000E+00  2.333041622E+02  2.333041622E+02  0.000000000E+00  0.00000E+00  9.000E+00
      21    -1     0     0   502   503  0.000000000E+00  0.000000000E+00 -8.976083175E+02  8.976083175E+02  0.000000000E+00  0.00000E+00  9.000E+00
      25     1     1     2     0     0 -7.539359149E-01  3.659058399E+00 -8.568824354E+02  8.659587006E+02  1.249920234E+02  0.00000E+00  9.000E+00
       5     1     1     2   501     0 -4.844026217E+00 -2.674330150E+00  7.592272015E+00  1.052718985E+01  4.750000000E+00  0.00000E+00  9.000E+00
      -5     1     1     2     0   503 -1.052858008E+00 -1.086897270E+00 -3.449069824E+01  3.484911220E+01  4.750000000E+00  0.00000E+00  9.000E+00
      21     1     1     2   502   512  6.650820140E+00  1.021690207E-01  2.194767063E+02  2.195774771E+02  2.697398305E-06  0.00000E+00  9.000E+00
#rwgt            1           9   1.8180561877600523E-004           5      168830           0
</event>
<event>
      6   9999  3.45752E-01  3.45385E+01 -1.00000E+00  1.43986E-01
      21    -1     0     0   501   502  0.000000000E+00  0.000000000E+00  2.703977144E+03  2.703977144E+03  0.000000000E+00  0.00000E+00  9.000E+00
      21    -1     0     0   502   511  0.000000000E+00  0.000000000E+00 -2.033766664E+01  2.033766664E+01  0.000000000E+00  0.00000E+00  9.000E+00
      25     1     1     2     0     0 -1.910396291E+01  2.685349763E+01  1.814854447E+03  1.819452523E+03  1.249989833E+02  0.00000E+00  9.000E+00
       5     1     1     2   501     0 -2.694026536E+00  2.117615068E+00  5.009146421E+02  5.009488829E+02  4.750000000E+00  0.00000E+00  9.000E+00
      -5     1     1     2     0   503 -2.486031747E-01 -2.384371988E+00  3.693067390E+02  3.693450649E+02  4.750000000E+00  0.00000E+00  9.000E+00
      21     1     1     2   503   511  2.204659262E+01 -2.658674071E+01 -1.436351110E+00  3.456834002E+01  2.991980998E-06  0.00000E+00  9.000E+00
#rwgt            1           9   3.5744682063042280E-003           5      172707           0
</event>
<event>
      6   9999  3.45752E-01  1.07002E+01 -1.00000E+00  1.84150E-01
      21    -1     0     0   512   502  0.000000000E+00  0.000000000E+00  3.447644426E+01  3.447644426E+01  0.000000000E+00  0.00000E+00  9.000E+00
      21    -1     0     0   502   503  0.000000000E+00  0.000000000E+00 -1.139349646E+03  1.139349646E+03  0.000000000E+00  0.00000E+00  9.000E+00
      25     1     1     2     0     0  3.969207951E+01 -3.271916128E+01 -3.111383157E+02  3.392311713E+02  1.249989254E+02  0.00000E+00  9.000E+00
       5     1     1     2   501     0 -8.397826980E-01  1.579156369E+00  1.401433892E+01  1.490513889E+01  4.750000000E+00  0.00000E+00  9.000E+00
      -5     1     1     2     0   503 -4.741128264E+01  2.471839532E+01 -8.071922871E+02  8.089751415E+02  4.750000000E+00  0.00000E+00  9.000E+00
      21     1     1     2   512   501  8.558985828E+00  6.421609589E+00 -5.569382401E-01  1.071463897E+01  3.622545535E-07  0.00000E+00  9.000E+00
#rwgt            1           9   4.1178678727898237E-005           5      173475           0
</event>
<event>
      6   9999  3.45752E-01  9.09784E+00 -1.00000E+00  1.91625E-01
      21    -1     0     0   501   502  0.000000000E+00  0.000000000E+00  9.863449607E+00  9.863449607E+00  0.000000000E+00  0.00000E+00  9.000E+00
      21    -1     0     0   511   503  0.000000000E+00  0.000000000E+00 -9.853557825E+02  9.853557825E+02  0.000000000E+00  0.00000E+00  9.000E+00
      25     1     1     2     0     0  1.281454575E+00 -2.234410069E+01 -7.760673721E+02  7.863834163E+02  1.249696379E+02  0.00000E+00  9.000E+00
       5     1     1     2   501     0  1.311286717E+00 -1.298947714E+00 -1.056303624E+00  5.204326600E+00  4.750000000E+00  0.00000E+00  9.000E+00
      -5     1     1     2     0   503  1.398217592E+00  1.546729506E+01 -2.372590897E+01  2.875193012E+01  4.750000000E+00  0.00000E+00  9.000E+00
      21     1     1     2   511   502 -3.990958885E+00  8.175753346E+00 -1.746427482E+02  1.748795591E+02  1.907348633E-06  0.00000E+00  9.000E+00
#rwgt            1           9   5.3434289376527403E-005           5      177670           0
</event>
<event>
      6   9999  3.45752E-01  1.51560E+01 -1.00000E+00  1.69983E-01
      21    -1     0     0   501   502  0.000000000E+00  0.000000000E+00  7.020357416E+00  7.020357416E+00  0.000000000E+00  0.00000E+00  9.000E+00
      21    -1     0     0   512   503  0.000000000E+00  0.000000000E+00 -1.025574941E+03  1.025574941E+03  0.000000000E+00  0.00000E+00  9.000E+00
      25     1     1     2     0     0  6.955667075E+00 -6.148905583E+00 -8.985036703E+02  9.072041364E+02  1.249972366E+02  0.00000E+00  9.000E+00
       5     1     1     2   501     0  1.521031529E+00 -2.022202631E+00 -2.570884403E+00  5.964460328E+00  4.750000000E+00  0.00000E+00  9.000E+00
      -5     1     1     2     0   503  2.523436017E+00 -2.254939074E+00 -2.242640547E+01  2.317236807E+01  4.750000000E+00  0.00000E+00  9.000E+00
      21     1     1     2   512   502 -1.100013462E+01  1.042604729E+01 -9.505362383E+01  9.625433407E+01  2.336015456E-06  0.00000E+00  9.000E+00
#rwgt            1           9   4.5210709731022340E-004           5      179973           0
</event>
<event>
      6   9999  3.45752E-01  1.25229E+01 -1.00000E+00  1.77457E-01
      21    -1     0     0   511   502  0.000000000E+00  0.000000000E+00  5.755678301E+00  5.755678301E+00  0.000000000E+00  0.00000E+00  9.000E+00
      21    -1     0     0   502   503  0.000000000E+00  0.000000000E+00 -2.548897323E+03  2.548897323E+03  0.000000000E+00  0.00000E+00  9.000E+00
      25     1     1     2     0     0  6.656101216E+00 -5.539446902E-01 -2.217072105E+03  2.220603146E+03  1.250000105E+02  0.00000E+00  9.000E+00
       5     1     1     2   501     0 -1.033271368E+00  5.813481680E+00 -1.968510118E+00  7.829543476E+00  4.750000000E+00  0.00000E+00  9.000E+00
      -5     1     1     2     0   503 -1.092073098E+01  6.087500904E+00 -2.814812596E+02  2.817988325E+02  4.750000000E+00  0.00000E+00  9.000E+00
      21     1     1     2   511   501  5.297901134E+00 -1.134703789E+01 -4.261976930E+01  4.442147860E+01  1.348699152E-06  0.00000E+00  9.000E+00
#rwgt            1           9   9.0216585116064676E-004           5      181547           0
</event>
<event>
      6   9999  3.45752E-01  1.57779E+01 -1.00000E+00  1.68490E-01
      21    -1     0     0   512   502  0.000000000E+00  0.000000000E+00  5.367775348E+02  5.367775348E+02  0.000000000E+00  0.00000E+00  9.000E+00
      21    -1     0     0   502   503  0.000000000E+00  0.000000000E+00 -1.218097047E+03  1.218097047E+03  0.000000000E+00  0.00000E+00  9.000E+00
      25     1     1     2     0     0 -3.329935793E+00  1.469995534E+01 -1.109501989E+03  1.116622816E+03  1.249986889E+02  0.00000E+00  9.000E+00
       5     1     1     2   501     0  9.069280659E+00 -5.803852822E-01  2.289083758E+01  2.508269611E+01  4.750000000E+00  0.00000E+00  9.000E+00
      -5     1     1     2     0   503  3.056325276E+00 -1.020830018E+00 -1.037371458E+02  1.038958187E+02  4.750000000E+00  0.00000E+00  9.000E+00
      21     1     1     2   512   501 -8.795670142E+00 -1.309874004E+01  5.090287848E+02  5.092732514E+02  7.629394531E-06  0.00000E+00  9.000E+00
#rwgt            1           9   1.7393200762412608E-003           5      183756           0
</event>
<event>
      6   9999  3.45752E-01  1.85419E+01 -1.00000E+00  1.62761E-01
      21    -1     0     0   502   503  0.000000000E+00  0.000000000E+00  4.736170453E+01  4.736170453E+01  0.000000000E+00  0.00000E+00  9.000E+00
      21    -1     0     0   501   511  0.000000000E+00  0.000000000E+00 -1.690417435E+02  1.690417435E+02  0.000000000E+00  0.00000E+00  9.000E+00
      25     1     1     2     0     0 -3.234480850E+01  1.832052939E+01 -8.137892878E+01  1.537194383E+02  1.250012289E+02  0.00000E+00  9.000E+00
       5     1     1     2   501     0  1.224382460E+00 -7.138604847E+00 -2.518197424E+00  9.020122496E+00  4.750000000E+00  0.00000E+00  9.000E+00
      -5     1     1     2     0   503  1.262135763E+01 -9.921708281E+00 -7.939427209E+00  1.852932724E+01  4.750000000E+00  0.00000E+00  9.000E+00
      21     1     1     2   502   511  1.849906842E+01 -1.260216266E+00 -2.984348551E+01  3.513455997E+01  3.371747881E-07  0.00000E+00  9.000E+00
#rwgt            1           9   9.2342941090697558E-002           5      186201           0
</event>
<event>
      6   9999  3.45752E-01  6.75537E+01 -1.00000E+00  1.28148E-01
      21    -1     0     0   501   502  0.000000000E+00  0.000000000E+00  1.626970868E+02  1.626970868E+02  0.000000000E+00  0.00000E+00  9.000E+00
       2    -1     0     0   502     0  0.000000000E+00  0.000000000E+00 -3.770564439E+03  3.770564439E+03  0.000000000E+00  0.00000E+00  9.000E+00
      25     1     1     2     0     0  9.946154728E+01 -2.381437044E+01 -9.142488209E+02  9.284042404E+02  1.249952139E+02  0.00000E+00  9.000E+00
       5     1     1     2   501     0  4.330234491E+00 -1.581049213E+00  1.545342391E+02  1.546759328E+02  4.750000000E+00  0.00000E+00  9.000E+00
      -5     1     1     2     0   503 -3.890278936E+01  6.609134691E+00 -9.691650114E+02  9.699796335E+02  4.750000000E+00  0.00000E+00  9.000E+00
       2     1     1     2   503     0 -6.488899241E+01  1.878628496E+01 -1.878987759E+03  1.880201719E+03  3.051757812E-05  0.00000E+00  9.000E+00
#rwgt            1           9  0.30369986368317936                5      187628           0
</event>
<event>
      6   9999  3.45752E-01  2.70774E+01 -1.00000E+00  1.50776E-01
      21    -1     0     0   501   502  0.000000000E+00  0.000000000E+00  1.247307117E+02  1.247307117E+02  0.000000000E+00  0.00000E+00  9.000E+00
      21    -1     0     0   502   511  0.000000000E+00  0.000000000E+00 -3.858290670E+02  3.858290670E+02  0.000000000E+00  0.00000E+00  9.000E+00
      25     1     1     2     0     0  1.383953288E+01  2.268202196E+01  4.486746114E+01  1.354397711E+02  1.249993430E+02  0.00000E+00  9.000E+00
       5     1     1     2   501     0  9.283725027E-01  2.019490130E+00  2.477898730E+01  2.532786859E+01  4.750000000E+00  0.00000E+00  9.000E+00
      -5     1     1     2     0   503  1.012694028E+00 -2.697921739E+00  8.124647811E+00  9.842597876E+00  4.750000000E+00  0.00000E+00  9.000E+00
      21     1     1     2   503   511 -1.578059941E+01 -2.200359035E+01 -3.388694516E+02  3.399495411E+02  0.000000000E+00  0.00000E+00  9.000E+00
#rwgt            1           9   2.8296302989064578E-005           5      189152           0
</event>
<event>
      6   9999  3.45752E-01  7.32102E+01 -1.00000E+00  1.26486E-01
      21    -1     0     0   512   503  0.000000000E+00  0.000000000E+00  5.383445960E+02  5.383445960E+02  0.000000000E+00  0.00000E+00  9.000E+00
      21    -1     0     0   501   502  0.000000000E+00  0.000000000E+00 -9.871485432E+02  9.871485432E+02  0.000000000E+00  0.00000E+00  9.000E+00
      25     1     1     2     0     0  8.623931049E+00 -1.514176040E+02 -5.629409286E+02  5.962643300E+02  1.250079961E+02  0.00000E+00  9.000E+00
       5     1     1     2   501     0  8.618603819E+00 -3.047128686E+00 -6.580832666E+01  6.660978668E+01  4.750000000E+00  0.00000E+00  9.000E+00
      -5     1     1     2     0   503 -4.952186033E+01  8.875496065E+01 -3.310875108E+02  3.463688207E+02  4.750000000E+00  0.00000E+00  9.000E+00
      21     1     1     2   512   502  3.227932546E+01  6.570977207E+01  5.110328188E+02  5.162502019E+02  0.000000000E+00  0.00000E+00  9.000E+00
#rwgt            1           9   3.4312197898367418E-004           5      190015           0
</event>
<event>
      6   9999 -3.45752E-01  2.94306E+01 -1.00000E+00  1.48378E-01
      21    -1     0     0   511   502  0.000000000E+00  0.000000000E+00  2.673318555E+01  2.673318555E+01  0.000000000E+00  0.00000E+00  9.000E+00
      21    -1     0     0   502   503  0.000000000E+00  0.000000000E+00 -9.932162083E+02  9.932162083E+02  0.000000000E+00  0.00000E+00  9.000E+00
      25     1     1     2     0     0 -1.249960960E+01 -5.142651231E+01 -8.837335047E+02  8.940985814E+02  1.250057581E+02  0.00000E+00  9.000E+00
       5     1     1     2   501     0 -3.365406859E+00 -2.358173016E+00  1.120583595E+01  1.284601894E+01  4.750000000E+00  0.00000E+00  9.000E+00
      -5     1     1     2     0   503 -4.654769134E+00  3.268735529E+01 -5.030570929E+01  6.036022663E+01  4.750000000E+00  0.00000E+00  9.000E+00
      21     1     1     2   511   501  2.051978560E+01  2.109733004E+01 -4.364964474E+01  5.264456688E+01  4.768371582E-07  0.00000E+00  9.000E+00
#rwgt            1           9  -4.7259832984539021E-005           5      190825           0
</event>
<event>
      6   9999  3.45752E-01  3.09113E+01 -1.00000E+00  1.47002E-01
      21    -1     0     0   512   502  0.000000000E+00  0.000000000E+00  3.026638618E+01  3.026638618E+01  0.000000000E+00  0.00000E+00  9.000E+00
      21    -1     0     0   502   503  0.000000000E+00  0.000000000E+00 -1.090461996E+03  1.090461996E+03  0.000000000E+00  0.00000E+00  9.000E+00
      25     1     1     2     0     0  8.169319165E+01  4.688033546E+01 -4.750615765E+02  5.001794673E+02  1.249978185E+02  0.00000E+00  9.000E+00
       5     1     1     2   501     0 -2.617699565E+01  3.253174538E+01 -5.873521755E+01  7.222145000E+01  4.750000000E+00  0.00000E+00  9.000E+00
      -5     1     1     2     0   503 -4.683006746E+01 -1.090778544E+02 -4.598824051E+02  4.749793918E+02  4.750000000E+00  0.00000E+00  9.000E+00
      21     1     1     2   512   501 -8.686128534E+00  2.966577353E+01 -6.651641046E+01  7.334807297E+01  9.536743164E-07  0.00000E+00  9.000E+00
#rwgt            1           9   23.095374840898980                5      192596           0
</event>
<event>
      6   9999  3.45752E-01  2.43230E+01 -1.00000E+00  1.53983E-01
      21    -1     0     0   501   502  0.000000000E+00  0.000000000E+00  8.764431511E+02  8.764431511E+02  0.000000000E+00  0.00000E+00  9.000E+00
      21    -1     0     0   511   503  0.000000000E+00  0.000000000E+00 -2.143750437E+03  2.143750437E+03  0.000000000E+00  0.00000E+00  9.000E+00
      25     1     1     2     0     0 -6.214348658E+00 -8.083982551E+00 -1.569208665E+01  1.263913725E+02  1.249982742E+02  0.00000E+00  9.000E+00
       5     1     1     2   501     0  9.892397921E+00  1.212441431E+01  8.071752626E+02  8.073408995E+02  4.750000000E+00  0.00000E+00  9.000E+00
      -5     1     1     2     0   503  1.499569879E+00  1.972509295E+01  6.246074947E+00  2.128154022E+01  4.750000000E+00  0.00000E+00  9.000E+00
      21     1     1     2   511   502 -5.177619142E+00 -2.376552472E+01 -2.065036536E+03  2.065179775E+03  3.051757812E-05  0.00000E+00  9.000E+00
#rwgt            1           9   1.5926121282645192E-005           5      193911           0
</event>
<event>
      6   9999  3.45752E-01  3.00926E+01 -1.00000E+00  1.47751E-01
      21    -1     0     0   502   512  0.000000000E+00  0.000000000E+00  1.745995496E+03  1.745995496E+03  0.000000000E+00  0.00000E+00  9.000E+00
      21    -1     0     0   501   502  0.000000000E+00  0.000000000E+00 -1.144491546E+02  1.144491546E+02  0.000000000E+00  0.00000E+00  9.000E+00
      25     1     1     2     0     0 -1.376276715E+00  1.650493693E+02 -4.936803684E+00  2.071070930E+02  1.250031499E+02  0.00000E+00  9.000E+00
       5     1     1     2   501     0  6.751936442E-01  2.878683696E+00  8.495849467E+01  8.514253357E+01  4.750000000E+00  0.00000E+00  9.000E+00
      -5     1     1     2     0   503 -5.022844262E+00 -1.974712811E+02  1.314529083E+03  1.329296584E+03  4.750000000E+00  0.00000E+00  9.000E+00
      21     1     1     2   503   512  5.723927333E+00  2.954322816E+01  2.369955678E+02  2.388984404E+02  3.814697266E-06  0.00000E+00  9.000E+00
#rwgt            1           9   5.5899689912525903E-003           5      196057           0
</event>
<event>
      6   9999  3.45752E-01  5.04012E+01 -1.00000E+00  1.34602E-01
      21    -1     0     0   502   511  0.000000000E+00  0.000000000E+00  3.621354933E+01  3.621354933E+01  0.000000000E+00  0.00000E+00  9.000E+00
      21    -1     0     0   501   502  0.000000000E+00  0.000000000E+00 -1.084638875E+03  1.084638875E+03  0.000000000E+00  0.00000E+00  9.000E+00
      25     1     1     2     0     0  3.267540854E+01 -4.265962653E+01 -2.565815494E+02  2.904298513E+02  1.250115233E+02  0.00000E+00  9.000E+00
       5     1     1     2   501     0  4.731008977E+00  5.680622809E+00 -6.701519998E+02  6.702096070E+02  4.750000000E+00  0.00000E+00  9.000E+00
      -5     1     1     2     0   503 -5.023155114E+01 -1.176312455E+01 -7.726221129E+01  9.302468287E+01  4.750000000E+00  0.00000E+00  9.000E+00
      21     1     1     2   503   511  1.282513362E+01  4.874212827E+01 -4.442956476E+01  6.718828280E+01  6.743495762E-07  0.00000E+00  9.000E+00
#rwgt            1           9   1.0506518375008302E-002           5      198775           0
</event>
<event>
      6   9999  3.45752E-01  3.18665E+00 -1.00000E+00  2.70231E-01
      21    -1     0     0   512   502  0.000000000E+00  0.000000000E+00  1.359971281E+02  1.359971281E+02  0.000000000E+00  0.00000E+00  9.000E+00
      21    -1     0     0   502   503  0.000000000E+00  0.000000000E+00 -2.075115269E+02  2.075115269E+02  0.000000000E+00  0.00000E+00  9.000E+00
      25     1     1     2     0     0 -3.571930200E+00 -2.001529353E+00 -1.796698987E+02  2.189139436E+02  1.250011095E+02  0.00000E+00  9.000E+00
       5     1     1     2   501     0  1.267985472E+00  2.745110447E-01  1.604240341E+01  1.678107120E+01  4.750000000E+00  0.00000E+00  9.000E+00
      -5     1     1     2     0   503 -2.079030847E-01 -2.339394585E-01 -7.100685696E+00  8.548695147E+00  4.750000000E+00  0.00000E+00  9.000E+00
      21     1     1     2   512   501  2.511847813E+00  1.960957767E+00  9.921378219E+01  9.926494503E+01  0.000000000E+00  0.00000E+00  9.000E+00
#rwgt            1           9  0.82903335891303154                5      199791           0
</event>
<event>
      6   9999 -3.45752E-01  5.84938E+01 -1.00000E+00  1.31240E-01
      21    -1     0     0   511   502  0.000000000E+00  0.000000000E+00  5.842246910E+01  5.842246910E+01  0.000000000E+00  0.00000E+00  9.000E+00
      21    -1     0     0   502   503  0.000000000E+00  0.000000000E+00 -1.246112737E+03  1.246112737E+03  0.000000000E+00  0.00000E+00  9.000E+00
      25     1     1     2     0     0 -2.324374487E+01 -4.251663863E+01 -1.188089126E+03  1.195629313E+03  1.250029919E+02  0.00000E+00  9.000E+00
       5     1     1     2   501     0 -1.960006674E+01 -6.886434298E+00  2.524280941E+01  3.303554935E+01  4.750000000E+00  0.00000E+00  9.000E+00
      -5     1     1     2     0   503 -1.881829202E+00  1.170509663E+01 -7.711840172E+00  1.491930116E+01  4.750000000E+00  0.00000E+00  9.000E+00
      21     1     1     2   511   501  4.472564082E+01  3.769797630E+01 -1.713211202E+01  6.095104286E+01  8.596304120E-07  0.00000E+00  9.000E+00
#rwgt            1           9  -1.4934062813534428E-004           5      204962           0
</event>
<event>
      6   9999  3.45752E-01  3.12530E+00 -1.00000E+00  2.72345E-01
      21    -1     0     0   501   512  0.000000000E+00  0.000000000E+00  2.255360843E+01  2.255360843E+01  0.000000000E+00  0.00000E+00  9.000E+00
      21    -1     0     0   502   503  0.000000000E+00  0.000000000E+00 -8.709129478E+02  8.709129478E+02  0.000000000E+00  0.00000E+00  9.000E+00
      25     1     1     2     0     0 -4.163887703E+00  2.715254540E+00 -8.297881027E+02  8.391651204E+02  1.250003736E+02  0.00000E+00  9.000E+00
       5     1     1     2   501     0  4.077839032E+00  3.955274819E-01  1.170864102E+01  1.328307147E+01  4.750000000E+00  0.00000E+00  9.000E+00
      -5     1     1     2     0   503 -9.865294338E-01 -1.753001084E-01 -3.501221850E+01  3.534716275E+01  4.750000000E+00  0.00000E+00  9.000E+00
      21     1     1     2   502   512  1.072578105E+00 -2.935481913E+00  4.732340812E+00  5.671201585E+00  8.429369702E-08  0.00000E+00  9.000E+00
#rwgt            1           9   1.8121214308513193E-003           5      205821           0
</event>
<event>
      6   9999  3.45752E-01  9.53853E+00 -1.00000E+00  1.89381E-01
      21    -1     0     0   501   502  0.000000000E+00  0.000000000E+00  5.346880997E+02  5.346880997E+02  0.000000000E+00  0.00000E+00  9.000E+00
       1    -1     0     0   502     0  0.000000000E+00  0.000000000E+00 -1.354235631E+02  1.354235631E+02  0.000000000E+00  0.00000E+00  9.000E+00
      25     1     1     2     0     0  5.622371300E+01  1.047108102E+02  2.348234388E+02  2.913630046E+02  1.249995734E+02  0.00000E+00  9.000E+00
       5     1     1     2   501     0  1.403608669E+00  9.039940440E-01  1.653437957E+02  1.654204358E+02  4.750000000E+00  0.00000E+00  9.000E+00
      -5     1     1     2     0   503 -6.273971707E+01 -1.136675645E+02  6.601810408E+01  1.457310533E+02  4.750000000E+00  0.00000E+00  9.000E+00
       1     1     1     2   503     0  5.112395398E+00  8.052760337E+00 -6.692080193E+01  6.759716907E+01  2.132480600E-06  0.00000E+00  9.000E+00
#rwgt            1           9   2.3338126412269720                5      212229           0
</event>
<event>
      6   9999  3.45752E-01  1.19803E+02 -1.00000E+00  1.17192E-01
      21    -1     0     0   501   511  0.000000000E+00  0.000000000E+00  1.912011489E+02  1.912011489E+02  0.000000000E+00  0.00000E+00  9.000E+00
      21    -1     0     0   502   503  0.000000000E+00  0.000000000E+00 -1.582690456E+03  1.582690456E+03  0.000000000E+00  0.00000E+00  9.000E+00
      25     1     1     2     0     0 -8.918102473E+01  4.167986602E+00 -1.250069176E+03  1.259471634E+03  1.250009061E+02  0.00000E+00  9.000E+00
       5     1     1     2   501     0 -3.863008945E+01  1.342417723E+01  8.262003053E+01  9.230993603E+01  4.750000000E+00  0.00000E+00  9.000E+00
      -5     1     1     2     0   503  9.220087333E+00 -5.932619095E-01 -2.867149314E+02  2.869030783E+02  4.750000000E+00  0.00000E+00  9.000E+00
      21     1     1     2   502   511  1.185910268E+02 -1.699890192E+01  6.267476938E+01  1.352069563E+02  3.989505894E-06  0.00000E+00  9.000E+00
#rwgt            1           9   9.6195307913059789E-004           5      215348           0
</event>
<event>
      6   9999  3.45752E-01  1.38783E+01 -1.00000E+00  1.73350E-01
      21    -1     0     0   501   512  0.000000000E+00  0.000000000E+00  2.847289490E+01  2.847289490E+01  0.000000000E+00  0.00000E+00  9.000E+00
      21    -1     0     0   502   503  0.000000000E+00  0.000000000E+00 -8.971004006E+02  8.971004006E+02  0.000000000E+00  0.00000E+00  9.000E+00
      25     1     1     2     0     0  1.803195329E+01 -5.983101001E+00 -6.330884749E+02  6.455912006E+02  1.250041295E+02  0.00000E+00  9.000E+00
       5     1     1     2   501     0  2.952058178E+00 -2.770579618E+00  7.421170185E+00  9.696753365E+00  4.750000000E+00  0.00000E+00  9.000E+00
      -5     1     1     2     0   503 -1.086091302E+01 -7.400093657E-01 -2.529227285E+02  2.532014536E+02  4.750000000E+00  0.00000E+00  9.000E+00
      21     1     1     2   502   512 -1.012309844E+01  9.493689984E+00  9.962527493E+00  1.708388790E+01  5.717076687E-07  0.00000E+00  9.000E+00
#rwgt            1           9   7.6347286816631064                5      216292           0
</event>
<event>
      6   9999  3.45752E-01  4.95942E+00 -1.00000E+00  2.29986E-01
      21    -1     0     0   501   502  0.000000000E+00  0.000000000E+00  4.173573939E+01  4.173573939E+01  0.000000000E+00  0.00000E+00  9.000E+00
      21    -1     0     0   511   503  0.000000000E+00  0.000000000E+00 -5.139977694E+02  5.139977694E+02  0.000000000E+00  0.00000E+00  9.000E+00
      25     1     1     2     0     0  1.082474607E+01 -1.169443583E+01 -1.189695106E+02  1.732991517E+02  1.249996664E+02  0.00000E+00  9.000E+00
       5     1     1     2   501     0  1.240400682E+00  1.770371529E+00  1.236155047E+01  1.341801920E+01  4.750000000E+00  0.00000E+00  9.000E+00
      -5     1     1     2     0   503 -1.013859859E+01  1.449399411E+01 -4.880221571E+01  5.212567318E+01  4.750000000E+00  0.00000E+00  9.000E+00
      21     1     1     2   511   502 -1.926548154E+00 -4.569929805E+00 -3.168518543E+02  3.168906647E+02  3.814697266E-06  0.00000E+00  9.000E+00
#rwgt            1           9   9.4398312981520906E-004           5      218467           0
</event>
<event>
      6   9999 -3.45752E-01  6.67802E+00 -1.00000E+00  2.07780E-01
      21    -1     0     0   501   502  0.000000000E+00  0.000000000E+00  3.070159674E+01  3.070159674E+01  0.000000000E+00  0.00000E+00  9.000E+00
      21    -1     0     0   502   512  0.000000000E+00  0.000000000E+00 -1.259437395E+03  1.259437395E+03  0.000000000E+00  0.00000E+00  9.000E+00
      25     1     1     2     0     0 -4.615484058E+01 -1.590122265E+00 -1.892076321E+02  2.314255448E+02  1.250018278E+02  0.00000E+00  9.000E+00
       5     1     1     2   501     0  3.429565538E+00  5.187977377E-01  7.881723617E+00  9.834385494E+00  4.750000000E+00  0.00000E+00  9.000E+00
      -5     1     1     2     0   503  4.853558755E+01 -2.220517851E+00 -9.215421941E+02  9.228343361E+02  4.750000000E+00  0.00000E+00  9.000E+00
      21     1     1     2   503   512 -5.810312517E+00  3.291842378E+00 -1.258676958E+02  1.260447254E+02  1.907348633E-06  0.00000E+00  9.000E+00
#rwgt            1           9  -9.7528240649609241E-005           5      223121           0
</event>
<event>
      6   9999  3.45752E-01  5.45447E+00 -1.00000E+00  2.19992E-01
      21    -1     0     0   511   502  0.000000000E+00  0.000000000E+00  6.989535616E+00  6.989535616E+00  0.000000000E+00  0.00000E+00  9.000E+00
      21    -1     0     0   502   503  0.000000000E+00  0.000000000E+00 -4.655581461E+03  4.655581461E+03  0.000000000E+00  0.00000E+00  9.000E+00
      25     1     1     2     0     0  1.444761032E+01 -2.005024350E+01 -4.307048701E+03  4.308932962E+03  1.249960318E+02  0.00000E+00  9.000E+00
       5     1     1     2   501     0  1.099439871E+00  3.820867567E-01 -5.147499121E+00  7.100282073E+00  4.750000000E+00  0.00000E+00  9.000E+00
      -5     1     1     2     0   503 -1.869802941E+01  1.521589829E+01 -3.394151501E+02  3.403033154E+02  4.750000000E+00  0.00000E+00  9.000E+00
      21     1     1     2   511   501  3.150979222E+00  4.452258447E+00  3.019425444E+00  6.234437051E+00  1.631251834E-06  0.00000E+00  9.000E+00
#rwgt            1           9   1.7554948182073660E-004           5      227883           0
</event>
<event>
      6   9999  3.45752E-01  1.24232E+01 -1.00000E+00  1.77785E-01
      21    -1     0     0   501   512  0.000000000E+00  0.000000000E+00  1.172384239E+01  1.172384239E+01  0.000000000E+00  0.00000E+00  9.000E+00
      21    -1     0     0   502   503  0.000000000E+00  0.000000000E+00 -9.590122631E+02  9.590122631E+02  0.000000000E+00  0.00000E+00  9.000E+00
      25     1     1     2     0     0  2.786260644E+01 -9.058261445E+00 -7.425087263E+02  7.535272326E+02  1.250028187E+02  0.00000E+00  9.000E+00
       5     1     1     2   501     0  1.100484299E+00  1.072930911E+00  3.380779421E+00  6.029462325E+00  4.750000000E+00  0.00000E+00  9.000E+00
      -5     1     1     2     0   503 -1.679560327E+01  5.477706080E+00 -1.714632563E+02  1.724363892E+02  4.750000000E+00  0.00000E+00  9.000E+00
      21     1     1     2   502   512 -1.216748747E+01  2.507624454E+00 -3.669721750E+01  3.874302136E+01  6.743495762E-07  0.00000E+00  9.000E+00
#rwgt            1           9   5.0003306614159193E-003           5      232507           0
</event>
<event>
      6   9999  3.45752E-01  2.31072E+01 -1.00000E+00  1.55566E-01
      21    -1     0     0   501   511  0.000000000E+00  0.000000000E+00  1.130028648E+02  1.130028648E+02  0.000000000E+00  0.00000E+00  9.000E+00
      21    -1     0     0   502   503  0.000000000E+00  0.000000000E+00 -1.636123775E+03  1.636123775E+03  0.000000000E+00  0.00000E+00  9.000E+00
      25     1     1     2     0     0  8.744714827E+00  3.567696338E+00 -1.347559039E+03  1.353376742E+03  1.249961767E+02  0.00000E+00  9.000E+00
       5     1     1     2   501     0  2.195507590E+01 -1.988136024E+01  8.725644922E+01  9.226886947E+01  4.750000000E+00  0.00000E+00  9.000E+00
      -5     1     1     2     0   503 -1.655144045E+01 -1.955680042E+00 -2.762237035E+02  2.767668183E+02  4.750000000E+00  0.00000E+00  9.000E+00
      21     1     1     2   502   511 -1.414835028E+01  1.826934394E+01  1.340538263E+01  2.671421021E+01  1.011524364E-06  0.00000E+00  9.000E+00
#rwgt            1           9   1.7233211183342131E-005           5      234483           0
</event>
<event>
      6   9999  3.45752E-01  4.48480E+00 -1.00000E+00  2.37996E-01
      21    -1     0     0   501   512  0.000000000E+00  0.000000000E+00  4.415452243E+01  4.415452243E+01  0.000000000E+00  0.00000E+00  9.000E+00
      21    -1     0     0   502   503  0.000000000E+00  0.000000000E+00 -3.249779257E+03  3.249779257E+03  0.000000000E+00  0.00000E+00  9.000E+00
      25     1     1     2     0     0  3.969790388E+00  6.526053476E-01 -2.651790778E+03  2.654741456E+03  1.250667182E+02  0.00000E+00  9.000E+00
       5     1     1     2   501     0  4.738179137E+00 -3.226211158E+00  3.941927866E-01  7.454976051E+00  4.750000000E+00  0.00000E+00  9.000E+00
      -5     1     1     2     0   503 -4.457189112E+00  4.003395849E+00 -5.928282667E+02  5.928775675E+02  4.750000000E+00  0.00000E+00  9.000E+00
      21     1     1     2   502   512 -4.250780413E+00 -1.429790038E+00  3.860011724E+01  3.885977978E+01  3.844384073E-06  0.00000E+00  9.000E+00
#rwgt            1           9  0.17682264311842960                5      237310           0
</event>
<event>
      6   9999  3.45752E-01  2.44399E+01 -1.00000E+00  1.53837E-01
      21    -1     0     0   501   502  0.000000000E+00  0.000000000E+00  3.305605554E+03  3.305605554E+03  0.000000000E+00  0.00000E+00  9.000E+00
      21    -1     0     0   511   503  0.000000000E+00  0.000000000E+00 -1.306140537E+01  1.306140537E+01  0.000000000E+00  0.00000E+00  9.000E+00
      25     1     1     2     0     0 -1.617258648E+01 -2.751224663E+01  5.625195840E+02  5.771270551E+02  1.250155154E+02  0.00000E+00  9.000E+00
       5     1     1     2   501     0 -1.076630058E+00  6.363553540E+00  2.128762272E+03  2.128777355E+03  4.750000000E+00  0.00000E+00  9.000E+00
      -5     1     1     2     0   503 -1.899018751E+00  3.633592773E+01  5.775348996E+02  5.786994286E+02  4.750000000E+00  0.00000E+00  9.000E+00
      21     1     1     2   511   502  1.914823528E+01 -1.518723464E+01  2.372739312E+01  3.406312075E+01  1.168007728E-06  0.00000E+00  9.000E+00
#rwgt            1           9   6.3896603117497689E-005           5      242309           0
</event>
<event>
      6   9999  3.45752E-01  2.48069E+01 -1.00000E+00  1.53384E-01
      21    -1     0     0   512   502  0.000000000E+00  0.000000000E+00  4.154293454E+01  4.154293454E+01  0.000000000E+00  0.00000E+00  9.000E+00
      21    -1     0     0   502   503  0.000000000E+00  0.000000000E+00 -2.302293549E+02  2.302293549E+02  0.000000000E+00  0.00000E+00  9.000E+00
      25     1     1     2     0     0 -3.843239836E+00  2.330074811E+01 -1.872228799E+02  2.263464247E+02  1.249904070E+02  0.00000E+00  9.000E+00
       5     1     1     2   501     0  6.415714947E-01  2.959015948E+00  4.680205861E+00  7.323538507E+00  4.750000000E+00  0.00000E+00  9.000E+00
      -5     1     1     2     0   503  1.115517254E+01 -2.762432782E+00  4.184925927E-01  1.244212784E+01  4.750000000E+00  0.00000E+00  9.000E+00
      21     1     1     2   512   501 -7.953504196E+00 -2.349733127E+01 -6.562238977E+00  2.566019848E+01  8.429369702E-08  0.00000E+00  9.000E+00
#rwgt            1           9   1.8046930579131420E-004           5      243742           0
</event>
<event>
      6   9999  3.45752E-01  1.31743E+01 -1.00000E+00  1.75405E-01
      21    -1     0     0   501   502  0.000000000E+00  0.000000000E+00  1.993140073E+01  1.993140073E+01  0.000000000E+00  0.00000E+00  9.000E+00
      21    -1     0     0   502   511  0.000000000E+00  0.000000000E+00 -1.023342713E+03  1.023342713E+03  0.000000000E+00  0.00000E+00  9.000E+00
      25     1     1     2     0     0 -1.165591036E+00  1.409730030E+01 -8.776700582E+02  8.866434998E+02  1.250274857E+02  0.00000E+00  9.000E+00
       5     1     1     2   501     0 -2.565881806E+00  6.946832497E-01  1.427640057E+01  1.527888895E+01  4.750000000E+00  0.00000E+00  9.000E+00
      -5     1     1     2     0   503 -3.414282270E-01 -2.263065868E+00 -2.309646583E+01  2.369065795E+01  4.750000000E+00  0.00000E+00  9.000E+00
      21     1     1     2   503   511  4.072901069E+00 -1.252891768E+01 -1.169211884E+02  1.176610666E+02  1.907348633E-06  0.00000E+00  9.000E+00
#rwgt            1           9   2.3146998640057807E-004           5      244879           0
</event>
<event>
      6   9999  3.45752E-01  2.35005E+00 -1.00000E+00  3.07949E-01
      -1    -1     0     0     0   503  0.000000000E+00  0.000000000E+00  1.371215934E+02  1.371215934E+02  0.000000000E+00  0.00000E+00  9.000E+00
      21    -1     0     0   501   502  0.000000000E+00  0.000000000E+00 -1.704635621E+03  1.704635621E+03  0.000000000E+00  0.00000E+00  9.000E+00
      25     1     1     2     0     0 -1.519208027E+01  8.148648274E+00 -1.521162358E+03  1.526386522E+03  1.249947906E+02  0.00000E+00  9.000E+00
       5     1     1     2   501     0 -1.812338720E+00  1.223073148E+00  1.225210195E+00  5.370672172E+00  4.750000000E+00  0.00000E+00  9.000E+00
      -5     1     1     2     0   503  1.920247568E+01 -1.020315922E+01 -1.780851097E+02  1.794706336E+02  4.750000000E+00  0.00000E+00  9.000E+00
      -1     1     1     2     0   502 -2.198056691E+00  8.314378005E-01  1.305082295E+02  1.305293864E+02  3.814697266E-06  0.00000E+00  9.000E+00
#rwgt            1           9   1.5652954902473166E-002           5      247586           0
</event>
<event>
      6   9999  3.45752E-01  1.34576E+01 -1.00000E+00  1.74559E-01
      21    -1     0     0   501   511  0.000000000E+00  0.000000000E+00  1.218472978E+02  1.218472978E+02  0.000000000E+00  0.00000E+00  9.000E+00
      21    -1     0     0   502   503  0.000000000E+00  0.000000000E+00 -1.013724678E+03  1.013724678E+03  0.000000000E+00  0.00000E+00  9.000E+00
      25     1     1     2     0     0  9.912529990E+00 -2.781400622E+01 -8.353753562E+02  8.451880902E+02  1.249761773E+02  0.00000E+00  9.000E+00
       5     1     1     2   501     0  4.190301003E+00  2.355509056E+00  1.569151729E+01  1.708488397E+01  4.750000000E+00  0.00000E+00  9.000E+00
      -5     1     1     2     0   503 -3.994293243E+00  1.657459381E+01 -1.718394444E+02  1.727484549E+02  4.750000000E+00  0.00000E+00  9.000E+00
      21     1     1     2   502   511 -1.010853775E+01  8.883903350E+00  9.964590353E+01  1.005505463E+02  2.336015456E-06  0.00000E+00  9.000E+00
#rwgt            1           9   5.0208386277845442E-005           5      254310           0
</event>
<event>
      6   9999  3.45752E-01  9.99878E+00 -1.00000E+00  1.87199E-01
      21    -1     0     0   501   502  0.000000000E+00  0.000000000E+00  6.012209410E+01  6.012209410E+01  0.000000000E+00  0.00000E+00  9.000E+00
      21    -1     0     0   512   503  0.000000000E+00  0.000000000E+00 -1.096035255E+02  1.096035255E+02  0.000000000E+00  0.00000E+00  9.000E+00
      25     1     1     2     0     0 -1.689658982E+01  5.153308159E+00 -4.603494121E+01  1.343557623E+02  1.249808134E+02  0.00000E+00  9.000E+00
       5     1     1     2   501     0 -5.000954838E-01 -4.461443870E-01  1.033873781E+01  1.139741812E+01  4.750000000E+00  0.00000E+00  9.000E+00
      -5     1     1     2     0   503  7.452520723E+00 -3.663512819E+00 -5.913951986E+00  1.124716495E+01  4.750000000E+00  0.00000E+00  9.000E+00
      21     1     1     2   512   502  9.944164583E+00 -1.043650954E+00 -7.871275971E+00  1.272527414E+01  1.884864366E-07  0.00000E+00  9.000E+00
#rwgt            1           9   7.1112462718997502E-002           5      257072           0
</event>
<event>
      6   9999  3.45752E-01  8.36398E+00 -1.00000E+00  1.95755E-01
      21    -1     0     0   501   502  0.000000000E+00  0.000000000E+00  2.798607649E+01  2.798607649E+01  0.000000000E+00  0.00000E+00  9.000E+00
       1    -1     0     0   502     0  0.000000000E+00  0.000000000E+00 -9.851684626E+02  9.851684626E+02  0.000000000E+00  0.00000E+00  9.000E+00
      25     1     1     2     0     0 -1.374511795E+00  2.933614494E+00 -1.700679806E+02  2.111082173E+02  1.250322598E+02  0.00000E+00  9.000E+00
       5     1     1     2   501     0 -1.060381057E+00  1.243064301E+00  5.348143940E+00  7.337217487E+00  4.750000000E+00  0.00000E+00  9.000E+00
      -5     1     1     2     0   503 -4.836155258E+00 -4.292232041E-02 -9.333886057E+00  1.153577778E+01  4.750000000E+00  0.00000E+00  9.000E+00
       1     1     1     2   503     0  7.271048110E+00 -4.133756475E+00 -7.831286633E+02  7.831733265E+02  0.000000000E+00  0.00000E+00  9.000E+00
#rwgt            1           9   1.3456713497061413E-002           5      259404           0
</event>
<event>
      6   9999  3.45752E-01  1.16950E+01 -1.00000E+00  1.80304E-01
      21    -1     0     0   501   502  0.000000000E+00  0.000000000E+00  1.192672803E+01  1.192672803E+01  0.000000000E+00  0.00000E+00  9.000E+00
      21    -1     0     0   511   503  0.000000000E+00  0.000000000E+00 -8.281750354E+02  8.281750354E+02  0.000000000E+00  0.00000E+00  9.000E+00
      25     1     1     2     0     0 -1.266151598E+01 -7.161035903E+00 -6.017807151E+02  6.147983183E+02  1.250013945E+02  0.00000E+00  9.000E+00
       5     1     1     2   501     0  7.980685620E-02 -7.021426484E-01  3.746821629E+00  6.091021733E+00  4.750000000E+00  0.00000E+00  9.000E+00
      -5     1     1     2     0   503  5.863308468E+00 -1.709489066E+00 -1.294327088E+02  1.296637549E+02  4.750000000E+00  0.00000E+00  9.000E+00
      21     1     1     2   511   502  6.718400661E+00  9.572667617E+00 -8.878170513E+01  8.954866854E+01  0.000000000E+00  0.00000E+00  9.000E+00
#rwgt            1           9   1.7609109589684480E-002           5      261870           0
</event>
<event>
      6   9999  3.45752E-01  5.78333E+00 -1.00000E+00  2.16307E-01
       1    -1     0     0   502     0  0.000000000E+00  0.000000000E+00  3.128380083E+02  3.128380083E+02  0.000000000E+00  0.00000E+00  9.000E+00
      21    -1     0     0   501   502  0.000000000E+00  0.000000000E+00 -1.090029428E+02  1.090029428E+02  0.000000000E+00  0.00000E+00  9.000E+00
      25     1     1     2     0     0 -2.111826666E+00  1.655333090E+01 -6.493904478E+01  1.418395328E+02  1.249916035E+02  0.00000E+00  9.000E+00
       5     1     1     2   501     0 -1.238252909E-01  4.383259281E-02 -5.773505664E-01  4.786761711E+00  4.750000000E+00  0.00000E+00  9.000E+00
      -5     1     1     2     0   503 -2.998793597E+00 -1.413801045E+01  1.706375465E+01  2.286067202E+01  4.750000000E+00  0.00000E+00  9.000E+00
       1     1     1     2   503     0  5.234445554E+00 -2.459153045E+00  2.522877062E+02  2.523539846E+02  0.000000000E+00  0.00000E+00  9.000E+00
#rwgt            1           9   1.0909426339936210E-003           5      264020           0
</event>
<event>
      6   9999  3.45752E-01  1.38215E+01 -1.00000E+00  1.73510E-01
      21    -1     0     0   501   502  0.000000000E+00  0.000000000E+00  1.110388901E+01  1.110388901E+01  0.000000000E+00  0.00000E+00  9.000E+00
       2    -1     0     0   502     0  0.000000000E+00  0.000000000E+00 -3.752572681E+03  3.752572681E+03  0.000000000E+00  0.00000E+00  9.000E+00
      25     1     1     2     0     0  8.494877435E+01 -5.731622041E+01 -2.961818275E+03  2.966225328E+03  1.249950305E+02  0.00000E+00  9.000E+00
       5     1     1     2   501     0 -7.763593226E-01 -1.754253273E-01 -1.373406460E+00  5.008218560E+00  4.750000000E+00  0.00000E+00  9.000E+00
      -5     1     1     2     0   503 -7.518224726E+01  6.798976032E+01 -3.624833590E+02  3.764196141E+02  4.750000000E+00  0.00000E+00  9.000E+00
       2     1     1     2   503     0 -8.990167763E+00 -1.049811458E+01 -4.157937509E+02  4.160234089E+02  7.629394531E-06  0.00000E+00  9.000E+00
#rwgt            1           9   2.3429470650204926E-003           5      267290           0
</event>
<event>
      6   9999  3.45752E-01  2.21843E+01 -1.00000E+00  1.56849E-01
      21    -1     0     0   501   502  0.000000000E+00  0.000000000E+00  1.789492049E+03  1.789492049E+03  0.000000000E+00  0.00000E+00  9.000E+00
      21    -1     0     0   502   511  0.000000000E+00  0.000000000E+00 -4.276160987E+02  4.276160987E+02  0.000000000E+00  0.00000E+00  9.000E+00
      25     1     1     2     0     0  5.916510961E+01 -2.355306824E+01  1.377064731E+03  1.384192067E+03  1.250005832E+02  0.00000E+00  9.000E+00
       5     1     1     2   501     0  1.582689805E+00 -5.206058528E-01  3.061660924E+02  3.062074699E+02  4.750000000E+00  0.00000E+00  9.000E+00
      -5     1     1     2     0   503 -4.312520154E+01  1.059830351E+01  9.751275033E+01  1.072539324E+02  4.750000000E+00  0.00000E+00  9.000E+00
      21     1     1     2   503   511 -1.762259787E+01  1.347537059E+01 -4.188676236E+02  4.194546789E+02  1.206313194E-05  0.00000E+00  9.000E+00
#rwgt            1           9   4.4755010231684058E-005           5      269706           0
</event>
<event>
      6   9999  3.45752E-01  1.18939E+02 -1.00000E+00  1.17319E-01
      21    -1     0     0   512   502  0.000000000E+00  0.000000000E+00  1.182644251E+02  1.182644251E+02  0.000000000E+00  0.00000E+00  9.000E+00
      21    -1     0     0   502   503  0.000000000E+00  0.000000000E+00 -1.488560882E+03  1.488560882E+03  0.000000000E+00  0.00000E+00  9.000E+00
      25     1     1     2     0     0 -6.615940052E+00  1.789570194E+01 -1.143963885E+03  1.150931603E+03  1.250046306E+02  0.00000E+00  9.000E+00
       5     1     1     2   501     0  1.217202425E+02  1.644693970E+01 -1.094049972E+01  1.234041178E+02  4.750000000E+00  0.00000E+00  9.000E+00
      -5     1     1     2     0   503 -8.627767423E-01 -1.247728085E+00 -2.134773099E+02  2.135355370E+02  4.750000000E+00  0.00000E+00  9.000E+00
      21     1     1     2   512   501 -1.142415257E+02 -3.309491355E+01 -1.914762080E+00  1.189540491E+02  2.747880790E-06  0.00000E+00  9.000E+00
#rwgt            1           9   7.5320661236934596E-004           5      271433           0
</event>
<event>
      6   9999  3.45752E-01  1.64844E+01 -1.00000E+00  1.66895E-01
      21    -1     0     0   501   502  0.000000000E+00  0.000000000E+00  8.662574400E+00  8.662574400E+00  0.000000000E+00  0.00000E+00  9.000E+00
      21    -1     0     0   511   503  0.000000000E+00  0.000000000E+00 -9.691761137E+02  9.691761137E+02  0.000000000E+00  0.00000E+00  9.000E+00
      25     1     1     2     0     0 -9.395061576E+00 -1.491800542E+01 -6.614567355E+02  6.733930166E+02  1.249893106E+02  0.00000E+00  9.000E+00
       5     1     1     2   501     0  3.278863318E-01 -1.484753739E+00 -5.492014877E-01  5.017581627E+00  4.750000000E+00  0.00000E+00  9.000E+00
      -5     1     1     2     0   503  4.966451377E+00  4.365873388E-01 -7.647369151E+01  7.678309867E+01  4.750000000E+00  0.00000E+00  9.000E+00
      21     1     1     2   511   502  4.100723867E+00  1.596617182E+01 -2.220339108E+02  2.226449913E+02  2.697398305E-06  0.00000E+00  9.000E+00
#rwgt            1           9   7.6332946259176837E-003           5      272715           0
</event>
<event>
      6   9999  3.45752E-01  4.40840E+01 -1.00000E+00  1.37780E-01
      21    -1     0     0   501   502  0.000000000E+00  0.000000000E+00  5.541712141E+01  5.541712141E+01  0.000000000E+00  0.00000E+00  9.000E+00
      21    -1     0     0   502   512  0.000000000E+00  0.000000000E+00 -7.891199510E+02  7.891199510E+02  0.000000000E+00  0.00000E+00  9.000E+00
      25     1     1     2     0     0  4.002907052E+01  1.982335520E+01 -8.393200605E+01  1.570491284E+02  1.249982208E+02  0.00000E+00  9.000E+00
       5     1     1     2   501     0  1.380325169E+00 -1.225787784E+01 -7.355681347E+00  1.512710861E+01  4.750000000E+00  0.00000E+00  9.000E+00
      -5     1     1     2     0   503 -8.462775680E-01 -2.482897752E+01  2.974170677E+00  2.546767563E+01  4.750000000E+00  0.00000E+00  9.000E+00
      21     1     1     2   503   512 -4.056311812E+01  1.726350016E+01 -6.453893128E+02  6.468931597E+02  0.000000000E+00  0.00000E+00  9.000E+00
#rwgt            1           9  0.33597525025370401                5      274099           0
</event>
<event>
      6   9999  3.45752E-01  1.41299E+01 -1.00000E+00  1.72652E-01
      21    -1     0     0   501   502  0.000000000E+00  0.000000000E+00  2.677252969E+03  2.677252969E+03  0.000000000E+00  0.00000E+00  9.000E+00
      21    -1     0     0   511   503  0.000000000E+00  0.000000000E+00 -2.764360068E+01  2.764360068E+01  0.000000000E+00  0.00000E+00  9.000E+00
      25     1     1     2     0     0  2.979053606E+01  5.245984738E+00  1.875229615E+03  1.879634918E+03  1.250052774E+02  0.00000E+00  9.000E+00
       5     1     1     2   501     0  1.026170699E+00  1.130870952E+00  3.707071775E+02  3.707407529E+02  4.750000000E+00  0.00000E+00  9.000E+00
      -5     1     1     2     0   503 -2.045425556E+01  3.229039433E+00  4.268486995E+02  4.273770912E+02  4.750000000E+00  0.00000E+00  9.000E+00
      21     1     1     2   511   502 -1.036245121E+01 -9.605895122E+00 -2.317612341E+01  2.714380799E+01  2.977847099E-06  0.00000E+00  9.000E+00
#rwgt            1           9   6.0534506432156414                5      274777           0
</event>
<event>
      6   9999  3.45752E-01  6.58939E+00 -1.00000E+00  2.08542E-01
      -1    -1     0     0     0   502  0.000000000E+00  0.000000000E+00  2.444142355E+02  2.444142355E+02  0.000000000E+00  0.00000E+00  9.000E+00
      21    -1     0     0   502   503  0.000000000E+00  0.000000000E+00 -8.270133087E+02  8.270133087E+02  0.000000000E+00  0.00000E+00  9.000E+00
      25     1     1     2     0     0  1.170495751E+01 -1.285346822E+01 -6.791849324E+02  6.908117551E+02  1.250059633E+02  0.00000E+00  9.000E+00
       5     1     1     2   501     0 -2.010245404E+00  1.024902304E+00  3.627410887E+00  6.388436511E+00  4.750000000E+00  0.00000E+00  9.000E+00
      -5     1     1     2     0   503 -1.171036881E+01  1.810210171E+01 -1.397211243E+02  1.414544941E+02  4.750000000E+00  0.00000E+00  9.000E+00
      -1     1     1     2     0   501  2.015656700E+00 -6.273535790E+00  2.326795726E+02  2.327728585E+02  3.814697266E-06  0.00000E+00  9.000E+00
#rwgt            1           9   8.4527931798483659E-004           5      276162           0
</event>
<event>
      6   9999  3.45752E-01  4.94560E+00 -1.00000E+00  2.30201E-01
      21    -1     0     0   501   502  0.000000000E+00  0.000000000E+00  8.870131240E+00  8.870131240E+00  0.000000000E+00  0.00000E+00  9.000E+00
       3    -1     0     0   502     0  0.000000000E+00  0.000000000E+00 -9.305466486E+02  9.305466486E+02  0.000000000E+00  0.00000E+00  9.000E+00
      25     1     1     2     0     0  2.235121496E+01 -9.172224089E+00 -5.879605179E+02  6.015866277E+02  1.250007740E+02  0.00000E+00  9.000E+00
       5     1     1     2   501     0  4.413946204E-01  4.197395285E-01 -2.788336388E+00  5.541509749E+00  4.750000000E+00  0.00000E+00  9.000E+00
      -5     1     1     2     0   503 -1.825425524E+01  6.787216271E+00 -1.549269290E+02  1.562184367E+02  4.750000000E+00  0.00000E+00  9.000E+00
       3     1     1     2   503     0 -4.538354340E+00  1.965268289E+00 -1.760007341E+02  1.760702057E+02  1.907348633E-06  0.00000E+00  9.000E+00
#rwgt            1           9   4.3370585784250460E-004           5      279840           0
</event>
<event>
      6   9999  3.45752E-01  2.61765E+01 -1.00000E+00  1.51773E-01
      21    -1     0     0   501   502  0.000000000E+00  0.000000000E+00  5.446462234E+01  5.446462234E+01  0.000000000E+00  0.00000E+00  9.000E+00
      21    -1     0     0   502   511  0.000000000E+00  0.000000000E+00 -1.546194562E+03  1.546194562E+03  0.000000000E+00  0.00000E+00  9.000E+00
      25     1     1     2     0     0 -8.303473087E+01 -9.084552516E+00 -1.617658676E+02  2.208380867E+02  1.249958759E+02  0.00000E+00  9.000E+00
       5     1     1     2   501     0 -2.657079717E+00  1.266320864E+00  2.253526863E+01  2.321776202E+01  4.750000000E+00  0.00000E+00  9.000E+00
      -5     1     1     2     0   503  6.755804529E+01  2.669620461E+01 -1.166728799E+03  1.168997617E+03  4.750000000E+00  0.00000E+00  9.000E+00
      21     1     1     2   503   511  1.813376529E+01 -1.887797296E+01 -1.857705425E+02  1.876057189E+02  0.000000000E+00  0.00000E+00  9.000E+00
#rwgt            1           9   2.8909359314311015E-005           5      283397           0
</event>
<event>
      6   9999  3.45752E-01  2.39254E+01 -1.00000E+00  1.54488E-01
      21    -1     0     0   501   502  0.000000000E+00  0.000000000E+00  6.513754180E+01  6.513754180E+01  0.000000000E+00  0.00000E+00  9.000E+00
      21    -1     0     0   512   503  0.000000000E+00  0.000000000E+00 -1.447361601E+03  1.447361601E+03  0.000000000E+00  0.00000E+00  9.000E+00
      25     1     1     2     0     0 -1.372301265E+02  9.557134845E+01 -7.203067010E+02  7.499549067E+02  1.249985134E+02  0.00000E+00  9.000E+00
       5     1     1     2   501     0 -4.705282668E+00  1.267826199E+01  3.774627045E+01  4.037600085E+01  4.750000000E+00  0.00000E+00  9.000E+00
      -5     1     1     2     0   503  1.210710471E+02 -9.654043517E+01 -6.106102199E+02  6.299568693E+02  4.750000000E+00  0.00000E+00  9.000E+00
      21     1     1     2   512   502  2.086436203E+01 -1.170917527E+01 -8.905340834E+01  9.221136549E+01  9.536743164E-07  0.00000E+00  9.000E+00
#rwgt            1           9   2.9344379145690441E-004           5      285569           0
</event>
<event>
      6   9999  3.45752E-01  4.33998E+01 -1.00000E+00  1.38162E-01
      21    -1     0     0   501   502  0.000000000E+00  0.000000000E+00  6.897384786E+02  6.897384786E+02  0.000000000E+00  0.00000E+00  9.000E+00
      21    -1     0     0   502   511  0.000000000E+00  0.000000000E+00 -3.950972193E+02  3.950972193E+02  0.000000000E+00  0.00000E+00  9.000E+00
      25     1     1     2     0     0  1.678067189E+01 -1.471704897E+01  3.062309351E+02  3.315107734E+02  1.249952990E+02  0.00000E+00  9.000E+00
       5     1     1     2   501     0  1.013827618E+00  6.991377730E+00  3.344690610E+02  3.345773789E+02  4.750000000E+00  0.00000E+00  9.000E+00
      -5     1     1     2     0   503 -7.120415689E+00  4.979234422E+01  1.684580389E+01  5.325712601E+01  4.750000000E+00  0.00000E+00  9.000E+00
      21     1     1     2   503   511 -1.067408382E+01 -4.206667298E+01 -3.629045408E+02  3.654904196E+02  0.000000000E+00  0.00000E+00  9.000E+00
#rwgt            1           9   5.1626325172180056                5      287900           0
</event>
<event>
      6   9999  3.45752E-01  1.51689E+01 -1.00000E+00  1.69951E-01
      21    -1     0     0   501   512  0.000000000E+00  0.000000000E+00  1.894838041E+02  1.894838041E+02  0.000000000E+00  0.00000E+00  9.000E+00
      21    -1     0     0   502   503  0.000000000E+00  0.000000000E+00 -7.006103979E+02  7.006103979E+02  0.000000000E+00  0.00000E+00  9.000E+00
      25     1     1     2     0     0 -2.567130639E+00 -1.072267846E+01 -6.088188419E+02  6.216190552E+02  1.250132052E+02  0.00000E+00  9.000E+00
       5     1     1     2   501     0  1.748356064E+00 -4.309368229E+00 -4.069119261E+01  4.123060829E+01  4.750000000E+00  0.00000E+00  9.000E+00
      -5     1     1     2     0   503  5.063890058E+00  4.692412608E-01 -4.384099073E+01  4.438984273E+01  4.750000000E+00  0.00000E+00  9.000E+00
      21     1     1     2   502   512 -4.245115483E+00  1.456280543E+01  1.822244316E+02  1.828546958E+02  3.814697266E-06  0.00000E+00  9.000E+00
#rwgt            1           9   9.3310088013067896E-006           5      289074           0
</event>
<event>
      6   9999  3.45752E-01  2.14692E+01 -1.00000E+00  1.57896E-01
      21    -1     0     0   511   502  0.000000000E+00  0.000000000E+00  2.124723519E+01  2.124723519E+01  0.000000000E+00  0.00000E+00  9.000E+00
      21    -1     0     0   502   503  0.000000000E+00  0.000000000E+00 -1.002947589E+03  1.002947589E+03  0.000000000E+00  0.00000E+00  9.000E+00
      25     1     1     2     0     0 -1.015459637E+01  8.090324564E+00 -7.945609054E+02  8.044379162E+02  1.249990383E+02  0.00000E+00  9.000E+00
       5     1     1     2   501     0  4.783486987E+00  6.808935312E+00  1.142163223E+01  1.490837116E+01  4.750000000E+00  0.00000E+00  9.000E+00
      -5     1     1     2     0   503  9.516725950E+00  6.165851603E+00 -1.618820578E+02  1.623482336E+02  4.750000000E+00  0.00000E+00  9.000E+00
      21     1     1     2   511   501 -4.145616566E+00 -2.106511148E+01 -3.667902303E+01  4.250030340E+01  8.259061849E-07  0.00000E+00  9.000E+00
#rwgt            1           9   7.8698180584581678E-003           5      290426           0
</event>
<event>
      6   9999  3.45752E-01  1.87814E+01 -1.00000E+00  1.62323E-01
      21    -1     0     0   512   502  0.000000000E+00  0.000000000E+00  2.552471285E+01  2.552471285E+01  0.000000000E+00  0.00000E+00  9.000E+00
      21    -1     0     0   502   503  0.000000000E+00  0.000000000E+00 -3.371911969E+02  3.371911969E+02  0.000000000E+00  0.00000E+00  9.000E+00
      25     1     1     2     0     0 -1.434849276E+01  8.838375576E+00 -2.565530230E+02  2.858817309E+02  1.249996571E+02  0.00000E+00  9.000E+00
       5     1     1     2   501     0  9.075408691E-02  8.712502360E-01 -6.248223208E-01  4.870340461E+00  4.750000000E+00  0.00000E+00  9.000E+00
      -5     1     1     2     0   503  1.098795207E+01  8.784962665E+00 -5.066655515E+01  5.279747125E+01  4.750000000E+00  0.00000E+00  9.000E+00
      21     1     1     2   512   501  3.269786603E+00 -1.849458848E+01 -3.822083517E+00  1.916636715E+01  4.359703910E-07  0.00000E+00  9.000E+00
#rwgt            1           9   6.1445101673416203E-004           5      292075           0
</event>
<event>
      6   9999  3.45752E-01  5.63175E+01 -1.00000E+00  1.32080E-01
      21    -1     0     0   501   502  0.000000000E+00  0.000000000E+00  7.563203719E+02  7.563203719E+02  0.000000000E+00  0.00000E+00  9.000E+00
      21    -1     0     0   511   503  0.000000000E+00  0.000000000E+00 -3.435122741E+03  3.435122741E+03  0.000000000E+00  0.00000E+00  9.000E+00
      25     1     1     2     0     0  3.526098341E+02  5.742436124E+02 -1.689280051E+02  7.058691893E+02  1.250008801E+02  0.00000E+00  9.000E+00
       5     1     1     2   501     0 -1.905306429E+01  3.778953610E+00  4.409364881E+02  4.413896790E+02  4.750000000E+00  0.00000E+00  9.000E+00
      -5     1     1     2     0   503 -3.000531767E+02 -6.232903172E+02 -2.741000699E+03  2.826947139E+03  4.750000000E+00  0.00000E+00  9.000E+00
      21     1     1     2   511   502 -3.350359317E+01  4.526775119E+01 -2.098101529E+02  2.172371062E+02  0.000000000E+00  0.00000E+00  9.000E+00
#rwgt            1           9   3.6233378444072951E-005           5      293242           0
</event>
<event>
      6   9999  3.45752E-01  6.11881E+00 -1.00000E+00  2.12879E-01
      21    -1     0     0   501   502  0.000000000E+00  0.000000000E+00  1.792982661E+03  1.792982661E+03  0.000000000E+00  0.00000E+00  9.000E+00
      21    -1     0     0   502   512  0.000000000E+00  0.000000000E+00 -7.045632759E+00  7.045632759E+00  0.000000000E+00  0.00000E+00  9.000E+00
      25     1     1     2     0     0  5.813424145E+00 -1.698938452E+01  1.309267098E+03  1.315343336E+03  1.250012956E+02  0.00000E+00  9.000E+00
       5     1     1     2   501     0  3.362100842E-01  7.576623866E-01  2.618488119E+02  2.618932032E+02  4.750000000E+00  0.00000E+00  9.000E+00
      -5     1     1     2     0   503 -8.376570287E+00  2.193089645E+01  2.153242287E+02  2.166522955E+02  4.750000000E+00  0.00000E+00  9.000E+00
      21     1     1     2   503   512  2.226936058E+00 -5.699174321E+00 -5.031103615E-01  6.139458623E+00  2.633124150E-07  0.00000E+00  9.000E+00
#rwgt            1           9   1.5559202624702258E-003           5      296019           0
</event>
<event>
      6   9999  3.45752E-01  1.87825E+01 -1.00000E+00  1.62321E-01
      21    -1     0     0   501   511  0.000000000E+00  0.000000000E+00  3.896205478E+03  3.896205478E+03  0.000000000E+00  0.00000E+00  9.000E+00
      21    -1     0     0   502   503  0.000000000E+00  0.000000000E+00 -1.515433666E+03  1.515433666E+03  0.000000000E+00  0.00000E+00  9.000E+00
      25     1     1     2     0     0  8.285708893E-01 -3.304339932E+01 -2.850534417E+02  3.130043186E+02  1.249947441E+02  0.00000E+00  9.000E+00
       5     1     1     2   501     0  2.147134399E+01  1.083224310E+01  8.432958846E+01  8.782026016E+01  4.750000000E+00  0.00000E+00  9.000E+00
      -5     1     1     2     0   503 -1.108874785E+01  3.728078536E+01 -1.214320198E+03  1.214952231E+03  4.750000000E+00  0.00000E+00  9.000E+00
      21     1     1     2   502   511 -1.121116704E+01 -1.506962914E+01  3.795815864E+03  3.795862334E+03  4.315837288E-05  0.00000E+00  9.000E+00
#rwgt            1           9   1.4190511032569230E-004           5      299329           0
</event>
<event>
      6   9999  3.45752E-01  1.10829E+01 -1.00000E+00  1.82610E-01
      21    -1     0     0   501   502  0.000000000E+00  0.000000000E+00  1.731619282E+01  1.731619282E+01  0.000000000E+00  0.00000E+00  9.000E+00
      21    -1     0     0   502   512  0.000000000E+00  0.000000000E+00 -1.295785311E+03  1.295785311E+03  0.000000000E+00  0.00000E+00  9.000E+00
      25     1     1     2     0     0  1.406869036E+01  3.852553295E+01 -7.142686455E+02  7.262831720E+02  1.250016135E+02  0.00000E+00  9.000E+00
       5     1     1     2   501     0 -1.956225042E+01 -1.136994814E+01 -3.337891151E+00  2.335939596E+01  4.750000000E+00  0.00000E+00  9.000E+00
      -5     1     1     2     0   503  1.655800260E+01 -2.651569380E+01 -2.050373512E+02  2.074611466E+02  4.750000000E+00  0.00000E+00  9.000E+00
      21     1     1     2   503   512 -1.106444254E+01 -6.398910023E-01 -3.558252307E+02  3.559977896E+02  3.814697266E-06  0.00000E+00  9.000E+00
#rwgt            1           9   1.0179669179755315E-002           5      302402           0
</event>
<event>
      6   9999  3.45752E-01  5.28831E+00 -1.00000E+00  2.21992E-01
      21    -1     0     0   501   502  0.000000000E+00  0.000000000E+00  3.268540896E+01  3.268540896E+01  0.000000000E+00  0.00000E+00  9.000E+00
      21    -1     0     0   502   511  0.000000000E+00  0.000000000E+00 -1.217830832E+03  1.217830832E+03  0.000000000E+00  0.00000E+00  9.000E+00
      25     1     1     2     0     0 -4.530948741E+00 -9.326621035E+01 -8.739753695E+02  8.877939944E+02  1.250044579E+02  0.00000E+00  9.000E+00
       5     1     1     2   501     0 -1.323147096E+00  1.644920385E+00  1.886353774E+01  1.956660515E+01  4.750000000E+00  0.00000E+00  9.000E+00
      -5     1     1     2     0   503  7.112425973E+00  8.648486714E+01 -2.890482706E+02  3.018305552E+02  4.750000000E+00  0.00000E+00  9.000E+00
      21     1     1     2   503   511 -1.258330137E+00  5.136422833E+00 -4.098532030E+01  4.132508577E+01  8.259061849E-07  0.00000E+00  9.000E+00
#rwgt            1           9   1.0264516980760155E-003           5      304899           0
</event>
<event>
      6   9999  3.45752E-01  2.25821E+01 -1.00000E+00  1.56287E-01
      21    -1     0     0   501   512  0.000000000E+00  0.000000000E+00  2.995596216E+01  2.995596216E+01  0.000000000E+00  0.00000E+00  9.000E+00
      21    -1     0     0   502   503  0.000000000E+00  0.000000000E+00 -1.056881676E+03  1.056881676E+03  0.000000000E+00  0.00000E+00  9.000E+00
      25     1     1     2     0     0 -1.795419121E+01  3.548919052E+01 -5.347373473E+02  5.505912460E+02  1.249994155E+02  0.00000E+00  9.000E+00
       5     1     1     2   501     0 -2.487512504E+00 -1.379242200E-01  1.087674219E+01  1.212735594E+01  4.750000000E+00  0.00000E+00  9.000E+00
      -5     1     1     2     0   503 -1.343894490E+00 -2.940645208E+01 -5.005047922E+02  5.013922167E+02  4.750000000E+00  0.00000E+00  9.000E+00
      21     1     1     2   502   512  2.178559821E+01 -5.944814226E+00 -2.560316516E+00  2.272681953E+01  2.546311541E-07  0.00000E+00  9.000E+00
#rwgt            1           9   5.2003311752099712E-002           5      310185           0
</event>
<event>
      6   9999  3.45752E-01  2.61734E+01 -1.00000E+00  1.51776E-01
      21    -1     0     0   501   511  0.000000000E+00  0.000000000E+00  9.552532450E+01  9.552532450E+01  0.000000000E+00  0.00000E+00  9.000E+00
      21    -1     0     0   502   503  0.000000000E+00  0.000000000E+00 -1.594351286E+03  1.594351286E+03  0.000000000E+00  0.00000E+00  9.000E+00
      25     1     1     2     0     0  2.129366063E+00  2.635934576E+01 -1.450524449E+03  1.456140047E+03  1.249932392E+02  0.00000E+00  9.000E+00
       5     1     1     2   501     0  2.367797000E+00 -1.804519237E+00  8.900904440E+01  8.918539812E+01  4.750000000E+00  0.00000E+00  9.000E+00
      -5     1     1     2     0   503  3.644998652E+00  3.199179275E-01 -9.222025933E+01  9.241497224E+01  4.750000000E+00  0.00000E+00  9.000E+00
      21     1     1     2   502   511 -8.142161715E+00 -2.487474445E+01 -4.509029775E+01  5.213619338E+01  8.259061849E-07  0.00000E+00  9.000E+00
#rwgt            1           9   1.2667086313435000E-004           5      311945           0
</event>
<event>
      6   9999  3.45752E-01  1.73875E+01 -1.00000E+00  1.64994E-01
      21    -1     0     0   512   502  0.000000000E+00  0.000000000E+00  5.100763332E+02  5.100763332E+02  0.000000000E+00  0.00000E+00  9.000E+00
      21    -1     0     0   502   503  0.000000000E+00  0.000000000E+00 -1.528685100E+03  1.528685100E+03  0.000000000E+00  0.00000E+00  9.000E+00
      25     1     1     2     0     0 -1.087268783E+01  1.635275683E+02 -6.396672364E+02  6.720547305E+02  1.249956260E+02  0.00000E+00  9.000E+00
       5     1     1     2   501     0  1.849019189E+01  1.472563175E+00  6.562905188E+01  6.836512700E+01  4.750000000E+00  0.00000E+00  9.000E+00
      -5     1     1     2     0   503  4.396682143E+00 -1.524309748E+02 -8.645971889E+02  8.779552349E+02  4.750000000E+00  0.00000E+00  9.000E+00
      21     1     1     2   512   501 -1.201418621E+01 -1.256915667E+01  4.200266072E+02  4.203863403E+02  0.000000000E+00  0.00000E+00  9.000E+00
#rwgt            1           9   4.1112210464610297E-004           5      314747           0
</event>
<event>
      6   9999  3.45752E-01  1.02918E+01 -1.00000E+00  1.85887E-01
      21    -1     0     0   511   502  0.000000000E+00  0.000000000E+00  1.841305378E+01  1.841305378E+01  0.000000000E+00  0.00000E+00  9.000E+00
      21    -1     0     0   502   503  0.000000000E+00  0.000000000E+00 -9.161677549E+02  9.161677549E+02  0.000000000E+00  0.00000E+00  9.000E+00
      25     1     1     2     0     0  1.532323297E+01  9.473961441E+00 -5.064296214E+02  5.219391366E+02  1.249997738E+02  0.00000E+00  9.000E+00
       5     1     1     2   501     0  2.982901085E-01 -3.050818665E+00  6.172727594E+00  8.370277024E+00  4.750000000E+00  0.00000E+00  9.000E+00
      -5     1     1     2     0   503 -2.163817928E+01 -1.477304609E+01 -3.914083495E+02  3.923130284E+02  4.750000000E+00  0.00000E+00  9.000E+00
      21     1     1     2   511   501  6.016656206E+00  8.349903317E+00 -6.089457836E+00  1.195836670E+01  2.795705652E-07  0.00000E+00  9.000E+00
#rwgt            1           9   6.0506336316704821E-003           5      318118           0
</event>
<event>
      6   9999 -3.45752E-01  3.52567E+00 -1.00000E+00  2.59771E-01
      21    -1     0     0   512   502  0.000000000E+00  0.000000000E+00  3.881188793E+02  3.881188793E+02  0.000000000E+00  0.00000E+00  9.000E+00
      21    -1     0     0   502   503  0.000000000E+00  0.000000000E+00 -4.058754546E+03  4.058754546E+03  0.000000000E+00  0.00000E+00  9.000E+00
      25     1     1     2     0     0  4.215095686E-01 -1.668277359E+00 -3.807051351E+03  3.809103301E+03  1.250000508E+02  0.00000E+00  9.000E+00
       5     1     1     2   501     0  2.568652932E+00  1.773434743E+00 -5.348320911E+00  7.804491350E+00  4.750000000E+00  0.00000E+00  9.000E+00
      -5     1     1     2     0   503  4.120078841E-01 -1.030130039E+00 -2.440683911E+02  2.441171296E+02  4.750000000E+00  0.00000E+00  9.000E+00
      21     1     1     2   512   501 -3.402170385E+00  9.249726552E-01  3.858323954E+02  3.858485036E+02  1.321449896E-05  0.00000E+00  9.000E+00
#rwgt            1           9  -1.7106554246746414E-002           5      320818           0
</event>
<event>
      6   9999 -3.45752E-01  5.76352E+00 -1.00000E+00  2.16520E-01
      21    -1     0     0   501   502  0.000000000E+00  0.000000000E+00  1.481260078E+01  1.481260078E+01  0.000000000E+00  0.00000E+00  9.000E+00
      21    -1     0     0   511   503  0.000000000E+00  0.000000000E+00 -8.050408183E+02  8.050408183E+02  0.000000000E+00  0.00000E+00  9.000E+00
      25     1     1     2     0     0 -1.704254572E+00  6.466295753E+00 -6.083793444E+02  6.211237496E+02  1.249982724E+02  0.00000E+00  9.000E+00
       5     1     1     2   501     0  1.931519744E+00 -2.774679321E-01  7.356452225E+00  8.971490752E+00  4.750000000E+00  0.00000E+00  9.000E+00
      -5     1     1     2     0   503 -2.024919406E+00 -7.128223316E-01 -3.006527603E+01  3.051379584E+01  4.750000000E+00  0.00000E+00  9.000E+00
      21     1     1     2   511   502  1.797654234E+00 -5.476005489E+00 -1.591400493E+02  1.592443829E+02  1.907348633E-06  0.00000E+00  9.000E+00
#rwgt            1           9  -1.6882856908519890                5      325711           0
</event>
<event>
      6   9999  3.45752E-01  1.36643E+01 -1.00000E+00  1.73958E-01
      21    -1     0     0   512   502  0.000000000E+00  0.000000000E+00  2.682610691E+03  2.682610691E+03  0.000000000E+00  0.00000E+00  9.000E+00
      21    -1     0     0   502   503  0.000000000E+00  0.000000000E+00 -2.573653025E+01  2.573653025E+01  0.000000000E+00  0.00000E+00  9.000E+00
      25     1     1     2     0     0  5.078802749E+01  2.732263634E+01  2.059557995E+02  2.477262574E+02  1.249982281E+02  0.00000E+00  9.000E+00
       5     1     1     2   501     0  1.026621547E+00  1.105915729E-01  2.031814557E+03  2.031820371E+03  4.750000000E+00  0.00000E+00  9.000E+00
      -5     1     1     2     0   503 -6.511635507E+01 -2.430650951E+01  2.620188570E+02  2.711224631E+02  4.750000000E+00  0.00000E+00  9.000E+00
      21     1     1     2   512   501  1.330170603E+01 -3.126718410E+00  1.570849474E+02  1.576781292E+02  2.697398305E-06  0.00000E+00  9.000E+00
#rwgt            1           9  0.82605762869531107                5      329200           0
</event>
<event>
      6   9999  3.45752E-01  1.51174E+01 -1.00000E+00  1.70079E-01
       2    -1     0     0   501     0  0.000000000E+00  0.000000000E+00  2.812890397E+02  2.812890397E+02  0.000000000E+00  0.00000E+00  9.000E+00
      21    -1     0     0   502   503  0.000000000E+00  0.000000000E+00 -2.978802357E+02  2.978802357E+02  0.000000000E+00  0.00000E+00  9.000E+00
      25     1     1     2     0     0 -1.308167992E+01  1.632582715E+00 -2.751632047E+02  3.025117653E+02  1.249991331E+02  0.00000E+00  9.000E+00
       5     1     1     2   501     0  3.977836313E+00 -1.268866740E+01  1.247063415E+02  1.255032254E+02  4.750000000E+00  0.00000E+00  9.000E+00
      -5     1     1     2     0   503  3.528741020E+00 -2.995703819E+00 -6.904935291E+00  9.574282528E+00  4.750000000E+00  0.00000E+00  9.000E+00
       2     1     1     2   502     0  5.575102583E+00  1.405178851E+01  1.407706024E+02  1.415800022E+02  1.907348633E-06  0.00000E+00  9.000E+00
#rwgt            1           9  0.34615419447074836                5      332278           0
</event>
<event>
      6   9999 -3.45752E-01  3.17519E+00 -1.00000E+00  2.70620E-01
      21    -1     0     0   502   503  0.000000000E+00  0.000000000E+00  1.244383028E+01  1.244383028E+01  0.000000000E+00  0.00000E+00  9.000E+00
      21    -1     0     0   501   511  0.000000000E+00  0.000000000E+00 -8.593220970E+02  8.593220970E+02  0.000000000E+00  0.00000E+00  9.000E+00
      25     1     1     2     0     0  6.726567672E+00  8.617625740E+00 -3.193762901E+02  3.431390982E+02  1.249948632E+02  0.00000E+00  9.000E+00
       5     1     1     2   501     0 -4.538105094E+00 -1.702225248E+00 -4.248587027E+02  4.249128990E+02  4.750000000E+00  0.00000E+00  9.000E+00
      -5     1     1     2     0   503 -3.144891496E+00 -9.943116312E+00 -8.701826427E+01  8.776956603E+01  4.750000000E+00  0.00000E+00  9.000E+00
      21     1     1     2   502   511  9.564289175E-01  3.027715821E+00 -1.562500956E+01  1.594436399E+01  0.000000000E+00  0.00000E+00  9.000E+00
#rwgt            1           9  -1.4663859964225180E-004           5      335365           0
</event>
<event>
      6   9999  3.45752E-01  8.78535E+00 -1.00000E+00  1.93319E-01
      21    -1     0     0   501   512  0.000000000E+00  0.000000000E+00  8.695809189E+02  8.695809189E+02  0.000000000E+00  0.00000E+00  9.000E+00
      21    -1     0     0   502   503  0.000000000E+00  0.000000000E+00 -9.654601337E+01  9.654601337E+01  0.000000000E+00  0.00000E+00  9.000E+00
      25     1     1     2     0     0  1.032188563E+01 -1.655293617E+01 -4.711911334E+01  1.350012309E+02  1.249983219E+02  0.00000E+00  9.000E+00
       5     1     1     2   501     0  5.567606241E-01  1.036068749E-01  5.648578348E+00  7.402003386E+00  4.750000000E+00  0.00000E+00  9.000E+00
      -5     1     1     2     0   503 -2.149791516E+00  1.744404834E+01  1.348889582E+01  2.265897696E+01  4.750000000E+00  0.00000E+00  9.000E+00
      21     1     1     2   502   512 -8.728854734E+00 -9.947190468E-01  8.010165447E+02  8.010647210E+02  1.525878906E-05  0.00000E+00  9.000E+00
#rwgt            1           9   8.0366282610856059E-004           5      341158           0
</event>
<event>
      6   9999  3.45752E-01  6.08935E+00 -1.00000E+00  2.13168E-01
      21    -1     0     0   501   502  0.000000000E+00  0.000000000E+00  2.378464504E+02  2.378464504E+02  0.000000000E+00  0.00000E+00  9.000E+00
      21    -1     0     0   502   511  0.000000000E+00  0.000000000E+00 -7.081854099E+02  7.081854099E+02  0.000000000E+00  0.00000E+00  9.000E+00
      25     1     1     2     0     0  7.014833553E+01 -1.164747341E+01 -4.617962196E+02  4.836670744E+02  1.249865504E+02  0.00000E+00  9.000E+00
       5     1     1     2   501     0 -5.236322187E+00  1.282490015E+01  2.163690922E+02  2.168641134E+02  4.750000000E+00  0.00000E+00  9.000E+00
      -5     1     1     2     0   503 -7.065666851E+01  8.422493351E-01 -1.125763405E+02  1.330002599E+02  4.750000000E+00  0.00000E+00  9.000E+00
      21     1     1     2   503   511  5.744655166E+00 -2.019676075E+00 -1.123354917E+02  1.125004126E+02  0.000000000E+00  0.00000E+00  9.000E+00
#rwgt            1           9   6.1265788532557691E-004           5      343524           0
</event>
<event>
      6   9999  3.45752E-01  7.60877E+00 -1.00000E+00  2.00629E-01
      21    -1     0     0   501   502  0.000000000E+00  0.000000000E+00  1.276021979E+01  1.276021979E+01  0.000000000E+00  0.00000E+00  9.000E+00
      21    -1     0     0   502   512  0.000000000E+00  0.000000000E+00 -2.086901510E+03  2.086901510E+03  0.000000000E+00  0.00000E+00  9.000E+00
      25     1     1     2     0     0 -3.343425029E+01 -3.032975177E+01 -4.140536598E+02  4.348569643E+02  1.249896127E+02  0.00000E+00  9.000E+00
       5     1     1     2   501     0 -2.019669693E-01 -8.366396240E-01 -3.034625934E+00  5.701948007E+00  4.750000000E+00  0.00000E+00  9.000E+00
      -5     1     1     2     0   503  3.429668869E+01  2.358634273E+01 -4.321021546E+02  4.341283370E+02  4.750000000E+00  0.00000E+00  9.000E+00
      21     1     1     2   503   512 -6.604714300E-01  7.580048664E+00 -1.224950850E+03  1.224974480E+03  2.157918644E-05  0.00000E+00  9.000E+00
#rwgt            1           9  0.17024540257377715                5      350130           0
</event>
<event>
      6   9999  3.45752E-01  4.22480E+00 -1.00000E+00  2.43036E-01
      21    -1     0     0   511   502  0.000000000E+00  0.000000000E+00  1.016769826E+02  1.016769826E+02  0.000000000E+00  0.00000E+00  9.000E+00
      21    -1     0     0   502   503  0.000000000E+00  0.000000000E+00 -2.179501527E+02  2.179501527E+02  0.000000000E+00  0.00000E+00  9.000E+00
      25     1     1     2     0     0 -2.363675365E-02 -1.124991377E+01 -1.909675912E+02  2.285158994E+02  1.249973370E+02  0.00000E+00  9.000E+00
       5     1     1     2   501     0 -1.666556428E+00 -1.785064899E+00  3.089111939E+01  3.134944377E+01  4.750000000E+00  0.00000E+00  9.000E+00
      -5     1     1     2     0   503 -2.474163619E-01  1.678925500E+01  1.795568657E+00  1.754214540E+01  4.750000000E+00  0.00000E+00  9.000E+00
      21     1     1     2   511   501  1.937609543E+00 -3.754276330E+00  4.200773309E+01  4.221964662E+01  1.066240300E-06  0.00000E+00  9.000E+00
#rwgt            1           9   1.9224527198410783E-003           5      353825           0
</event>
<event>
      6   9999 -3.45752E-01  1.15597E+01 -1.00000E+00  1.80798E-01
      21    -1     0     0   501   512  0.000000000E+00  0.000000000E+00  1.595052307E+02  1.595052307E+02  0.000000000E+00  0.00000E+00  9.000E+00
      21    -1     0     0   502   503  0.000000000E+00  0.000000000E+00 -2.923539643E+03  2.923539643E+03  0.000000000E+00  0.00000E+00  9.000E+00
      25     1     1     2     0     0 -2.237042998E+01 -3.425233664E+01 -1.459844575E+03  1.465757214E+03  1.249974755E+02  0.00000E+00  9.000E+00
       5     1     1     2   501     0  4.184804413E+00  2.116892126E+00  7.216739344E+00  9.830444904E+00  4.750000000E+00  0.00000E+00  9.000E+00
      -5     1     1     2     0   503  1.107322375E+01  4.124808411E+01 -1.458889363E+03  1.459522098E+03  4.750000000E+00  0.00000E+00  9.000E+00
      21     1     1     2   502   512  7.112401818E+00 -9.112639589E+00  1.474827860E+02  1.479351163E+02  8.740569487E-06  0.00000E+00  9.000E+00
#rwgt            1           9  -6.4782184359821765E-005           5      358810           0
</event>
<event>
      6   9999  3.45752E-01  1.48285E+01 -1.00000E+00  1.70805E-01
      21    -1     0     0   502   511  0.000000000E+00  0.000000000E+00  1.487682501E+02  1.487682501E+02  0.000000000E+00  0.00000E+00  9.000E+00
      21    -1     0     0   501   502  0.000000000E+00  0.000000000E+00 -8.141959135E+02  8.141959135E+02  0.000000000E+00  0.00000E+00  9.000E+00
      25     1     1     2     0     0  1.258163835E+00 -5.903266641E+00 -2.901495139E+02  3.159876505E+02  1.250000932E+02  0.00000E+00  9.000E+00
       5     1     1     2   501     0 -1.697409158E+01  3.565826412E+00 -4.882100550E+02  4.885411500E+02  4.750000000E+00  0.00000E+00  9.000E+00
      -5     1     1     2     0   503  1.291073867E+00 -1.098820997E+00 -2.206115370E+01  2.263031776E+01  4.750000000E+00  0.00000E+00  9.000E+00
      21     1     1     2   503   511  1.442485388E+01  3.436261226E+00  1.349930592E+02  1.358050453E+02  1.907348633E-06  0.00000E+00  9.000E+00
#rwgt            1           9   1.5549607013314861                5      362107           0
</event>
<event>
      6   9999  3.45752E-01  1.70194E+01 -1.00000E+00  1.65751E-01
      21    -1     0     0   512   502  0.000000000E+00  0.000000000E+00  2.518688020E+01  2.518688020E+01  0.000000000E+00  0.00000E+00  9.000E+00
      21    -1     0     0   502   503  0.000000000E+00  0.000000000E+00 -2.149963281E+03  2.149963281E+03  0.000000000E+00  0.00000E+00  9.000E+00
      25     1     1     2     0     0 -9.481564133E+01 -1.098224361E+02 -1.200877525E+03  1.216052320E+03  1.250017665E+02  0.00000E+00  9.000E+00
       5     1     1     2   501     0  1.464263096E+00 -3.265399198E-01  1.028116605E+01  1.142434112E+01  4.750000000E+00  0.00000E+00  9.000E+00
      -5     1     1     2     0   503  7.819677101E+01  1.178947192E+02 -8.595658071E+02  8.711428351E+02  4.750000000E+00  0.00000E+00  9.000E+00
      21     1     1     2   512   501  1.515460722E+01 -7.745743172E+00 -7.461423449E+01  7.653066474E+01  1.348699152E-06  0.00000E+00  9.000E+00
#rwgt            1           9   2.2440099487863700E-004           5      364954           0
</event>
<event>
      6   9999  3.45752E-01  9.00197E+00 -1.00000E+00  1.92135E-01
      21    -1     0     0   502   503  0.000000000E+00  0.000000000E+00  1.836167061E+02  1.836167061E+02  0.000000000E+00  0.00000E+00  9.000E+00
      21    -1     0     0   501   511  0.000000000E+00  0.000000000E+00 -1.919855595E+02  1.919855595E+02  0.000000000E+00  0.00000E+00  9.000E+00
      25     1     1     2     0     0  1.268252587E+02  2.466347146E+01  8.074655692E+01  1.970556600E+02  1.249719713E+02  0.00000E+00  9.000E+00
       5     1     1     2   501     0 -1.373435258E+02 -2.438952685E+01 -8.289468837E+01  1.623335608E+02  4.750000000E+00  0.00000E+00  9.000E+00
      -5     1     1     2     0   503  2.087906665E+00  2.882701473E+00 -3.013556271E+00  6.656826828E+00  4.750000000E+00  0.00000E+00  9.000E+00
      21     1     1     2   502   511  8.430360371E+00 -3.156646083E+00 -3.207165619E+00  9.556217965E+00  2.021291847E-07  0.00000E+00  9.000E+00
#rwgt            1           9   2.4373973970701592E-002           5      367724           0
</event>
<event>
      6   9999  3.45752E-01  1.15705E+01 -1.00000E+00  1.80758E-01
      21    -1     0     0   512   502  0.000000000E+00  0.000000000E+00  2.132572723E+01  2.132572723E+01  0.000000000E+00  0.00000E+00  9.000E+00
      21    -1     0     0   502   503  0.000000000E+00  0.000000000E+00 -9.338620593E+02  9.338620593E+02  0.000000000E+00  0.00000E+00  9.000E+00
      25     1     1     2     0     0 -7.875801120E+00  1.561372713E+01 -3.099683258E+02  3.346802186E+02  1.249986760E+02  0.00000E+00  9.000E+00
       5     1     1     2   501     0  2.630975278E-01 -8.899294593E-01  2.285316654E+00  5.352230092E+00  4.750000000E+00  0.00000E+00  9.000E+00
      -5     1     1     2     0   503  2.946835474E+00 -2.531186192E+01 -6.028567652E+02  6.034138017E+02  4.750000000E+00  0.00000E+00  9.000E+00
      21     1     1     2   512   501  4.665868118E+00  1.058806425E+01 -1.996557779E+00  1.174153622E+01  2.698715072E-07  0.00000E+00  9.000E+00
#rwgt            1           9   7.4637530542850006E-004           5      371487           0
</event>
<event>
      6   9999  3.45752E-01  5.15555E+00 -1.00000E+00  2.23665E-01
      21    -1     0     0   501   502  0.000000000E+00  0.000000000E+00  1.718718635E+01  1.718718635E+01  0.000000000E+00  0.00000E+00  9.000E+00
       2    -1     0     0   502     0  0.000000000E+00  0.000000000E+00 -2.302542408E+03  2.302542408E+03  0.000000000E+00  0.00000E+00  9.000E+00
      25     1     1     2     0     0 -5.861117893E+00 -2.402890882E+01 -3.265643007E+02  3.505434283E+02  1.249988459E+02  0.00000E+00  9.000E+00
       5     1     1     2   501     0  7.981815567E-01 -1.713104398E+00  3.495476870E+00  6.192953982E+00  4.750000000E+00  0.00000E+00  9.000E+00
      -5     1     1     2     0   503  1.013024286E+01  2.669182133E+01 -6.004917178E+02  6.011887730E+02  4.750000000E+00  0.00000E+00  9.000E+00
       2     1     1     2   503     0 -5.067306525E+00 -9.498081155E-01 -1.361794680E+03  1.361804439E+03  1.525878906E-05  0.00000E+00  9.000E+00
#rwgt            1           9   2.7370686807941990E-004           5      373821           0
</event>
<event>
      6   9999  3.45752E-01  4.25681E+00 -1.00000E+00  2.42386E-01
      21    -1     0     0   501   502  0.000000000E+00  0.000000000E+00  2.675347027E+01  2.675347027E+01  0.000000000E+00  0.00000E+00  9.000E+00
      21    -1     0     0   502   511  0.000000000E+00  0.000000000E+00 -2.664236381E+03  2.664236381E+03  0.000000000E+00  0.00000E+00  9.000E+00
      25     1     1     2     0     0  2.564713533E+01 -1.114472390E+02 -7.529578922E+02  7.717829242E+02  1.250001283E+02  0.00000E+00  9.000E+00
       5     1     1     2   501     0 -3.827146940E-01 -1.005025942E+00  6.310667844E+00  7.971422478E+00  4.750000000E+00  0.00000E+00  9.000E+00
      -5     1     1     2     0   503 -2.951597071E+01  1.122407390E+02 -3.205793450E+02  3.409733933E+02  4.750000000E+00  0.00000E+00  9.000E+00
      21     1     1     2   503   511  4.251550077E+00  2.115259245E-01 -1.570256341E+03  1.570262111E+03  0.000000000E+00  0.00000E+00  9.000E+00
#rwgt            1           9   2.1604973545725736E-004           5      378121           0
</event>
<event>
      6   9999  3.45752E-01  2.79237E+01 -1.00000E+00  1.49882E-01
      21    -1     0     0   501   502  0.000000000E+00  0.000000000E+00  5.628619280E+01  5.628619280E+01  0.000000000E+00  0.00000E+00  9.000E+00
      21    -1     0     0   512   503  0.000000000E+00  0.000000000E+00 -6.606121181E+02  6.606121181E+02  0.000000000E+00  0.00000E+00  9.000E+00
      25     1     1     2     0     0  4.854302484E+01  2.500835217E+01 -2.247182121E+02  2.628692577E+02  1.249805137E+02  0.00000E+00  9.000E+00
       5     1     1     2   501     0  3.555554625E+00  5.147465679E-01  3.239896330E+01  3.294180104E+01  4.750000000E+00  0.00000E+00  9.000E+00
      -5     1     1     2     0   503 -2.596604425E+01 -3.536287875E+01 -3.536646756E+02  3.564071182E+02  4.750000000E+00  0.00000E+00  9.000E+00
      21     1     1     2   512   502 -2.613253521E+01  9.839780015E+00 -5.834200084E+01  6.468013396E+01  0.000000000E+00  0.00000E+00  9.000E+00
#rwgt            1           9   2.5604920338093167E-004           5      384085           0
</event>
<event>
      6   9999  3.45752E-01  5.94669E+00 -1.00000E+00  2.14599E-01
      21    -1     0     0   511   502  0.000000000E+00  0.000000000E+00  1.855003785E+02  1.855003785E+02  0.000000000E+00  0.00000E+00  9.000E+00
      21    -1     0     0   502   503  0.000000000E+00  0.000000000E+00 -7.012908083E+02  7.012908083E+02  0.000000000E+00  0.00000E+00  9.000E+00
      25     1     1     2     0     0 -3.474706338E+00  4.116370543E+00 -5.983410829E+02  6.112824420E+02  1.250006171E+02  0.00000E+00  9.000E+00
       5     1     1     2   501     0 -3.486599567E+00 -2.250533071E+00 -4.791568205E+01  4.832904263E+01  4.750000000E+00  0.00000E+00  9.000E+00
      -5     1     1     2     0   503  2.012751816E+00 -5.163557516E+00 -4.803145366E+01  4.858288316E+01  4.750000000E+00  0.00000E+00  9.000E+00
      21     1     1     2   511   501  4.948554089E+00  3.297720043E+00  1.784977888E+02  1.785968190E+02  3.814697266E-06  0.00000E+00  9.000E+00
#rwgt            1           9   6.9217408911659934E-004           5      386086           0
</event>
<event>
      6   9999  3.45752E-01  2.06960E+01 -1.00000E+00  1.59085E-01
      21    -1     0     0   512   502  0.000000000E+00  0.000000000E+00  4.829795933E+01  4.829795933E+01  0.000000000E+00  0.00000E+00  9.000E+00
      21    -1     0     0   502   503  0.000000000E+00  0.000000000E+00 -7.972480613E+02  7.972480613E+02  0.000000000E+00  0.00000E+00  9.000E+00
      25     1     1     2     0     0  3.230547576E+01 -4.315203879E+01 -5.252775039E+02  5.426258569E+02  1.249824879E+02  0.00000E+00  9.000E+00
       5     1     1     2   501     0 -6.932964400E-02  3.960209641E+00 -3.464035023E+01  3.518812912E+01  4.750000000E+00  0.00000E+00  9.000E+00
      -5     1     1     2     0   503 -2.581126870E+01  1.951834590E+01 -2.243907723E+02  2.267619206E+02  4.750000000E+00  0.00000E+00  9.000E+00
      21     1     1     2   512   501 -6.424877408E+00  1.967348325E+01  3.535852445E+01  4.097011403E+01  1.784161275E-06  0.00000E+00  9.000E+00
#rwgt            1           9   2.7942355363933560E-004           5      389223           0
</event>
<event>
      6   9999  3.45752E-01  1.94375E+01 -1.00000E+00  1.61162E-01
      21    -1     0     0   501   502  0.000000000E+00  0.000000000E+00  7.351972336E+02  7.351972336E+02  0.000000000E+00  0.00000E+00  9.000E+00
      21    -1     0     0   511   503  0.000000000E+00  0.000000000E+00 -2.003448181E+02  2.003448181E+02  0.000000000E+00  0.00000E+00  9.000E+00
      25     1     1     2     0     0 -4.644606626E+01  3.364189015E+01 -4.021438429E+01  1.432892286E+02  1.250023699E+02  0.00000E+00  9.000E+00
       5     1     1     2   501     0 -9.378000841E+00 -5.195479090E+00  6.740852993E+02  6.741872834E+02  4.750000000E+00  0.00000E+00  9.000E+00
      -5     1     1     2     0   503  4.140408043E+01 -1.541264765E+01 -6.234208725E+01  7.655681502E+01  4.750000000E+00  0.00000E+00  9.000E+00
      21     1     1     2   511   502  1.441998667E+01 -1.303376341E+01 -3.667641225E+01  4.150872462E+01  4.768371582E-07  0.00000E+00  9.000E+00
#rwgt            1           9   4.1827616822711243E-003           5      390322           0
</event>
<event>
      6   9999  3.45752E-01  6.22322E+00 -1.00000E+00  2.11872E-01
      21    -1     0     0   501   502  0.000000000E+00  0.000000000E+00  1.583638803E+01  1.583638803E+01  0.000000000E+00  0.00000E+00  9.000E+00
      21    -1     0     0   512   503  0.000000000E+00  0.000000000E+00 -1.046143102E+03  1.046143102E+03  0.000000000E+00  0.00000E+00  9.000E+00
      25     1     1     2     0     0  1.813082525E+01 -2.334115747E+00 -3.438208645E+02  3.662896661E+02  1.249846300E+02  0.00000E+00  9.000E+00
       5     1     1     2   501     0  1.740707996E+00  5.695530308E-01  2.823899280E+00  5.821628821E+00  4.750000000E+00  0.00000E+00  9.000E+00
      -5     1     1     2     0   503 -1.931983191E+01  7.963277336E+00 -5.572376063E+02  5.576495154E+02  4.750000000E+00  0.00000E+00  9.000E+00
      21     1     1     2   512   502 -5.517013313E-01 -6.198714620E+00 -1.320721423E+02  1.322186795E+02  1.907348633E-06  0.00000E+00  9.000E+00
#rwgt            1           9   2.2808420812433694E-004           5      393173           0
</event>
<event>
      6   9999  3.45752E-01  4.16008E+00 -1.00000E+00  2.44375E-01
      21    -1     0     0   501   502  0.000000000E+00  0.000000000E+00  7.082435462E+01  7.082435462E+01  0.000000000E+00  0.00000E+00  9.000E+00
      21    -1     0     0   502   511  0.000000000E+00  0.000000000E+00 -3.659763821E+02  3.659763821E+02  0.000000000E+00  0.00000E+00  9.000E+00
      25     1     1     2     0     0  1.679010512E+01  1.109440830E+01 -8.217955902E+01  1.509660604E+02  1.250291084E+02  0.00000E+00  9.000E+00
       5     1     1     2   501     0  7.799338739E-01  3.922609134E-01  3.101960616E+01  3.139332145E+01  4.750000000E+00  0.00000E+00  9.000E+00
      -5     1     1     2     0   503 -2.006696263E+01 -8.159265781E+00 -1.841487799E+01  2.882580162E+01  4.750000000E+00  0.00000E+00  9.000E+00
      21     1     1     2   503   511  2.496923640E+00 -3.327403430E+00 -2.255771967E+02  2.256155533E+02  3.814697266E-06  0.00000E+00  9.000E+00
#rwgt            1           9   4.1821098089807354                5      397075           0
</event>
<event>
      6   9999  3.45752E-01  5.84519E+00 -1.00000E+00  2.15652E-01
      21    -1     0     0   501   502  0.000000000E+00  0.000000000E+00  4.936404564E+01  4.936404564E+01  0.000000000E+00  0.00000E+00  9.000E+00
      21    -1     0     0   502   512  0.000000000E+00  0.000000000E+00 -1.735731967E+03  1.735731967E+03  0.000000000E+00  0.00000E+00  9.000E+00
      25     1     1     2     0     0  2.901316914E+01  1.223190752E+01 -2.878389221E+02  3.153844506E+02  1.249988923E+02  0.00000E+00  9.000E+00
       5     1     1     2   501     0 -5.169383475E-01  7.561330426E+00  3.461595618E+01  3.575287212E+01  4.750000000E+00  0.00000E+00  9.000E+00
      -5     1     1     2     0   503 -3.102223258E+01 -2.506443573E+01 -1.047962042E+03  1.048731429E+03  4.750000000E+00  0.00000E+00  9.000E+00
      21     1     1     2   503   512  2.526001789E+00  5.271197780E+00 -3.851829133E+02  3.852272613E+02  0.000000000E+00  0.00000E+00  9.000E+00
#rwgt            1           9   2.8958870179143087E-002           5      401678           0
</event>
<event>
      6   9999  3.45752E-01  3.03667E+01 -1.00000E+00  1.47498E-01
      21    -1     0     0   501   502  0.000000000E+00  0.000000000E+00  1.652157621E+01  1.652157621E+01  0.000000000E+00  0.00000E+00  9.000E+00
      21    -1     0     0   502   511  0.000000000E+00  0.000000000E+00 -9.981810064E+02  9.981810064E+02  0.000000000E+00  0.00000E+00  9.000E+00
      25     1     1     2     0     0 -2.799615095E+01  1.640225433E+01 -8.054248827E+02  8.157126513E+02  1.250002776E+02  0.00000E+00  9.000E+00
       5     1     1     2   501     0 -5.215120706E+00 -3.651644668E-01  6.461798351E+00  9.573304915E+00  4.750000000E+00  0.00000E+00  9.000E+00
      -5     1     1     2     0   503  2.992059062E+00 -1.304816761E+01 -2.439636983E+01  2.823034638E+01  4.750000000E+00  0.00000E+00  9.000E+00
      21     1     1     2   503   511  3.021921259E+01 -2.988922250E+00 -1.582999759E+02  1.611862800E+02  2.697398305E-06  0.00000E+00  9.000E+00
#rwgt            1           9   2.3221254693847954E-004           5      407467           0
</event>
<event>
      6   9999  3.45752E-01  1.00296E+01 -1.00000E+00  1.87059E-01
      21    -1     0     0   501   502  0.000000000E+00  0.000000000E+00  1.188055120E+01  1.188055120E+01  0.000000000E+00  0.00000E+00  9.000E+00
      21    -1     0     0   502   512  0.000000000E+00  0.000000000E+00 -1.064534521E+03  1.064534521E+03  0.000000000E+00  0.00000E+00  9.000E+00
      25     1     1     2     0     0  5.659634465E+00 -2.036330004E+01 -6.481733185E+02  6.604541611E+02  1.249974107E+02  0.00000E+00  9.000E+00
       5     1     1     2   501     0  5.349694929E-01 -9.639802928E-01  3.963239813E+00  6.283726616E+00  4.750000000E+00  0.00000E+00  9.000E+00
      -5     1     1     2     0   503 -8.636679627E+00  1.159952066E+01 -1.081621543E+02  1.092279965E+02  4.750000000E+00  0.00000E+00  9.000E+00
      21     1     1     2   503   512  2.442075669E+00  9.727759673E+00 -3.002817372E+02  3.004491882E+02  0.000000000E+00  0.00000E+00  9.000E+00
#rwgt            1           9   1.9267096374846521E-004           5      408761           0
</event>
<event>
      6   9999  3.45752E-01  2.45346E+01 -1.00000E+00  1.53719E-01
      21    -1     0     0   511   502  0.000000000E+00  0.000000000E+00  4.161439309E+01  4.161439309E+01  0.000000000E+00  0.00000E+00  9.000E+00
      21    -1     0     0   502   503  0.000000000E+00  0.000000000E+00 -1.807381131E+03  1.807381131E+03  0.000000000E+00  0.00000E+00  9.000E+00
      25     1     1     2     0     0  9.258537623E+01 -1.154230741E+02 -9.092390339E+02  9.296416327E+02  1.249936261E+02  0.00000E+00  9.000E+00
       5     1     1     2   501     0 -1.469523428E+00  8.740670554E+00  1.662210570E+01  1.942719019E+01  4.750000000E+00  0.00000E+00  9.000E+00
      -5     1     1     2     0   503 -1.124538005E+02  1.187918100E+02 -8.518806242E+02  8.674563458E+02  4.750000000E+00  0.00000E+00  9.000E+00
      21     1     1     2   511   501  2.133794771E+01 -1.210940644E+01 -2.126918577E+01  3.247035571E+01  9.830249847E-07  0.00000E+00  9.000E+00
#rwgt            1           9   1.1239099306693683E-004           5      411233           0
</event>
<event>
      6   9999  3.45752E-01  5.50958E+00 -1.00000E+00  2.19350E-01
      21    -1     0     0   501   502  0.000000000E+00  0.000000000E+00  5.919413742E+01  5.919413742E+01  0.000000000E+00  0.00000E+00  9.000E+00
      21    -1     0     0   502   512  0.000000000E+00  0.000000000E+00 -1.728750244E+02  1.728750244E+02  0.000000000E+00  0.00000E+00  9.000E+00
      25     1     1     2     0     0 -4.023108064E+00  1.697301540E+01 -1.251650230E+02  1.777517625E+02  1.250005497E+02  0.00000E+00  9.000E+00
       5     1     1     2   501     0 -2.602687465E-01 -8.543240461E-01  2.083263256E+01  2.138594606E+01  4.750000000E+00  0.00000E+00  9.000E+00
      -5     1     1     2     0   503 -1.217023373E+00 -1.580085392E+01  5.226286150E+00  1.735006333E+01  4.750000000E+00  0.00000E+00  9.000E+00
      21     1     1     2   503   512  5.500400184E+00 -3.178374276E-01 -1.457478268E+01  1.558138996E+01  0.000000000E+00  0.00000E+00  9.000E+00
#rwgt            1           9   7.6001195577983212E-004           5      413184           0
</event>
<event>
      6   9999  3.45752E-01  1.10124E+01 -1.00000E+00  1.82887E-01
       1    -1     0     0   501     0  0.000000000E+00  0.000000000E+00  7.365019484E+02  7.365019484E+02  0.000000000E+00  0.00000E+00  9.000E+00
      21    -1     0     0   502   503  0.000000000E+00  0.000000000E+00 -1.800178157E+02  1.800178157E+02  0.000000000E+00  0.00000E+00  9.000E+00
      25     1     1     2     0     0 -1.279832746E+01  1.403685352E+01 -9.735847183E+01  1.595751124E+02  1.249988560E+02  0.00000E+00  9.000E+00
       5     1     1     2   501     0  1.873783743E+00 -9.360251855E-01  1.354529792E+01  1.450602649E+01  4.750000000E+00  0.00000E+00  9.000E+00
      -5     1     1     2     0   503  2.180547048E+01 -1.479743236E+01 -4.751368323E+01  5.453948241E+01  4.750000000E+00  0.00000E+00  9.000E+00
       1     1     1     2   502     0 -1.088092676E+01  1.696604027E+00  6.878109898E+02  6.878991429E+02  7.629394531E-06  0.00000E+00  9.000E+00
#rwgt            1           9   2.0603094569916665                5      417101           0
</event>
<event>
      6   9999  3.45752E-01  1.64948E+01 -1.00000E+00  1.66872E-01
      21    -1     0     0   501   511  0.000000000E+00  0.000000000E+00  6.642672073E+01  6.642672073E+01  0.000000000E+00  0.00000E+00  9.000E+00
      21    -1     0     0   502   503  0.000000000E+00  0.000000000E+00 -2.021190190E+03  2.021190190E+03  0.000000000E+00  0.00000E+00  9.000E+00
      25     1     1     2     0     0  1.026263425E+01 -2.408911187E+01 -1.741788128E+03  1.746464025E+03  1.250004015E+02  0.00000E+00  9.000E+00
       5     1     1     2   501     0  6.645741557E+00  1.187226824E+01 -8.425126372E+01  8.547487685E+01  4.750000000E+00  0.00000E+00  9.000E+00
      -5     1     1     2     0   503 -2.838373735E+00  2.082566595E+01 -1.905117550E+02  1.917265136E+02  4.750000000E+00  0.00000E+00  9.000E+00
      21     1     1     2   502   511 -1.407000208E+01 -8.608822325E+00  6.178767704E+01  6.395149580E+01  4.422005890E-06  0.00000E+00  9.000E+00
#rwgt            1           9   1.1707735478025465E-002           5      419389           0
</event>
<event>
      6   9999  3.45752E-01  1.29884E+01 -1.00000E+00  1.75975E-01
      21    -1     0     0   501   512  0.000000000E+00  0.000000000E+00  5.651493940E+01  5.651493940E+01  0.000000000E+00  0.00000E+00  9.000E+00
      21    -1     0     0   502   503  0.000000000E+00  0.000000000E+00 -4.156954370E+02  4.156954370E+02  0.000000000E+00  0.00000E+00  9.000E+00
      25     1     1     2     0     0  1.501623207E+00  1.512957129E+00 -3.352111765E+02  3.577644675E+02  1.249973497E+02  0.00000E+00  9.000E+00
       5     1     1     2   501     0  1.543273481E+00  9.314116631E+00 -4.740360953E+01  4.856747017E+01  4.750000000E+00  0.00000E+00  9.000E+00
      -5     1     1     2     0   503 -1.716119716E+00  2.093181262E+00 -1.990114787E+01  2.063842681E+01  4.750000000E+00  0.00000E+00  9.000E+00
      21     1     1     2   502   512 -1.328776972E+00 -1.292025502E+01  4.333543632E+01  4.524001193E+01  6.743495762E-07  0.00000E+00  9.000E+00
#rwgt            1           9   6.1290951900015130E-003           5      420956           0
</event>
<event>
      6   9999 -3.45752E-01  1.82292E+01 -1.00000E+00  1.63346E-01
      21    -1     0     0   501   502  0.000000000E+00  0.000000000E+00  3.022297769E+01  3.022297769E+01  0.000000000E+00  0.00000E+00  9.000E+00
      21    -1     0     0   502   511  0.000000000E+00  0.000000000E+00 -1.863160043E+03  1.863160043E+03  0.000000000E+00  0.00000E+00  9.000E+00
      25     1     1     2     0     0 -3.968726713E+01  5.367855775E+01 -9.750291942E+02  9.852733111E+02  1.250004052E+02  0.00000E+00  9.000E+00
       5     1     1     2   501     0  2.573464144E+00  1.194442137E+00  2.152955250E+01  2.222911471E+01  4.750000000E+00  0.00000E+00  9.000E+00
      -5     1     1     2     0   503  4.742425110E+01 -3.983970893E+01 -3.105908575E+02  3.167420168E+02  4.750000000E+00  0.00000E+00  9.000E+00
      21     1     1     2   503   511 -1.031044811E+01 -1.503329096E+01 -5.688465658E+02  5.691385777E+02  7.629394531E-06  0.00000E+00  9.000E+00
#rwgt            1           9 -0.28623742614254438                5      422958           0
</event>
<event>
      6   9999 -3.45752E-01  2.59641E+01 -1.00000E+00  1.52015E-01
      21    -1     0     0   501   512  0.000000000E+00  0.000000000E+00  4.087434270E+01  4.087434270E+01  0.000000000E+00  0.00000E+00  9.000E+00
      21    -1     0     0   502   503  0.000000000E+00  0.000000000E+00 -9.726947291E+02  9.726947291E+02  0.000000000E+00  0.00000E+00  9.000E+00
      25     1     1     2     0     0 -1.051370221E+02  1.455132703E+00 -6.419463473E+02  6.624024616E+02  1.250039895E+02  0.00000E+00  9.000E+00
       5     1     1     2   501     0 -2.733151455E-01 -8.637677572E+00 -3.225220535E+00  1.037539023E+01  4.750000000E+00  0.00000E+00  9.000E+00
      -5     1     1     2     0   503  8.117117766E+01 -2.123234852E+00 -3.005348380E+02  3.113471046E+02  4.750000000E+00  0.00000E+00  9.000E+00
      21     1     1     2   502   512  2.423915962E+01  9.305779721E+00  1.388601944E+01  2.944411540E+01  1.590450295E-06  0.00000E+00  9.000E+00
#rwgt            1           9  -8.2737838284621711E-004           5      425993           0
</event>
<event>
      6   9999  3.45752E-01  5.09770E+00 -1.00000E+00  2.24416E-01
      21    -1     0     0   501   511  0.000000000E+00  0.000000000E+00  7.431598893E+01  7.431598893E+01  0.000000000E+00  0.00000E+00  9.000E+00
      21    -1     0     0   502   503  0.000000000E+00  0.000000000E+00 -1.461093309E+03  1.461093309E+03  0.000000000E+00  0.00000E+00  9.000E+00
      25     1     1     2     0     0  1.145051974E+02 -5.005273319E+01 -4.666899177E+02  4.990416826E+02  1.250056212E+02  0.00000E+00  9.000E+00
       5     1     1     2   501     0  9.089122368E+00  7.844644585E+00  4.129646331E+01  4.326789775E+01  4.750000000E+00  0.00000E+00  9.000E+00
      -5     1     1     2     0   503 -1.219467976E+02  4.703221924E+01 -9.722973236E+02  9.810543813E+02  4.750000000E+00  0.00000E+00  9.000E+00
      21     1     1     2   502   511 -1.647522159E+00 -4.824130631E+00  1.091345786E+01  1.204533636E+01  6.637292341E-07  0.00000E+00  9.000E+00
#rwgt            1           9   6.2056354608584011E-003           5      427561           0
</event>
<event>
      6   9999  3.45752E-01  2.61515E+00 -1.00000E+00  2.93496E-01
      21    -1     0     0   501   502  0.000000000E+00  0.000000000E+00  2.089500589E+02  2.089500589E+02  0.000000000E+00  0.00000E+00  9.000E+00
      21    -1     0     0   512   503  0.000000000E+00  0.000000000E+00 -3.608533211E+01  3.608533211E+01  0.000000000E+00  0.00000E+00  9.000E+00
      25     1     1     2     0     0  3.074415067E-02 -2.478436523E+00  8.207316349E+01  1.495549969E+02  1.249981973E+02  0.00000E+00  9.000E+00
       5     1     1     2   501     0 -4.050191228E-01 -2.126392915E+00  8.108505153E+01  8.125289945E+01  4.750000000E+00  0.00000E+00  9.000E+00
      -5     1     1     2     0   503  1.727998502E+00  2.367318152E+00  1.014194101E+01  1.157633973E+01  4.750000000E+00  0.00000E+00  9.000E+00
      21     1     1     2   512   502 -1.353723530E+00  2.237511286E+00 -4.354292060E-01  2.651154983E+00  1.178040229E-08  0.00000E+00  9.000E+00
#rwgt            1           9   2.6355190809142198E-002           5      434548           0
</event>
<event>
      6   9999  3.45752E-01  1.12087E+01 -1.00000E+00  1.82121E-01
      21    -1     0     0   501   502  0.000000000E+00  0.000000000E+00  3.208277955E+02  3.208277955E+02  0.000000000E+00  0.00000E+00  9.000E+00
      21    -1     0     0   511   503  0.000000000E+00  0.000000000E+00 -2.151496975E+02  2.151496975E+02  0.000000000E+00  0.00000E+00  9.000E+00
      25     1     1     2     0     0 -1.500653246E+01  6.040543345E+00 -4.618451617E+01  1.342363783E+02  1.249988462E+02  0.00000E+00  9.000E+00
       5     1     1     2   501     0  3.904992695E+00  1.044067947E+00  2.758037799E+02  2.758742949E+02  4.750000000E+00  0.00000E+00  9.000E+00
      -5     1     1     2     0   503  1.854564987E+00 -7.499988392E-01 -8.929046945E+00  1.030981517E+01  4.750000000E+00  0.00000E+00  9.000E+00
      21     1     1     2   511   502  9.246974781E+00 -6.334612453E+00 -1.150121188E+02  1.155570047E+02  2.336015456E-06  0.00000E+00  9.000E+00
#rwgt            1           9  0.97064281246431250                5      440420           0
</event>
<event>
      6   9999  3.45752E-01  1.36228E+01 -1.00000E+00  1.74078E-01
      21    -1     0     0   501   512  0.000000000E+00  0.000000000E+00  5.211267760E+02  5.211267760E+02  0.000000000E+00  0.00000E+00  9.000E+00
      21    -1     0     0   502   503  0.000000000E+00  0.000000000E+00 -1.348304370E+01  1.348304370E+01  0.000000000E+00  0.00000E+00  9.000E+00
      25     1     1     2     0     0 -2.058623922E+01  7.013465441E+00  3.267122524E+02  3.504844752E+02  1.250019581E+02  0.00000E+00  9.000E+00
       5     1     1     2   501     0 -6.485371545E-01  2.244809669E-01  6.015218823E+01  6.034334463E+01  4.750000000E+00  0.00000E+00  9.000E+00
      -5     1     1     2     0   503  7.863413437E+00 -9.843073732E+00  5.819832340E+01  5.973547286E+01  4.750000000E+00  0.00000E+00  9.000E+00
      21     1     1     2   502   512  1.337136294E+01  2.605127324E+00  6.258096828E+01  6.404652704E+01  0.000000000E+00  0.00000E+00  9.000E+00
#rwgt            1           9   4.8740556864013941E-002           5      443540           0
</event>
<event>
      6   9999  3.45752E-01  8.40423E+00 -1.00000E+00  1.95514E-01
      21    -1     0     0   501   502  0.000000000E+00  0.000000000E+00  2.165479533E+01  2.165479533E+01  0.000000000E+00  0.00000E+00  9.000E+00
      21    -1     0     0   502   511  0.000000000E+00  0.000000000E+00 -9.789833507E+02  9.789833507E+02  0.000000000E+00  0.00000E+00  9.000E+00
      25     1     1     2     0     0  2.583369555E+01  4.456420914E+01 -5.554427262E+02  5.716600510E+02  1.250009730E+02  0.00000E+00  9.000E+00
       5     1     1     2   501     0  2.876617147E+00  5.722630531E+00  1.010685267E+01  1.287378721E+01  4.750000000E+00  0.00000E+00  9.000E+00
      -5     1     1     2     0   503 -2.616671816E+01 -4.227676570E+01 -3.518700946E+02  3.553971694E+02  4.750000000E+00  0.00000E+00  9.000E+00
      21     1     1     2   503   511 -2.543594530E+00 -8.010073970E+00 -6.012258721E+01  6.070713838E+01  0.000000000E+00  0.00000E+00  9.000E+00
#rwgt            1           9   5.1963009795717987E-003           5      445724           0
</event>
<event>
      6   9999  3.45752E-01  8.87859E+00 -1.00000E+00  1.92804E-01
      21    -1     0     0   512   503  0.000000000E+00  0.000000000E+00  1.419396882E+01  1.419396882E+01  0.000000000E+00  0.00000E+00  9.000E+00
      21    -1     0     0   501   502  0.000000000E+00  0.000000000E+00 -6.831908797E+02  6.831908797E+02  0.000000000E+00  0.00000E+00  9.000E+00
      25     1     1     2     0     0  3.624310012E+00  7.393293647E+00 -4.759421804E+02  4.921515135E+02  1.249974268E+02  0.00000E+00  9.000E+00
       5     1     1     2   501     0  5.117284380E-01  2.191623458E-01 -1.695399393E+02  1.696073802E+02  4.750000000E+00  0.00000E+00  9.000E+00
      -5     1     1     2     0   503  2.252976530E-01  1.211171504E-01 -2.597966138E+01  2.641156440E+01  4.750000000E+00  0.00000E+00  9.000E+00
      21     1     1     2   512   502 -4.361336103E+00 -7.733573143E+00  2.464870218E+00  9.214390449E+00  4.329037382E-07  0.00000E+00  9.000E+00
#rwgt            1           9   6.4744907640655403E-003           5      449125           0
</event>
<event>
      6   9999  3.45752E-01  6.88470E+00 -1.00000E+00  2.06062E-01
      21    -1     0     0   501   502  0.000000000E+00  0.000000000E+00  1.475396651E+01  1.475396651E+01  0.000000000E+00  0.00000E+00  9.000E+00
      21    -1     0     0   502   511  0.000000000E+00  0.000000000E+00 -9.703616435E+02  9.703616435E+02  0.000000000E+00  0.00000E+00  9.000E+00
      25     1     1     2     0     0  1.596585801E+01  6.773593173E+00 -8.403469423E+02  8.497692537E+02  1.249960435E+02  0.00000E+00  9.000E+00
       5     1     1     2   501     0 -1.389281713E+00 -6.874489669E-01  8.595122208E+00  9.941896978E+00  4.750000000E+00  0.00000E+00  9.000E+00
      -5     1     1     2     0   503 -8.488101212E+00 -2.872181793E+00 -3.997318931E+01  4.123973393E+01  4.750000000E+00  0.00000E+00  9.000E+00
      21     1     1     2   503   511 -6.088475083E+00 -3.213962414E+00 -8.388266757E+01  8.416472540E+01  0.000000000E+00  0.00000E+00  9.000E+00
#rwgt            1           9   5.0965318211102298E-003           5      451679           0
</event>
<event>
      6   9999  3.45752E-01  1.70676E+01 -1.00000E+00  1.65650E-01
      21    -1     0     0   501   502  0.000000000E+00  0.000000000E+00  9.666150228E+00  9.666150228E+00  0.000000000E+00  0.00000E+00  9.000E+00
      21    -1     0     0   502   512  0.000000000E+00  0.000000000E+00 -9.787268062E+02  9.787268062E+02  0.000000000E+00  0.00000E+00  9.000E+00
      25     1     1     2     0     0 -3.724357942E+00  5.368180442E+00 -6.407337204E+02  6.528457439E+02  1.250007063E+02  0.00000E+00  9.000E+00
       5     1     1     2   501     0  1.457512307E+00  3.456034907E+00 -5.966495172E-01  6.081694669E+00  4.750000000E+00  0.00000E+00  9.000E+00
      -5     1     1     2     0   503  7.944309654E+00  7.271396027E+00 -5.726210693E+01  5.845935892E+01  4.750000000E+00  0.00000E+00  9.000E+00
      21     1     1     2   503   512 -5.677464019E+00 -1.609561138E+01 -2.704681791E+02  2.710061590E+02  0.000000000E+00  0.00000E+00  9.000E+00
#rwgt            1           9   6.9345339382837618E-004           5      454907           0
</event>
<event>
      6   9999  3.45752E-01  3.71651E+01 -1.00000E+00  1.42063E-01
      21    -1     0     0   511   502  0.000000000E+00  0.000000000E+00  1.813782508E+03  1.813782508E+03  0.000000000E+00  0.00000E+00  9.000E+00
      21    -1     0     0   502   503  0.000000000E+00  0.000000000E+00 -9.507220399E+00  9.507220399E+00  0.000000000E+00  0.00000E+00  9.000E+00
      25     1     1     2     0     0  3.587224510E+01  3.082081256E+01  5.508999730E+02  5.669465519E+02  1.253031203E+02  0.00000E+00  9.000E+00
       5     1     1     2   501     0 -1.134981168E+01  4.451580528E+00  8.776342928E+02  8.777318207E+02  4.750000000E+00  0.00000E+00  9.000E+00
      -5     1     1     2     0   503  5.064584290E-01 -7.798816531E+00  6.055027288E+01  6.123704831E+01  4.750000000E+00  0.00000E+00  9.000E+00
      21     1     1     2   511   501 -2.502889184E+01 -2.747357655E+01  3.151907488E+02  3.173743073E+02  5.394796609E-06  0.00000E+00  9.000E+00
#rwgt            1           9   2.4966861578983628                5      456312           0
</event>
<event>
      6   9999  3.45752E-01  1.63619E+01 -1.00000E+00  1.67164E-01
      21    -1     0     0   501   502  0.000000000E+00  0.000000000E+00  1.114727491E+01  1.114727491E+01  0.000000000E+00  0.00000E+00  9.000E+00
      21    -1     0     0   502   512  0.000000000E+00  0.000000000E+00 -9.621407637E+02  9.621407637E+02  0.000000000E+00  0.00000E+00  9.000E+00
      25     1     1     2     0     0 -2.141116345E+01 -2.012729126E+00 -6.232949593E+02  6.360695978E+02  1.250017518E+02  0.00000E+00  9.000E+00
       5     1     1     2   501     0 -8.146625603E-01 -3.878080532E+00  1.026559599E+00  6.270526956E+00  4.750000000E+00  0.00000E+00  9.000E+00
      -5     1     1     2     0   503  1.854922371E+01 -1.005268111E+01 -1.661440723E+02  1.675456516E+02  4.750000000E+00  0.00000E+00  9.000E+00
      21     1     1     2   503   512  3.676602300E+00  1.594349076E+01 -1.625810168E+02  1.634022623E+02  1.907348633E-06  0.00000E+00  9.000E+00
#rwgt            1           9   1.3255693077128999E-004           5      458120           0
</event>
<event>
      6   9999  3.45752E-01  1.79106E+01 -1.00000E+00  1.63956E-01
      21    -1     0     0   501   502  0.000000000E+00  0.000000000E+00  3.665857948E+01  3.665857948E+01  0.000000000E+00  0.00000E+00  9.000E+00
      21    -1     0     0   502   511  0.000000000E+00  0.000000000E+00 -1.337877800E+03  1.337877800E+03  0.000000000E+00  0.00000E+00  9.000E+00
      25     1     1     2     0     0  8.837208235E+01 -6.985926079E+01 -4.178621645E+02  4.504719604E+02  1.250050292E+02  0.00000E+00  9.000E+00
       5     1     1     2   501     0  1.095914328E+00  4.235421072E-01  1.642128590E+01  1.713480513E+01  4.750000000E+00  0.00000E+00  9.000E+00
      -5     1     1     2     0   503 -7.368421478E+01  6.097044834E+01 -7.585798996E+02  7.645997552E+02  4.750000000E+00  0.00000E+00  9.000E+00
      21     1     1     2   503   511 -1.578378189E+01  8.465270347E+00 -1.411984419E+02  1.423298583E+02  0.000000000E+00  0.00000E+00  9.000E+00
#rwgt            1           9   1.4699832148215881E-004           5      460101           0
</event>
<event>
      6   9999  3.45752E-01  1.67402E+02 -1.00000E+00  1.11636E-01
      -2    -1     0     0     0   502  0.000000000E+00  0.000000000E+00  1.565416327E+02  1.565416327E+02  0.000000000E+00  0.00000E+00  9.000E+00
      21    -1     0     0   501   512  0.000000000E+00  0.000000000E+00 -1.253633932E+03  1.253633932E+03  0.000000000E+00  0.00000E+00  9.000E+00
      25     1     1     2     0     0 -4.789967894E+01 -2.656599477E+01 -1.009729361E+03  1.018911521E+03  1.250086916E+02  0.00000E+00  9.000E+00
       5     1     1     2   501     0 -1.144957825E+02  1.759793948E+01 -1.173144807E+02  1.649370231E+02  4.750000000E+00  0.00000E+00  9.000E+00
      -5     1     1     2     0   502 -4.900466293E+00  2.997679833E+00 -4.305647510E+01  4.369694728E+01  4.750000000E+00  0.00000E+00  9.000E+00
      -2     1     1     2     0   512  1.672959278E+02  5.970375458E+00  7.300801825E+01  1.826300730E+02  5.560829062E-06  0.00000E+00  9.000E+00
#rwgt            1           3   4.1257345908425109E-004           5      462493           0
</event>
<event>
      6   9999  3.45752E-01  2.44800E+01 -1.00000E+00  1.53787E-01
      21    -1     0     0   501   511  0.000000000E+00  0.000000000E+00  8.686952441E+01  8.686952441E+01  0.000000000E+00  0.00000E+00  9.000E+00
      21    -1     0     0   502   503  0.000000000E+00  0.000000000E+00 -1.537617089E+03  1.537617089E+03  0.000000000E+00  0.00000E+00  9.000E+00
      25     1     1     2     0     0  1.624973685E+02 -1.817928282E+02 -7.449316397E+02  7.937261482E+02  1.249960929E+02  0.00000E+00  9.000E+00
       5     1     1     2   501     0  9.706805371E+00 -4.287177395E+00  3.241435582E+01  3.443624433E+01  4.750000000E+00  0.00000E+00  9.000E+00
      -5     1     1     2     0   503 -1.488128719E+02  1.932991356E+02 -7.312300892E+02  7.708630439E+02  4.750000000E+00  0.00000E+00  9.000E+00
      21     1     1     2   502   511 -2.339130204E+01 -7.219129992E+00 -7.000191348E+00  2.546117688E+01  1.192092896E-07  0.00000E+00  9.000E+00
#rwgt            1           9   1.5920058677619409E-003           5      463147           0
</event>
<event>
      6   9999  3.45752E-01  1.31238E+01 -1.00000E+00  1.75559E-01
      21    -1     0     0   501   512  0.000000000E+00  0.000000000E+00  3.996550889E+01  3.996550889E+01  0.000000000E+00  0.00000E+00  9.000E+00
      21    -1     0     0   502   503  0.000000000E+00  0.000000000E+00 -1.464268413E+03  1.464268413E+03  0.000000000E+00  0.00000E+00  9.000E+00
      25     1     1     2     0     0 -4.415517045E+00  1.628080619E+01 -1.291818905E+03  1.297962499E+03  1.250040128E+02  0.00000E+00  9.000E+00
       5     1     1     2   501     0 -8.055047640E+00 -6.013889687E+00  3.405910101E+01  3.582785960E+01  4.750000000E+00  0.00000E+00  9.000E+00
      -5     1     1     2     0   503  3.379464928E+00 -8.019936205E-01 -1.456617591E+02  1.457805698E+02  4.750000000E+00  0.00000E+00  9.000E+00
      21     1     1     2   502   512  9.091099756E+00 -9.464922878E+00 -2.088134111E+01  2.466299386E+01  4.768371582E-07  0.00000E+00  9.000E+00
#rwgt            1           9   1.5733705661049532E-005           5      467428           0
</event>
<event>
      6   9999  3.45752E-01  1.25062E+01 -1.00000E+00  1.77512E-01
      21    -1     0     0   501   511  0.000000000E+00  0.000000000E+00  2.744613881E+03  2.744613881E+03  0.000000000E+00  0.00000E+00  9.000E+00
      21    -1     0     0   502   503  0.000000000E+00  0.000000000E+00 -7.200482378E+01  7.200482378E+01  0.000000000E+00  0.00000E+00  9.000E+00
      25     1     1     2     0     0  9.908813805E+00 -6.239463013E+00 -9.103104507E+00  1.258764959E+02  1.249996409E+02  0.00000E+00  9.000E+00
       5     1     1     2   501     0  4.052375138E-01 -2.590290807E-01  1.392687846E+00  4.973267834E+00  4.750000000E+00  0.00000E+00  9.000E+00
      -5     1     1     2     0   503 -5.747401998E-01 -1.346914065E+00 -4.310281373E-01  4.989267386E+00  4.750000000E+00  0.00000E+00  9.000E+00
      21     1     1     2   502   511 -9.739311119E+00  7.845406159E+00  2.680750502E+03  2.680779674E+03  3.051757812E-05  0.00000E+00  9.000E+00
#rwgt            1           9   9.6026824906606935E-005           5      470487           0
</event>
<event>
      6   9999  3.45752E-01  3.51984E+01 -1.00000E+00  1.43485E-01
      21    -1     0     0   501   502  0.000000000E+00  0.000000000E+00  8.977526176E+02  8.977526176E+02  0.000000000E+00  0.00000E+00  9.000E+00
      21    -1     0     0   502   512  0.000000000E+00  0.000000000E+00 -2.476327238E+02  2.476327238E+02  0.000000000E+00  0.00000E+00  9.000E+00
      25     1     1     2     0     0 -2.095453991E+02 -1.383327983E+02  1.054171618E+02  2.996387908E+02  1.250015584E+02  0.00000E+00  9.000E+00
       5     1     1     2   501     0  3.874993876E+00  1.227731026E+00  5.273340207E+02  5.273710788E+02  4.750000000E+00  0.00000E+00  9.000E+00
      -5     1     1     2     0   503  1.862083744E+02  1.664335211E+02  6.597951687E+01  2.583593133E+02  4.750000000E+00  0.00000E+00  9.000E+00
      21     1     1     2   503   512  1.946203083E+01 -2.932845380E+01 -4.861080559E+01  6.001615837E+01  9.536743164E-07  0.00000E+00  9.000E+00
#rwgt            1           9   4.2478470273385732E-004           5      473069           0
</event>
<event>
      6   9999  3.45752E-01  1.19180E+01 -1.00000E+00  1.79509E-01
      21    -1     0     0   501   511  0.000000000E+00  0.000000000E+00  3.030506036E+02  3.030506036E+02  0.000000000E+00  0.00000E+00  9.000E+00
      21    -1     0     0   502   503  0.000000000E+00  0.000000000E+00 -2.259994863E+02  2.259994863E+02  0.000000000E+00  0.00000E+00  9.000E+00
      25     1     1     2     0     0 -6.034626007E+01  2.548031981E+01  1.239508076E+02  1.878277618E+02  1.249981904E+02  0.00000E+00  9.000E+00
       5     1     1     2   501     0 -1.353614727E+00 -2.687266767E+00  1.097839041E+02  1.099278026E+02  4.750000000E+00  0.00000E+00  9.000E+00
      -5     1     1     2     0   503  5.940154120E+01 -1.109873328E+01 -1.881359508E+02  1.976598681E+02  4.750000000E+00  0.00000E+00  9.000E+00
      21     1     1     2   502   511  2.298333594E+00 -1.169431976E+01  3.145235641E+01  3.363465736E+01  3.371747881E-07  0.00000E+00  9.000E+00
#rwgt            1           9   5.5993530516822989E-004           5      475674           0
</event>
<event>
      6   9999 -3.45752E-01  5.54844E+01 -1.00000E+00  1.32413E-01
      21    -1     0     0   502   503  0.000000000E+00  0.000000000E+00  1.096000760E+01  1.096000760E+01  0.000000000E+00  0.00000E+00  9.000E+00
      21    -1     0     0   501   512  0.000000000E+00  0.000000000E+00 -1.436997907E+03  1.436997907E+03  0.000000000E+00  0.00000E+00  9.000E+00
      25     1     1     2     0     0  1.252914046E+01  1.543470975E+01 -9.926077102E+02  1.000645108E+03  1.250014248E+02  0.00000E+00  9.000E+00
       5     1     1     2   501     0  2.489412361E+00  9.778660407E-01 -8.898361827E+00  1.043536004E+01  4.750000000E+00  0.00000E+00  9.000E+00
      -5     1     1     2     0   503  3.449951875E+01  8.617003822E+00 -7.703531464E+01  8.497924306E+01  4.750000000E+00  0.00000E+00  9.000E+00
      21     1     1     2   502   512 -4.951807158E+01 -2.502957962E+01 -3.474965128E+02  3.518982036E+02  3.814697266E-06  0.00000E+00  9.000E+00
#rwgt            1           9  -1.8106104982782600E-002           5      479203           0
</event>
<event>
      6   9999  3.45752E-01  1.46114E+01 -1.00000E+00  1.71365E-01
      21    -1     0     0   501   502  0.000000000E+00  0.000000000E+00  7.409892779E+01  7.409892779E+01  0.000000000E+00  0.00000E+00  9.000E+00
      21    -1     0     0   511   503  0.000000000E+00  0.000000000E+00 -1.574365288E+03  1.574365288E+03  0.000000000E+00  0.00000E+00  9.000E+00
      25     1     1     2     0     0  1.019942649E+01 -1.198767810E+01 -1.244210422E+03  1.250572913E+03  1.250012154E+02  0.00000E+00  9.000E+00
       5     1     1     2   501     0 -5.092179148E+00  1.004254237E+01  6.946920337E+01  7.053591753E+01  4.750000000E+00  0.00000E+00  9.000E+00
      -5     1     1     2     0   503  9.397861968E+00  1.861274662E-01 -2.603311088E+02  2.605440523E+02  4.750000000E+00  0.00000E+00  9.000E+00
      21     1     1     2   511   502 -1.450510931E+01  1.759008268E+00 -6.519403300E+01  6.681133321E+01  1.348699152E-06  0.00000E+00  9.000E+00
#rwgt            1           9   6.2031508331178870E-005           5      479758           0
</event>
<event>
      6   9999  3.45752E-01  7.95068E+00 -1.00000E+00  1.98334E-01
      21    -1     0     0   512   502  0.000000000E+00  0.000000000E+00  3.084652601E+01  3.084652601E+01  0.000000000E+00  0.00000E+00  9.000E+00
      21    -1     0     0   502   503  0.000000000E+00  0.000000000E+00 -3.039595653E+02  3.039595653E+02  0.000000000E+00  0.00000E+00  9.000E+00
      25     1     1     2     0     0  8.357018374E+00  1.105972077E+01 -2.104696790E+02  2.451819612E+02  1.249982045E+02  0.00000E+00  9.000E+00
       5     1     1     2   501     0 -5.569611607E-01  1.186863282E+00  1.007157805E+01  1.121240539E+01  4.750000000E+00  0.00000E+00  9.000E+00
      -5     1     1     2     0   503 -1.535265743E+00 -7.351109778E+00 -6.911526020E+01  6.968412695E+01  4.750000000E+00  0.00000E+00  9.000E+00
      21     1     1     2   512   501 -6.264791470E+00 -4.895474274E+00 -3.599678084E+00  8.727597770E+00  4.214684851E-08  0.00000E+00  9.000E+00
#rwgt            1           9   1.8549790332755929E-003           5      482993           0
</event>
<event>
      6   9999  3.45752E-01  1.07899E+01 -1.00000E+00  1.83781E-01
      21    -1     0     0   511   502  0.000000000E+00  0.000000000E+00  1.336747973E+01  1.336747973E+01  0.000000000E+00  0.00000E+00  9.000E+00
      21    -1     0     0   502   503  0.000000000E+00  0.000000000E+00 -8.045256375E+02  8.045256375E+02  0.000000000E+00  0.00000E+00  9.000E+00
      25     1     1     2     0     0  1.467686304E+01  8.772963094E+00 -6.716510228E+02  6.833973391E+02  1.249978054E+02  0.00000E+00  9.000E+00
       5     1     1     2   501     0  1.172574602E+00 -5.218916123E-02  3.568396757E+00  6.055874035E+00  4.750000000E+00  0.00000E+00  9.000E+00
      -5     1     1     2     0   503 -5.225570127E+00 -1.060656905E+01 -1.128736528E+02  1.135906241E+02  4.750000000E+00  0.00000E+00  9.000E+00
      21     1     1     2   511   501 -1.062386752E+01  1.885795117E+00 -1.020187887E+01  1.484928000E+01  3.576278687E-07  0.00000E+00  9.000E+00
#rwgt            1           9   4.8761339870420804E-005           5      486052           0
</event>
<event>
      6   9999  3.45752E-01  7.68451E+00 -1.00000E+00  2.00107E-01
      21    -1     0     0   512   502  0.000000000E+00  0.000000000E+00  2.885663754E+01  2.885663754E+01  0.000000000E+00  0.00000E+00  9.000E+00
      21    -1     0     0   502   503  0.000000000E+00  0.000000000E+00 -1.130127748E+03  1.130127748E+03  0.000000000E+00  0.00000E+00  9.000E+00
      25     1     1     2     0     0  3.056822050E+01 -3.195727942E+01 -9.456352373E+02  9.548867188E+02  1.250078397E+02  0.00000E+00  9.000E+00
       5     1     1     2   501     0 -6.463859656E+00 -5.490124547E+00  1.863023030E+01  2.101358918E+01  4.750000000E+00  0.00000E+00  9.000E+00
      -5     1     1     2     0   503 -3.170470983E+01  3.631322415E+01 -1.516008725E+02  1.591515815E+02  4.750000000E+00  0.00000E+00  9.000E+00
      21     1     1     2   512   501  7.600348986E+00  1.134179821E+00 -2.266523138E+01  2.393249636E+01  3.371747881E-07  0.00000E+00  9.000E+00
#rwgt            1           9   2.5577128866455717E-004           5      488266           0
</event>
<event>
      6   9999  3.45752E-01  2.54843E+00 -1.00000E+00  2.96857E-01
      21    -1     0     0   501   502  0.000000000E+00  0.000000000E+00  1.219341784E+01  1.219341784E+01  0.000000000E+00  0.00000E+00  9.000E+00
      21    -1     0     0   511   503  0.000000000E+00  0.000000000E+00 -8.685580598E+02  8.685580598E+02  0.000000000E+00  0.00000E+00  9.000E+00
      25     1     1     2     0     0  1.812260439E+01  1.967983946E+01 -7.718500755E+02  7.823617157E+02  1.249863601E+02  0.00000E+00  9.000E+00
       5     1     1     2   501     0 -2.839511420E-01 -1.876481541E-01  1.461215652E+00  4.981314210E+00  4.750000000E+00  0.00000E+00  9.000E+00
      -5     1     1     2     0   503 -1.996604387E+01 -2.089529708E+01 -5.486220580E+01  6.219067834E+01  4.750000000E+00  0.00000E+00  9.000E+00
      21     1     1     2   511   502  2.127390628E+00  1.403105771E+00 -3.111357628E+01  3.121776939E+01  3.371747881E-07  0.00000E+00  9.000E+00
#rwgt            1           9   4.0170841914084499E-004           5      492828           0
</event>
<event>
      6   9999  3.45752E-01  9.91901E+00 -1.00000E+00  1.87566E-01
      21    -1     0     0   501   502  0.000000000E+00  0.000000000E+00  1.185522471E+01  1.185522471E+01  0.000000000E+00  0.00000E+00  9.000E+00
      21    -1     0     0   512   503  0.000000000E+00  0.000000000E+00 -8.951998018E+02  8.951998018E+02  0.000000000E+00  0.00000E+00  9.000E+00
      25     1     1     2     0     0  2.123523362E+01  9.730262283E+00 -7.418933563E+02  7.527128224E+02  1.250009107E+02  0.00000E+00  9.000E+00
       5     1     1     2   501     0  2.975783546E+00 -8.598341241E-01  3.602511916E+00  6.718273181E+00  4.750000000E+00  0.00000E+00  9.000E+00
      -5     1     1     2     0   503 -1.582295664E+01 -3.576352989E+00 -7.568181988E+01  7.754648037E+01  4.750000000E+00  0.00000E+00  9.000E+00
      21     1     1     2   512   502 -8.388060529E+00 -5.294075169E+00 -6.937191281E+01  7.007745057E+01  1.348699152E-06  0.00000E+00  9.000E+00
#rwgt            1           9   1.7440809950603612E-003           5      499245           0
</event>
<event>
      6   9999  3.45752E-01  8.79929E+00 -1.00000E+00  1.93242E-01
       2    -1     0     0   501     0  0.000000000E+00  0.000000000E+00  8.294962687E+01  8.294962687E+01  0.000000000E+00  0.00000E+00  9.000E+00
      21    -1     0     0   502   503  0.000000000E+00  0.000000000E+00 -9.506651506E+02  9.506651506E+02  0.000000000E+00  0.00000E+00  9.000E+00
      25     1     1     2     0     0 -4.563534598E+00  1.087207339E+00 -9.189303663E+02  9.274053896E+02  1.250029224E+02  0.00000E+00  9.000E+00
       5     1     1     2   501     0 -2.971123241E+00  4.683304456E+00  1.692296359E+01  1.843122651E+01  4.750000000E+00  0.00000E+00  9.000E+00
      -5     1     1     2     0   503 -8.729362384E-01 -3.174387843E+00 -2.610833855E+01  2.674035523E+01  4.750000000E+00  0.00000E+00  9.000E+00
       2     1     1     2   502     0  8.407594077E+00 -2.596123953E+00  6.040021756E+01  6.103780614E+01  9.536743164E-07  0.00000E+00  9.000E+00
#rwgt            1           9   6.4985414139620166E-004           5      501539           0
</event>
<event>
      6   9999  3.45752E-01  3.98426E+01 -1.00000E+00  1.40285E-01
      21    -1     0     0   501   511  0.000000000E+00  0.000000000E+00  1.116124009E+02  1.116124009E+02  0.000000000E+00  0.00000E+00  9.000E+00
      21    -1     0     0   502   503  0.000000000E+00  0.000000000E+00 -1.710813659E+03  1.710813659E+03  0.000000000E+00  0.00000E+00  9.000E+00
      25     1     1     2     0     0 -1.757977553E+01 -7.893610693E-01 -1.368358805E+03  1.374168516E+03  1.249944790E+02  0.00000E+00  9.000E+00
       5     1     1     2   501     0 -1.221363824E+00 -1.453652442E+01  9.733795676E+01  9.853954839E+01  4.750000000E+00  0.00000E+00  9.000E+00
      -5     1     1     2     0   503 -1.310470565E+01 -8.537188814E+00 -3.011004529E+02  3.015437981E+02  4.750000000E+00  0.00000E+00  9.000E+00
      21     1     1     2   502   511  3.190584501E+01  2.386307430E+01 -2.707995767E+01  4.817419816E+01  7.539457465E-07  0.00000E+00  9.000E+00
#rwgt            1           9   6.5337916577667201E-005           5      504816           0
</event>
<event>
      6   9999 -3.45752E-01  1.54568E+01 -1.00000E+00  1.69250E-01
      21    -1     0     0   512   502  0.000000000E+00  0.000000000E+00  5.070803782E+01  5.070803782E+01  0.000000000E+00  0.00000E+00  9.000E+00
      21    -1     0     0   502   503  0.000000000E+00  0.000000000E+00 -7.679756858E+02  7.679756858E+02  0.000000000E+00  0.00000E+00  9.000E+00
      25     1     1     2     0     0  1.310793246E+01 -6.286370051E+00 -7.149252164E+02  7.259164394E+02  1.250011023E+02  0.00000E+00  9.000E+00
       5     1     1     2   501     0  1.550099678E+00 -8.454727961E-02  1.626248167E+00  5.255201267E+00  4.750000000E+00  0.00000E+00  9.000E+00
      -5     1     1     2     0   503 -8.828439206E-01 -6.403475545E-01 -4.417187893E+01  4.443992402E+01  4.750000000E+00  0.00000E+00  9.000E+00
      21     1     1     2   512   501 -1.377518822E+01  7.011264885E+00  4.020319923E+01  4.307215892E+01  1.719260824E-06  0.00000E+00  9.000E+00
#rwgt            1           9  -8.2336589214497785E-004           5      506830           0
</event>
<event>
      6   9999 -3.45752E-01  1.96963E+01 -1.00000E+00  1.60719E-01
      21    -1     0     0   511   502  0.000000000E+00  0.000000000E+00  2.426510809E+02  2.426510809E+02  0.000000000E+00  0.00000E+00  9.000E+00
      21    -1     0     0   502   503  0.000000000E+00  0.000000000E+00 -1.127539298E+03  1.127539298E+03  0.000000000E+00  0.00000E+00  9.000E+00
      25     1     1     2     0     0 -1.538479698E+01  4.743747028E-01 -7.075188112E+02  7.186405671E+02  1.249979173E+02  0.00000E+00  9.000E+00
       5     1     1     2   501     0 -4.855595422E+00 -1.358641007E+01  1.907059661E+01  2.438067884E+01  4.750000000E+00  0.00000E+00  9.000E+00
      -5     1     1     2     0   503  8.708785346E+00 -2.855570704E+00 -4.112893389E+02  4.114188620E+02  4.750000000E+00  0.00000E+00  9.000E+00
      21     1     1     2   511   501  1.153160705E+01  1.596760607E+01  2.148493361E+02  2.157502714E+02  2.697398305E-06  0.00000E+00  9.000E+00
#rwgt            1           9  -2.7718768680544235E-004           5      508556           0
</event>
<event>
      6   9999  3.45752E-01  2.74310E+01 -1.00000E+00  1.50398E-01
      21    -1     0     0   512   502  0.000000000E+00  0.000000000E+00  2.691914019E+01  2.691914019E+01  0.000000000E+00  0.00000E+00  9.000E+00
      21    -1     0     0   502   503  0.000000000E+00  0.000000000E+00 -8.746889292E+02  8.746889292E+02  0.000000000E+00  0.00000E+00  9.000E+00
      25     1     1     2     0     0 -2.305244689E+01  7.340895735E+00 -6.973370836E+02  7.088648160E+02  1.250000608E+02  0.00000E+00  9.000E+00
       5     1     1     2   501     0 -4.946215986E+00  2.919556042E+00 -1.243886643E+00  7.556362487E+00  4.750000000E+00  0.00000E+00  9.000E+00
      -5     1     1     2     0   503  1.614272984E+00 -2.755362527E+00 -1.566537281E+02  1.567582563E+02  4.750000000E+00  0.00000E+00  9.000E+00
      21     1     1     2   512   501  2.638438989E+01 -7.505089250E+00  7.464909267E+00  2.842863460E+01  4.915124924E-07  0.00000E+00  9.000E+00
#rwgt            1           9   1.1873185587045985                5      510660           0
</event>
<event>
      6   9999  3.45752E-01  2.64706E+01 -1.00000E+00  1.51442E-01
      21    -1     0     0   511   502  0.000000000E+00  0.000000000E+00  1.419269869E+02  1.419269869E+02  0.000000000E+00  0.00000E+00  9.000E+00
      21    -1     0     0   502   503  0.000000000E+00  0.000000000E+00 -5.589375352E+01  5.589375352E+01  0.000000000E+00  0.00000E+00  9.000E+00
      25     1     1     2     0     0  2.295160823E+01  8.535867244E+00  3.425375322E+01  1.319251508E+02  1.250251513E+02  0.00000E+00  9.000E+00
       5     1     1     2   501     0  1.251840063E+00  1.156504988E+00  2.065997018E+00  5.453022191E+00  4.750000000E+00  0.00000E+00  9.000E+00
      -5     1     1     2     0   503 -3.272325681E-01  1.736549357E+00  1.248065314E+00  5.219468541E+00  4.750000000E+00  0.00000E+00  9.000E+00
      21     1     1     2   511   501 -2.387621573E+01 -1.142892159E+01  4.846541778E+01  5.522309885E+01  6.743495762E-07  0.00000E+00  9.000E+00
#rwgt            1           9  0.67451083801651890                5      512079           0
</event>
<event>
      6   9999  3.45752E-01  1.28790E+01 -1.00000E+00  1.76317E-01
      21    -1     0     0   501   502  0.000000000E+00  0.000000000E+00  5.749556282E+01  5.749556282E+01  0.000000000E+00  0.00000E+00  9.000E+00
      21    -1     0     0   502   512  0.000000000E+00  0.000000000E+00 -3.518196337E+02  3.518196337E+02  0.000000000E+00  0.00000E+00  9.000E+00
      25     1     1     2     0     0  6.352039042E+00 -2.228207712E+01 -6.995525890E+01  1.451081081E+02  1.250031417E+02  0.00000E+00  9.000E+00
       5     1     1     2   501     0  3.900329590E+00 -7.353614343E-01  1.700769081E+01  1.809909871E+01  4.750000000E+00  0.00000E+00  9.000E+00
      -5     1     1     2     0   503  5.548822864E-01  1.601233242E+01 -2.232359336E+02  2.238605531E+02  4.750000000E+00  0.00000E+00  9.000E+00
      21     1     1     2   503   512 -1.080725092E+01  7.005106137E+00 -1.814056919E+01  2.224743659E+01  3.371747881E-07  0.00000E+00  9.000E+00
#rwgt            1           9   3.6258005347295653E-002           5      513561           0
</event>
<event>
      6   9999  3.45752E-01  1.76318E+01 -1.00000E+00  1.64504E-01
      21    -1     0     0   511   502  0.000000000E+00  0.000000000E+00  1.099890952E+01  1.099890952E+01  0.000000000E+00  0.00000E+00  9.000E+00
      21    -1     0     0   502   503  0.000000000E+00  0.000000000E+00 -8.268796778E+02  8.268796778E+02  0.000000000E+00  0.00000E+00  9.000E+00
      25     1     1     2     0     0  1.797210175E+01 -3.509345330E+01 -6.851316667E+02  6.975562211E+02  1.249989361E+02  0.00000E+00  9.000E+00
       5     1     1     2   501     0 -1.694130156E+01  1.943038369E+01 -5.425701455E+01  6.025722892E+01  4.750000000E+00  0.00000E+00  9.000E+00
      -5     1     1     2     0   503  1.119161260E+00 -1.837150550E+00 -2.766407577E+01  2.815122080E+01  4.750000000E+00  0.00000E+00  9.000E+00
      21     1     1     2   511   501 -2.149961448E+00  1.750022016E+01 -4.882801124E+01  5.191391645E+01  1.168007728E-06  0.00000E+00  9.000E+00
#rwgt            1           9   5.2907913862814369E-003           5      516200           0
</event>
<event>
      6   9999  3.45752E-01  2.86435E+00 -1.00000E+00  2.82275E-01
      21    -1     0     0   501   502  0.000000000E+00  0.000000000E+00  3.810961152E+02  3.810961152E+02  0.000000000E+00  0.00000E+00  9.000E+00
      21    -1     0     0   512   503  0.000000000E+00  0.000000000E+00 -4.670582924E+02  4.670582924E+02  0.000000000E+00  0.00000E+00  9.000E+00
      25     1     1     2     0     0 -7.211915494E+01 -1.337196003E+01 -6.716499319E+00  1.450858772E+02  1.249992743E+02  0.00000E+00  9.000E+00
       5     1     1     2   501     0  5.578473635E+00 -8.820410634E+00  3.025959667E+02  3.028131446E+02  4.750000000E+00  0.00000E+00  9.000E+00
      -5     1     1     2     0   503  6.471446933E+01  2.439905494E+01 -1.214087204E+02  1.398067106E+02  4.750000000E+00  0.00000E+00  9.000E+00
      21     1     1     2   512   502  1.826211976E+00 -2.206684279E+00 -2.604329241E+02  2.604486753E+02  5.394796609E-06  0.00000E+00  9.000E+00
#rwgt            1           9   1.4993036214210669                5      517679           0
</event>
<event>
      6   9999  3.45752E-01  1.45598E+01 -1.00000E+00  1.71500E-01
      21    -1     0     0   501   502  0.000000000E+00  0.000000000E+00  5.303234558E+00  5.303234558E+00  0.000000000E+00  0.00000E+00  9.000E+00
      21    -1     0     0   511   503  0.000000000E+00  0.000000000E+00 -3.337802835E+03  3.337802835E+03  0.000000000E+00  0.00000E+00  9.000E+00
      25     1     1     2     0     0 -2.220677412E+01 -1.430880423E+01 -1.253828216E+03  1.260320507E+03  1.249988048E+02  0.00000E+00  9.000E+00
       5     1     1     2   501     0  1.602039623E+01  6.193085893E-01 -3.519865745E+01  3.896850812E+01  4.750000000E+00  0.00000E+00  9.000E+00
      -5     1     1     2     0   503 -1.650647238E-01  5.881060029E-01 -3.920241376E+01  3.949385850E+01  4.750000000E+00  0.00000E+00  9.000E+00
      21     1     1     2   511   502  6.351442608E+00  1.310138964E+01 -2.004270312E+03  2.004323195E+03  3.737624730E-05  0.00000E+00  9.000E+00
#rwgt            1           9   2.6301991258066062E-003           5      527082           0
</event>
<event>
      6   9999  3.45752E-01  1.47507E+01 -1.00000E+00  1.71005E-01
      21    -1     0     0   501   502  0.000000000E+00  0.000000000E+00  4.039624862E+02  4.039624862E+02  0.000000000E+00  0.00000E+00  9.000E+00
      21    -1     0     0   502   512  0.000000000E+00  0.000000000E+00 -4.782324457E+02  4.782324457E+02  0.000000000E+00  0.00000E+00  9.000E+00
      25     1     1     2     0     0 -7.069085986E+00  1.978498947E+01 -1.885267134E+02  2.271775890E+02  1.250036699E+02  0.00000E+00  9.000E+00
       5     1     1     2   501     0  1.069911534E+01 -2.126818442E+00  3.826935066E+02  3.828784101E+02  4.750000000E+00  0.00000E+00  9.000E+00
      -5     1     1     2     0   503 -1.838074869E+01 -1.765547686E+01 -1.098592001E+02  1.128768095E+02  4.750000000E+00  0.00000E+00  9.000E+00
      21     1     1     2   503   512  1.475071933E+01 -2.694174741E-03 -1.585775526E+02  1.592621233E+02  1.907348633E-06  0.00000E+00  9.000E+00
#rwgt            1           9   1.1326448636215209                5      529024           0
</event>
<event>
      6   9999  3.45752E-01  1.15169E+01 -1.00000E+00  1.80956E-01
      21    -1     0     0   501   502  0.000000000E+00  0.000000000E+00  8.606086188E+01  8.606086188E+01  0.000000000E+00  0.00000E+00  9.000E+00
      21    -1     0     0   502   511  0.000000000E+00  0.000000000E+00 -1.123310616E+02  1.123310616E+02  0.000000000E+00  0.00000E+00  9.000E+00
      25     1     1     2     0     0 -1.390395142E+01  1.397408023E+01 -3.688766344E+01  1.318071860E+02  1.249953590E+02  0.00000E+00  9.000E+00
       5     1     1     2   501     0 -3.473044434E-01 -5.583307518E-01  6.182027138E+00  7.823829825E+00  4.750000000E+00  0.00000E+00  9.000E+00
      -5     1     1     2     0   503  6.733952365E+00 -2.214099243E+01  2.549485382E+01  3.475801680E+01  4.750000000E+00  0.00000E+00  9.000E+00
      21     1     1     2   503   511  7.517303495E+00  8.725242948E+00 -2.105941720E+01  2.400289085E+01  2.384185791E-07  0.00000E+00  9.000E+00
#rwgt            1           9   2.7180786599545687E-004           5      533442           0
</event>
<event>
      6   9999  3.45752E-01  2.87758E+00 -1.00000E+00  2.81731E-01
      21    -1     0     0   512   502  0.000000000E+00  0.000000000E+00  9.842673624E+01  9.842673624E+01  0.000000000E+00  0.00000E+00  9.000E+00
      21    -1     0     0   502   503  0.000000000E+00  0.000000000E+00 -7.517267829E+02  7.517267829E+02  0.000000000E+00  0.00000E+00  9.000E+00
      25     1     1     2     0     0  3.564062531E-02 -5.198050294E+00 -5.314929752E+02  5.460222403E+02  1.250139322E+02  0.00000E+00  9.000E+00
       5     1     1     2   501     0 -3.986305264E-01 -7.392744113E-01 -3.019126265E+00  5.690611246E+00  4.750000000E+00  0.00000E+00  9.000E+00
      -5     1     1     2     0   503 -3.480582775E-01  3.148982730E+00 -2.085521793E+02  2.086303219E+02  4.750000000E+00  0.00000E+00  9.000E+00
      21     1     1     2   512   501  7.110481786E-01  2.788341976E+00  8.976423416E+01  8.981034559E+01  2.523185073E-06  0.00000E+00  9.000E+00
#rwgt            1           9   5.8307344773471595E-005           5      535913           0
</event>
<event>
      6   9999  3.45752E-01  1.17406E+01 -1.00000E+00  1.80140E-01
      21    -1     0     0   501   502  0.000000000E+00  0.000000000E+00  1.003069876E+02  1.003069876E+02  0.000000000E+00  0.00000E+00  9.000E+00
      21    -1     0     0   502   511  0.000000000E+00  0.000000000E+00 -1.938535181E+02  1.938535181E+02  0.000000000E+00  0.00000E+00  9.000E+00
      25     1     1     2     0     0  2.406495508E+00  1.399827948E+01  1.121281740E+01  1.263042370E+02  1.250011599E+02  0.00000E+00  9.000E+00
       5     1     1     2   501     0 -5.998430381E-03 -1.372661692E+00  2.943468058E+01  2.984706278E+01  4.750000000E+00  0.00000E+00  9.000E+00
      -5     1     1     2     0   503  8.335731200E+00 -1.737688532E+01 -7.044748316E+01  7.319051128E+01  4.750000000E+00  0.00000E+00  9.000E+00
      21     1     1     2   503   511 -1.073622828E+01  4.751267540E+00 -6.374654527E+01  6.481869464E+01  9.536743164E-07  0.00000E+00  9.000E+00
#rwgt            1           9   7.9007841809060619E-003           5      542192           0
</event>
<event>
      6   9999  3.45752E-01  1.35364E+01 -1.00000E+00  1.74328E-01
      21    -1     0     0   501   502  0.000000000E+00  0.000000000E+00  1.365871611E+01  1.365871611E+01  0.000000000E+00  0.00000E+00  9.000E+00
      21    -1     0     0   502   512  0.000000000E+00  0.000000000E+00 -1.130902603E+03  1.130902603E+03  0.000000000E+00  0.00000E+00  9.000E+00
      25     1     1     2     0     0 -3.548086850E+00  7.997040226E+00 -9.546050708E+02  9.628909547E+02  1.257442155E+02  0.00000E+00  9.000E+00
       5     1     1     2   501     0 -6.275345829E+00 -1.482524220E+00  7.063714259E+00  1.067878282E+01  4.750000000E+00  0.00000E+00  9.000E+00
      -5     1     1     2     0   503 -2.628850231E+00 -1.206507826E+00 -2.287273239E+01  2.353913553E+01  4.750000000E+00  0.00000E+00  9.000E+00
      21     1     1     2   503   512  1.245228291E+01 -5.308008180E+00 -1.468297979E+02  1.474524461E+02  3.303624740E-06  0.00000E+00  9.000E+00
#rwgt            1           9   1.3006359416142964E-004           5      544514           0
</event>
<event>
      6   9999  3.45752E-01  1.97651E+01 -1.00000E+00  1.60603E-01
      21    -1     0     0   501   511  0.000000000E+00  0.000000000E+00  1.543263392E+02  1.543263392E+02  0.000000000E+00  0.00000E+00  9.000E+00
      21    -1     0     0   502   503  0.000000000E+00  0.000000000E+00 -5.054480399E+01  5.054480399E+01  0.000000000E+00  0.00000E+00  9.000E+00
      25     1     1     2     0     0  8.792279239E+00  1.158050883E+01  3.954117277E+01  1.319081119E+02  1.249993332E+02  0.00000E+00  9.000E+00
       5     1     1     2   501     0  3.476925871E-01  1.729464133E+00  1.417443984E+01  1.505287949E+01  4.750000000E+00  0.00000E+00  9.000E+00
      -5     1     1     2     0   503 -5.228093953E+00  6.064162882E+00  1.485686004E+01  1.753270738E+01  4.750000000E+00  0.00000E+00  9.000E+00
      21     1     1     2   502   511 -3.911877872E+00 -1.937413584E+01  3.520906253E+01  4.037744435E+01  4.768371582E-07  0.00000E+00  9.000E+00
#rwgt            1           9   9.0733699589944040E-005           5      547004           0
</event>
<event>
      6   9999  3.45752E-01  9.77369E+00 -1.00000E+00  1.88247E-01
      21    -1     0     0   501   502  0.000000000E+00  0.000000000E+00  4.772922159E+01  4.772922159E+01  0.000000000E+00  0.00000E+00  9.000E+00
      21    -1     0     0   502   512  0.000000000E+00  0.000000000E+00 -3.965079359E+03  3.965079359E+03  0.000000000E+00  0.00000E+00  9.000E+00
      25     1     1     2     0     0 -8.219001874E+00  1.775724022E+02 -1.317205178E+03  1.335011966E+03  1.250118329E+02  0.00000E+00  9.000E+00
       5     1     1     2   501     0 -1.630712026E+01  7.257707886E+00  3.158892430E+01  3.659261037E+01  4.750000000E+00  0.00000E+00  9.000E+00
      -5     1     1     2     0   503  1.541669333E+01 -1.812884683E+02 -1.754364887E+03  1.763780571E+03  4.750000000E+00  0.00000E+00  9.000E+00
      21     1     1     2   503   512  9.109428805E+00 -3.541641762E+00 -8.773689960E+02  8.774234326E+02  0.000000000E+00  0.00000E+00  9.000E+00
#rwgt            1           9   4.3019125596208008E-003           5      548784           0
</event>
<event>
      6   9999  3.45752E-01  1.65928E+01 -1.00000E+00  1.66659E-01
      21    -1     0     0   501   502  0.000000000E+00  0.000000000E+00  1.144673880E+01  1.144673880E+01  0.000000000E+00  0.00000E+00  9.000E+00
      21    -1     0     0   511   503  0.000000000E+00  0.000000000E+00 -1.244223346E+03  1.244223346E+03  0.000000000E+00  0.00000E+00  9.000E+00
      25     1     1     2     0     0  1.205537249E+01 -7.103316649E+00 -6.274829675E+02  6.399639673E+02  1.249928630E+02  0.00000E+00  9.000E+00
       5     1     1     2   501     0 -7.293130835E-01 -1.078986391E+00  2.993491741E+00  5.763644854E+00  4.750000000E+00  0.00000E+00  9.000E+00
      -5     1     1     2     0   503 -2.101187037E+01 -5.290104356E+00 -1.841940520E+02  1.855249180E+02  4.750000000E+00  0.00000E+00  9.000E+00
      21     1     1     2   511   502  9.685810957E+00  1.347240740E+01 -4.240930792E+02  4.244175544E+02  0.000000000E+00  0.00000E+00  9.000E+00
#rwgt            1           9   6.1155702084987634E-005           5      553389           0
</event>
<event>
      6   9999  3.45752E-01  4.41093E+00 -1.00000E+00  2.39376E-01
      21    -1     0     0   501   512  0.000000000E+00  0.000000000E+00  2.006080916E+01  2.006080916E+01  0.000000000E+00  0.00000E+00  9.000E+00
      21    -1     0     0   502   503  0.000000000E+00  0.000000000E+00 -1.217588073E+03  1.217588073E+03  0.000000000E+00  0.00000E+00  9.000E+00
      25     1     1     2     0     0  1.130786228E+00 -1.728657645E+00 -1.158719280E+03  1.165444066E+03  1.250009409E+02  0.00000E+00  9.000E+00
       5     1     1     2   501     0  2.409885182E-01 -1.066307199E+00 -2.139292816E+01  2.194117048E+01  4.750000000E+00  0.00000E+00  9.000E+00
      -5     1     1     2     0   503  1.381594677E+00 -6.510827924E-01 -3.335425112E+01  3.372538036E+01  4.750000000E+00  0.00000E+00  9.000E+00
      21     1     1     2   502   512 -2.753369423E+00  3.446047636E+00  1.593919493E+01  1.653826540E+01  1.869724648E-06  0.00000E+00  9.000E+00
#rwgt            1           9   6.0859850081815542E-005           5      555018           0
</event>
<event>
      6   9999  3.45752E-01  7.20051E+00 -1.00000E+00  2.03588E-01
      21    -1     0     0   501   502  0.000000000E+00  0.000000000E+00  1.086021181E+01  1.086021181E+01  0.000000000E+00  0.00000E+00  9.000E+00
      21    -1     0     0   502   511  0.000000000E+00  0.000000000E+00 -1.561805410E+03  1.561805410E+03  0.000000000E+00  0.00000E+00  9.000E+00
      25     1     1     2     0     0 -8.945355344E+00 -3.660438111E+00 -1.377387476E+03  1.383082074E+03  1.250053801E+02  0.00000E+00  9.000E+00
       5     1     1     2   501     0  3.759369719E+00  5.962826892E+00  5.095834542E+00  9.910509316E+00  4.750000000E+00  0.00000E+00  9.000E+00
      -5     1     1     2     0   503  8.782442866E+00  3.935623863E+00 -7.427006915E+01  7.504149592E+01  4.750000000E+00  0.00000E+00  9.000E+00
      21     1     1     2   503   511 -3.596457240E+00 -6.238012644E+00 -1.043834876E+02  1.046315430E+02  0.000000000E+00  0.00000E+00  9.000E+00
#rwgt            1           9  0.13204231874813405                5      558678           0
</event>
<event>
      6   9999  3.45752E-01  1.01687E+01 -1.00000E+00  1.86432E-01
      21    -1     0     0   501   502  0.000000000E+00  0.000000000E+00  1.037230281E+03  1.037230281E+03  0.000000000E+00  0.00000E+00  9.000E+00
      21    -1     0     0   502   512  0.000000000E+00  0.000000000E+00 -9.290539486E+02  9.290539486E+02  0.000000000E+00  0.00000E+00  9.000E+00
      25     1     1     2     0     0  2.924225061E+01  6.048691314E+00  3.279740149E+02  3.522529463E+02  1.249939514E+02  0.00000E+00  9.000E+00
       5     1     1     2   501     0  4.116923430E-01  6.783156816E+00  6.921373558E+02  6.921870141E+02  4.750000000E+00  0.00000E+00  9.000E+00
      -5     1     1     2     0   503 -2.366061297E+01 -4.617048951E+00 -2.571665921E+01  3.556755275E+01  4.750000000E+00  0.00000E+00  9.000E+00
      21     1     1     2   503   512 -5.993329982E+00 -8.214799180E+00 -8.862183790E+02  8.862767165E+02  1.078959322E-05  0.00000E+00  9.000E+00
#rwgt            1           9   2.6963936380870700E-002           5      562045           0
</event>
<event>
      6   9999 -3.45752E-01  4.89744E+00 -1.00000E+00  2.30957E-01
      21    -1     0     0   501   511  0.000000000E+00  0.000000000E+00  7.333933456E+01  7.333933456E+01  0.000000000E+00  0.00000E+00  9.000E+00
      21    -1     0     0   502   503  0.000000000E+00  0.000000000E+00 -1.065581895E+03  1.065581895E+03  0.000000000E+00  0.00000E+00  9.000E+00
      25     1     1     2     0     0 -5.008518887E-01  3.499313040E-01 -1.014317772E+03  1.021991046E+03  1.249991311E+02  0.00000E+00  9.000E+00
       5     1     1     2   501     0  6.305722516E+00  1.863772794E+00  1.233505127E+01  1.476318987E+01  4.750000000E+00  0.00000E+00  9.000E+00
      -5     1     1     2     0   503 -2.993365133E+00 -6.223737639E+00 -4.572455605E+01  4.648647837E+01  4.750000000E+00  0.00000E+00  9.000E+00
      21     1     1     2   502   511 -2.811505494E+00  4.010033541E+00  5.546471664E+01  5.568051476E+01  9.536743164E-07  0.00000E+00  9.000E+00
#rwgt            1           9  -5.9906092226745360E-004           5      565676           0
</event>
<event>
      6   9999  3.45752E-01  2.87251E+01 -1.00000E+00  1.49068E-01
      21    -1     0     0   501   512  0.000000000E+00  0.000000000E+00  2.747790798E+01  2.747790798E+01  0.000000000E+00  0.00000E+00  9.000E+00
      21    -1     0     0   502   503  0.000000000E+00  0.000000000E+00 -1.155011859E+03  1.155011859E+03  0.000000000E+00  0.00000E+00  9.000E+00
      25     1     1     2     0     0 -4.726838943E+01 -2.079156486E+01 -1.927919756E+02  2.355000095E+02  1.249996753E+02  0.00000E+00  9.000E+00
       5     1     1     2   501     0 -1.172879999E+00 -5.601038454E-02  2.016864098E+00  5.292355378E+00  4.750000000E+00  0.00000E+00  9.000E+00
      -5     1     1     2     0   503  2.372690557E+01  6.207586110E+00 -8.487878363E+02  8.491553767E+02  4.750000000E+00  0.00000E+00  9.000E+00
      21     1     1     2   502   512  2.471436386E+01  1.463998914E+01 -8.797100333E+01  9.254202554E+01  9.536743164E-07  0.00000E+00  9.000E+00
#rwgt            1           9   3.6433272803392978E-004           5      570140           0
</event>
<event>
      6   9999  3.45752E-01  1.74484E+01 -1.00000E+00  1.64871E-01
      21    -1     0     0   501   502  0.000000000E+00  0.000000000E+00  2.274467471E+01  2.274467471E+01  0.000000000E+00  0.00000E+00  9.000E+00
      21    -1     0     0   502   511  0.000000000E+00  0.000000000E+00 -1.244732764E+03  1.244732764E+03  0.000000000E+00  0.00000E+00  9.000E+00
      25     1     1     2     0     0 -1.114523205E+01 -4.704029547E+00 -1.004602645E+03  1.012422010E+03  1.250020337E+02  0.00000E+00  9.000E+00
       5     1     1     2   501     0 -2.938559168E+00  8.437327012E+00  1.685517345E+01  1.965917061E+01  4.750000000E+00  0.00000E+00  9.000E+00
      -5     1     1     2     0   503 -2.449566240E+00  1.842873264E+00 -4.521381066E+01  4.556586146E+01  4.750000000E+00  0.00000E+00  9.000E+00
      21     1     1     2   503   511  1.653335746E+01 -5.576170728E+00 -1.890268066E+02  1.898303959E+02  0.000000000E+00  0.00000E+00  9.000E+00
#rwgt            1           9   7.1463029733941983E-005           5      571456           0
</event>
<event>
      6   9999  3.45752E-01  1.72732E+01 -1.00000E+00  1.65226E-01
      21    -1     0     0   501   502  0.000000000E+00  0.000000000E+00  4.715522381E+02  4.715522381E+02  0.000000000E+00  0.00000E+00  9.000E+00
      21    -1     0     0   502   512  0.000000000E+00  0.000000000E+00 -2.806744189E+01  2.806744189E+01  0.000000000E+00  0.00000E+00  9.000E+00
      25     1     1     2     0     0 -8.110192704E+00  9.940300736E+00  1.384485760E+02  1.869669162E+02  1.249961390E+02  0.00000E+00  9.000E+00
       5     1     1     2   501     0  1.896100731E+00  5.680185757E+00  2.721668655E+02  2.722741723E+02  4.750000000E+00  0.00000E+00  9.000E+00
      -5     1     1     2     0   503  2.489308399E+00  1.246331701E+00  1.258209459E+01  1.373395803E+01  4.750000000E+00  0.00000E+00  9.000E+00
      21     1     1     2   503   512  3.724783575E+00 -1.686681819E+01  2.028726007E+01  2.664463342E+01  0.000000000E+00  0.00000E+00  9.000E+00
#rwgt            1           9   1.1588582920658119E-003           5      573718           0
</event>
<event>
      6   9999  3.45752E-01  1.14504E+01 -1.00000E+00  1.81204E-01
      21    -1     0     0   502   503  0.000000000E+00  0.000000000E+00  1.577208012E+01  1.577208012E+01  0.000000000E+00  0.00000E+00  9.000E+00
      21    -1     0     0   511   502  0.000000000E+00  0.000000000E+00 -1.422897869E+03  1.422897869E+03  0.000000000E+00  0.00000E+00  9.000E+00
      25     1     1     2     0     0 -1.976928998E+01  1.789819469E+01 -2.555387152E+02  2.857189552E+02  1.249964648E+02  0.00000E+00  9.000E+00
       5     1     1     2   501     0  7.656621580E+00 -2.241213167E+01 -5.914383654E+02  5.919314404E+02  4.750000000E+00  0.00000E+00  9.000E+00
      -5     1     1     2     0   503  1.091224188E+00  1.409255861E+00 -1.677955874E+01  1.752977078E+01  4.750000000E+00  0.00000E+00  9.000E+00
      21     1     1     2   511   501  1.102144421E+01  3.104681112E+00 -5.433691493E+02  5.434897825E+02  7.629394531E-06  0.00000E+00  9.000E+00
#rwgt            1           9   7.4935616472380671E-004           5      575367           0
</event>
<event>
      6   9999 -3.45752E-01  2.86242E+01 -1.00000E+00  1.49169E-01
      21    -1     0     0   512   502  0.000000000E+00  0.000000000E+00  1.287261904E+02  1.287261904E+02  0.000000000E+00  0.00000E+00  9.000E+00
      21    -1     0     0   502   503  0.000000000E+00  0.000000000E+00 -9.679990758E+02  9.679990758E+02  0.000000000E+00  0.00000E+00  9.000E+00
      25     1     1     2     0     0  4.805252480E+01  1.087725622E+01 -6.568858746E+02  6.704862478E+02  1.250015858E+02  0.00000E+00  9.000E+00
       5     1     1     2   501     0 -6.437331960E+00 -6.000827793E+00  1.123357298E+01  1.504010768E+01  4.750000000E+00  0.00000E+00  9.000E+00
      -5     1     1     2     0   503 -5.005481578E+01 -3.222816831E+01 -2.975065101E+02  3.034416343E+02  4.750000000E+00  0.00000E+00  9.000E+00
      21     1     1     2   512   501  8.439622938E+00  2.735173988E+01  1.038859263E+02  1.077572763E+02  3.303624740E-06  0.00000E+00  9.000E+00
#rwgt            1           9  -4.5991951350342820E-002           5      577787           0
</event>
<event>
      6   9999 -3.45752E-01  1.74848E+01 -1.00000E+00  1.64797E-01
      21    -1     0     0   501   511  0.000000000E+00  0.000000000E+00  1.707304153E+01  1.707304153E+01  0.000000000E+00  0.00000E+00  9.000E+00
      21    -1     0     0   502   503  0.000000000E+00  0.000000000E+00 -4.128301218E+03  4.128301218E+03  0.000000000E+00  0.00000E+00  9.000E+00
      25     1     1     2     0     0  1.880226556E+01  1.424491213E+02 -1.670196823E+03  1.681020454E+03  1.250082462E+02  0.00000E+00  9.000E+00
       5     1     1     2   501     0  4.505542816E-01 -5.217093475E-01  8.221230166E+00  9.519784937E+00  4.750000000E+00  0.00000E+00  9.000E+00
      -5     1     1     2     0   503 -1.785762667E+00 -1.411395114E+02 -2.333325005E+03  2.337595280E+03  4.750000000E+00  0.00000E+00  9.000E+00
      21     1     1     2   502   511 -1.746705717E+01 -7.879005046E-01 -1.159275777E+02  1.172387400E+02  1.907348633E-06  0.00000E+00  9.000E+00
#rwgt            1           9  -6.4995562062534031E-005           5      579274           0
</event>
<event>
      6   9999  3.45752E-01  2.46781E+01 -1.00000E+00  1.53542E-01
       2    -1     0     0   501     0  0.000000000E+00  0.000000000E+00  9.304384733E+01  9.304384733E+01  0.000000000E+00  0.00000E+00  9.000E+00
      21    -1     0     0   502   503  0.000000000E+00  0.000000000E+00 -1.536918344E+03  1.536918344E+03  0.000000000E+00  0.00000E+00  9.000E+00
      25     1     1     2     0     0  2.994709100E+01  5.157585902E-01 -1.465654025E+03  1.471279733E+03  1.250009400E+02  0.00000E+00  9.000E+00
       5     1     1     2   501     0  6.938160618E+00 -1.917357427E+01  6.931861086E+01  7.241129977E+01  4.750000000E+00  0.00000E+00  9.000E+00
      -5     1     1     2     0   503 -1.382054914E+01  9.881220353E+00 -5.713240374E+01  5.979398089E+01  4.750000000E+00  0.00000E+00  9.000E+00
       2     1     1     2   502     0 -2.306470247E+01  8.776595330E+00  9.593321833E+00  2.647717790E+01  2.064765462E-07  0.00000E+00  9.000E+00
#rwgt            1           9   2.7160881660882585E-006           5      581909           0
</event>
<event>
      6   9999  3.45752E-01  7.30071E+00 -1.00000E+00  2.02838E-01
      21    -1     0     0   501   502  0.000000000E+00  0.000000000E+00  4.503455192E+01  4.503455192E+01  0.000000000E+00  0.00000E+00  9.000E+00
      21    -1     0     0   511   503  0.000000000E+00  0.000000000E+00 -1.836249120E+03  1.836249120E+03  0.000000000E+00  0.00000E+00  9.000E+00
      25     1     1     2     0     0  9.293021501E+01  1.018934313E+02 -4.224475055E+02  4.616326207E+02  1.249979416E+02  0.00000E+00  9.000E+00
       5     1     1     2   501     0  1.571630998E+00  5.707453000E+00  1.890854600E+01  2.037500075E+01  4.750000000E+00  0.00000E+00  9.000E+00
      -5     1     1     2     0   503 -1.002227305E+02 -1.030652595E+02 -8.901223299E+02  9.016692121E+02  4.750000000E+00  0.00000E+00  9.000E+00
      21     1     1     2   511   502  5.720884521E+00 -4.535624794E+00 -4.975532791E+02  4.976068387E+02  0.000000000E+00  0.00000E+00  9.000E+00
#rwgt            1           9   8.5667487510469494E-003           5      584186           0
</event>
<event>
      6   9999  3.45752E-01  8.41556E+00 -1.00000E+00  1.95447E-01
      21    -1     0     0   501   502  0.000000000E+00  0.000000000E+00  4.918321037E+01  4.918321037E+01  0.000000000E+00  0.00000E+00  9.000E+00
      21    -1     0     0   502   512  0.000000000E+00  0.000000000E+00 -1.510879423E+03  1.510879423E+03  0.000000000E+00  0.00000E+00  9.000E+00
      25     1     1     2     0     0 -6.015250361E+00  6.536326350E+00 -1.177779634E+03  1.184427778E+03  1.250015578E+02  0.00000E+00  9.000E+00
       5     1     1     2   501     0  1.778272767E+01 -3.710366268E+00  4.373583396E+01  4.759598610E+01  4.750000000E+00  0.00000E+00  9.000E+00
      -5     1     1     2     0   503 -3.518761203E+00 -4.493417802E+00 -1.375445543E+02  1.377448344E+02  4.750000000E+00  0.00000E+00  9.000E+00
      21     1     1     2   503   512 -8.248716111E+00  1.667457720E+00 -1.901078582E+02  1.902940342E+02  0.000000000E+00  0.00000E+00  9.000E+00
#rwgt            1           9   2.3564986737588866E-003           5      588776           0
</event>
<event>
      6   9999  3.45752E-01  6.35203E+01 -1.00000E+00  1.29452E-01
      21    -1     0     0   501   511  0.000000000E+00  0.000000000E+00  6.819017040E+01  6.819017040E+01  0.000000000E+00  0.00000E+00  9.000E+00
      21    -1     0     0   502   503  0.000000000E+00  0.000000000E+00 -1.377070104E+03  1.377070104E+03  0.000000000E+00  0.00000E+00  9.000E+00
      25     1     1     2     0     0  5.963743050E+01  1.816976606E+02 -5.938853793E+02  6.363133017E+02  1.249964447E+02  0.00000E+00  9.000E+00
       5     1     1     2   501     0 -1.475531457E+02 -1.911733923E+02 -5.233474249E+02  5.763976807E+02  4.750000000E+00  0.00000E+00  9.000E+00
      -5     1     1     2     0   503  3.169069691E+01  3.903205294E+01 -1.455579658E+02  1.540697418E+02  4.750000000E+00  0.00000E+00  9.000E+00
      21     1     1     2   502   511  5.622501832E+01 -2.955632120E+01 -4.608916386E+01  7.847955042E+01  9.536743164E-07  0.00000E+00  9.000E+00
#rwgt            1           9   5.4420936386203010E-003           5      593330           0
</event>
<event>
      6   9999  3.45752E-01  9.43320E+00 -1.00000E+00  1.89903E-01
      21    -1     0     0   501   512  0.000000000E+00  0.000000000E+00  3.466898785E+01  3.466898785E+01  0.000000000E+00  0.00000E+00  9.000E+00
      21    -1     0     0   502   503  0.000000000E+00  0.000000000E+00 -7.409611750E+02  7.409611750E+02  0.000000000E+00  0.00000E+00  9.000E+00
      25     1     1     2     0     0 -3.270361953E+00  2.114734385E-01 -6.246839973E+02  6.370976993E+02  1.251105186E+02  0.00000E+00  9.000E+00
       5     1     1     2   501     0 -1.697502430E+00  9.780568605E-01 -1.503514279E+00  5.353612323E+00  4.750000000E+00  0.00000E+00  9.000E+00
      -5     1     1     2     0   503 -4.332926059E+00  3.854766160E-01 -1.057023166E+02  1.058983714E+02  4.750000000E+00  0.00000E+00  9.000E+00
      21     1     1     2   502   512  9.300790442E+00 -1.575006915E+00  2.559764109E+01  2.728047981E+01  8.259061849E-07  0.00000E+00  9.000E+00
#rwgt            1           9   4.0429877245680958E-002           5      594468           0
</event>
<event>
      6   9999  3.45752E-01  2.12757E+01 -1.00000E+00  1.58187E-01
      21    -1     0     0   501   511  0.000000000E+00  0.000000000E+00  9.412428012E+02  9.412428012E+02  0.000000000E+00  0.00000E+00  9.000E+00
      21    -1     0     0   502   503  0.000000000E+00  0.000000000E+00 -7.059872172E+02  7.059872172E+02  0.000000000E+00  0.00000E+00  9.000E+00
      25     1     1     2     0     0  1.772178487E+01  8.766386998E-01 -6.236007265E+02  6.362517054E+02  1.249941453E+02  0.00000E+00  9.000E+00
       5     1     1     2   501     0 -2.097427694E+00 -5.237472177E-01 -2.326610662E+01  2.384423896E+01  4.750000000E+00  0.00000E+00  9.000E+00
      -5     1     1     2     0   503  5.255036616E+00 -4.440351838E+00 -5.205114183E+01  5.271827007E+01  4.750000000E+00  0.00000E+00  9.000E+00
      21     1     1     2   502   511 -2.087939380E+01  4.087460356E+00  9.341735589E+02  9.344158039E+02  1.078959322E-05  0.00000E+00  9.000E+00
#rwgt            1           9   4.3767441595962139E-005           5      597332           0
</event>
<event>
      6   9999  3.45752E-01  1.31264E+01 -1.00000E+00  1.75551E-01
      21    -1     0     0   501   512  0.000000000E+00  0.000000000E+00  3.490131775E+01  3.490131775E+01  0.000000000E+00  0.00000E+00  9.000E+00
      21    -1     0     0   502   503  0.000000000E+00  0.000000000E+00 -7.426761802E+02  7.426761802E+02  0.000000000E+00  0.00000E+00  9.000E+00
      25     1     1     2     0     0 -1.373048999E+01  5.414802509E+00 -6.316557713E+02  6.440745299E+02  1.250005608E+02  0.00000E+00  9.000E+00
       5     1     1     2   501     0 -1.047536933E+00  8.869674425E-01 -3.541719610E+00  6.081967006E+00  4.750000000E+00  0.00000E+00  9.000E+00
      -5     1     1     2     0   503  1.825770385E+00 -4.170534092E+00 -9.831204546E+01  9.853196220E+01  4.750000000E+00  0.00000E+00  9.000E+00
      21     1     1     2   502   512  1.295225654E+01 -2.131235859E+00  2.573467400E+01  2.888903878E+01  1.011524364E-06  0.00000E+00  9.000E+00
#rwgt            1           9   1.2169228553139403E-002           5      598545           0
</event>
<event>
      6   9999  3.45752E-01  2.54895E+01 -1.00000E+00  1.52566E-01
      21    -1     0     0   511   502  0.000000000E+00  0.000000000E+00  1.215505560E+02  1.215505560E+02  0.000000000E+00  0.00000E+00  9.000E+00
      21    -1     0     0   502   503  0.000000000E+00  0.000000000E+00 -1.808708276E+03  1.808708276E+03  0.000000000E+00  0.00000E+00  9.000E+00
      25     1     1     2     0     0 -1.623486585E+02 -2.275453689E+02 -6.290601915E+02  6.996251023E+02  1.249983094E+02  0.00000E+00  9.000E+00
       5     1     1     2   501     0  1.088299998E+01  1.003760271E+01  6.355876326E+01  6.543295840E+01  4.750000000E+00  0.00000E+00  9.000E+00
      -5     1     1     2     0   503  1.769236592E+02  2.162414359E+02 -1.085974385E+03  1.121349752E+03  4.750000000E+00  0.00000E+00  9.000E+00
      21     1     1     2   511   501 -2.545800073E+01  1.266330286E+00 -3.568190705E+01  4.385101919E+01  0.000000000E+00  0.00000E+00  9.000E+00
#rwgt            1           9  0.29150410502953600                5      600132           0
</event>
<event>
      6   9999  3.45752E-01  3.62887E+00 -1.00000E+00  2.56941E-01
      21    -1     0     0   501   512  0.000000000E+00  0.000000000E+00  4.954220034E+01  4.954220034E+01  0.000000000E+00  0.00000E+00  9.000E+00
      21    -1     0     0   502   503  0.000000000E+00  0.000000000E+00 -1.364537930E+03  1.364537930E+03  0.000000000E+00  0.00000E+00  9.000E+00
      25     1     1     2     0     0  1.148706288E+01 -2.317650290E+00 -8.261638083E+02  8.356490461E+02  1.250014641E+02  0.00000E+00  9.000E+00
       5     1     1     2   501     0  6.995583258E-01  3.069881580E+00  1.475413713E+00  5.886671419E+00  4.750000000E+00  0.00000E+00  9.000E+00
      -5     1     1     2     0   503 -1.003998648E+01  2.173632855E+00 -5.312854249E+02  5.314059570E+02  4.750000000E+00  0.00000E+00  9.000E+00
      21     1     1     2   502   512 -2.146634728E+00 -2.925864144E+00  4.097808965E+01  4.113845589E+01  2.477718555E-06  0.00000E+00  9.000E+00
#rwgt            1           9   2.2510576868573278E-003           5      602779           0
</event>
<event>
      6   9999  3.45752E-01  9.39899E+00 -1.00000E+00  1.90074E-01
      21    -1     0     0   501   511  0.000000000E+00  0.000000000E+00  1.181245619E+02  1.181245619E+02  0.000000000E+00  0.00000E+00  9.000E+00
      21    -1     0     0   502   503  0.000000000E+00  0.000000000E+00 -7.819543700E+02  7.819543700E+02  0.000000000E+00  0.00000E+00  9.000E+00
      25     1     1     2     0     0 -1.078007974E+01 -4.032911799E+00 -6.091992597E+02  6.219981559E+02  1.250019740E+02  0.00000E+00  9.000E+00
       5     1     1     2   501     0  9.267957580E-01  2.777597136E-01  3.705918673E+00  6.101838579E+00  4.750000000E+00  0.00000E+00  9.000E+00
      -5     1     1     2     0   503  1.415046750E+01 -4.603985040E+00 -1.645804338E+02  1.653200353E+02  4.750000000E+00  0.00000E+00  9.000E+00
      21     1     1     2   502   511 -4.297183518E+00  8.359137126E+00  1.062439666E+02  1.066589021E+02  4.264961200E-06  0.00000E+00  9.000E+00
#rwgt            1           9   8.6179126581158831E-003           5      608804           0
</event>
<event>
      6   9999  3.45752E-01  2.31571E+01 -1.00000E+00  1.55499E-01
      21    -1     0     0   501   502  0.000000000E+00  0.000000000E+00  1.289001350E+01  1.289001350E+01  0.000000000E+00  0.00000E+00  9.000E+00
      21    -1     0     0   502   512  0.000000000E+00  0.000000000E+00 -1.712061794E+03  1.712061794E+03  0.000000000E+00  0.00000E+00  9.000E+00
      25     1     1     2     0     0 -7.114225274E-02  1.853195648E+01 -8.281057696E+02  8.376914237E+02  1.249972692E+02  0.00000E+00  9.000E+00
       5     1     1     2   501     0 -5.308330223E-01  5.967835378E+00  5.738118552E+00  9.559568365E+00  4.750000000E+00  0.00000E+00  9.000E+00
      -5     1     1     2     0   503  1.094320125E+00 -1.347972161E+00 -2.163627051E+01  2.221947945E+01  4.750000000E+00  0.00000E+00  9.000E+00
      21     1     1     2   503   512 -4.923448501E-01 -2.315181969E+01 -8.551678586E+02  8.554813356E+02  0.000000000E+00  0.00000E+00  9.000E+00
#rwgt            1           9   1.2920704340978913E-003           5      611270           0
</event>
<event>
      6   9999  3.45752E-01  8.40156E+01 -1.00000E+00  1.23740E-01
      -1    -1     0     0     0   502  0.000000000E+00  0.000000000E+00  9.432628298E+01  9.432628298E+01  0.000000000E+00  0.00000E+00  9.000E+00
      21    -1     0     0   502   503  0.000000000E+00  0.000000000E+00 -1.120660374E+03  1.120660374E+03  0.000000000E+00  0.00000E+00  9.000E+00
      25     1     1     2     0     0 -1.676052179E+00  8.350441165E+01 -7.354898918E+02  7.506970138E+02  1.249993185E+02  0.00000E+00  9.000E+00
       5     1     1     2   501     0  4.684017714E+01 -6.872998668E+01 -1.029501391E+02  1.324352933E+02  4.750000000E+00  0.00000E+00  9.000E+00
      -5     1     1     2     0   503  2.793679008E+01  2.663667733E+01 -2.331867948E+02  2.364077422E+02  4.750000000E+00  0.00000E+00  9.000E+00
      -1     1     1     2     0   501 -7.310091503E+01 -4.141110229E+01  4.529273446E+01  9.544660793E+01  2.611744678E-06  0.00000E+00  9.000E+00
#rwgt            1           9   2.0158937737527655E-002           5      612482           0
</event>
<event>
      6   9999  3.45752E-01  6.67898E+01 -1.00000E+00  1.28387E-01
      21    -1     0     0   501   502  0.000000000E+00  0.000000000E+00  1.504942129E+03  1.504942129E+03  0.000000000E+00  0.00000E+00  9.000E+00
       2    -1     0     0   502     0  0.000000000E+00  0.000000000E+00 -1.074087844E+03  1.074087844E+03  0.000000000E+00  0.00000E+00  9.000E+00
      25     1     1     2     0     0 -9.510593284E+00  3.919175599E+01  7.587418303E+02  7.700260219E+02  1.249978569E+02  0.00000E+00  9.000E+00
       5     1     1     2   501     0  6.000052302E+00 -1.400163944E+01  7.109566213E+02  7.111356596E+02  4.750000000E+00  0.00000E+00  9.000E+00
      -5     1     1     2     0   503  5.690562832E+01 -6.531294896E+01 -3.785796691E+01  9.465632570E+01  4.750000000E+00  0.00000E+00  9.000E+00
       2     1     1     2   503     0 -5.339508734E+01  4.012283241E+01 -1.000986200E+03  1.003211966E+03  2.157918644E-05  0.00000E+00  9.000E+00
#rwgt            1           9   2.0375015087364162E-004           5      613228           0
</event>
<event>
      6   9999  3.45752E-01  7.37048E+00 -1.00000E+00  2.02325E-01
      21    -1     0     0   501   502  0.000000000E+00  0.000000000E+00  9.640540324E+00  9.640540324E+00  0.000000000E+00  0.00000E+00  9.000E+00
      21    -1     0     0   511   503  0.000000000E+00  0.000000000E+00 -6.434246042E+02  6.434246042E+02  0.000000000E+00  0.00000E+00  9.000E+00
      25     1     1     2     0     0  2.402648050E+00 -5.747238699E+00 -5.034229554E+02  5.187472586E+02  1.250009711E+02  0.00000E+00  9.000E+00
       5     1     1     2   501     0  2.969050010E-01 -1.234022961E+00 -2.022700164E+00  5.316463223E+00  4.750000000E+00  0.00000E+00  9.000E+00
      -5     1     1     2     0   503 -2.340267868E+00 -3.804587879E-01 -3.903153492E+01  3.939092307E+01  4.750000000E+00  0.00000E+00  9.000E+00
      21     1     1     2   511   502 -3.592851830E-01  7.361720449E+00 -8.930687340E+01  8.961049967E+01  1.348699152E-06  0.00000E+00  9.000E+00
#rwgt            1           9  0.34861219981501457                5      614362           0
</event>
<event>
      6   9999  3.45752E-01  4.26657E+01 -1.00000E+00  1.38580E-01
      21    -1     0     0   501   502  0.000000000E+00  0.000000000E+00  5.785991464E+01  5.785991464E+01  0.000000000E+00  0.00000E+00  9.000E+00
      21    -1     0     0   512   503  0.000000000E+00  0.000000000E+00 -1.460860359E+03  1.460860359E+03  0.000000000E+00  0.00000E+00  9.000E+00
      25     1     1     2     0     0 -3.238264885E+01  3.638344341E+01 -2.093715175E+02  2.486661107E+02  1.250040453E+02  0.00000E+00  9.000E+00
       5     1     1     2   501     0 -4.370428392E+00  3.409575291E+00  3.511392313E+01  3.586468940E+01  4.750000000E+00  0.00000E+00  9.000E+00
      -5     1     1     2     0   503  1.554869640E+01 -2.769562699E+00 -1.060262732E+03  1.060390992E+03  4.750000000E+00  0.00000E+00  9.000E+00
      21     1     1     2   512   502  2.120438084E+01 -3.702345600E+01 -1.684801177E+02  1.737984814E+02  0.000000000E+00  0.00000E+00  9.000E+00
#rwgt            1           9   9.5024558127903658E-004           5      617609           0
</event>
<event>
      6   9999  3.45752E-01  4.71074E+00 -1.00000E+00  2.34011E-01
      21    -1     0     0   501   511  0.000000000E+00  0.000000000E+00  2.152452753E+02  2.152452753E+02  0.000000000E+00  0.00000E+00  9.000E+00
      21    -1     0     0   502   503  0.000000000E+00  0.000000000E+00 -1.302335457E+03  1.302335457E+03  0.000000000E+00  0.00000E+00  9.000E+00
      25     1     1     2     0     0  2.227861477E+00  1.057219523E+01 -1.268482212E+03  1.274671957E+03  1.249989694E+02  0.00000E+00  9.000E+00
       5     1     1     2   501     0 -1.551314108E+00 -8.882842277E+00  3.585358766E+01  3.727403534E+01  4.750000000E+00  0.00000E+00  9.000E+00
      -5     1     1     2     0   503  2.665237762E+00  1.630819561E+00 -2.974727323E+01  3.028573641E+01  4.750000000E+00  0.00000E+00  9.000E+00
      21     1     1     2   502   511 -3.341785131E+00 -3.320172510E+00  1.752857153E+02  1.753490036E+02  2.697398305E-06  0.00000E+00  9.000E+00
#rwgt            1           9   4.7300778686921331E-003           5      618924           0
</event>
<event>
      6   9999 -3.45752E-01  2.27612E+01 -1.00000E+00  1.56038E-01
      21    -1     0     0   512   502  0.000000000E+00  0.000000000E+00  1.233165523E+01  1.233165523E+01  0.000000000E+00  0.00000E+00  9.000E+00
      21    -1     0     0   502   503  0.000000000E+00  0.000000000E+00 -8.297023246E+02  8.297023246E+02  0.000000000E+00  0.00000E+00  9.000E+00
      25     1     1     2     0     0 -1.256653785E+01  7.059409006E+00 -7.244438256E+02  7.352898561E+02  1.249982512E+02  0.00000E+00  9.000E+00
       5     1     1     2   501     0 -4.419115697E+00  5.313620024E-01  1.146971045E+00  6.609763362E+00  4.750000000E+00  0.00000E+00  9.000E+00
      -5     1     1     2     0   503 -5.411977889E+00 -3.538830786E+00 -4.886212472E+01  4.951648776E+01  4.750000000E+00  0.00000E+00  9.000E+00
      21     1     1     2   512   501  2.239763144E+01 -4.051940223E+00 -4.521169007E+01  5.061787266E+01  0.000000000E+00  0.00000E+00  9.000E+00
#rwgt            1           9  -1.1626467674936981E-004           5      625248           0
</event>
<event>
      6   9999 -3.45752E-01  1.63584E+01 -1.00000E+00  1.67172E-01
       4    -1     0     0   501     0  0.000000000E+00  0.000000000E+00  9.268992688E+01  9.268992688E+01  0.000000000E+00  0.00000E+00  9.000E+00
      21    -1     0     0   502   503  0.000000000E+00  0.000000000E+00 -8.210645572E+02  8.210645572E+02  0.000000000E+00  0.00000E+00  9.000E+00
      25     1     1     2     0     0 -6.411997700E+00 -6.107947217E+00 -7.784669428E+02  7.884884534E+02  1.249993576E+02  0.00000E+00  9.000E+00
       5     1     1     2   501     0 -5.715727027E+00 -4.156660171E+00  3.201179168E+00  9.097109832E+00  4.750000000E+00  0.00000E+00  9.000E+00
      -5     1     1     2     0   503 -2.419083844E-01 -4.400610955E-01 -3.364797851E+01  3.398530758E+01  4.750000000E+00  0.00000E+00  9.000E+00
       4     1     1     2   502     0  1.236963311E+01  1.070466848E+01  8.053911183E+01  8.218361324E+01  1.907348633E-06  0.00000E+00  9.000E+00
#rwgt            1           9  -2.2677215713121498E-005           5      626394           0
</event>
<event>
      6   9999 -3.45752E-01  6.44413E+01 -1.00000E+00  1.29144E-01
      21    -1     0     0   501   511  0.000000000E+00  0.000000000E+00  1.332476464E+01  1.332476464E+01  0.000000000E+00  0.00000E+00  9.000E+00
      21    -1     0     0   502   503  0.000000000E+00  0.000000000E+00 -1.058863845E+03  1.058863845E+03  0.000000000E+00  0.00000E+00  9.000E+00
      25     1     1     2     0     0 -4.691436147E+01  3.888772588E+01 -6.041516786E+02  6.199498366E+02  1.250013461E+02  0.00000E+00  9.000E+00
       5     1     1     2   501     0 -5.004370421E+00  2.582690020E+00 -7.523852609E+00  1.053018847E+01  4.750000000E+00  0.00000E+00  9.000E+00
      -5     1     1     2     0   503 -3.524375271E+00 -8.626153932E+00 -1.609778061E+02  1.613172288E+02  4.750000000E+00  0.00000E+00  9.000E+00
      21     1     1     2   502   511  5.544310716E+01 -3.284426197E+01 -2.728857434E+02  2.803913562E+02  5.394796609E-06  0.00000E+00  9.000E+00
#rwgt            1           9  -5.1539281718592834E-004           5      628220           0
</event>
<event>
      6   9999  3.45752E-01  8.07388E+00 -1.00000E+00  1.97544E-01
      21    -1     0     0   512   502  0.000000000E+00  0.000000000E+00  8.505170714E+00  8.505170714E+00  0.000000000E+00  0.00000E+00  9.000E+00
      21    -1     0     0   502   503  0.000000000E+00  0.000000000E+00 -7.657233307E+02  7.657233307E+02  0.000000000E+00  0.00000E+00  9.000E+00
      25     1     1     2     0     0  1.593339741E+00 -1.412801012E+01 -5.999372825E+02  6.129855039E+02  1.249973823E+02  0.00000E+00  9.000E+00
       5     1     1     2   501     0  3.228015560E+00  1.408974537E+00 -7.277831901E+00  9.377346687E+00  4.750000000E+00  0.00000E+00  9.000E+00
      -5     1     1     2     0   503 -6.422727825E+00  4.805556925E+00 -1.294258901E+02  1.297611974E+02  4.750000000E+00  0.00000E+00  9.000E+00
      21     1     1     2   512   501  1.601372524E+00  7.913478659E+00 -2.057715539E+01  2.210445345E+01  2.384185791E-07  0.00000E+00  9.000E+00
#rwgt            1           9   3.2464049562250604E-004           5      629164           0
</event>
<event>
      6   9999  3.45752E-01  9.67809E+00 -1.00000E+00  1.88703E-01
      21    -1     0     0   501   511  0.000000000E+00  0.000000000E+00  1.958618257E+02  1.958618257E+02  0.000000000E+00  0.00000E+00  9.000E+00
      21    -1     0     0   502   503  0.000000000E+00  0.000000000E+00 -8.196219406E+02  8.196219406E+02  0.000000000E+00  0.00000E+00  9.000E+00
      25     1     1     2     0     0  2.219590196E+00  7.082976366E+00 -7.391127150E+02  7.496449930E+02  1.249996594E+02  0.00000E+00  9.000E+00
       5     1     1     2   501     0  3.987304818E+00 -1.024991726E+00  8.124161014E+00  1.027198617E+01  4.750000000E+00  0.00000E+00  9.000E+00
      -5     1     1     2     0   503  8.185001744E-01  5.985324300E-01 -7.396037358E+01  7.411968392E+01  4.750000000E+00  0.00000E+00  9.000E+00
      21     1     1     2   502   511 -7.025395189E+00 -6.656517070E+00  1.811888127E+02  1.814471032E+02  5.394796609E-06  0.00000E+00  9.000E+00
#rwgt            1           9   4.7557212172762321E-004           5      631943           0
</event>
<event>
      6   9999 -3.45752E-01  7.29956E+00 -1.00000E+00  2.02846E-01
      21    -1     0     0   512   502  0.000000000E+00  0.000000000E+00  2.073298883E+01  2.073298883E+01  0.000000000E+00  0.00000E+00  9.000E+00
      21    -1     0     0   502   503  0.000000000E+00  0.000000000E+00 -9.537946134E+02  9.537946134E+02  0.000000000E+00  0.00000E+00  9.000E+00
      25     1     1     2     0     0 -1.686669011E+00  6.531457383E+00 -9.061705274E+02  9.147761165E+02  1.249992558E+02  0.00000E+00  9.000E+00
       5     1     1     2   501     0  5.366667592E+00  1.122692417E+00  1.363222035E+01  1.544219838E+01  4.750000000E+00  0.00000E+00  9.000E+00
      -5     1     1     2     0   503  3.530180564E+00 -8.792950702E+00 -2.289232418E+01  2.522695311E+01  4.750000000E+00  0.00000E+00  9.000E+00
      21     1     1     2   512   501 -7.210179146E+00  1.138800903E+00 -1.763099335E+01  1.908233417E+01  3.371747881E-07  0.00000E+00  9.000E+00
#rwgt            1           9  -3.8756890721919568E-004           5      634918           0
</event>
<event>
      6   9999  3.45752E-01  3.50076E+00 -1.00000E+00  2.60477E-01
      21    -1     0     0   511   503  0.000000000E+00  0.000000000E+00  2.543732548E+03  2.543732548E+03  0.000000000E+00  0.00000E+00  9.000E+00
      21    -1     0     0   501   502  0.000000000E+00  0.000000000E+00 -2.336151897E+00  2.336151897E+00  0.000000000E+00  0.00000E+00  9.000E+00
      25     1     1     2     0     0  1.003625826E+01 -9.565224832E+00  1.909712079E+03  1.913849094E+03  1.250036277E+02  0.00000E+00  9.000E+00
       5     1     1     2   501     0  2.573471867E-01  4.444218917E-01  2.322053018E+02  2.322544476E+02  4.750000000E+00  0.00000E+00  9.000E+00
      -5     1     1     2     0   503 -8.612034531E+00  1.219124568E+01  2.826403869E+02  2.830740971E+02  4.750000000E+00  0.00000E+00  9.000E+00
      21     1     1     2   511   502 -1.681570914E+00 -3.070442737E+00  1.168386282E+02  1.168910619E+02  1.348699152E-06  0.00000E+00  9.000E+00
#rwgt            1           9   4.4231330885965980E-004           5      638917           0
</event>
<event>
      6   9999  3.45752E-01  1.54821E+01 -1.00000E+00  1.69189E-01
      21    -1     0     0   512   502  0.000000000E+00  0.000000000E+00  2.069384558E+01  2.069384558E+01  0.000000000E+00  0.00000E+00  9.000E+00
      21    -1     0     0   502   503  0.000000000E+00  0.000000000E+00 -8.921165830E+02  8.921165830E+02  0.000000000E+00  0.00000E+00  9.000E+00
      25     1     1     2     0     0  1.536928622E+01  1.610945391E+01 -7.826813513E+02  7.929129497E+02  1.250004744E+02  0.00000E+00  9.000E+00
       5     1     1     2   501     0 -1.101319431E+01 -1.467297618E+00 -4.504594814E+00  1.289563048E+01  4.750000000E+00  0.00000E+00  9.000E+00
      -5     1     1     2     0   503 -1.375666539E+01 -2.694360298E+01 -8.612290185E+01  9.140525317E+01  4.750000000E+00  0.00000E+00  9.000E+00
      21     1     1     2   512   501  9.400573475E+00  1.230144669E+01  1.886110507E+00  1.559659531E+01  5.118716966E-07  0.00000E+00  9.000E+00
#rwgt            1           9   2.9133428442995005E-002           5      643923           0
</event>
<event>
      6   9999  3.45752E-01  1.97751E+01 -1.00000E+00  1.60586E-01
      21    -1     0     0   501   502  0.000000000E+00  0.000000000E+00  1.998058460E+01  1.998058460E+01  0.000000000E+00  0.00000E+00  9.000E+00
      21    -1     0     0   502   511  0.000000000E+00  0.000000000E+00 -6.582763977E+02  6.582763977E+02  0.000000000E+00  0.00000E+00  9.000E+00
      25     1     1     2     0     0  1.644506058E+01  6.600191304E-01 -4.682530663E+02  4.849296615E+02  1.249998674E+02  0.00000E+00  9.000E+00
       5     1     1     2   501     0 -6.541089360E-02  6.050073964E+00  8.386262173E+00  1.137978764E+01  4.750000000E+00  0.00000E+00  9.000E+00
      -5     1     1     2     0   503 -7.907681279E+00  1.115831334E+01 -5.185681977E+01  5.383987032E+01  4.750000000E+00  0.00000E+00  9.000E+00
      21     1     1     2   503   511 -8.471968409E+00 -1.786840644E+01 -1.265721892E+02  1.281076629E+02  1.907348633E-06  0.00000E+00  9.000E+00
#rwgt            1           9  0.39778963774080067                5      645520           0
</event>
<event>
      6   9999  3.45752E-01  1.89412E+01 -1.00000E+00  1.62035E-01
      21    -1     0     0   512   502  0.000000000E+00  0.000000000E+00  3.064091178E+01  3.064091178E+01  0.000000000E+00  0.00000E+00  9.000E+00
      21    -1     0     0   502   503  0.000000000E+00  0.000000000E+00 -1.221822905E+03  1.221822905E+03  0.000000000E+00  0.00000E+00  9.000E+00
      25     1     1     2     0     0  9.210740623E+01 -1.046543631E+02 -5.548471810E+02  5.855903932E+02  1.249976172E+02  0.00000E+00  9.000E+00
       5     1     1     2   501     0  2.410554353E+00 -2.254751530E+00  5.202420748E+00  7.779611712E+00  4.750000000E+00  0.00000E+00  9.000E+00
      -5     1     1     2     0   503 -7.560929139E+01  1.057995029E+02 -5.901736528E+02  6.043490735E+02  4.750000000E+00  0.00000E+00  9.000E+00
      21     1     1     2   512   501 -1.890866919E+01  1.109611682E+00 -5.136358038E+01  5.474473854E+01  0.000000000E+00  0.00000E+00  9.000E+00
#rwgt            1           9   1.7306326797792077E-003           5      647292           0
</event>
<event>
      6   9999  3.45752E-01  2.25320E+01 -1.00000E+00  1.56357E-01
       2    -1     0     0   501     0  0.000000000E+00  0.000000000E+00  9.058828411E+02  9.058828411E+02  0.000000000E+00  0.00000E+00  9.000E+00
      21    -1     0     0   502   503  0.000000000E+00  0.000000000E+00 -3.056695839E+03  3.056695839E+03  0.000000000E+00  0.00000E+00  9.000E+00
      25     1     1     2     0     0  1.086739705E+01 -8.764240001E+00 -2.629134982E+03  2.632141634E+03  1.249956549E+02  0.00000E+00  9.000E+00
       5     1     1     2   501     0 -1.793671790E+01  1.605733797E+01  4.117610404E+01  4.793326606E+01  4.750000000E+00  0.00000E+00  9.000E+00
      -5     1     1     2     0   503 -1.531416444E+01 -4.710059100E+00 -4.223660702E+02  4.226965437E+02  4.750000000E+00  0.00000E+00  9.000E+00
       2     1     1     2   502     0  2.238348529E+01 -2.583038870E+00  8.595119500E+02  8.598072369E+02  1.078959322E-05  0.00000E+00  9.000E+00
#rwgt            1           9   2.1606298328464774E-003           5      649124           0
</event>
<event>
      6   9999  3.45752E-01  1.43752E+02 -1.00000E+00  1.14097E-01
      21    -1     0     0   501   511  0.000000000E+00  0.000000000E+00  1.901381170E+01  1.901381170E+01  0.000000000E+00  0.00000E+00  9.000E+00
      -1    -1     0     0     0   502  0.000000000E+00  0.000000000E+00 -1.950685919E+03  1.950685919E+03  0.000000000E+00  0.00000E+00  9.000E+00
      25     1     1     2     0     0 -1.131784274E+02 -4.837034885E+01 -6.136745383E+02  6.382550433E+02  1.249960572E+02  0.00000E+00  9.000E+00
       5     1     1     2   501     0 -1.909763639E+01 -1.342972354E+01 -2.896622621E+02  2.906404407E+02  4.750000000E+00  0.00000E+00  9.000E+00
      -5     1     1     2     0   502 -2.155719749E+00  1.088240515E+01 -3.291239927E+01  3.505513365E+01  4.750000000E+00  0.00000E+00  9.000E+00
      -1     1     1     2     0   511  1.344317836E+02  5.091766724E+01 -9.954229080E+02  1.005749113E+03  1.868812365E-05  0.00000E+00  9.000E+00
#rwgt            1           2   6.9816370097032382E-006           5      651954           0
</event>
<event>
      6   9999  3.45752E-01  1.29207E+01 -1.00000E+00  1.76186E-01
      21    -1     0     0   501   512  0.000000000E+00  0.000000000E+00  2.792342376E+02  2.792342376E+02  0.000000000E+00  0.00000E+00  9.000E+00
      21    -1     0     0   502   503  0.000000000E+00  0.000000000E+00 -1.143959976E+03  1.143959976E+03  0.000000000E+00  0.00000E+00  9.000E+00
      25     1     1     2     0     0 -4.922550046E+00 -4.144711111E+00 -1.062493439E+03  1.069840599E+03  1.250007550E+02  0.00000E+00  9.000E+00
       5     1     1     2   501     0 -1.384147685E+00  7.427198149E+00  2.494627874E+01  2.649449868E+01  4.750000000E+00  0.00000E+00  9.000E+00
      -5     1     1     2     0   503 -4.043483228E+00  4.451771788E+00 -7.666061610E+01  7.704271925E+01  4.750000000E+00  0.00000E+00  9.000E+00
      21     1     1     2   502   512  1.035018096E+01 -7.734258825E+00  2.494820379E+02  2.498163970E+02  2.697398305E-06  0.00000E+00  9.000E+00
#rwgt            1           9   1.4709286700781516E-005           5      652083           0
</event>
<event>
      6   9999  3.45752E-01  1.49454E+01 -1.00000E+00  1.70509E-01
      21    -1     0     0   501   502  0.000000000E+00  0.000000000E+00  7.823486390E+02  7.823486390E+02  0.000000000E+00  0.00000E+00  9.000E+00
      21    -1     0     0   511   503  0.000000000E+00  0.000000000E+00 -7.657876070E+00  7.657876070E+00  0.000000000E+00  0.00000E+00  9.000E+00
      25     1     1     2     0     0 -3.774428249E+00  1.146015258E+01  6.555639236E+02  6.674837238E+02  1.249995285E+02  0.00000E+00  9.000E+00
       5     1     1     2   501     0 -1.903556596E-01  1.158646512E+00  4.498771530E+01  4.525301896E+01  4.750000000E+00  0.00000E+00  9.000E+00
      -5     1     1     2     0   503  3.571184309E-01  1.884638669E+00  3.502419761E+01  3.539684047E+01  4.750000000E+00  0.00000E+00  9.000E+00
      21     1     1     2   511   502  3.607665478E+00 -1.450343776E+01  3.911492634E+01  4.187293183E+01  8.259061849E-07  0.00000E+00  9.000E+00
#rwgt            1           9   2.8103813170668240E-003           5      654832           0
</event>
<event>
      6   9999 -3.45752E-01  5.95962E+00 -1.00000E+00  2.14467E-01
      21    -1     0     0   512   502  0.000000000E+00  0.000000000E+00  1.041765413E+02  1.041765413E+02  0.000000000E+00  0.00000E+00  9.000E+00
      21    -1     0     0   502   503  0.000000000E+00  0.000000000E+00 -9.552833955E+01  9.552833955E+01  0.000000000E+00  0.00000E+00  9.000E+00
      25     1     1     2     0     0  1.348050835E+01  5.243967728E+00 -4.182917715E+01  1.326069074E+02  1.250027540E+02  0.00000E+00  9.000E+00
       5     1     1     2   501     0 -1.448463202E+00  8.579316482E-01  3.887662874E+01  3.920189861E+01  4.750000000E+00  0.00000E+00  9.000E+00
      -5     1     1     2     0   503 -1.779938069E+01 -4.600253139E+00  1.090332722E+01  2.189578330E+01  4.750000000E+00  0.00000E+00  9.000E+00
      21     1     1     2   512   501  5.767335540E+00 -1.501646238E+00  6.974229852E-01  6.000291616E+00  3.071953077E-08  0.00000E+00  9.000E+00
#rwgt            1           9  -2.4859878231478416                5      656316           0
</event>
<event>
      6   9999  3.45752E-01  3.88261E+01 -1.00000E+00  1.40940E-01
      21    -1     0     0   501   511  0.000000000E+00  0.000000000E+00  4.280989420E+01  4.280989420E+01  0.000000000E+00  0.00000E+00  9.000E+00
      21    -1     0     0   502   503  0.000000000E+00  0.000000000E+00 -1.049400778E+03  1.049400778E+03  0.000000000E+00  0.00000E+00  9.000E+00
      25     1     1     2     0     0  5.865156957E+01  6.577162609E+01 -8.614118927E+02  8.748834129E+02  1.249984954E+02  0.00000E+00  9.000E+00
       5     1     1     2   501     0 -2.625282170E+01 -2.553828720E+01 -8.271814629E+00  3.784706300E+01  4.750000000E+00  0.00000E+00  9.000E+00
      -5     1     1     2     0   503  1.685311275E+00 -2.163909847E+01 -1.388394604E+02  1.406060067E+02  4.750000000E+00  0.00000E+00  9.000E+00
      21     1     1     2   502   511 -3.408405915E+01 -1.859424042E+01  1.932284320E+00  3.887418922E+01  1.549004197E-06  0.00000E+00  9.000E+00
#rwgt            1           9   2.9587981369756093E-002           5      659664           0
</event>
<event>
      6   9999  3.45752E-01  1.69854E+01 -1.00000E+00  1.65822E-01
      21    -1     0     0   501   502  0.000000000E+00  0.000000000E+00  1.625412302E+01  1.625412302E+01  0.000000000E+00  0.00000E+00  9.000E+00
      21    -1     0     0   502   512  0.000000000E+00  0.000000000E+00 -3.209062977E+03  3.209062977E+03  0.000000000E+00  0.00000E+00  9.000E+00
      25     1     1     2     0     0 -3.360522032E+01 -6.207845384E-01 -7.085132659E+02  7.202387260E+02  1.249923128E+02  0.00000E+00  9.000E+00
       5     1     1     2   501     0 -5.724250484E+00 -2.248863510E+00  7.689849822E+00  1.093255327E+01  4.750000000E+00  0.00000E+00  9.000E+00
      -5     1     1     2     0   503  2.747217044E+01 -9.292055825E+00 -2.048397435E+02  2.069370568E+02  4.750000000E+00  0.00000E+00  9.000E+00
      21     1     1     2   503   512  1.185730037E+01  1.216170387E+01 -2.287145695E+03  2.287208764E+03  3.051757812E-05  0.00000E+00  9.000E+00
#rwgt            1           9   2.0270851122436163E-004           5      660689           0
</event>
<event>
      6   9999  3.45752E-01  1.47624E+01 -1.00000E+00  1.70975E-01
      21    -1     0     0   501   511  0.000000000E+00  0.000000000E+00  6.949581189E+01  6.949581189E+01  0.000000000E+00  0.00000E+00  9.000E+00
      21    -1     0     0   502   503  0.000000000E+00  0.000000000E+00 -1.384536351E+03  1.384536351E+03  0.000000000E+00  0.00000E+00  9.000E+00
      25     1     1     2     0     0  1.947073007E+01 -4.881682851E+01 -5.815566336E+02  5.971554028E+02  1.249970598E+02  0.00000E+00  9.000E+00
       5     1     1     2   501     0  4.529665248E-01 -6.098584105E+00  4.629408683E+01  4.693722278E+01  4.750000000E+00  0.00000E+00  9.000E+00
      -5     1     1     2     0   503 -2.843931659E+01  6.697410607E+01 -7.891120434E+02  7.924737883E+02  4.750000000E+00  0.00000E+00  9.000E+00
      21     1     1     2   502   511  8.515619997E+00 -1.205869346E+01  9.334051184E+00  1.746574886E+01  9.757700887E-07  0.00000E+00  9.000E+00
#rwgt            1           9   2.5311163609704497E-004           5      662660           0
</event>
<event>
      6   9999  3.45752E-01  5.05659E+01 -1.00000E+00  1.34527E-01
      21    -1     0     0   502   512  0.000000000E+00  0.000000000E+00  9.285368727E+01  9.285368727E+01  0.000000000E+00  0.00000E+00  9.000E+00
      21    -1     0     0   501   502  0.000000000E+00  0.000000000E+00 -1.398531879E+03  1.398531879E+03  0.000000000E+00  0.00000E+00  9.000E+00
      25     1     1     2     0     0 -1.772153823E+02 -1.838583000E+02 -5.681740754E+02  6.353357146E+02  1.249820952E+02  0.00000E+00  9.000E+00
       5     1     1     2   501     0  1.267323161E+02  1.764240038E+02 -7.606585237E+02  7.910818297E+02  4.750000000E+00  0.00000E+00  9.000E+00
      -5     1     1     2     0   503  2.519671842E+00 -8.579031547E+00  3.401022628E+00  1.068072953E+01  4.750000000E+00  0.00000E+00  9.000E+00
      21     1     1     2   503   512  4.796339433E+01  1.601332770E+01  1.975338510E+01  5.428729209E+01  1.369610464E-06  0.00000E+00  9.000E+00
#rwgt            1           9   9.8690931790389153E-002           5      666722           0
</event>
<event>
      6   9999  3.45752E-01  2.78450E+01 -1.00000E+00  1.49963E-01
      21    -1     0     0   501   502  0.000000000E+00  0.000000000E+00  6.428437432E+01  6.428437432E+01  0.000000000E+00  0.00000E+00  9.000E+00
      21    -1     0     0   511   503  0.000000000E+00  0.000000000E+00 -1.472385301E+03  1.472385301E+03  0.000000000E+00  0.00000E+00  9.000E+00
      25     1     1     2     0     0 -1.163826439E+02 -2.043484410E+00 -9.062366740E+02  9.221968414E+02  1.250320334E+02  0.00000E+00  9.000E+00
       5     1     1     2   501     0  1.705667523E+00 -7.076915527E+00  4.970111211E+01  5.045547621E+01  4.750000000E+00  0.00000E+00  9.000E+00
      -5     1     1     2     0   503  8.979102220E+01 -3.370949180E+00 -4.151791498E+02  4.248177020E+02  4.750000000E+00  0.00000E+00  9.000E+00
      21     1     1     2   511   502  2.488595415E+01  1.249134912E+01 -1.363862145E+02  1.391996552E+02  0.000000000E+00  0.00000E+00  9.000E+00
#rwgt            1           9   2.0975072716492534E-004           5      668208           0
</event>
<event>
      6   9999  3.45752E-01  4.92018E+00 -1.00000E+00  2.30598E-01
      21    -1     0     0   501   502  0.000000000E+00  0.000000000E+00  6.572905823E+01  6.572905823E+01  0.000000000E+00  0.00000E+00  9.000E+00
      21    -1     0     0   512   503  0.000000000E+00  0.000000000E+00 -1.558317556E+02  1.558317556E+02  0.000000000E+00  0.00000E+00  9.000E+00
      25     1     1     2     0     0  5.024743378E+00 -2.291771400E+01 -6.389521112E+01  1.423218778E+02  1.249897965E+02  0.00000E+00  9.000E+00
       5     1     1     2   501     0  1.669128308E+00  2.039892776E-01  1.645707548E+01  1.721120084E+01  4.750000000E+00  0.00000E+00  9.000E+00
      -5     1     1     2     0   503 -2.132148445E+00  2.087013044E+01 -2.604773343E+00  2.166692747E+01  4.750000000E+00  0.00000E+00  9.000E+00
      21     1     1     2   512   502 -4.561723241E+00  1.843594276E+00 -4.005978836E+01  4.036080775E+01  4.768371582E-07  0.00000E+00  9.000E+00
#rwgt            1           9   3.2703410398231335E-003           5      670261           0
</event>
<event>
      6   9999  3.45752E-01  1.14405E+01 -1.00000E+00  1.81241E-01
      21    -1     0     0   501   502  0.000000000E+00  0.000000000E+00  1.049839582E+02  1.049839582E+02  0.000000000E+00  0.00000E+00  9.000E+00
      21    -1     0     0   511   503  0.000000000E+00  0.000000000E+00 -1.576392328E+02  1.576392328E+02  0.000000000E+00  0.00000E+00  9.000E+00
      25     1     1     2     0     0 -1.997571781E+01 -1.673062834E+01 -8.724858929E+01  1.546747176E+02  1.250320307E+02  0.00000E+00  9.000E+00
       5     1     1     2   501     0  4.918500577E+00 -1.940437102E+00  5.877988833E+01  5.920806293E+01  4.750000000E+00  0.00000E+00  9.000E+00
      -5     1     1     2     0   503  2.074171616E+01  8.742769795E+00 -1.166573687E+00  2.303428330E+01  4.750000000E+00  0.00000E+00  9.000E+00
      21     1     1     2   511   502 -5.684498929E+00  9.928295650E+00 -2.301999996E+01  2.570612730E+01  0.000000000E+00  0.00000E+00  9.000E+00
#rwgt            1           9   5.8374834285570255E-002           5      675500           0
</event>
<event>
      6   9999 -3.45752E-01  4.35502E+00 -1.00000E+00  2.40446E-01
      21    -1     0     0   501   502  0.000000000E+00  0.000000000E+00  4.519740998E+01  4.519740998E+01  0.000000000E+00  0.00000E+00  9.000E+00
       2    -1     0     0   502     0  0.000000000E+00  0.000000000E+00 -1.727158589E+03  1.727158589E+03  0.000000000E+00  0.00000E+00  9.000E+00
      25     1     1     2     0     0 -6.956765966E+00  1.026373401E+00 -5.496024071E+02  5.636815403E+02  1.249984917E+02  0.00000E+00  9.000E+00
       5     1     1     2   501     0 -8.038037362E-01  1.908148052E-01  2.605219140E+01  2.649455958E+01  4.750000000E+00  0.00000E+00  9.000E+00
      -5     1     1     2     0   503  4.104196677E+00  1.148640063E+00  1.102340814E+01  1.273741856E+01  4.750000000E+00  0.00000E+00  9.000E+00
       2     1     1     2   503     0  3.656373026E+00 -2.365828269E+00 -1.169434371E+03  1.169442480E+03  0.000000000E+00  0.00000E+00  9.000E+00
#rwgt            1           9 -0.17446639254111884                5      677919           0
</event>
<event>
      6   9999 -3.45752E-01  3.02105E+01 -1.00000E+00  1.47642E-01
      21    -1     0     0   501   502  0.000000000E+00  0.000000000E+00  4.510665240E+01  4.510665240E+01  0.000000000E+00  0.00000E+00  9.000E+00
       1    -1     0     0   502     0  0.000000000E+00  0.000000000E+00 -1.893411713E+03  1.893411713E+03  0.000000000E+00  0.00000E+00  9.000E+00
      25     1     1     2     0     0 -9.188401146E+01 -2.842582832E+01 -7.571731119E+02  7.734252917E+02  1.249994446E+02  0.00000E+00  9.000E+00
       5     1     1     2   501     0 -2.255268772E-01 -2.034888747E+00  3.212859917E+01  3.254229585E+01  4.750000000E+00  0.00000E+00  9.000E+00
      -5     1     1     2     0   503  9.393241940E+01  3.052303488E-01 -5.135026891E+02  5.220449854E+02  4.750000000E+00  0.00000E+00  9.000E+00
       1     1     1     2   503     0 -1.822881059E+00  3.015548672E+01 -6.097578587E+02  6.105057923E+02  7.629394531E-06  0.00000E+00  9.000E+00
#rwgt            1           9  -2.9195089303607062E-004           5      684143           0
</event>
<event>
      6   9999  3.45752E-01  8.87279E+00 -1.00000E+00  1.92836E-01
      21    -1     0     0   511   503  0.000000000E+00  0.000000000E+00  1.152318144E+01  1.152318144E+01  0.000000000E+00  0.00000E+00  9.000E+00
      21    -1     0     0   501   502  0.000000000E+00  0.000000000E+00 -7.282764361E+02  7.282764361E+02  0.000000000E+00  0.00000E+00  9.000E+00
      25     1     1     2     0     0  1.434361692E+01 -8.746557315E+00 -5.619929267E+02  5.759730690E+02  1.250067395E+02  0.00000E+00  9.000E+00
       5     1     1     2   501     0 -1.449409458E+01 -3.269986916E-01 -1.317918801E+02  1.326719559E+02  4.750000000E+00  0.00000E+00  9.000E+00
      -5     1     1     2     0   503  1.301487060E+00  2.757396579E-01 -2.162525123E+01  2.218070990E+01  4.750000000E+00  0.00000E+00  9.000E+00
      21     1     1     2   511   502 -1.151009401E+00  8.797816349E+00 -1.343196582E+00  8.973882784E+00  2.123088665E-07  0.00000E+00  9.000E+00
#rwgt            1           9   2.6425339264841117E-004           5      685977           0
</event>
<event>
      6   9999 -3.45752E-01  8.67792E+00 -1.00000E+00  1.93923E-01
      21    -1     0     0   501   502  0.000000000E+00  0.000000000E+00  3.319076441E+01  3.319076441E+01  0.000000000E+00  0.00000E+00  9.000E+00
      21    -1     0     0   512   503  0.000000000E+00  0.000000000E+00 -1.194383019E+03  1.194383019E+03  0.000000000E+00  0.00000E+00  9.000E+00
      25     1     1     2     0     0  1.931776789E+00 -4.260483058E+01 -6.034580624E+02  6.177425361E+02  1.250012183E+02  0.00000E+00  9.000E+00
       5     1     1     2   501     0 -5.198827551E+00  4.144349704E+00  2.468506381E+01  2.600227524E+01  4.750000000E+00  0.00000E+00  9.000E+00
      -5     1     1     2     0   503 -1.855425866E+00  3.145573422E+01 -4.606062586E+02  4.617072598E+02  4.750000000E+00  0.00000E+00  9.000E+00
      21     1     1     2   512   502  5.122476629E+00  7.004746656E+00 -1.218129972E+02  1.221217120E+02  1.348699152E-06  0.00000E+00  9.000E+00
#rwgt            1           9 -0.10586581912853367                5      688580           0
</event>
<event>
      6   9999 -3.45752E-01  2.82239E+01 -1.00000E+00  1.49573E-01
      21    -1     0     0   501   502  0.000000000E+00  0.000000000E+00  2.005284083E+01  2.005284083E+01  0.000000000E+00  0.00000E+00  9.000E+00
      21    -1     0     0   511   503  0.000000000E+00  0.000000000E+00 -2.627681505E+03  2.627681505E+03  0.000000000E+00  0.00000E+00  9.000E+00
      25     1     1     2     0     0 -2.824857114E+01  1.028266249E+02 -7.890996556E+02  8.060241522E+02  1.250014840E+02  0.00000E+00  9.000E+00
       5     1     1     2   501     0 -3.127668301E+00 -9.135185058E-01  7.177513867E+00  9.203044625E+00  4.750000000E+00  0.00000E+00  9.000E+00
      -5     1     1     2     0   503  2.007586147E+01 -1.277760448E+02 -1.476881008E+03  1.482541680E+03  4.750000000E+00  0.00000E+00  9.000E+00
      21     1     1     2   511   502  1.130037797E+01  2.586293849E+01 -3.488255142E+02  3.499654690E+02  3.814697266E-06  0.00000E+00  9.000E+00
#rwgt            1           9  -1.1268233395066145E-002           5      692250           0
</event>
<event>
      6   9999 -3.45752E-01  2.59627E+00 -1.00000E+00  2.94430E-01
      21    -1     0     0   501   512  0.000000000E+00  0.000000000E+00  1.890629749E+01  1.890629749E+01  0.000000000E+00  0.00000E+00  9.000E+00
      21    -1     0     0   502   503  0.000000000E+00  0.000000000E+00 -7.012021773E+02  7.012021773E+02  0.000000000E+00  0.00000E+00  9.000E+00
      25     1     1     2     0     0  8.360013208E+00  3.819479183E-01 -6.560008313E+02  6.678578689E+02  1.250080261E+02  0.00000E+00  9.000E+00
       5     1     1     2   501     0 -3.073157421E+00 -1.744962072E+00 -1.148423000E+01  1.292049643E+01  4.750000000E+00  0.00000E+00  9.000E+00
      -5     1     1     2     0   503 -3.445036847E+00 -4.668266929E-01 -2.660764143E+01  2.725096858E+01  4.750000000E+00  0.00000E+00  9.000E+00
      21     1     1     2   502   512 -1.841818940E+00  1.829840847E+00  1.179682293E+01  1.207914094E+01  6.743495762E-07  0.00000E+00  9.000E+00
#rwgt            1           9  -6.9125229156391493E-002           5      694820           0
</event>
<event>
      6   9999  3.45752E-01  5.11232E+00 -1.00000E+00  2.24225E-01
      21    -1     0     0   501   511  0.000000000E+00  0.000000000E+00  8.975110793E+02  8.975110793E+02  0.000000000E+00  0.00000E+00  9.000E+00
      21    -1     0     0   502   503  0.000000000E+00  0.000000000E+00 -7.546229627E+02  7.546229627E+02  0.000000000E+00  0.00000E+00  9.000E+00
      25     1     1     2     0     0 -1.449745649E+00 -4.756231031E+00 -6.107143055E+02  6.233946994E+02  1.249970591E+02  0.00000E+00  9.000E+00
       5     1     1     2   501     0  3.961125496E-01 -2.656713883E-01 -3.633383172E-01  4.787692677E+00  4.750000000E+00  0.00000E+00  9.000E+00
      -5     1     1     2     0   503 -1.839703445E-01  9.982163135E+00 -1.347591984E+02  1.352119872E+02  4.750000000E+00  0.00000E+00  9.000E+00
      21     1     1     2   502   511  1.237603444E+00 -4.960260716E+00  8.887249587E+02  8.887396628E+02  1.078959322E-05  0.00000E+00  9.000E+00
#rwgt            1           9   3.7423380550658908E-004           5      700534           0
</event>
<event>
      6   9999  3.45752E-01  5.06625E+00 -1.00000E+00  2.24830E-01
      21    -1     0     0   512   502  0.000000000E+00  0.000000000E+00  2.266218608E+02  2.266218608E+02  0.000000000E+00  0.00000E+00  9.000E+00
      21    -1     0     0   502   503  0.000000000E+00  0.000000000E+00 -8.239091682E+02  8.239091682E+02  0.000000000E+00  0.00000E+00  9.000E+00
      25     1     1     2     0     0 -3.719527544E+00 -1.634028820E+01 -7.934089334E+02  8.033689554E+02  1.249924118E+02  0.00000E+00  9.000E+00
       5     1     1     2   501     0 -7.445603167E+00 -1.217078225E+00 -5.266636127E+00  1.035462419E+01  4.750000000E+00  0.00000E+00  9.000E+00
      -5     1     1     2     0   503  7.597479775E+00  1.396032518E+01 -1.378868055E+01  2.157087363E+01  4.750000000E+00  0.00000E+00  9.000E+00
      21     1     1     2   512   501  3.567650935E+00  3.597041244E+00  2.151769427E+02  2.152365757E+02  0.000000000E+00  0.00000E+00  9.000E+00
#rwgt            1           9   4.5992421560123338E-004           5      704624           0
</event>
<event>
      6   9999  3.45752E-01  1.21676E+01 -1.00000E+00  1.78644E-01
       1    -1     0     0   502     0  0.000000000E+00  0.000000000E+00  2.243398768E+01  2.243398768E+01  0.000000000E+00  0.00000E+00  9.000E+00
      21    -1     0     0   501   502  0.000000000E+00  0.000000000E+00 -6.782717583E+02  6.782717583E+02  0.000000000E+00  0.00000E+00  9.000E+00
      25     1     1     2     0     0 -6.347834874E+00 -1.038589235E+01 -6.353603892E+02  6.476551852E+02  1.250050120E+02  0.00000E+00  9.000E+00
       5     1     1     2   501     0  1.016399665E-02 -1.205449348E+00 -5.309914768E+00  7.225711472E+00  4.750000000E+00  0.00000E+00  9.000E+00
      -5     1     1     2     0   503  3.567762640E+00 -2.567582576E-01 -2.771551086E+01  2.834619723E+01  4.750000000E+00  0.00000E+00  9.000E+00
       1     1     1     2   503     0  2.769908237E+00  1.184809996E+01  1.254804420E+01  1.747865205E+01  1.338120956E-06  0.00000E+00  9.000E+00
#rwgt            1           9   3.7087380196970714E-004           5      708511           0
</event>
<event>
      6   9999  3.45752E-01  7.13182E+00 -1.00000E+00  2.04111E-01
      21    -1     0     0   501   502  0.000000000E+00  0.000000000E+00  2.570897509E+01  2.570897509E+01  0.000000000E+00  0.00000E+00  9.000E+00
       2    -1     0     0   502     0  0.000000000E+00  0.000000000E+00 -2.052476281E+03  2.052476281E+03  0.000000000E+00  0.00000E+00  9.000E+00
      25     1     1     2     0     0 -2.410244706E+00 -5.914676331E+01 -3.932723812E+02  4.168832934E+02  1.249974626E+02  0.00000E+00  9.000E+00
       5     1     1     2   501     0 -4.377499123E+00 -2.509771720E+00  1.117577888E+01  1.314998046E+01  4.750000000E+00  0.00000E+00  9.000E+00
      -5     1     1     2     0   503 -2.792799569E-01  6.261569152E+01 -5.685094117E+02  5.719670589E+02  4.750000000E+00  0.00000E+00  9.000E+00
       2     1     1     2   503     0  7.067023786E+00 -9.591564840E-01 -1.076161292E+03  1.076184923E+03  1.525878906E-05  0.00000E+00  9.000E+00
#rwgt            1           9   3.6400344426434001E-003           5      710117           0
</event>
<event>
      6   9999  3.45752E-01  1.48427E+01 -1.00000E+00  1.70769E-01
      21    -1     0     0   501   511  0.000000000E+00  0.000000000E+00  1.250745404E+02  1.250745404E+02  0.000000000E+00  0.00000E+00  9.000E+00
      21    -1     0     0   502   503  0.000000000E+00  0.000000000E+00 -2.462488197E+03  2.462488197E+03  0.000000000E+00  0.00000E+00  9.000E+00
      25     1     1     2     0     0  7.478750276E+00  1.015031614E+01 -2.251735648E+03  2.255237863E+03  1.250017201E+02  0.00000E+00  9.000E+00
       5     1     1     2   501     0  8.969625835E+00 -2.121689127E+01  4.870940675E+01  5.409047484E+01  4.750000000E+00  0.00000E+00  9.000E+00
      -5     1     1     2     0   503 -3.340012704E+00  4.104011862E+00 -2.054829885E+02  2.056059815E+02  4.750000000E+00  0.00000E+00  9.000E+00
      21     1     1     2   502   511 -1.310836341E+01  6.962563270E+00  7.109557341E+01  7.262841756E+01  4.768371582E-06  0.00000E+00  9.000E+00
#rwgt            1           9   1.6595489278597577E-002           5      713737           0
</event>
<event>
      6   9999 -3.45752E-01  1.00267E+01 -1.00000E+00  1.87072E-01
      21    -1     0     0   501   502  0.000000000E+00  0.000000000E+00  6.074667179E+01  6.074667179E+01  0.000000000E+00  0.00000E+00  9.000E+00
      21    -1     0     0   512   503  0.000000000E+00  0.000000000E+00 -7.641980292E+02  7.641980292E+02  0.000000000E+00  0.00000E+00  9.000E+00
      25     1     1     2     0     0 -6.008139348E+01  5.782766398E+01 -8.478181338E+01  1.725297527E+02  1.249989884E+02  0.00000E+00  9.000E+00
       5     1     1     2   501     0 -5.032483714E-01 -1.980993009E+00  9.645485238E+00  1.094419836E+01  4.750000000E+00  0.00000E+00  9.000E+00
      -5     1     1     2     0   503  6.427393200E+01 -6.517000628E+01 -3.167503327E+02  3.297447555E+02  4.750000000E+00  0.00000E+00  9.000E+00
      21     1     1     2   512   502 -3.689290157E+00  9.323335308E+00 -3.115646966E+02  3.117259944E+02  0.000000000E+00  0.00000E+00  9.000E+00
#rwgt            1           9 -0.12389096805684138                5      717272           0
</event>
<event>
      6   9999  3.45752E-01  1.32817E+01 -1.00000E+00  1.75081E-01
      21    -1     0     0   501   502  0.000000000E+00  0.000000000E+00  4.498202784E+02  4.498202784E+02  0.000000000E+00  0.00000E+00  9.000E+00
      21    -1     0     0   502   511  0.000000000E+00  0.000000000E+00 -1.015048789E+03  1.015048789E+03  0.000000000E+00  0.00000E+00  9.000E+00
      25     1     1     2     0     0 -4.901626688E+01 -6.501204066E+01 -7.087781909E+01  1.651564243E+02  1.249952775E+02  0.00000E+00  9.000E+00
       5     1     1     2   501     0 -4.741280108E+00  3.012260532E+00  1.764288952E+02  1.765821934E+02  4.750000000E+00  0.00000E+00  9.000E+00
      -5     1     1     2     0   503  4.471142490E+01  7.172455853E+01  2.182031504E+02  2.340485017E+02  4.750000000E+00  0.00000E+00  9.000E+00
      21     1     1     2   503   511  9.046122094E+00 -9.724778402E+00 -8.889827366E+02  8.890819477E+02  1.525878906E-05  0.00000E+00  9.000E+00
#rwgt            1           9  0.14672253038938105                5      720667           0
</event>
<event>
      6   9999  3.45752E-01  7.41241E+00 -1.00000E+00  2.02020E-01
      21    -1     0     0   501   502  0.000000000E+00  0.000000000E+00  4.410221744E+00  4.410221744E+00  0.000000000E+00  0.00000E+00  9.000E+00
      21    -1     0     0   502   512  0.000000000E+00  0.000000000E+00 -2.214778244E+03  2.214778244E+03  0.000000000E+00  0.00000E+00  9.000E+00
      25     1     1     2     0     0  5.801449853E+00  2.141774309E+00 -1.243072191E+03  1.249356823E+03  1.250030274E+02  0.00000E+00  9.000E+00
       5     1     1     2   501     0  1.231530726E-02  7.591023556E-01 -3.916235667E+00  6.202885607E+00  4.750000000E+00  0.00000E+00  9.000E+00
      -5     1     1     2     0   503  1.142204410E+00 -3.399465561E-01 -5.466311005E+01  5.488203982E+01  4.750000000E+00  0.00000E+00  9.000E+00
      21     1     1     2   503   512 -6.955969571E+00 -2.560930109E+00 -9.087164854E+02  9.087467164E+02  1.078959322E-05  0.00000E+00  9.000E+00
#rwgt            1           9   1.3267412349406409E-004           5      723956           0
</event>
<event>
      6   9999  3.45752E-01  9.75107E+00 -1.00000E+00  1.88354E-01
      21    -1     0     0   501   511  0.000000000E+00  0.000000000E+00  1.223575124E+01  1.223575124E+01  0.000000000E+00  0.00000E+00  9.000E+00
      21    -1     0     0   502   503  0.000000000E+00  0.000000000E+00 -7.288088280E+02  7.288088280E+02  0.000000000E+00  0.00000E+00  9.000E+00
      25     1     1     2     0     0 -4.138747610E+00  1.845434943E+01 -6.414681409E+02  6.538081079E+02  1.250038958E+02  0.00000E+00  9.000E+00
       5     1     1     2   501     0  2.686711774E+00 -7.727278641E+00 -4.678201060E+01  4.772890394E+01  4.750000000E+00  0.00000E+00  9.000E+00
      -5     1     1     2     0   503  2.251071045E+00 -1.008792067E+00 -2.922851497E+01  2.971453466E+01  4.750000000E+00  0.00000E+00  9.000E+00
      21     1     1     2   502   511 -7.990352091E-01 -9.718278720E+00  9.055896455E-01  9.793032786E+00  4.106615120E-07  0.00000E+00  9.000E+00
#rwgt            1           9   2.0830852623300764E-005           5      727253           0
</event>
<event>
      6   9999  3.45752E-01  2.84575E+01 -1.00000E+00  1.49336E-01
      21    -1     0     0   501   512  0.000000000E+00  0.000000000E+00  1.231858174E+01  1.231858174E+01  0.000000000E+00  0.00000E+00  9.000E+00
      21    -1     0     0   502   503  0.000000000E+00  0.000000000E+00 -3.858266351E+03  3.858266351E+03  0.000000000E+00  0.00000E+00  9.000E+00
      25     1     1     2     0     0  1.249339710E+01  2.050994025E+01 -3.387142356E+03  3.389533152E+03  1.249996380E+02  0.00000E+00  9.000E+00
       5     1     1     2   501     0  2.657192030E+00  7.612042696E+00 -7.781801351E+00  1.217057089E+01  4.750000000E+00  0.00000E+00  9.000E+00
      -5     1     1     2     0   503  1.980508591E-01 -4.158468271E+00 -4.371968366E+02  4.372424597E+02  4.750000000E+00  0.00000E+00  9.000E+00
      21     1     1     2   502   512 -1.534863999E+01 -2.396351468E+01 -1.382677582E+01  3.163875021E+01  1.668930054E-06  0.00000E+00  9.000E+00
#rwgt            1           9   6.5386422294800000E-005           5      729524           0
</event>
<event>
      6   9999  3.45752E-01  5.56228E+00 -1.00000E+00  2.18745E-01
      21    -1     0     0   511   502  0.000000000E+00  0.000000000E+00  3.918703926E+01  3.918703926E+01  0.000000000E+00  0.00000E+00  9.000E+00
      21    -1     0     0   502   503  0.000000000E+00  0.000000000E+00 -7.963116350E+02  7.963116350E+02  0.000000000E+00  0.00000E+00  9.000E+00
      25     1     1     2     0     0  1.593751932E+00  3.672188891E-01 -7.717313727E+02  7.817907896E+02  1.249994088E+02  0.00000E+00  9.000E+00
       5     1     1     2   501     0  1.922145659E-01  7.426902543E+00  2.946337537E+01  3.075465519E+01  4.750000000E+00  0.00000E+00  9.000E+00
      -5     1     1     2     0   503  1.406507370E+00 -3.239222993E+00 -1.618601825E+01  1.723428314E+01  4.750000000E+00  0.00000E+00  9.000E+00
      21     1     1     2   511   501 -3.192473868E+00 -4.554898439E+00  1.329419884E+00  5.718946268E+00  8.688795410E-08  0.00000E+00  9.000E+00
#rwgt            1           9   2.8884242878252629E-004           5      730523           0
</event>
<event>
      6   9999  3.45752E-01  7.56090E+00 -1.00000E+00  2.00963E-01
      21    -1     0     0   501   502  0.000000000E+00  0.000000000E+00  2.025097145E+03  2.025097145E+03  0.000000000E+00  0.00000E+00  9.000E+00
      21    -1     0     0   512   503  0.000000000E+00  0.000000000E+00 -3.486674770E+00  3.486674770E+00  0.000000000E+00  0.00000E+00  9.000E+00
      25     1     1     2     0     0 -4.288008138E+00  1.101719555E+00  1.305746021E+03  1.311722669E+03  1.249963627E+02  0.00000E+00  9.000E+00
       5     1     1     2   501     0 -1.363677253E+00  3.425778653E-01  5.200787543E+02  5.201023458E+02  4.750000000E+00  0.00000E+00  9.000E+00
      -5     1     1     2     0   503 -1.385785531E+00 -4.208562552E+00  1.623074088E+02  1.624373413E+02  4.750000000E+00  0.00000E+00  9.000E+00
      21     1     1     2   512   502  7.037470922E+00  2.764265132E+00  3.347828650E+01  3.432146305E+01  9.536743164E-07  0.00000E+00  9.000E+00
#rwgt            1           9   5.2885386136343579E-004           5      735667           0
</event>
<event>
      6   9999  3.45752E-01  2.62723E+00 -1.00000E+00  2.92905E-01
      21    -1     0     0   501   511  0.000000000E+00  0.000000000E+00  8.883208255E+00  8.883208255E+00  0.000000000E+00  0.00000E+00  9.000E+00
      21    -1     0     0   502   503  0.000000000E+00  0.000000000E+00 -1.708085856E+03  1.708085856E+03  0.000000000E+00  0.00000E+00  9.000E+00
      25     1     1     2     0     0  6.710232901E+00 -4.822944457E+00 -1.651710911E+03  1.656454655E+03  1.249992098E+02  0.00000E+00  9.000E+00
       5     1     1     2   501     0  1.868444257E-01  3.618721436E+00  4.356913942E+00  7.394271754E+00  4.750000000E+00  0.00000E+00  9.000E+00
      -5     1     1     2     0   503 -7.430245277E+00 -1.368336890E+00 -4.037753062E+01  4.135200563E+01  4.750000000E+00  0.00000E+00  9.000E+00
      21     1     1     2   502   511  5.331679504E-01  2.572559911E+00 -1.147111981E+01  1.176813164E+01  2.384185791E-07  0.00000E+00  9.000E+00
#rwgt            1           9   2.6867437089806720E-003           5      738314           0
</event>
<event>
      6   9999  3.45752E-01  3.49253E+01 -1.00000E+00  1.43691E-01
      21    -1     0     0   501   502  0.000000000E+00  0.000000000E+00  1.550097541E+01  1.550097541E+01  0.000000000E+00  0.00000E+00  9.000E+00
      21    -1     0     0   502   512  0.000000000E+00  0.000000000E+00 -1.306025772E+03  1.306025772E+03  0.000000000E+00  0.00000E+00  9.000E+00
      25     1     1     2     0     0 -3.143812765E+01  8.237009915E+01 -7.481213443E+02  7.635983559E+02  1.249948569E+02  0.00000E+00  9.000E+00
       5     1     1     2   501     0 -2.204054190E+00  6.778382479E-01 -1.797884137E+00  5.577831741E+00  4.750000000E+00  0.00000E+00  9.000E+00
      -5     1     1     2     0   503  7.448805881E-01 -7.131996389E+01 -2.624299271E+02  2.719910315E+02  4.750000000E+00  0.00000E+00  9.000E+00
      21     1     1     2   503   512  3.289730126E+01 -1.172797351E+01 -2.781756409E+02  2.803595280E+02  3.814697266E-06  0.00000E+00  9.000E+00
#rwgt            1           9   1.8999757118238453E-004           5      746054           0
</event>
<event>
      6   9999  3.45752E-01  1.62515E+01 -1.00000E+00  1.67410E-01
      21    -1     0     0   501   502  0.000000000E+00  0.000000000E+00  2.887281835E+01  2.887281835E+01  0.000000000E+00  0.00000E+00  9.000E+00
      21    -1     0     0   502   511  0.000000000E+00  0.000000000E+00 -1.081961411E+03  1.081961411E+03  0.000000000E+00  0.00000E+00  9.000E+00
      25     1     1     2     0     0  7.045041988E+01  9.658355322E+01 -5.483002511E+02  5.749347662E+02  1.250007026E+02  0.00000E+00  9.000E+00
       5     1     1     2   501     0 -2.050994140E-01  3.837061013E+00  7.183030326E+00  9.429927235E+00  4.750000000E+00  0.00000E+00  9.000E+00
      -5     1     1     2     0   503 -6.020127602E+01 -8.764454656E+01 -4.413433448E+02  4.539958928E+02  4.750000000E+00  0.00000E+00  9.000E+00
      21     1     1     2   503   511 -1.004404444E+01 -1.277606767E+01 -7.062802735E+01  7.247364335E+01  1.348699152E-06  0.00000E+00  9.000E+00
#rwgt            1           9   4.7116692021138666E-004           5      747848           0
</event>
<event>
      6   9999 -3.45752E-01  9.56368E+00 -1.00000E+00  1.89258E-01
      21    -1     0     0   512   502  0.000000000E+00  0.000000000E+00  1.514221029E+01  1.514221029E+01  0.000000000E+00  0.00000E+00  9.000E+00
      21    -1     0     0   502   503  0.000000000E+00  0.000000000E+00 -6.798251857E+02  6.798251857E+02  0.000000000E+00  0.00000E+00  9.000E+00
      25     1     1     2     0     0  3.017929534E+01 -2.852735716E+01 -4.916954167E+02  5.090323278E+02  1.249997120E+02  0.00000E+00  9.000E+00
       5     1     1     2   501     0 -3.433801151E+01  3.476677866E+01 -1.363233075E+02  1.448945638E+02  4.750000000E+00  0.00000E+00  9.000E+00
      -5     1     1     2     0   503 -9.182232237E-01  1.865433964E+00 -2.681609524E+01  2.731278898E+01  4.750000000E+00  0.00000E+00  9.000E+00
      21     1     1     2   512   501  5.076939402E+00 -8.104855460E+00 -9.848155989E+00  1.372771547E+01  3.576278687E-07  0.00000E+00  9.000E+00
#rwgt            1           9 -0.14295873749390867                5      750282           0
</event>
<event>
      6   9999  3.45752E-01  1.44970E+01 -1.00000E+00  1.71665E-01
      21    -1     0     0   501   502  0.000000000E+00  0.000000000E+00  1.898844829E+01  1.898844829E+01  0.000000000E+00  0.00000E+00  9.000E+00
      21    -1     0     0   502   511  0.000000000E+00  0.000000000E+00 -1.040837962E+03  1.040837962E+03  0.000000000E+00  0.00000E+00  9.000E+00
      25     1     1     2     0     0  9.090144527E+00 -8.875196213E+00 -8.476409974E+02  8.569026428E+02  1.250019162E+02  0.00000E+00  9.000E+00
       5     1     1     2   501     0 -1.518419836E+00 -2.323471007E+00  1.310725754E+01  1.421502081E+01  4.750000000E+00  0.00000E+00  9.000E+00
      -5     1     1     2     0   503 -4.785392327E+00 -3.028072394E+00 -3.964848721E+01  4.033155390E+01  4.750000000E+00  0.00000E+00  9.000E+00
      21     1     1     2   503   511 -2.786332364E+00  1.422673961E+01 -1.476672863E+02  1.483771923E+02  1.907348633E-06  0.00000E+00  9.000E+00
#rwgt            1           9   8.7757958347024578E-006           5      752777           0
</event>
<event>
      6   9999  3.45752E-01  5.98466E+00 -1.00000E+00  2.14213E-01
      21    -1     0     0   501   512  0.000000000E+00  0.000000000E+00  2.590585290E+02  2.590585290E+02  0.000000000E+00  0.00000E+00  9.000E+00
      21    -1     0     0   502   503  0.000000000E+00  0.000000000E+00 -9.325554816E+02  9.325554816E+02  0.000000000E+00  0.00000E+00  9.000E+00
      25     1     1     2     0     0 -3.136961425E+00 -5.301108945E-01 -8.683953872E+02  8.773515957E+02  1.250006097E+02  0.00000E+00  9.000E+00
       5     1     1     2   501     0 -6.711293836E+00 -1.161138816E+00  1.068168060E+01  1.352961599E+01  4.750000000E+00  0.00000E+00  9.000E+00
      -5     1     1     2     0   503  3.912485409E+00  2.454659084E+00 -5.803258013E+01  5.840955187E+01  4.750000000E+00  0.00000E+00  9.000E+00
      21     1     1     2   502   512  5.935769852E+00 -7.634093733E-01  2.422493341E+02  2.423232470E+02  4.672030912E-06  0.00000E+00  9.000E+00
#rwgt            1           9   2.6641889655522148E-004           5      754799           0
</event>
<event>
      6   9999  3.45752E-01  1.50824E+01 -1.00000E+00  1.70166E-01
      21    -1     0     0   511   502  0.000000000E+00  0.000000000E+00  5.566938963E+00  5.566938963E+00  0.000000000E+00  0.00000E+00  9.000E+00
      21    -1     0     0   502   503  0.000000000E+00  0.000000000E+00 -4.991636667E+03  4.991636667E+03  0.000000000E+00  0.00000E+00  9.000E+00
      25     1     1     2     0     0  1.226893203E+01  2.232384672E+01 -4.476253228E+03  4.478070680E+03  1.250006861E+02  0.00000E+00  9.000E+00
       5     1     1     2   501     0 -7.490360875E+00 -6.520209442E+00 -1.778226608E+02  1.781630709E+02  4.750000000E+00  0.00000E+00  9.000E+00
      -5     1     1     2     0   503 -1.370296342E+01 -3.644995636E+00 -3.231297513E+02  3.234755878E+02  4.750000000E+00  0.00000E+00  9.000E+00
      21     1     1     2   511   501  8.924392265E+00 -1.215864164E+01 -8.864088179E+00  1.749426772E+01  2.142453284E-06  0.00000E+00  9.000E+00
#rwgt            1           9   1.3377999787800585                5      758863           0
</event>
<event>
      6   9999  3.45752E-01  5.24966E+00 -1.00000E+00  2.22472E-01
      21    -1     0     0   512   502  0.000000000E+00  0.000000000E+00  8.722306489E+01  8.722306489E+01  0.000000000E+00  0.00000E+00  9.000E+00
      21    -1     0     0   502   503  0.000000000E+00  0.000000000E+00 -1.315760001E+03  1.315760001E+03  0.000000000E+00  0.00000E+00  9.000E+00
      25     1     1     2     0     0  1.402840775E+01  6.137562110E+00 -1.293396829E+03  1.299513413E+03  1.250011445E+02  0.00000E+00  9.000E+00
       5     1     1     2   501     0 -1.029669203E+01 -1.689503389E+00  4.410508418E+01  4.557079371E+01  4.750000000E+00  0.00000E+00  9.000E+00
      -5     1     1     2     0   503 -8.029893503E-01 -9.128303818E-02 -1.807990878E+01  1.871092531E+01  4.750000000E+00  0.00000E+00  9.000E+00
      21     1     1     2   512   501 -2.928726373E+00 -4.356775683E+00  3.883471739E+01  3.918793446E+01  2.132480600E-06  0.00000E+00  9.000E+00
#rwgt            1           9   2.0789539861565715E-004           5      760218           0
</event>
<event>
      6   9999  3.45752E-01  1.85060E+01 -1.00000E+00  1.62827E-01
      21    -1     0     0   502   503  0.000000000E+00  0.000000000E+00  1.079625298E+01  1.079625298E+01  0.000000000E+00  0.00000E+00  9.000E+00
      21    -1     0     0   511   502  0.000000000E+00  0.000000000E+00 -2.183639759E+03  2.183639759E+03  0.000000000E+00  0.00000E+00  9.000E+00
      25     1     1     2     0     0 -5.136509915E+01 -1.696424622E+01 -1.680897178E+03  1.686407401E+03  1.250137624E+02  0.00000E+00  9.000E+00
       5     1     1     2   501     0 -9.298371996E+00  2.861123387E+00 -7.232655522E+01  7.313233785E+01  4.750000000E+00  0.00000E+00  9.000E+00
      -5     1     1     2     0   503  4.287761587E+01  1.921540386E+01 -6.800428537E+01  8.279412429E+01  4.750000000E+00  0.00000E+00  9.000E+00
      21     1     1     2   511   501  1.778585528E+01 -5.112281029E+00 -3.516154879E+02  3.521021491E+02  5.394796609E-06  0.00000E+00  9.000E+00
#rwgt            1           9   1407.9416531251338                5      766077           0
</event>
<event>
      6   9999  3.45752E-01  6.57212E+00 -1.00000E+00  2.08693E-01
      21    -1     0     0   501   512  0.000000000E+00  0.000000000E+00  1.759853802E+01  1.759853802E+01  0.000000000E+00  0.00000E+00  9.000E+00
      21    -1     0     0   502   503  0.000000000E+00  0.000000000E+00 -8.179416165E+02  8.179416165E+02  0.000000000E+00  0.00000E+00  9.000E+00
      25     1     1     2     0     0 -3.363569568E+00 -2.108773855E+00 -7.942313906E+02  8.040187638E+02  1.250076403E+02  0.00000E+00  9.000E+00
       5     1     1     2   501     0  3.679940745E+00 -4.005093060E+00  9.090014652E+00  1.160920327E+01  4.750000000E+00  0.00000E+00  9.000E+00
      -5     1     1     2     0   503  5.483150718E-01 -4.011215055E-01 -1.128186648E+01  1.225987598E+01  4.750000000E+00  0.00000E+00  9.000E+00
      21     1     1     2   502   512 -8.646862489E-01  6.514988420E+00 -3.919835990E+00  7.652311455E+00  1.685873940E-07  0.00000E+00  9.000E+00
#rwgt            1           9   9.1367468027395225E-004           5      768274           0
</event>
<event>
      6   9999  3.45752E-01  2.03551E+01 -1.00000E+00  1.59629E-01
      21    -1     0     0   511   502  0.000000000E+00  0.000000000E+00  1.383558530E+01  1.383558530E+01  0.000000000E+00  0.00000E+00  9.000E+00
      21    -1     0     0   502   503  0.000000000E+00  0.000000000E+00 -4.839409876E+02  4.839409876E+02  0.000000000E+00  0.00000E+00  9.000E+00
      25     1     1     2     0     0 -1.400153766E+01  7.982852538E+00 -4.002746539E+02  4.196467384E+02  1.249952698E+02  0.00000E+00  9.000E+00
       5     1     1     2   501     0 -3.585938346E-01  7.518086375E-01 -5.818865401E+00  7.557479760E+00  4.750000000E+00  0.00000E+00  9.000E+00
      -5     1     1     2     0   503  1.568060241E+00  7.098651779E+00 -1.284242246E+01  1.550290246E+01  4.750000000E+00  0.00000E+00  9.000E+00
      21     1     1     2   511   501  1.279207126E+01 -1.583331295E+01 -5.116946051E+01  5.506945229E+01  6.743495762E-07  0.00000E+00  9.000E+00
#rwgt            1           9   4.7491983589727565E-003           5      772348           0
</event>
<event>
      6   9999  3.45752E-01  6.20821E+00 -1.00000E+00  2.12015E-01
      21    -1     0     0   501   512  0.000000000E+00  0.000000000E+00  9.132942229E+00  9.132942229E+00  0.000000000E+00  0.00000E+00  9.000E+00
      21    -1     0     0   502   503  0.000000000E+00  0.000000000E+00 -8.104505476E+02  8.104505476E+02  0.000000000E+00  0.00000E+00  9.000E+00
      25     1     1     2     0     0 -8.669796237E+00  4.031805794E+00 -7.772224342E+02  7.872689599E+02  1.250051283E+02  0.00000E+00  9.000E+00
       5     1     1     2   501     0 -2.461213590E-01  1.021609080E-01 -8.668436715E+00  9.888139747E+00  4.750000000E+00  0.00000E+00  9.000E+00
      -5     1     1     2     0   503  2.962690802E+00 -2.373003058E+00 -1.502093732E+01  1.620492945E+01  4.750000000E+00  0.00000E+00  9.000E+00
      21     1     1     2   502   512  5.953226794E+00 -1.760963644E+00 -4.057970654E-01  6.221460718E+00  2.149721689E-07  0.00000E+00  9.000E+00
#rwgt            1           9   9.9886063577004269E-005           5      774660           0
</event>
<event>
      6   9999  3.45752E-01  9.51188E+00 -1.00000E+00  1.89512E-01
      21    -1     0     0   511   503  0.000000000E+00  0.000000000E+00  2.398830649E+01  2.398830649E+01  0.000000000E+00  0.00000E+00  9.000E+00
      21    -1     0     0   501   502  0.000000000E+00  0.000000000E+00 -8.877586851E+02  8.877586851E+02  0.000000000E+00  0.00000E+00  9.000E+00
      25     1     1     2     0     0 -4.853877364E+01 -2.962414211E+01 -3.699895534E+02  3.946532024E+02  1.250011126E+02  0.00000E+00  9.000E+00
       5     1     1     2   501     0  1.246689290E+01 -9.788641685E+00 -1.958329590E+02  1.965307896E+02  4.750000000E+00  0.00000E+00  9.000E+00
      -5     1     1     2     0   503  2.845007710E+01  3.372209676E+01 -3.053205181E+02  3.085283909E+02  4.750000000E+00  0.00000E+00  9.000E+00
      21     1     1     2   511   502  7.621803647E+00  5.690687038E+00  7.372651962E+00  1.203460871E+01  2.920019320E-07  0.00000E+00  9.000E+00
#rwgt            1           9   1.5961373782143484E-003           5      777726           0
</event>
<event>
      6   9999  3.45752E-01  1.13113E+01 -1.00000E+00  1.81728E-01
      21    -1     0     0   502   503  0.000000000E+00  0.000000000E+00  2.689710718E+01  2.689710718E+01  0.000000000E+00  0.00000E+00  9.000E+00
      -2    -1     0     0     0   502  0.000000000E+00  0.000000000E+00 -1.936292915E+03  1.936292915E+03  0.000000000E+00  0.00000E+00  9.000E+00
      25     1     1     2     0     0  1.262542422E+00 -9.009287309E+00 -1.237265215E+02  1.761130773E+02  1.249992104E+02  0.00000E+00  9.000E+00
       5     1     1     2   501     0  7.336639250E+00  1.098322718E+01 -8.461335998E+02  8.462500156E+02  4.750000000E+00  0.00000E+00  9.000E+00
      -5     1     1     2     0   503  1.710054361E+00  2.680696615E+00 -1.275512900E+01  1.397734724E+01  4.750000000E+00  0.00000E+00  9.000E+00
      -2     1     1     2     0   501 -1.030923603E+01 -4.654636486E+00 -9.267805576E+02  9.268495821E+02  1.078959322E-05  0.00000E+00  9.000E+00
#rwgt            1           9   5.5097967969953586E-004           5      780436           0
</event>
<event>
      6   9999  3.45752E-01  7.97071E+00 -1.00000E+00  1.98204E-01
      21    -1     0     0   501   502  0.000000000E+00  0.000000000E+00  1.395802810E+03  1.395802810E+03  0.000000000E+00  0.00000E+00  9.000E+00
      21    -1     0     0   511   503  0.000000000E+00  0.000000000E+00 -6.038229904E+01  6.038229904E+01  0.000000000E+00  0.00000E+00  9.000E+00
      25     1     1     2     0     0 -2.299159252E+00 -6.535511918E+00  1.101731417E+03  1.108821842E+03  1.250030593E+02  0.00000E+00  9.000E+00
       5     1     1     2   501     0 -2.763054807E-01 -1.779238905E-01  2.468161907E+02  2.468621123E+02  4.750000000E+00  0.00000E+00  9.000E+00
      -5     1     1     2     0   503  3.118312204E+00 -1.238765960E+00  4.321171402E+01  4.360129746E+01  4.750000000E+00  0.00000E+00  9.000E+00
      21     1     1     2   511   502 -5.428474714E-01  7.952201768E+00 -5.633881019E+01  5.689985703E+01  2.236564522E-06  0.00000E+00  9.000E+00
#rwgt            1           9   4.7975458670317930E-003           5      783258           0
</event>
<event>
      6   9999 -3.45752E-01  3.48756E+00 -1.00000E+00  2.60854E-01
      21    -1     0     0   501   502  0.000000000E+00  0.000000000E+00  2.074155159E+01  2.074155159E+01  0.000000000E+00  0.00000E+00  9.000E+00
      21    -1     0     0   512   503  0.000000000E+00  0.000000000E+00 -1.875829547E+03  1.875829547E+03  0.000000000E+00  0.00000E+00  9.000E+00
      25     1     1     2     0     0  6.331949529E+00  2.041131704E+01 -7.441416947E+02  7.548683681E+02  1.249907037E+02  0.00000E+00  9.000E+00
       5     1     1     2   501     0 -5.654051638E-01  4.156194889E+00  1.404982962E+01  1.541278208E+01  4.750000000E+00  0.00000E+00  9.000E+00
      -5     1     1     2     0   503 -8.969276530E+00 -2.318707883E+01 -2.482726829E+02  2.495595643E+02  4.750000000E+00  0.00000E+00  9.000E+00
      21     1     1     2   512   502  3.202732165E+00 -1.380433093E+00 -8.767234478E+02  8.767303845E+02  0.000000000E+00  0.00000E+00  9.000E+00
#rwgt            1           9  -1.3764158867226272E-004           5      785722           0
</event>
<event>
      6   9999  3.45752E-01  1.89649E+01 -1.00000E+00  1.61992E-01
      21    -1     0     0   501   511  0.000000000E+00  0.000000000E+00  7.931705147E+01  7.931705147E+01  0.000000000E+00  0.00000E+00  9.000E+00
      21    -1     0     0   502   503  0.000000000E+00  0.000000000E+00 -7.805624189E+02  7.805624189E+02  0.000000000E+00  0.00000E+00  9.000E+00
      25     1     1     2     0     0 -3.886276674E+01  1.497847896E+01 -6.781880682E+02  6.908694083E+02  1.250072557E+02  0.00000E+00  9.000E+00
       5     1     1     2   501     0 -5.108332858E-01 -8.397766386E-01 -4.277708570E+00  6.467415717E+00  4.750000000E+00  0.00000E+00  9.000E+00
      -5     1     1     2     0   503  2.564580011E+01 -2.722359009E+01 -8.535932355E+01  9.331456230E+01  4.750000000E+00  0.00000E+00  9.000E+00
      21     1     1     2   502   511  1.372779991E+01  1.308488777E+01  6.657973294E+01  6.922808402E+01  3.015782986E-06  0.00000E+00  9.000E+00
#rwgt            1           9   6.3388186228434612E-004           5      792198           0
</event>
<event>
      6   9999 -3.45752E-01  1.28566E+01 -1.00000E+00  1.76387E-01
      21    -1     0     0   512   503  0.000000000E+00  0.000000000E+00  1.956070810E+01  1.956070810E+01  0.000000000E+00  0.00000E+00  9.000E+00
      21    -1     0     0   501   502  0.000000000E+00  0.000000000E+00 -9.927725271E+02  9.927725271E+02  0.000000000E+00  0.00000E+00  9.000E+00
      25     1     1     2     0     0 -8.953881037E+01  3.678230573E+00 -5.161000702E+02  5.385308326E+02  1.250017887E+02  0.00000E+00  9.000E+00
       5     1     1     2   501     0 -5.768972431E+00 -1.514177284E+01 -1.728908926E+02  1.737134928E+02  4.750000000E+00  0.00000E+00  9.000E+00
      -5     1     1     2     0   503  8.251801296E+01  1.015408391E+01 -2.517261962E+02  2.651432975E+02  4.750000000E+00  0.00000E+00  9.000E+00
      21     1     1     2   512   502  1.278976985E+01  1.309458361E+00 -3.249465992E+01  3.494561227E+01  6.743495762E-07  0.00000E+00  9.000E+00
#rwgt            1           9  -9.3802365486221487E-004           5      793644           0
</event>
<event>
      6   9999  3.45752E-01  2.32557E+01 -1.00000E+00  1.55367E-01
      21    -1     0     0   511   502  0.000000000E+00  0.000000000E+00  5.235813630E+02  5.235813630E+02  0.000000000E+00  0.00000E+00  9.000E+00
      21    -1     0     0   502   503  0.000000000E+00  0.000000000E+00 -1.582254271E+02  1.582254271E+02  0.000000000E+00  0.00000E+00  9.000E+00
      25     1     1     2     0     0  2.331703417E+01  4.623437221E+01 -8.705053882E+01  1.608859969E+02  1.250008258E+02  0.00000E+00  9.000E+00
       5     1     1     2   501     0 -8.377816730E+00  1.014474752E+01  1.422874033E+02  1.429733239E+02  4.750000000E+00  0.00000E+00  9.000E+00
      -5     1     1     2     0   503 -2.047869764E+01 -3.379284214E+01 -2.168964271E+01  4.532478723E+01  4.750000000E+00  0.00000E+00  9.000E+00
      21     1     1     2   511   501  5.539480198E+00 -2.258627759E+01  3.318087142E+02  3.326226821E+02  3.814697266E-06  0.00000E+00  9.000E+00
#rwgt            1           9   1.5035920901929737E-003           5      796467           0
</event>
<event>
      6   9999  3.45752E-01  5.81174E+01 -1.00000E+00  1.31382E-01
      21    -1     0     0   501   502  0.000000000E+00  0.000000000E+00  1.087825263E+02  1.087825263E+02  0.000000000E+00  0.00000E+00  9.000E+00
       1    -1     0     0   502     0  0.000000000E+00  0.000000000E+00 -2.096046288E+03  2.096046288E+03  0.000000000E+00  0.00000E+00  9.000E+00
      25     1     1     2     0     0  1.098150442E+02 -6.855344332E+01 -5.844885645E+02  6.115641333E+02  1.249995542E+02  0.00000E+00  9.000E+00
       5     1     1     2   501     0  3.587685667E+01  4.015060043E+01  8.338829620E+01  9.937499687E+01  4.750000000E+00  0.00000E+00  9.000E+00
      -5     1     1     2     0   503 -8.758152580E+01  2.930711324E+01 -9.992365223E+02  1.003506662E+03  4.750000000E+00  0.00000E+00  9.000E+00
       1     1     1     2   503     0 -5.811037503E+01 -9.042703556E-01 -4.869269713E+02  4.903830225E+02  0.000000000E+00  0.00000E+00  9.000E+00
#rwgt            1           9   1.5035258957110077E-003           5      798235           0
</event>
<event>
      6   9999  3.45752E-01  2.09360E+01 -1.00000E+00  1.58709E-01
      21    -1     0     0   511   503  0.000000000E+00  0.000000000E+00  4.214550864E+01  4.214550864E+01  0.000000000E+00  0.00000E+00  9.000E+00
      21    -1     0     0   501   502  0.000000000E+00  0.000000000E+00 -1.158113066E+03  1.158113066E+03  0.000000000E+00  0.00000E+00  9.000E+00
      25     1     1     2     0     0  8.337553313E+01  1.084470734E+02 -3.084062180E+02  3.597845132E+02  1.249730106E+02  0.00000E+00  9.000E+00
       5     1     1     2   501     0 -1.405398010E+00 -1.270678639E+00 -5.444304869E+02  5.444545043E+02  4.750000000E+00  0.00000E+00  9.000E+00
      -5     1     1     2     0   503 -7.078332007E+01 -8.947973140E+01 -2.307721924E+02  2.574786749E+02  4.750000000E+00  0.00000E+00  9.000E+00
      21     1     1     2   511   502 -1.118681505E+01 -1.769666337E+01 -3.235866052E+01  3.854088266E+01  8.259061849E-07  0.00000E+00  9.000E+00
#rwgt            1           9   16.184339122413917                5      799923           0
</event>
<event>
      6   9999  3.45752E-01  3.73922E+00 -1.00000E+00  2.54070E-01
      21    -1     0     0   501   502  0.000000000E+00  0.000000000E+00  3.372351961E+01  3.372351961E+01  0.000000000E+00  0.00000E+00  9.000E+00
      21    -1     0     0   512   503  0.000000000E+00  0.000000000E+00 -1.192270598E+03  1.192270598E+03  0.000000000E+00  0.00000E+00  9.000E+00
      25     1     1     2     0     0 -5.884104858E+01  1.212125300E+01 -3.328369628E+02  3.605754064E+02  1.249999444E+02  0.00000E+00  9.000E+00
       5     1     1     2   501     0 -8.620596843E-01 -1.711491732E+00  1.831187674E+01  1.901472273E+01  4.750000000E+00  0.00000E+00  9.000E+00
      -5     1     1     2     0   503  5.644895618E+01 -1.225157357E+01 -7.212079498E+02  7.235330366E+02  4.750000000E+00  0.00000E+00  9.000E+00
      21     1     1     2   512   502  3.254152090E+00  1.841812307E+00 -1.228140426E+02  1.228709520E+02  2.336015456E-06  0.00000E+00  9.000E+00
#rwgt            1           9   3.9111624958977252E-004           5      801876           0
</event>
<event>
      6   9999  3.45752E-01  1.10178E+01 -1.00000E+00  1.82866E-01
      21    -1     0     0   501   502  0.000000000E+00  0.000000000E+00  1.533455548E+03  1.533455548E+03  0.000000000E+00  0.00000E+00  9.000E+00
      21    -1     0     0   502   511  0.000000000E+00  0.000000000E+00 -3.680242879E+00  3.680242879E+00  0.000000000E+00  0.00000E+00  9.000E+00
      25     1     1     2     0     0  4.465964728E+00  9.149908453E+00  1.254960764E+03  1.261211509E+03  1.249971445E+02  0.00000E+00  9.000E+00
       5     1     1     2   501     0  2.855612383E-01  1.278234613E-01  1.066342468E+02  1.067404468E+02  4.750000000E+00  0.00000E+00  9.000E+00
      -5     1     1     2     0   503  3.302682654E+00 -1.759654717E+00  9.348067890E+01  9.367605844E+01  4.750000000E+00  0.00000E+00  9.000E+00
      21     1     1     2   503   511 -8.054208621E+00 -7.518077198E+00  7.469961544E+01  7.550777647E+01  0.000000000E+00  0.00000E+00  9.000E+00
#rwgt            1           9   2.5065428909204447E-004           5      808687           0
</event>
<event>
      6   9999  3.45752E-01  5.26076E+00 -1.00000E+00  2.22334E-01
      21    -1     0     0   501   502  0.000000000E+00  0.000000000E+00  1.108224418E+01  1.108224418E+01  0.000000000E+00  0.00000E+00  9.000E+00
      21    -1     0     0   502   512  0.000000000E+00  0.000000000E+00 -8.159366175E+02  8.159366175E+02  0.000000000E+00  0.00000E+00  9.000E+00
      25     1     1     2     0     0 -1.030693933E+01  1.104517671E+01 -6.875575465E+02  6.989908073E+02  1.249981604E+02  0.00000E+00  9.000E+00
       5     1     1     2   501     0 -1.831894800E+00 -7.219954869E-01  3.286210680E+00  6.102359927E+00  4.750000000E+00  0.00000E+00  9.000E+00
      -5     1     1     2     0   503  6.927347730E+00 -9.604871110E+00 -8.243469578E+01  8.341632493E+01  4.750000000E+00  0.00000E+00  9.000E+00
      21     1     1     2   503   512  5.211486402E+00 -7.183101148E-01 -3.814834174E+01  3.850936947E+01  6.743495762E-07  0.00000E+00  9.000E+00
#rwgt            1           9   1.2173993033518635E-003           5      810713           0
</event>
<event>
      6   9999  3.45752E-01  2.13657E+01 -1.00000E+00  1.58051E-01
      21    -1     0     0   501   502  0.000000000E+00  0.000000000E+00  3.704884241E+02  3.704884241E+02  0.000000000E+00  0.00000E+00  9.000E+00
      21    -1     0     0   511   503  0.000000000E+00  0.000000000E+00 -6.859894260E+01  6.859894260E+01  0.000000000E+00  0.00000E+00  9.000E+00
      25     1     1     2     0     0  6.486020139E+01  6.165887696E+00  2.059251437E+02  2.495496840E+02  1.250000644E+02  0.00000E+00  9.000E+00
       5     1     1     2   501     0  2.712117711E+00  2.336473439E+00  1.157264246E+02  1.158791722E+02  4.750000000E+00  0.00000E+00  9.000E+00
      -5     1     1     2     0   503 -4.632321226E+01 -6.272876104E+00 -4.096393565E+00  4.716494365E+01  4.750000000E+00  0.00000E+00  9.000E+00
      21     1     1     2   511   502 -2.124910683E+01 -2.229485031E+00 -1.566569319E+01  2.649356691E+01  6.743495762E-07  0.00000E+00  9.000E+00
#rwgt            1           9   8.4662325519755592E-004           5      814537           0
</event>
<event>
      6   9999 -3.45752E-01  3.51042E+00 -1.00000E+00  2.60202E-01
      21    -1     0     0   512   502  0.000000000E+00  0.000000000E+00  7.809028311E+01  7.809028311E+01  0.000000000E+00  0.00000E+00  9.000E+00
      21    -1     0     0   502   503  0.000000000E+00  0.000000000E+00 -2.404360666E+03  2.404360666E+03  0.000000000E+00  0.00000E+00  9.000E+00
      25     1     1     2     0     0 -3.446257351E+00 -1.212497376E+01 -2.318548687E+03  2.321950219E+03  1.250036550E+02  0.00000E+00  9.000E+00
       5     1     1     2   501     0 -6.962139186E+00 -2.701225061E+00  5.531594829E+00  1.043690760E+01  4.750000000E+00  0.00000E+00  9.000E+00
      -5     1     1     2     0   503  6.917415699E+00  1.445725590E+01 -8.075700163E+01  8.246889535E+01  4.750000000E+00  0.00000E+00  9.000E+00
      21     1     1     2   512   501  3.490980839E+00  3.689429203E-01  6.750371139E+01  6.759492671E+01  4.370284743E-06  0.00000E+00  9.000E+00
#rwgt            1           9  -3.8024348522265475E-004           5      816739           0
</event>
<event>
      6   9999  3.45752E-01  1.89006E+01 -1.00000E+00  1.62107E-01
      21    -1     0     0   511   502  0.000000000E+00  0.000000000E+00  1.739718411E+03  1.739718411E+03  0.000000000E+00  0.00000E+00  9.000E+00
      21    -1     0     0   502   503  0.000000000E+00  0.000000000E+00 -8.578714646E+00  8.578714646E+00  0.000000000E+00  0.00000E+00  9.000E+00
      25     1     1     2     0     0 -1.738600385E+01 -7.785477091E-01  4.992197415E+02  5.149256726E+02  1.250008751E+02  0.00000E+00  9.000E+00
       5     1     1     2   501     0  1.085598585E-01 -1.582747393E+00  3.233148437E+02  3.233536261E+02  4.750000000E+00  0.00000E+00  9.000E+00
      -5     1     1     2     0   503  2.275480239E+01 -1.572825871E+01  3.621439458E+02  3.632298985E+02  4.750000000E+00  0.00000E+00  9.000E+00
      21     1     1     2   511   501 -5.477358394E+00  1.808955381E+01  5.464611654E+02  5.467879285E+02  0.000000000E+00  0.00000E+00  9.000E+00
#rwgt            1           9  0.11821866453508752                5      823373           0
</event>
<event>
      6   9999 -3.45752E-01  5.03174E+00 -1.00000E+00  2.25290E-01
      21    -1     0     0   501   502  0.000000000E+00  0.000000000E+00  1.312609991E+01  1.312609991E+01  0.000000000E+00  0.00000E+00  9.000E+00
      21    -1     0     0   512   503  0.000000000E+00  0.000000000E+00 -9.027979055E+02  9.027979055E+02  0.000000000E+00  0.00000E+00  9.000E+00
      25     1     1     2     0     0  2.336735951E+01 -2.547356833E+01 -7.670515703E+02  7.779379471E+02  1.249976076E+02  0.00000E+00  9.000E+00
       5     1     1     2   501     0  1.641227935E-01  1.723005763E-01  3.666111526E+00  6.004956078E+00  4.750000000E+00  0.00000E+00  9.000E+00
      -5     1     1     2     0   503 -2.134393914E+01  2.076992735E+01 -8.128447576E+01  8.669880114E+01  4.750000000E+00  0.00000E+00  9.000E+00
      21     1     1     2   512   502 -2.187543163E+00  4.531340404E+00 -4.500187109E+01  4.528230110E+01  4.768371582E-07  0.00000E+00  9.000E+00
#rwgt            1           9  -2.1849412419930629E-003           5      825086           0
</event>
<event>
      6   9999  3.45752E-01  1.70415E+01 -1.00000E+00  1.65705E-01
      21    -1     0     0   501   502  0.000000000E+00  0.000000000E+00  2.217282406E+03  2.217282406E+03  0.000000000E+00  0.00000E+00  9.000E+00
      21    -1     0     0   511   503  0.000000000E+00  0.000000000E+00 -1.072350677E+01  1.072350677E+01  0.000000000E+00  0.00000E+00  9.000E+00
      25     1     1     2     0     0  1.488186359E+01 -1.022791901E+01  4.286564961E+02  4.468743700E+02  1.249969228E+02  0.00000E+00  9.000E+00
       5     1     1     2   501     0 -2.440349322E+00 -3.619085427E+00  1.686924112E+03  1.686936447E+03  4.750000000E+00  0.00000E+00  9.000E+00
      -5     1     1     2     0   503 -5.376250891E+00 -1.660882929E+00  2.784748764E+01  2.880464674E+01  4.750000000E+00  0.00000E+00  9.000E+00
      21     1     1     2   511   502 -7.065263381E+00  1.550788736E+01  6.313080377E+01  6.539044962E+01  9.536743164E-07  0.00000E+00  9.000E+00
#rwgt            1           9  0.12097886415806071                5      829327           0
</event>
<event>
      6   9999  3.45752E-01  1.06155E+01 -1.00000E+00  1.84502E-01
      21    -1     0     0   501   502  0.000000000E+00  0.000000000E+00  1.353077415E+02  1.353077415E+02  0.000000000E+00  0.00000E+00  9.000E+00
      21    -1     0     0   502   512  0.000000000E+00  0.000000000E+00 -6.582410047E+01  6.582410047E+01  0.000000000E+00  0.00000E+00  9.000E+00
      25     1     1     2     0     0  2.836338972E+00  8.998180141E+00  2.451618668E+01  1.277294498E+02  1.249990275E+02  0.00000E+00  9.000E+00
       5     1     1     2   501     0  1.087528444E+00 -4.924433787E-01  5.363958559E+01  5.386272237E+01  4.750000000E+00  0.00000E+00  9.000E+00
      -5     1     1     2     0   503  4.380225894E+00 -1.892876167E+00 -2.092779860E+00  7.050644411E+00  4.750000000E+00  0.00000E+00  9.000E+00
      21     1     1     2   503   512 -8.304093310E+00 -6.612860595E+00 -6.579351384E+00  1.248902541E+01  2.384185791E-07  0.00000E+00  9.000E+00
#rwgt            1           9  0.13223744772038562                5      831997           0
</event>
<event>
      6   9999  3.45752E-01  4.01576E+01 -1.00000E+00  1.40087E-01
      21    -1     0     0   501   502  0.000000000E+00  0.000000000E+00  3.744028117E+03  3.744028117E+03  0.000000000E+00  0.00000E+00  9.000E+00
       2    -1     0     0   502     0  0.000000000E+00  0.000000000E+00 -2.479426039E+02  2.479426039E+02  0.000000000E+00  0.00000E+00  9.000E+00
      25     1     1     2     0     0  2.727161508E+01  7.789684225E+01  6.872613602E+02  7.033949533E+02  1.249984962E+02  0.00000E+00  9.000E+00
       5     1     1     2   501     0  3.546611360E+00  3.477522556E+00  2.983477092E+03  2.983485008E+03  4.750000000E+00  0.00000E+00  9.000E+00
      -5     1     1     2     0   503  8.131377433E+00 -7.159869844E+01  4.281011869E+01  8.395094806E+01  4.750000000E+00  0.00000E+00  9.000E+00
       2     1     1     2   503     0 -3.894960387E+01 -9.775666359E+00 -2.174630572E+02  2.211398122E+02  7.629394531E-06  0.00000E+00  9.000E+00
#rwgt            1           9  0.18266150995822006                5      834057           0
</event>
<event>
      6   9999  3.45752E-01  2.45830E+01 -1.00000E+00  1.53659E-01
      21    -1     0     0   501   502  0.000000000E+00  0.000000000E+00  1.018227468E+02  1.018227468E+02  0.000000000E+00  0.00000E+00  9.000E+00
      21    -1     0     0   511   503  0.000000000E+00  0.000000000E+00 -2.196336544E+03  2.196336544E+03  0.000000000E+00  0.00000E+00  9.000E+00
      25     1     1     2     0     0 -2.136363784E+01 -5.909525013E+01 -1.281753846E+03  1.289366824E+03  1.250009289E+02  0.00000E+00  9.000E+00
       5     1     1     2   501     0  5.782039484E+00  1.761058349E+01  9.352974537E+01  9.546695973E+01  4.750000000E+00  0.00000E+00  9.000E+00
      -5     1     1     2     0   503  3.747361371E+01  5.266788240E+01 -3.187973361E+02  3.253190458E+02  4.750000000E+00  0.00000E+00  9.000E+00
      21     1     1     2   511   502 -2.189201535E+01 -1.118321576E+01 -5.874923610E+02  5.880064616E+02  0.000000000E+00  0.00000E+00  9.000E+00
#rwgt            1           9   3.0425276288848318E-002           5      835620           0
</event>
<event>
      6   9999  3.45752E-01  1.05262E+02 -1.00000E+00  1.19496E-01
      21    -1     0     0   501   502  0.000000000E+00  0.000000000E+00  6.391837081E+01  6.391837081E+01  0.000000000E+00  0.00000E+00  9.000E+00
       1    -1     0     0   502     0  0.000000000E+00  0.000000000E+00 -3.686926516E+03  3.686926516E+03  0.000000000E+00  0.00000E+00  9.000E+00
      25     1     1     2     0     0 -2.887673684E+02  1.151154113E+02 -8.539459556E+02  9.173274421E+02  1.250111596E+02  0.00000E+00  9.000E+00
       5     1     1     2   501     0 -3.339851370E+00 -2.413517366E+00  1.059364291E+01  1.231939298E+01  4.750000000E+00  0.00000E+00  9.000E+00
      -5     1     1     2     0   503  2.005218515E+02 -6.081519853E+01 -5.427068927E+02  5.817738695E+02  4.750000000E+00  0.00000E+00  9.000E+00
       1     1     1     2   503     0  9.158536826E+01 -5.188669541E+01 -2.236948940E+03  2.239424183E+03  3.051757812E-05  0.00000E+00  9.000E+00
#rwgt            1           9   5.3054988067948927E-003           5      838465           0
</event>
<event>
      6   9999  3.45752E-01  1.19671E+01 -1.00000E+00  1.79337E-01
      21    -1     0     0   501   502  0.000000000E+00  0.000000000E+00  1.345611047E+01  1.345611047E+01  0.000000000E+00  0.00000E+00  9.000E+00
      21    -1     0     0   502   511  0.000000000E+00  0.000000000E+00 -1.136311489E+03  1.136311489E+03  0.000000000E+00  0.00000E+00  9.000E+00
      25     1     1     2     0     0  3.201121863E+00 -2.254690073E+01 -9.392645284E+02  9.478199773E+02  1.250049805E+02  0.00000E+00  9.000E+00
       5     1     1     2   501     0  2.010442978E+00 -8.694588102E-02  6.802078460E+00  8.536990801E+00  4.750000000E+00  0.00000E+00  9.000E+00
      -5     1     1     2     0   503  3.280019451E+00  1.420156502E+01 -4.527086781E+01  4.779599302E+01  4.750000000E+00  0.00000E+00  9.000E+00
      21     1     1     2   503   511 -8.491584293E+00  8.432281592E+00 -1.451220606E+02  1.456146381E+02  1.907348633E-06  0.00000E+00  9.000E+00
#rwgt            1           9   2.6739715901690799E-002           5      839266           0
</event>
<event>
      6   9999  3.45752E-01  9.73676E+01 -1.00000E+00  1.20929E-01
      21    -1     0     0   502   512  0.000000000E+00  0.000000000E+00  1.129489158E+02  1.129489158E+02  0.000000000E+00  0.00000E+00  9.000E+00
      21    -1     0     0   501   502  0.000000000E+00  0.000000000E+00 -1.076041724E+03  1.076041724E+03  0.000000000E+00  0.00000E+00  9.000E+00
      25     1     1     2     0     0 -3.784272744E+01  4.827288370E+01 -8.273685828E+02  8.390038963E+02  1.250056914E+02  0.00000E+00  9.000E+00
       5     1     1     2   501     0  9.653880537E-01  3.323359391E+00 -9.841001580E+01  9.858534577E+01  4.750000000E+00  0.00000E+00  9.000E+00
      -5     1     1     2     0   503 -6.001796741E+01 -6.117523043E+01 -1.029049439E+02  1.340020717E+02  4.750000000E+00  0.00000E+00  9.000E+00
      21     1     1     2   503   512  9.689530680E+01  9.578987341E+00  6.559073385E+01  1.173993264E+02  2.132480600E-06  0.00000E+00  9.000E+00
#rwgt            1           9  0.39115083079238383                5      841428           0
</event>
<event>
      6   9999  3.45752E-01  5.74837E+00 -1.00000E+00  2.16683E-01
      21    -1     0     0   501   502  0.000000000E+00  0.000000000E+00  8.207550316E+00  8.207550316E+00  0.000000000E+00  0.00000E+00  9.000E+00
      21    -1     0     0   511   503  0.000000000E+00  0.000000000E+00 -7.725265749E+02  7.725265749E+02  0.000000000E+00  0.00000E+00  9.000E+00
      25     1     1     2     0     0 -4.668072246E+00 -8.344463283E-01 -6.847091961E+02  6.960422228E+02  1.250024220E+02  0.00000E+00  9.000E+00
       5     1     1     2   501     0  2.871090227E-01 -2.409205904E-02 -4.142748643E-01  4.776728554E+00  4.750000000E+00  0.00000E+00  9.000E+00
      -5     1     1     2     0   503 -1.178944805E+00 -6.013133820E-01 -3.908208069E+01  3.939191566E+01  4.750000000E+00  0.00000E+00  9.000E+00
      21     1     1     2   511   502  5.559908028E+00  1.459851769E+00 -4.011347291E+01  4.052325818E+01  0.000000000E+00  0.00000E+00  9.000E+00
#rwgt            1           9   8.2388623333555214E-006           5      842482           0
</event>
<event>
      6   9999  3.45752E-01  2.21302E+02 -1.00000E+00  1.07395E-01
      -2    -1     0     0     0   502  0.000000000E+00  0.000000000E+00  2.782023547E+02  2.782023547E+02  0.000000000E+00  0.00000E+00  9.000E+00
      21    -1     0     0   501   512  0.000000000E+00  0.000000000E+00 -1.339609420E+03  1.339609420E+03  0.000000000E+00  0.00000E+00  9.000E+00
      25     1     1     2     0     0  2.172151536E+01  1.798431478E+02 -8.095459939E+02  8.389646869E+02  1.252263856E+02  0.00000E+00  9.000E+00
       5     1     1     2   501     0  1.898568968E+01  5.540665105E+01 -3.350897421E+01  6.764441770E+01  4.750000000E+00  0.00000E+00  9.000E+00
      -5     1     1     2     0   502  4.009107847E+01 -2.922549390E+01 -4.132917298E+02  4.162860080E+02  4.750000000E+00  0.00000E+00  9.000E+00
      -2     1     1     2     0   512 -8.079828351E+01 -2.060243049E+02  1.949396329E+02  2.949166617E+02  8.946258087E-06  0.00000E+00  9.000E+00
#rwgt            1           3   1.1504627816324506E-004           5      846186           0
</event>
<event>
      6   9999  3.45752E-01  2.78279E+01 -1.00000E+00  1.49981E-01
      21    -1     0     0   502   511  0.000000000E+00  0.000000000E+00  5.413140943E+01  5.413140943E+01  0.000000000E+00  0.00000E+00  9.000E+00
      21    -1     0     0   501   502  0.000000000E+00  0.000000000E+00 -9.586115257E+02  9.586115257E+02  0.000000000E+00  0.00000E+00  9.000E+00
      25     1     1     2     0     0 -9.714117204E+01 -3.128357816E+01 -5.610008015E+02  5.837482842E+02  1.250003622E+02  0.00000E+00  9.000E+00
       5     1     1     2   501     0  5.016475245E+00  7.825552243E+00 -5.993743493E+01  6.083964906E+01  4.750000000E+00  0.00000E+00  9.000E+00
      -5     1     1     2     0   503  7.422224554E+01  4.476287212E+01 -3.146570227E+02  3.264111837E+02  4.750000000E+00  0.00000E+00  9.000E+00
      21     1     1     2   503   511  1.790245125E+01 -2.130484620E+01  3.111514283E+01  4.174381805E+01  1.685873940E-06  0.00000E+00  9.000E+00
#rwgt            1           9   1.5172282977376200E-003           5      846532           0
</event>
<event>
      6   9999  3.45752E-01  1.28081E+01 -1.00000E+00  1.76540E-01
      21    -1     0     0   512   502  0.000000000E+00  0.000000000E+00  1.262495288E+02  1.262495288E+02  0.000000000E+00  0.00000E+00  9.000E+00
      21    -1     0     0   502   503  0.000000000E+00  0.000000000E+00 -7.643392873E+02  7.643392873E+02  0.000000000E+00  0.00000E+00  9.000E+00
      25     1     1     2     0     0  2.068950773E+01  2.423742192E+00 -1.095801880E+02  1.675317646E+02  1.250005771E+02  0.00000E+00  9.000E+00
       5     1     1     2   501     0  3.620897131E-01 -1.872941251E-01  5.824342335E+01  5.843821568E+01  4.750000000E+00  0.00000E+00  9.000E+00
      -5     1     1     2     0   503 -3.385862372E+01 -2.072596227E+00 -6.241500689E+02  6.250892520E+02  4.750000000E+00  0.00000E+00  9.000E+00
      21     1     1     2   512   501  1.280702628E+01 -1.638518399E-01  3.739707509E+01  3.952958379E+01  8.259061849E-07  0.00000E+00  9.000E+00
#rwgt            1           9   2151.3701433554443                5      849221           0
</event>
<event>
      6   9999  3.45752E-01  3.33196E+00 -1.00000E+00  2.65510E-01
      21    -1     0     0   501   502  0.000000000E+00  0.000000000E+00  1.276934570E+01  1.276934570E+01  0.000000000E+00  0.00000E+00  9.000E+00
       1    -1     0     0   502     0  0.000000000E+00  0.000000000E+00 -1.424798534E+03  1.424798534E+03  0.000000000E+00  0.00000E+00  9.000E+00
      25     1     1     2     0     0 -7.093327234E-01  6.259649110E+00 -6.618983448E+02  6.736269393E+02  1.249965923E+02  0.00000E+00  9.000E+00
       5     1     1     2   501     0 -5.005723876E-01  1.500898506E+00  5.802468096E+00  7.663837488E+00  4.750000000E+00  0.00000E+00  9.000E+00
      -5     1     1     2     0   503 -2.062504252E+00 -7.133393410E+00 -1.157635350E+02  1.160986553E+02  4.750000000E+00  0.00000E+00  9.000E+00
       1     1     1     2   503     0  3.272409363E+00 -6.271542069E-01 -6.401697764E+02  6.401784475E+02  1.525878906E-05  0.00000E+00  9.000E+00
#rwgt            1           9   3.6085410674874072E-002           5      852745           0
</event>
<event>
      6   9999  3.45752E-01  5.23967E+00 -1.00000E+00  2.22597E-01
      21    -1     0     0   501   502  0.000000000E+00  0.000000000E+00  1.001026724E+01  1.001026724E+01  0.000000000E+00  0.00000E+00  9.000E+00
      21    -1     0     0   511   503  0.000000000E+00  0.000000000E+00 -7.548289848E+02  7.548289848E+02  0.000000000E+00  0.00000E+00  9.000E+00
      25     1     1     2     0     0 -1.643446383E+01 -3.824642427E+00 -4.682076462E+02  4.849033063E+02  1.250123872E+02  0.00000E+00  9.000E+00
       5     1     1     2   501     0  1.376091972E-01  7.053092580E-01 -4.486585287E+00  6.573305483E+00  4.750000000E+00  0.00000E+00  9.000E+00
      -5     1     1     2     0   503  1.818288366E+01  8.007793725E+00 -2.319696199E+02  2.328673637E+02  4.750000000E+00  0.00000E+00  9.000E+00
      21     1     1     2   511   502 -1.886029020E+00 -4.888460556E+00 -4.015486611E+01  4.049527657E+01  0.000000000E+00  0.00000E+00  9.000E+00
#rwgt            1           9   6.7699862602666719E-004           5      858603           0
</event>
<event>
      6   9999  3.45752E-01  6.64265E+00 -1.00000E+00  2.08082E-01
      21    -1     0     0   502   512  0.000000000E+00  0.000000000E+00  3.585681913E+01  3.585681913E+01  0.000000000E+00  0.00000E+00  9.000E+00
      21    -1     0     0   501   502  0.000000000E+00  0.000000000E+00 -7.489460106E+02  7.489460106E+02  0.000000000E+00  0.00000E+00  9.000E+00
      25     1     1     2     0     0 -5.331407509E+00  9.079951170E+00 -7.197415004E+02  7.305904774E+02  1.249949951E+02  0.00000E+00  9.000E+00
       5     1     1     2   501     0 -2.988746599E-02  5.717742917E-02 -6.581231280E+00  8.116604442E+00  4.750000000E+00  0.00000E+00  9.000E+00
      -5     1     1     2     0   503  2.500504497E-01 -4.894490890E+00 -1.532435139E+01  1.677548246E+01  4.750000000E+00  0.00000E+00  9.000E+00
      21     1     1     2   503   512  5.111244525E+00 -4.242637709E+00  2.855789159E+01  2.932026547E+01  1.168007728E-06  0.00000E+00  9.000E+00
#rwgt            1           9   4.7133382158108040E-004           5      862718           0
</event>
<event>
      6   9999  3.45752E-01  1.04037E+01 -1.00000E+00  1.85401E-01
      21    -1     0     0   501   502  0.000000000E+00  0.000000000E+00  1.793230733E+02  1.793230733E+02  0.000000000E+00  0.00000E+00  9.000E+00
      21    -1     0     0   502   511  0.000000000E+00  0.000000000E+00 -1.388993238E+02  1.388993238E+02  0.000000000E+00  0.00000E+00  9.000E+00
      25     1     1     2     0     0 -2.564191649E+00  2.609026029E+01 -6.850841219E+01  1.449274263E+02  1.249931182E+02  0.00000E+00  9.000E+00
       5     1     1     2   501     0 -2.127236637E+00  1.014422656E+00  1.193771078E+02  1.194948139E+02  4.750000000E+00  0.00000E+00  9.000E+00
      -5     1     1     2     0   503  7.736400052E+00 -1.715651168E+01  1.614508846E+01  2.524726045E+01  4.750000000E+00  0.00000E+00  9.000E+00
      21     1     1     2   503   511 -3.044971765E+00 -9.948171268E+00 -2.659003445E+01  2.855289646E+01  3.371747881E-07  0.00000E+00  9.000E+00
#rwgt            1           9   3.1839893528183391E-003           5      865457           0
</event>
<event>
      6   9999  3.45752E-01  1.94617E+01 -1.00000E+00  1.61120E-01
      21    -1     0     0   501   502  0.000000000E+00  0.000000000E+00  1.007864508E+02  1.007864508E+02  0.000000000E+00  0.00000E+00  9.000E+00
      21    -1     0     0   502   512  0.000000000E+00  0.000000000E+00 -5.186809985E+02  5.186809985E+02  0.000000000E+00  0.00000E+00  9.000E+00
      25     1     1     2     0     0 -1.034390338E+02  6.220104604E+01 -2.325897579E+02  2.903303097E+02  1.250003577E+02  0.00000E+00  9.000E+00
       5     1     1     2   501     0  1.381739850E+00  9.088843512E+00  5.589672997E+01  5.684648804E+01  4.750000000E+00  0.00000E+00  9.000E+00
      -5     1     1     2     0   503  9.113327556E+01 -5.518327835E+01 -1.975521492E+02  2.244991810E+02  4.750000000E+00  0.00000E+00  9.000E+00
      21     1     1     2   503   512  1.092401836E+01 -1.610661120E+01 -4.364937067E+01  4.779147060E+01  8.259061849E-07  0.00000E+00  9.000E+00
#rwgt            1           9  0.10990645488258775                5      868344           0
</event>
<event>
      6   9999  3.45752E-01  1.23689E+01 -1.00000E+00  1.77965E-01
      21    -1     0     0   501   511  0.000000000E+00  0.000000000E+00  1.280272313E+03  1.280272313E+03  0.000000000E+00  0.00000E+00  9.000E+00
      21    -1     0     0   502   503  0.000000000E+00  0.000000000E+00 -4.110434271E+01  4.110434271E+01  0.000000000E+00  0.00000E+00  9.000E+00
      25     1     1     2     0     0 -6.596290466E+01  2.044120204E+01  4.239350728E+02  4.473465037E+02  1.250160027E+02  0.00000E+00  9.000E+00
       5     1     1     2   501     0  1.258364479E+00 -4.463921203E+00  3.158827808E+02  3.159525341E+02  4.750000000E+00  0.00000E+00  9.000E+00
      -5     1     1     2     0   503  7.249450751E+01 -2.558488889E+01  2.136382664E+01  7.993131894E+01  4.750000000E+00  0.00000E+00  9.000E+00
      21     1     1     2   502   511 -7.789967323E+00  9.607608053E+00  4.779862905E+02  4.781462994E+02  5.394796609E-06  0.00000E+00  9.000E+00
#rwgt            1           9   1.3518090256490201E-004           5      870542           0
</event>
<event>
      6   9999 -3.45752E-01  9.35964E+00 -1.00000E+00  1.90273E-01
      21    -1     0     0   512   502  0.000000000E+00  0.000000000E+00  2.523560438E+01  2.523560438E+01  0.000000000E+00  0.00000E+00  9.000E+00
      21    -1     0     0   502   503  0.000000000E+00  0.000000000E+00 -8.942539270E+02  8.942539270E+02  0.000000000E+00  0.00000E+00  9.000E+00
      25     1     1     2     0     0  1.505495229E+00  1.022905247E-01 -8.667711370E+02  8.757391916E+02  1.249986031E+02  0.00000E+00  9.000E+00
       5     1     1     2   501     0  2.604424267E+00  2.355341515E+00  5.931715847E+00  8.371284986E+00  4.750000000E+00  0.00000E+00  9.000E+00
      -5     1     1     2     0   503  5.182682057E+00 -1.339416070E+00 -1.945210461E+01  2.072682085E+01  4.750000000E+00  0.00000E+00  9.000E+00
      21     1     1     2   512   501 -9.292601553E+00 -1.118215970E+00  1.127320315E+01  1.465223395E+01  2.064765462E-07  0.00000E+00  9.000E+00
#rwgt            1           9  -2.0637133257404147E-004           5      873263           0
</event>
<event>
      6   9999 -3.45752E-01  3.18530E+01 -1.00000E+00  1.46174E-01
      21    -1     0     0   501   502  0.000000000E+00  0.000000000E+00  7.000892002E+01  7.000892002E+01  0.000000000E+00  0.00000E+00  9.000E+00
      21    -1     0     0   511   503  0.000000000E+00  0.000000000E+00 -8.458685192E+02  8.458685192E+02  0.000000000E+00  0.00000E+00  9.000E+00
      25     1     1     2     0     0  4.576286103E+01 -1.831071881E+02 -4.127901436E+02  4.707919901E+02  1.250076535E+02  0.00000E+00  9.000E+00
       5     1     1     2   501     0  3.189570092E+00 -2.659895783E+00  1.718610633E+01  1.830773481E+01  4.750000000E+00  0.00000E+00  9.000E+00
      -5     1     1     2     0   503 -4.514715848E+01  1.541422452E+02 -2.978583403E+02  3.384379575E+02  4.750000000E+00  0.00000E+00  9.000E+00
      21     1     1     2   511   502 -3.805272638E+00  3.162483868E+01 -8.239722155E+01  8.833975685E+01  9.536743164E-07  0.00000E+00  9.000E+00
#rwgt            1           9  -1.6319847567328394E-004           5      875963           0
</event>
<event>
      6   9999  3.45752E-01  8.17363E+00 -1.00000E+00  1.96918E-01
      21    -1     0     0   501   502  0.000000000E+00  0.000000000E+00  1.261373362E+01  1.261373362E+01  0.000000000E+00  0.00000E+00  9.000E+00
      21    -1     0     0   502   512  0.000000000E+00  0.000000000E+00 -1.053849509E+03  1.053849509E+03  0.000000000E+00  0.00000E+00  9.000E+00
      25     1     1     2     0     0 -6.203197003E-01  1.122361619E+01 -8.403339384E+02  8.496537015E+02  1.249957202E+02  0.00000E+00  9.000E+00
       5     1     1     2   501     0  1.272998933E+00 -2.253458668E-01  6.589639842E+00  8.225397272E+00  4.750000000E+00  0.00000E+00  9.000E+00
      -5     1     1     2     0   503  2.819835886E+00 -3.598954583E+00 -2.339268661E+01  2.430399628E+01  4.750000000E+00  0.00000E+00  9.000E+00
      21     1     1     2   503   512 -3.472515118E+00 -7.399315744E+00 -1.840987901E+02  1.842801474E+02  4.672030912E-06  0.00000E+00  9.000E+00
#rwgt            1           9   8.9941701133454729E-003           5      878786           0
</event>
<event>
      6   9999  3.45752E-01  2.02142E+01 -1.00000E+00  1.59858E-01
      21    -1     0     0   501   502  0.000000000E+00  0.000000000E+00  4.499582818E+01  4.499582818E+01  0.000000000E+00  0.00000E+00  9.000E+00
      21    -1     0     0   502   511  0.000000000E+00  0.000000000E+00 -1.414014111E+03  1.414014111E+03  0.000000000E+00  0.00000E+00  9.000E+00
      25     1     1     2     0     0 -4.933987888E+01 -6.088774522E+01 -5.216753213E+02  5.421338699E+02  1.249890028E+02  0.00000E+00  9.000E+00
       5     1     1     2   501     0  3.948119278E+00  4.734537911E+00  3.153511127E+01  3.248121361E+01  4.750000000E+00  0.00000E+00  9.000E+00
      -5     1     1     2     0   503  3.208043299E+01  7.136578358E+01 -7.067101906E+02  7.110443624E+02  4.750000000E+00  0.00000E+00  9.000E+00
      21     1     1     2   503   511  1.331132661E+01 -1.521257628E+01 -1.721678826E+02  1.733504938E+02  2.697398305E-06  0.00000E+00  9.000E+00
#rwgt            1           9   2.6489940968998552E-004           5      882243           0
</event>
<event>
      6   9999  3.45752E-01  7.54258E+00 -1.00000E+00  2.01092E-01
      21    -1     0     0   501   502  0.000000000E+00  0.000000000E+00  8.766760263E+00  8.766760263E+00  0.000000000E+00  0.00000E+00  9.000E+00
      21    -1     0     0   502   512  0.000000000E+00  0.000000000E+00 -1.117771163E+03  1.117771163E+03  0.000000000E+00  0.00000E+00  9.000E+00
      25     1     1     2     0     0 -5.123836797E+00 -2.936545430E-02 -6.509281891E+02  6.628411056E+02  1.249982771E+02  0.00000E+00  9.000E+00
       5     1     1     2   501     0 -6.140062147E-01 -1.590339966E+00  7.568700305E-02  5.047218379E+00  4.750000000E+00  0.00000E+00  9.000E+00
      -5     1     1     2     0   503 -9.433271446E-01 -1.880639477E+00 -3.108731163E+01  3.151840915E+01  4.750000000E+00  0.00000E+00  9.000E+00
      21     1     1     2   503   512  6.681170156E+00  3.500344898E+00 -4.270645890E+02  4.271311902E+02  5.394796609E-06  0.00000E+00  9.000E+00
#rwgt            1           9   1.2321603437434026E-003           5      884691           0
</event>
<event>
      6   9999 -3.45752E-01  1.97864E+01 -1.00000E+00  1.60567E-01
      21    -1     0     0   501   511  0.000000000E+00  0.000000000E+00  3.409512135E+01  3.409512135E+01  0.000000000E+00  0.00000E+00  9.000E+00
      21    -1     0     0   502   503  0.000000000E+00  0.000000000E+00 -1.203833993E+03  1.203833993E+03  0.000000000E+00  0.00000E+00  9.000E+00
      25     1     1     2     0     0 -2.870292728E+01 -5.126962481E+01 -2.892431847E+02  3.205278685E+02  1.249962486E+02  0.00000E+00  9.000E+00
       5     1     1     2   501     0 -1.416836619E+00  6.373558908E-02  1.559156385E+01  1.636064948E+01  4.750000000E+00  0.00000E+00  9.000E+00
      -5     1     1     2     0   503  2.465777651E+01  3.218827533E+01 -8.487921211E+02  8.497733336E+02  4.750000000E+00  0.00000E+00  9.000E+00
      21     1     1     2   502   511  5.461987398E+00  1.901761390E+01 -4.729512996E+01  5.126726307E+01  6.743495762E-07  0.00000E+00  9.000E+00
#rwgt            1           9  -2.7159324435448227E-003           5      888024           0
</event>
<event>
      6   9999  3.45752E-01  4.15623E+00 -1.00000E+00  2.44456E-01
      21    -1     0     0   501   502  0.000000000E+00  0.000000000E+00  4.350429969E+01  4.350429969E+01  0.000000000E+00  0.00000E+00  9.000E+00
      21    -1     0     0   512   503  0.000000000E+00  0.000000000E+00 -5.611665002E+02  5.611665002E+02  0.000000000E+00  0.00000E+00  9.000E+00
      25     1     1     2     0     0 -4.485131799E+00  3.313143222E+00 -2.607573927E+02  2.892196170E+02  1.249899023E+02  0.00000E+00  9.000E+00
       5     1     1     2   501     0  3.143860945E+00 -5.625898373E-01  2.861082643E+01  2.917776993E+01  4.750000000E+00  0.00000E+00  9.000E+00
      -5     1     1     2     0   503  7.836969564E-01  1.368104468E+00 -1.689701546E+01  1.762264231E+01  4.750000000E+00  0.00000E+00  9.000E+00
      21     1     1     2   512   502  5.575738970E-01 -4.118657853E+00 -2.686186188E+02  2.686507707E+02  0.000000000E+00  0.00000E+00  9.000E+00
#rwgt            1           9   3.2936444212807554E-004           5      890269           0
</event>
<event>
      6   9999  3.45752E-01  7.42841E+00 -1.00000E+00  2.01905E-01
      21    -1     0     0   511   502  0.000000000E+00  0.000000000E+00  1.942797897E+02  1.942797897E+02  0.000000000E+00  0.00000E+00  9.000E+00
      21    -1     0     0   502   503  0.000000000E+00  0.000000000E+00 -8.110391520E+02  8.110391520E+02  0.000000000E+00  0.00000E+00  9.000E+00
      25     1     1     2     0     0  1.435415128E+00  4.585124667E+00 -7.684600126E+02  7.785604409E+02  1.249099092E+02  0.00000E+00  9.000E+00
       5     1     1     2   501     0  3.985866611E+00  9.229137363E-01  4.146514563E+00  7.516314617E+00  4.750000000E+00  0.00000E+00  9.000E+00
      -5     1     1     2     0   503  8.784971188E-02 -5.249969505E-01 -3.560906175E+01  3.592841659E+01  4.750000000E+00  0.00000E+00  9.000E+00
      21     1     1     2   511   501 -5.509131451E+00 -4.983041453E+00  1.831631974E+02  1.833137696E+02  6.031565972E-06  0.00000E+00  9.000E+00
#rwgt            1           9   5.5267660448754454E-005           5      895493           0
</event>
<event>
      6   9999  3.45752E-01  2.93818E+01 -1.00000E+00  1.48425E-01
      21    -1     0     0   501   512  0.000000000E+00  0.000000000E+00  1.600357948E+01  1.600357948E+01  0.000000000E+00  0.00000E+00  9.000E+00
      21    -1     0     0   502   503  0.000000000E+00  0.000000000E+00 -8.621999330E+02  8.621999330E+02  0.000000000E+00  0.00000E+00  9.000E+00
      25     1     1     2     0     0  5.320508422E+01 -1.226791237E+01 -5.902533289E+02  6.058103715E+02  1.250037252E+02  0.00000E+00  9.000E+00
       5     1     1     2   501     0  2.782486342E+00 -3.663842163E-01  4.053929219E-01  5.532025945E+00  4.750000000E+00  0.00000E+00  9.000E+00
      -5     1     1     2     0   503 -2.690960649E+01  1.684869705E+01 -2.066374907E+02  2.091162848E+02  4.750000000E+00  0.00000E+00  9.000E+00
      21     1     1     2   502   512 -2.907796407E+01 -4.214400462E+00 -4.971092681E+01  5.774483016E+01  6.743495762E-07  0.00000E+00  9.000E+00
#rwgt            1           9   1.3234437501271240E-004           5      898548           0
</event>
<event>
      6   9999  3.45752E-01  9.18887E+00 -1.00000E+00  1.91148E-01
      21    -1     0     0   501   502  0.000000000E+00  0.000000000E+00  3.047681939E+01  3.047681939E+01  0.000000000E+00  0.00000E+00  9.000E+00
      21    -1     0     0   502   511  0.000000000E+00  0.000000000E+00 -1.392791676E+03  1.392791676E+03  0.000000000E+00  0.00000E+00  9.000E+00
      25     1     1     2     0     0  3.813704721E+01 -1.375154522E+01 -5.860474720E+02  6.006001126E+02  1.250012659E+02  0.00000E+00  9.000E+00
       5     1     1     2   501     0 -2.245625705E+00  2.143821964E+00  2.201295160E+01  2.273260534E+01  4.750000000E+00  0.00000E+00  9.000E+00
      -5     1     1     2     0   503 -4.173341732E+01  4.515022505E+00 -6.590385142E+02  6.603910881E+02  4.750000000E+00  0.00000E+00  9.000E+00
      21     1     1     2   503   511  5.841995815E+00  7.092700747E+00 -1.392418224E+02  1.395446897E+02  0.000000000E+00  0.00000E+00  9.000E+00
#rwgt            1           9   1.0282003991142262E-003           5      899604           0
</event>
<event>
      6   9999  3.45752E-01  3.12258E+01 -1.00000E+00  1.46722E-01
      21    -1     0     0   501   512  0.000000000E+00  0.000000000E+00  3.957730611E+01  3.957730611E+01  0.000000000E+00  0.00000E+00  9.000E+00
      21    -1     0     0   502   503  0.000000000E+00  0.000000000E+00 -1.144928041E+03  1.144928041E+03  0.000000000E+00  0.00000E+00  9.000E+00
      25     1     1     2     0     0 -2.409566840E+01  6.765994613E+01 -7.068835404E+02  7.214274496E+02  1.249590161E+02  0.00000E+00  9.000E+00
       5     1     1     2   501     0  2.579262189E+00  7.081698449E+00  1.949983412E+01  2.143849521E+01  4.750000000E+00  0.00000E+00  9.000E+00
      -5     1     1     2     0   503  2.235859920E+01 -4.352715860E+01 -4.047609027E+02  4.077357862E+02  4.750000000E+00  0.00000E+00  9.000E+00
      21     1     1     2   502   512 -8.421929815E-01 -3.121448598E+01 -1.320612584E+01  3.390361609E+01  1.118282261E-06  0.00000E+00  9.000E+00
#rwgt            1           9  0.11670494796026419                5      903555           0
</event>
<event>
      6   9999  3.45752E-01  3.14354E+01 -1.00000E+00  1.46537E-01
      21    -1     0     0   502   503  0.000000000E+00  0.000000000E+00  6.733786150E+01  6.733786150E+01  0.000000000E+00  0.00000E+00  9.000E+00
      21    -1     0     0   501   511  0.000000000E+00  0.000000000E+00 -1.142811257E+02  1.142811257E+02  0.000000000E+00  0.00000E+00  9.000E+00
      25     1     1     2     0     0 -1.610801422E+01 -2.367945588E+01 -1.539850860E+01  1.291402010E+02  1.249795691E+02  0.00000E+00  9.000E+00
       5     1     1     2   501     0 -1.051086548E+00 -9.183144239E-01 -1.964085585E+00  5.326182169E+00  4.750000000E+00  0.00000E+00  9.000E+00
      -5     1     1     2     0   503 -1.078798808E+00 -1.006220183E+00 -2.100261143E+00  5.399063140E+00  4.750000000E+00  0.00000E+00  9.000E+00
      21     1     1     2   502   511  1.823789958E+01  2.560399049E+01 -2.748040890E+01  4.175354096E+01  7.539457465E-07  0.00000E+00  9.000E+00
#rwgt            1           9   3.6888273807151304E-004           5      905032           0
</event>
<event>
      6   9999  3.45752E-01  4.67827E+01 -1.00000E+00  1.36351E-01
      21    -1     0     0   501   502  0.000000000E+00  0.000000000E+00  1.241683677E+03  1.241683677E+03  0.000000000E+00  0.00000E+00  9.000E+00
      21    -1     0     0   502   512  0.000000000E+00  0.000000000E+00 -5.415281631E+01  5.415281631E+01  0.000000000E+00  0.00000E+00  9.000E+00
      25     1     1     2     0     0 -4.613827159E+01  8.912487132E+01  1.012001466E+03  1.024620723E+03  1.250147067E+02  0.00000E+00  9.000E+00
       5     1     1     2   501     0  7.087187606E-01  1.012039423E+00  1.206305368E+02  1.207303418E+02  4.750000000E+00  0.00000E+00  9.000E+00
      -5     1     1     2     0   503  7.376521634E+01 -5.291182949E+01  2.270736751E+01  9.369714980E+01  4.750000000E+00  0.00000E+00  9.000E+00
      21     1     1     2   503   512 -2.833566351E+01 -3.722508125E+01  3.219149026E+01  5.678827824E+01  1.066240300E-06  0.00000E+00  9.000E+00
#rwgt            1           9   2.4526873044144847E-005           5      905680           0
</event>
<event>
      6   9999  3.45752E-01  1.09204E+01 -1.00000E+00  1.83254E-01
      21    -1     0     0   501   502  0.000000000E+00  0.000000000E+00  2.091766024E+02  2.091766024E+02  0.000000000E+00  0.00000E+00  9.000E+00
      -3    -1     0     0     0   503  0.000000000E+00  0.000000000E+00 -1.075066705E+02  1.075066705E+02  0.000000000E+00  0.00000E+00  9.000E+00
      25     1     1     2     0     0  1.003341294E+00 -5.880662898E+00  1.330227077E+02  1.826720797E+02  1.250538247E+02  0.00000E+00  9.000E+00
       5     1     1     2   501     0  1.620171726E-01 -1.886120352E+00  4.504967272E+01  4.533893704E+01  4.750000000E+00  0.00000E+00  9.000E+00
      -5     1     1     2     0   503  2.973199479E+00 -2.339082601E+00  4.167946705E+00  7.365154600E+00  4.750000000E+00  0.00000E+00  9.000E+00
      -3     1     1     2     0   502 -4.138557945E+00  1.010586585E+01 -8.057039514E+01  8.130710153E+01  1.348699152E-06  0.00000E+00  9.000E+00
#rwgt            1           9   1.1566715478829603E-002           5      906660           0
</event>
<event>
      6   9999  3.45752E-01  1.25357E+01 -1.00000E+00  1.77415E-01
      21    -1     0     0   511   502  0.000000000E+00  0.000000000E+00  8.790469075E+00  8.790469075E+00  0.000000000E+00  0.00000E+00  9.000E+00
      21    -1     0     0   502   503  0.000000000E+00  0.000000000E+00 -6.615805217E+02  6.615805217E+02  0.000000000E+00  0.00000E+00  9.000E+00
      25     1     1     2     0     0 -3.739668499E+00 -8.757764690E+00 -5.867929527E+02  6.000066233E+02  1.248651076E+02  0.00000E+00  9.000E+00
       5     1     1     2   501     0  1.656748860E+00 -3.314992810E+00 -2.504745364E+01  2.576182113E+01  4.750000000E+00  0.00000E+00  9.000E+00
      -5     1     1     2     0   503 -1.265212480E+00 -7.510248861E-03 -1.497530217E+01  1.576144010E+01  4.750000000E+00  0.00000E+00  9.000E+00
      21     1     1     2   511   501  3.348132119E+00  1.208026775E+01 -2.597434410E+01  2.884110624E+01  3.371747881E-07  0.00000E+00  9.000E+00
#rwgt            1           9   1.2605179856227315                5      908813           0
</event>
<event>
      6   9999  3.45752E-01  1.43076E+01 -1.00000E+00  1.72170E-01
      21    -1     0     0   512   502  0.000000000E+00  0.000000000E+00  4.901982462E+01  4.901982462E+01  0.000000000E+00  0.00000E+00  9.000E+00
      21    -1     0     0   502   503  0.000000000E+00  0.000000000E+00 -7.920244894E+02  7.920244894E+02  0.000000000E+00  0.00000E+00  9.000E+00
      25     1     1     2     0     0 -4.680309786E+00 -1.521919693E+01 -7.646393016E+02  7.749524105E+02  1.249977908E+02  0.00000E+00  9.000E+00
       5     1     1     2   501     0 -1.403841319E+00  2.949633060E+00  2.744963677E+00  6.385016149E+00  4.750000000E+00  0.00000E+00  9.000E+00
      -5     1     1     2     0   503 -2.271254893E+00  6.551781968E-01 -1.872543910E+01  1.946259044E+01  4.750000000E+00  0.00000E+00  9.000E+00
      21     1     1     2   512   501  8.355405998E+00  1.161438567E+01  3.761511226E+01  4.024429692E+01  1.066240300E-06  0.00000E+00  9.000E+00
#rwgt            1           9   1.7161094790426237E-003           5      910433           0
</event>
<event>
      6   9999  3.45752E-01  3.51511E+00 -1.00000E+00  2.60069E-01
      21    -1     0     0   501   502  0.000000000E+00  0.000000000E+00  5.221813662E+01  5.221813662E+01  0.000000000E+00  0.00000E+00  9.000E+00
      21    -1     0     0   511   503  0.000000000E+00  0.000000000E+00 -1.458557106E+03  1.458557106E+03  0.000000000E+00  0.00000E+00  9.000E+00
      25     1     1     2     0     0  5.835797247E+00 -1.158985333E+01 -1.302227442E+03  1.308277563E+03  1.250019549E+02  0.00000E+00  9.000E+00
       5     1     1     2   501     0 -3.917441506E+00  7.343006632E+00  4.850857738E+01  4.944603800E+01  4.750000000E+00  0.00000E+00  9.000E+00
      -5     1     1     2     0   503 -1.974994783E+00  7.321961198E-01 -3.544613073E+01  3.582495498E+01  4.750000000E+00  0.00000E+00  9.000E+00
      21     1     1     2   511   502  5.663904229E-02  3.514650583E+00 -1.171739736E+02  1.172266867E+02  1.907348633E-06  0.00000E+00  9.000E+00
#rwgt            1           9   7.1372644437544522E-004           5      912517           0
</event>
<event>
      6   9999  3.45752E-01  6.55886E+00 -1.00000E+00  2.08809E-01
      21    -1     0     0   501   502  0.000000000E+00  0.000000000E+00  1.445798576E+01  1.445798576E+01  0.000000000E+00  0.00000E+00  9.000E+00
      21    -1     0     0   502   512  0.000000000E+00  0.000000000E+00 -9.086219382E+02  9.086219382E+02  0.000000000E+00  0.00000E+00  9.000E+00
      25     1     1     2     0     0  4.593435744E+00 -5.093362482E+00 -6.504512548E+02  6.623983378E+02  1.250507139E+02  0.00000E+00  9.000E+00
       5     1     1     2   501     0  4.258339033E+00 -2.389193240E+00  6.579856318E+00  9.470940018E+00  4.750000000E+00  0.00000E+00  9.000E+00
      -5     1     1     2     0   503 -5.192659179E+00  2.039257924E+00 -2.237428274E+02  2.238627651E+02  4.750000000E+00  0.00000E+00  9.000E+00
      21     1     1     2   503   512 -3.659115599E+00  5.443297797E+00 -2.654972652E+01  2.734788102E+01  3.371747881E-07  0.00000E+00  9.000E+00
#rwgt            1           9   2.9716029363606867E-004           5      920595           0
</event>
<event>
      6   9999  3.45752E-01  4.17874E+01 -1.00000E+00  1.39094E-01
      21    -1     0     0   501   502  0.000000000E+00  0.000000000E+00  9.395831787E+01  9.395831787E+01  0.000000000E+00  0.00000E+00  9.000E+00
      21    -1     0     0   502   511  0.000000000E+00  0.000000000E+00 -8.743975651E+02  8.743975651E+02  0.000000000E+00  0.00000E+00  9.000E+00
      25     1     1     2     0     0  1.823196292E+02 -1.044710212E+02 -2.134303327E+02  3.244485091E+02  1.247384733E+02  0.00000E+00  9.000E+00
       5     1     1     2   501     0 -8.089820279E+01  1.165246314E+02 -1.979999143E+02  2.436165789E+02  4.750000000E+00  0.00000E+00  9.000E+00
      -5     1     1     2     0   503 -9.418406180E+01 -5.320954168E+01 -2.151890602E+02  2.408958010E+02  4.750000000E+00  0.00000E+00  9.000E+00
      21     1     1     2   503   511 -7.237364578E+00  4.115593147E+01 -1.538199400E+02  1.593949939E+02  1.907348633E-06  0.00000E+00  9.000E+00
#rwgt            1           9   115.41657342148341                5      924262           0
</event>
<event>
      6   9999  3.45752E-01  2.23306E+01 -1.00000E+00  1.56640E-01
      21    -1     0     0   501   502  0.000000000E+00  0.000000000E+00  3.717326112E+02  3.717326112E+02  0.000000000E+00  0.00000E+00  9.000E+00
      21    -1     0     0   502   512  0.000000000E+00  0.000000000E+00 -6.482626582E+02  6.482626582E+02  0.000000000E+00  0.00000E+00  9.000E+00
      25     1     1     2     0     0  4.292582574E+01  7.572496794E+00 -5.051515439E+02  5.222070918E+02  1.249887802E+02  0.00000E+00  9.000E+00
       5     1     1     2   501     0 -1.303944152E+01  4.906087596E+00  3.598551604E+02  3.601560713E+02  4.750000000E+00  0.00000E+00  9.000E+00
      -5     1     1     2     0   503 -1.089761212E+01 -7.277090719E-01 -1.441712901E+01  1.870036415E+01  4.750000000E+00  0.00000E+00  9.000E+00
      21     1     1     2   503   512 -1.898877210E+01 -1.175087532E+01 -1.168165345E+02  1.189317421E+02  1.907348633E-06  0.00000E+00  9.000E+00
#rwgt            1           9   4.9310818756173761E-005           5      925871           0
</event>
<event>
      6   9999  3.45752E-01  3.00746E+01 -1.00000E+00  1.47768E-01
      21    -1     0     0   511   502  0.000000000E+00  0.000000000E+00  2.296092301E+01  2.296092301E+01  0.000000000E+00  0.00000E+00  9.000E+00
      21    -1     0     0   502   503  0.000000000E+00  0.000000000E+00 -2.264153156E+03  2.264153156E+03  0.000000000E+00  0.00000E+00  9.000E+00
      25     1     1     2     0     0  4.654377496E+01  1.000581068E+02 -9.721438377E+02  9.863402491E+02  1.250019922E+02  0.00000E+00  9.000E+00
       5     1     1     2   501     0 -1.180662383E+01  6.183488218E+00  5.261088668E+00  1.509547769E+01  4.750000000E+00  0.00000E+00  9.000E+00
      -5     1     1     2     0   503 -5.911239770E+01 -8.862546936E+01 -1.209936312E+03  1.214626359E+03  4.750000000E+00  0.00000E+00  9.000E+00
      21     1     1     2   511   501  2.437524656E+01 -1.761612565E+01 -6.437317157E+01  7.105199326E+01  0.000000000E+00  0.00000E+00  9.000E+00
#rwgt            1           9   3.2508900946178264E-003           5      928851           0
</event>
<event>
      6   9999  3.45752E-01  7.72585E+00 -1.00000E+00  1.99825E-01
      21    -1     0     0   512   502  0.000000000E+00  0.000000000E+00  4.197878842E+03  4.197878842E+03  0.000000000E+00  0.00000E+00  9.000E+00
      21    -1     0     0   502   503  0.000000000E+00  0.000000000E+00 -1.916593762E+00  1.916593762E+00  0.000000000E+00  0.00000E+00  9.000E+00
      25     1     1     2     0     0 -1.974317027E+01  2.232756541E+01  2.601719703E+03  2.604891307E+03  1.249999923E+02  0.00000E+00  9.000E+00
       5     1     1     2   501     0 -5.418094172E-01 -2.498770999E+00  6.091816867E+02  6.092055707E+02  4.750000000E+00  0.00000E+00  9.000E+00
      -5     1     1     2     0   503  2.352235603E+01 -1.281393779E+01  6.888492292E+02  6.893861917E+02  4.750000000E+00  0.00000E+00  9.000E+00
      21     1     1     2   512   501 -3.237376339E+00 -7.014856624E+00  2.962116300E+02  2.963123665E+02  3.814697266E-06  0.00000E+00  9.000E+00
#rwgt            1           9   1.6490739756569839E-002           5      930926           0
</event>
<event>
      6   9999  3.45752E-01  1.85375E+01 -1.00000E+00  1.62769E-01
      21    -1     0     0   502   503  0.000000000E+00  0.000000000E+00  6.018867729E+02  6.018867729E+02  0.000000000E+00  0.00000E+00  9.000E+00
      21    -1     0     0   501   511  0.000000000E+00  0.000000000E+00 -1.075058799E+01  1.075058799E+01  0.000000000E+00  0.00000E+00  9.000E+00
      25     1     1     2     0     0  2.186288135E+01  9.571199445E+00  4.611634383E+02  4.783992999E+02  1.249983195E+02  0.00000E+00  9.000E+00
       5     1     1     2   501     0  5.859812578E-01  7.581028521E-02  2.203810476E+01  2.255193301E+01  4.750000000E+00  0.00000E+00  9.000E+00
      -5     1     1     2     0   503 -4.135651294E+00 -6.772349441E+00  5.031674729E+01  5.115961186E+01  4.750000000E+00  0.00000E+00  9.000E+00
      21     1     1     2   502   511 -1.831321131E+01 -2.874660289E+00  5.761789459E+01  6.052651615E+01  9.536743164E-07  0.00000E+00  9.000E+00
#rwgt            1           9   7.5637568428856577E-005           5      933963           0
</event>
<event>
      6   9999 -3.45752E-01  2.41327E+01 -1.00000E+00  1.54224E-01
      21    -1     0     0   512   503  0.000000000E+00  0.000000000E+00  9.971288327E+01  9.971288327E+01  0.000000000E+00  0.00000E+00  9.000E+00
      21    -1     0     0   501   502  0.000000000E+00  0.000000000E+00 -3.076331474E+02  3.076331474E+02  0.000000000E+00  0.00000E+00  9.000E+00
      25     1     1     2     0     0 -3.987871092E+01  1.210633231E+02 -1.412342620E+02  2.276349332E+02  1.249956250E+02  0.00000E+00  9.000E+00
       5     1     1     2   501     0 -2.920222392E+00 -1.357522075E+01 -3.378720169E+00  1.505963371E+01  4.750000000E+00  0.00000E+00  9.000E+00
      -5     1     1     2     0   503  6.636369540E+01 -1.022834571E+02 -6.854966607E+01  1.399559391E+02  4.750000000E+00  0.00000E+00  9.000E+00
      21     1     1     2   512   502 -2.356476209E+01 -5.204645254E+00  5.242384125E+00  2.469552461E+01  4.420398764E-07  0.00000E+00  9.000E+00
#rwgt            1           9  -2.0076708147577400                5      935139           0
</event>
<event>
      6   9999 -3.45752E-01  3.92363E+00 -1.00000E+00  2.49595E-01
      21    -1     0     0   501   511  0.000000000E+00  0.000000000E+00  1.292275525E+01  1.292275525E+01  0.000000000E+00  0.00000E+00  9.000E+00
      21    -1     0     0   502   503  0.000000000E+00  0.000000000E+00 -8.295697973E+02  8.295697973E+02  0.000000000E+00  0.00000E+00  9.000E+00
      25     1     1     2     0     0  2.726736884E+00 -2.742580570E+00 -7.861613222E+02  7.960462517E+02  1.250002140E+02  0.00000E+00  9.000E+00
       5     1     1     2   501     0 -2.395568408E+00  3.389826639E+00  5.961191755E+00  8.679169302E+00  4.750000000E+00  0.00000E+00  9.000E+00
      -5     1     1     2     0   503 -2.503400214E+00  2.620216787E+00 -2.213296803E+01  2.292516789E+01  4.750000000E+00  0.00000E+00  9.000E+00
      21     1     1     2   502   511  2.172231738E+00 -3.267462856E+00 -1.431394365E+01  1.484196372E+01  1.685873940E-07  0.00000E+00  9.000E+00
#rwgt            1           9  -4.6264298814086046E-004           5      936905           0
</event>
<event>
      6   9999  3.45752E-01  4.83203E+00 -1.00000E+00  2.32004E-01
      21    -1     0     0   501   502  0.000000000E+00  0.000000000E+00  1.237943955E+02  1.237943955E+02  0.000000000E+00  0.00000E+00  9.000E+00
      21    -1     0     0   502   512  0.000000000E+00  0.000000000E+00 -3.865108276E+02  3.865108276E+02  0.000000000E+00  0.00000E+00  9.000E+00
      25     1     1     2     0     0 -8.718026140E-01 -1.520399929E+01 -2.407459098E+01  1.282030110E+02  1.249980179E+02  0.00000E+00  9.000E+00
       5     1     1     2   501     0 -1.098478253E+00  2.450894965E+00  6.291663816E+01  6.315282573E+01  4.750000000E+00  0.00000E+00  9.000E+00
      -5     1     1     2     0   503  1.614674783E+00  1.757202781E+01 -9.466113132E-01  1.829868599E+01  4.750000000E+00  0.00000E+00  9.000E+00
      21     1     1     2   503   512  3.556060839E-01 -4.818923482E+00 -3.006118680E+02  3.006507004E+02  0.000000000E+00  0.00000E+00  9.000E+00
#rwgt            1           9   1.4929478894486694                5      941811           0
</event>
<event>
      6   9999  3.45752E-01  1.52033E+01 -1.00000E+00  1.69866E-01
      21    -1     0     0   501   511  0.000000000E+00  0.000000000E+00  4.712679794E+01  4.712679794E+01  0.000000000E+00  0.00000E+00  9.000E+00
      21    -1     0     0   502   503  0.000000000E+00  0.000000000E+00 -1.084309117E+03  1.084309117E+03  0.000000000E+00  0.00000E+00  9.000E+00
      25     1     1     2     0     0  9.638596106E+00 -3.715270593E+01 -5.438006780E+02  5.593004439E+02  1.249983321E+02  0.00000E+00  9.000E+00
       5     1     1     2   501     0  1.869516032E+00  5.951058319E-01  1.802617615E+01  1.874445965E+01  4.750000000E+00  0.00000E+00  9.000E+00
      -5     1     1     2     0   503  1.429005318E+00  2.857192308E+01 -5.291965999E+02  5.299905666E+02  4.750000000E+00  0.00000E+00  9.000E+00
      21     1     1     2   502   511 -1.293711746E+01  7.985677018E+00  1.778878247E+01  2.340044502E+01  1.469710828E-06  0.00000E+00  9.000E+00
#rwgt            1           9   2.7408548761929497E-002           5      946873           0
</event>
<event>
      6   9999  3.45752E-01  4.56598E+01 -1.00000E+00  1.36932E-01
      21    -1     0     0   502   512  0.000000000E+00  0.000000000E+00  2.031543322E+02  2.031543322E+02  0.000000000E+00  0.00000E+00  9.000E+00
      21    -1     0     0   501   502  0.000000000E+00  0.000000000E+00 -9.553045952E+02  9.553045952E+02  0.000000000E+00  0.00000E+00  9.000E+00
      25     1     1     2     0     0  3.660637469E+01 -1.998536763E+01 -4.140890306E+02  4.345507148E+02  1.250006274E+02  0.00000E+00  9.000E+00
       5     1     1     2   501     0 -4.301990051E+00  1.614116769E+01 -4.331265560E+02  4.334745903E+02  4.750000000E+00  0.00000E+00  9.000E+00
      -5     1     1     2     0   503 -2.147345741E+01 -4.051237414E+01 -8.930137765E+01  1.004970665E+02  4.750000000E+00  0.00000E+00  9.000E+00
      21     1     1     2   503   512 -1.083092723E+01  4.435657408E+01  1.843667014E+02  1.899365558E+02  2.697398305E-06  0.00000E+00  9.000E+00
#rwgt            1           9   9.4764265701735243E-003           5      949418           0
</event>
<event>
      6   9999 -3.45752E-01  1.04671E+01 -1.00000E+00  1.85129E-01
      21    -1     0     0   501   511  0.000000000E+00  0.000000000E+00  6.808155661E+01  6.808155661E+01  0.000000000E+00  0.00000E+00  9.000E+00
      21    -1     0     0   502   503  0.000000000E+00  0.000000000E+00 -1.966334942E+02  1.966334942E+02  0.000000000E+00  0.00000E+00  9.000E+00
      25     1     1     2     0     0  3.784737817E+00 -2.159246336E+00 -1.013803986E+02  1.609995169E+02  1.249954905E+02  0.00000E+00  9.000E+00
       5     1     1     2   501     0  4.310185205E+00  3.116462666E+00  3.072308515E+01  3.153982398E+01  4.750000000E+00  0.00000E+00  9.000E+00
      -5     1     1     2     0   503 -1.395248976E+00  7.084852348E+00 -6.072152234E+01  6.133357668E+01  4.750000000E+00  0.00000E+00  9.000E+00
      21     1     1     2   502   511 -6.699674046E+00 -8.042068679E+00  2.826898150E+00  1.084213328E+01  2.858538343E-07  0.00000E+00  9.000E+00
#rwgt            1           9  -4.1943337420334370E-003           5      950198           0
</event>
<event>
      6   9999  3.45752E-01  1.57979E+01 -1.00000E+00  1.68444E-01
      21    -1     0     0   501   502  0.000000000E+00  0.000000000E+00  3.810524330E+03  3.810524330E+03  0.000000000E+00  0.00000E+00  9.000E+00
      21    -1     0     0   512   503  0.000000000E+00  0.000000000E+00 -1.346590719E+01  1.346590719E+01  0.000000000E+00  0.00000E+00  9.000E+00
      25     1     1     2     0     0  4.670605492E+01  3.365444458E+01  1.788775207E+03  1.794062300E+03  1.250148629E+02  0.00000E+00  9.000E+00
       5     1     1     2   501     0 -5.985166434E+01 -2.191452727E+01  1.821254647E+03  1.822375790E+03  4.750000000E+00  0.00000E+00  9.000E+00
      -5     1     1     2     0   503 -2.458119123E+00 -9.270382825E+00  1.909702311E+02  1.912698984E+02  4.750000000E+00  0.00000E+00  9.000E+00
      21     1     1     2   512   502  1.560372855E+01 -2.469534488E+00 -3.941662256E+00  1.628224943E+01  2.112814411E-06  0.00000E+00  9.000E+00
#rwgt            1           9   4.8585374512616635E-004           5      953070           0
</event>
<event>
      6   9999  3.45752E-01  1.31145E+01 -1.00000E+00  1.75588E-01
      21    -1     0     0   511   502  0.000000000E+00  0.000000000E+00  4.173857323E+02  4.173857323E+02  0.000000000E+00  0.00000E+00  9.000E+00
      21    -1     0     0   502   503  0.000000000E+00  0.000000000E+00 -2.737729599E+02  2.737729599E+02  0.000000000E+00  0.00000E+00  9.000E+00
      25     1     1     2     0     0 -1.938602706E+01 -2.452824544E+01 -1.447044393E+02  1.937590888E+02  1.250030274E+02  0.00000E+00  9.000E+00
       5     1     1     2   501     0  6.753046632E+00 -8.045351026E+00  1.380650681E+02  1.385455046E+02  4.750000000E+00  0.00000E+00  9.000E+00
      -5     1     1     2     0   503  1.505510122E+01  1.968475721E+01 -1.026024221E+02  1.056596671E+02  4.750000000E+00  0.00000E+00  9.000E+00
      21     1     1     2   511   501 -2.422120793E+00  1.288883926E+01  2.528545657E+02  2.531944317E+02  3.814697266E-06  0.00000E+00  9.000E+00
#rwgt            1           9   7.5346963219299443E-002           5      954675           0
</event>
<event>
      6   9999  3.45752E-01  1.40136E+01 -1.00000E+00  1.72972E-01
      21    -1     0     0   501   502  0.000000000E+00  0.000000000E+00  3.381545331E+01  3.381545331E+01  0.000000000E+00  0.00000E+00  9.000E+00
      21    -1     0     0   512   503  0.000000000E+00  0.000000000E+00 -2.571544356E+03  2.571544356E+03  0.000000000E+00  0.00000E+00  9.000E+00
      25     1     1     2     0     0 -2.793296247E+01 -1.245364351E+02 -4.537511827E+02  4.876518303E+02  1.249983909E+02  0.00000E+00  9.000E+00
       5     1     1     2   501     0 -4.633908843E-01 -9.554288587E-01  1.066322894E+01  1.172154115E+01  4.750000000E+00  0.00000E+00  9.000E+00
      -5     1     1     2     0   503  1.596035545E+01  1.190322815E+02 -6.347973618E+02  6.460755916E+02  4.750000000E+00  0.00000E+00  9.000E+00
      21     1     1     2   512   502  1.243599791E+01  6.459582393E+00 -1.459843587E+03  1.459910846E+03  0.000000000E+00  0.00000E+00  9.000E+00
#rwgt            1           9   7.8248341227662142E-004           5      957864           0
</event>
<event>
      6   9999  3.45752E-01  7.06857E+00 -1.00000E+00  2.04600E-01
      21    -1     0     0   501   511  0.000000000E+00  0.000000000E+00  2.597586503E+01  2.597586503E+01  0.000000000E+00  0.00000E+00  9.000E+00
      21    -1     0     0   502   503  0.000000000E+00  0.000000000E+00 -9.679269938E+02  9.679269938E+02  0.000000000E+00  0.00000E+00  9.000E+00
      25     1     1     2     0     0 -7.617663886E+00  8.256359979E+00 -8.727509258E+02  8.817295157E+02  1.250062559E+02  0.00000E+00  9.000E+00
       5     1     1     2   501     0  3.256610919E+00  1.652897565E-01  1.036678824E+01  1.186025437E+01  4.750000000E+00  0.00000E+00  9.000E+00
      -5     1     1     2     0   503  2.508979881E+00 -1.600027877E+00 -8.863695509E+01  8.881400439E+01  4.750000000E+00  0.00000E+00  9.000E+00
      21     1     1     2   502   511  1.852073085E+00 -6.821621859E+00  9.069963825E+00  1.149908445E+01  6.078504936E-07  0.00000E+00  9.000E+00
#rwgt            1           9   3.8557212079208231E-002           5      960629           0
</event>
<event>
      6   9999  3.45752E-01  1.93454E+01 -1.00000E+00  1.61321E-01
      21    -1     0     0   501   502  0.000000000E+00  0.000000000E+00  1.850852399E+01  1.850852399E+01  0.000000000E+00  0.00000E+00  9.000E+00
      21    -1     0     0   502   512  0.000000000E+00  0.000000000E+00 -1.818765916E+03  1.818765916E+03  0.000000000E+00  0.00000E+00  9.000E+00
      25     1     1     2     0     0  6.921095097E+01 -1.013361030E+01 -1.296378177E+03  1.304267195E+03  1.249947652E+02  0.00000E+00  9.000E+00
       5     1     1     2   501     0  5.262498830E+00 -1.174784954E+00  6.030753829E+00  9.381178251E+00  4.750000000E+00  0.00000E+00  9.000E+00
      -5     1     1     2     0   503 -5.564670686E+01  1.575812876E+01 -1.205920239E+02  1.338277749E+02  4.750000000E+00  0.00000E+00  9.000E+00
      21     1     1     2   503   512 -1.882674294E+01 -4.449733497E+00 -3.893179449E+02  3.897982922E+02  0.000000000E+00  0.00000E+00  9.000E+00
#rwgt            1           9   7.9200292637709637E-003           5      964046           0
</event>
<event>
      6   9999  3.45752E-01  4.07943E+00 -1.00000E+00  2.46096E-01
      21    -1     0     0   502   511  0.000000000E+00  0.000000000E+00  7.452451469E+02  7.452451469E+02  0.000000000E+00  0.00000E+00  9.000E+00
      21    -1     0     0   501   502  0.000000000E+00  0.000000000E+00 -6.823614557E+02  6.823614557E+02  0.000000000E+00  0.00000E+00  9.000E+00
      25     1     1     2     0     0  2.882080480E+00  4.424213300E+00 -6.308171713E+02  6.431039382E+02  1.249979662E+02  0.00000E+00  9.000E+00
       5     1     1     2   501     0  1.208044722E-01 -1.421638306E-01 -1.211091135E+01  1.301043727E+01  4.750000000E+00  0.00000E+00  9.000E+00
      -5     1     1     2     0   503 -2.628267066E+00 -8.344239455E+00 -3.208007449E+01  3.358910239E+01  4.750000000E+00  0.00000E+00  9.000E+00
      21     1     1     2   503   511 -3.746178868E-01  4.062189986E+00  7.378918483E+02  7.379031248E+02  1.525878906E-05  0.00000E+00  9.000E+00
#rwgt            1           9   1.5548440366180603E-004           5      966130           0
</event>
<event>
      6   9999  3.45752E-01  3.58622E+01 -1.00000E+00  1.42993E-01
      21    -1     0     0   501   502  0.000000000E+00  0.000000000E+00  6.075817513E+01  6.075817513E+01  0.000000000E+00  0.00000E+00  9.000E+00
      21    -1     0     0   502   512  0.000000000E+00  0.000000000E+00 -1.351061522E+03  1.351061522E+03  0.000000000E+00  0.00000E+00  9.000E+00
      25     1     1     2     0     0 -2.680752452E+01 -7.929274749E+01 -3.640376361E+02  3.938986285E+02  1.250069833E+02  0.00000E+00  9.000E+00
       5     1     1     2   501     0 -4.453067400E+00  3.147009558E+00  4.078175473E+01  4.141796105E+01  4.750000000E+00  0.00000E+00  9.000E+00
      -5     1     1     2     0   503 -3.991056120E+00  8.273514783E+01 -4.104477034E+02  4.187492244E+02  4.750000000E+00  0.00000E+00  9.000E+00
      21     1     1     2   503   512  3.525164804E+01 -6.589409901E+00 -5.565997618E+02  5.577538829E+02  0.000000000E+00  0.00000E+00  9.000E+00
#rwgt            1           9   1.8030050354235914E-004           5      969942           0
</event>
<event>
      6   9999 -3.45752E-01  2.54745E+00 -1.00000E+00  2.96908E-01
      21    -1     0     0   501   502  0.000000000E+00  0.000000000E+00  5.798472298E+00  5.798472298E+00  0.000000000E+00  0.00000E+00  9.000E+00
       2    -1     0     0   502     0  0.000000000E+00  0.000000000E+00 -2.889240182E+03  2.889240182E+03  0.000000000E+00  0.00000E+00  9.000E+00
      25     1     1     2     0     0  1.549403813E+01  4.138633907E+01 -9.526698631E+02  9.618516700E+02  1.250034911E+02  0.00000E+00  9.000E+00
       5     1     1     2   501     0 -4.739878978E-01 -1.468936932E-01 -7.652737721E+00  9.020706010E+00  4.750000000E+00  0.00000E+00  9.000E+00
      -5     1     1     2     0   503 -1.326926061E+01 -4.308991751E+01 -9.841238907E+02  9.851676045E+02  4.750000000E+00  0.00000E+00  9.000E+00
       2     1     1     2   503     0 -1.750789622E+00  1.850472124E+00 -9.389952181E+02  9.389986737E+02  1.078959322E-05  0.00000E+00  9.000E+00
#rwgt            1           9 -0.92439375666774215                5      971063           0
</event>
<event>
      6   9999  3.45752E-01  3.52239E+01 -1.00000E+00  1.43465E-01
      21    -1     0     0   501   502  0.000000000E+00  0.000000000E+00  5.975500689E+01  5.975500689E+01  0.000000000E+00  0.00000E+00  9.000E+00
       2    -1     0     0   502     0  0.000000000E+00  0.000000000E+00 -1.688046067E+03  1.688046067E+03  0.000000000E+00  0.00000E+00  9.000E+00
      25     1     1     2     0     0 -1.419790049E+02 -7.134789521E+01 -9.694122123E+02  9.902673194E+02  1.249830650E+02  0.00000E+00  9.000E+00
       5     1     1     2   501     0  4.422980166E+00 -5.959498442E+00  3.742862846E+01  3.845182835E+01  4.750000000E+00  0.00000E+00  9.000E+00
      -5     1     1     2     0   503  1.256493040E+02  4.415692858E+01 -4.225411827E+02  4.430589075E+02  4.750000000E+00  0.00000E+00  9.000E+00
       2     1     1     2   503     0  1.190672072E+01  3.315046507E+01 -2.737662941E+02  2.760230192E+02  0.000000000E+00  0.00000E+00  9.000E+00
#rwgt            1           9   6.3570988070194880E-005           5      977745           0
</event>
<event>
      6   9999  3.45752E-01  3.23906E+01 -1.00000E+00  1.45716E-01
      21    -1     0     0   502   503  0.000000000E+00  0.000000000E+00  7.632276952E+00  7.632276952E+00  0.000000000E+00  0.00000E+00  9.000E+00
      21    -1     0     0   501   511  0.000000000E+00  0.000000000E+00 -1.000938408E+03  1.000938408E+03  0.000000000E+00  0.00000E+00  9.000E+00
      25     1     1     2     0     0 -2.054709335E+01 -1.772146948E+01 -6.568823870E+02  6.692183869E+02  1.249901817E+02  0.00000E+00  9.000E+00
       5     1     1     2   501     0 -1.302355346E+00 -3.505460072E+00 -3.471119056E+01  3.523370020E+01  4.750000000E+00  0.00000E+00  9.000E+00
      -5     1     1     2     0   503 -1.281236807E+00 -1.447297955E+00 -2.528382209E+01  2.579865110E+01  4.750000000E+00  0.00000E+00  9.000E+00
      21     1     1     2   502   511  2.313068551E+01  2.267422751E+01 -2.764287317E+02  2.783199470E+02  0.000000000E+00  0.00000E+00  9.000E+00
#rwgt            1           9   9.4906738800918381E-005           5      980024           0
</event>
<event>
      6   9999  3.45752E-01  7.49024E+00 -1.00000E+00  2.01462E-01
      21    -1     0     0   501   502  0.000000000E+00  0.000000000E+00  9.013881827E+01  9.013881827E+01  0.000000000E+00  0.00000E+00  9.000E+00
      21    -1     0     0   502   512  0.000000000E+00  0.000000000E+00 -1.224903352E+03  1.224903352E+03  0.000000000E+00  0.00000E+00  9.000E+00
      25     1     1     2     0     0 -6.819988514E+00 -5.444235177E+00  1.760860426E+01  1.265480019E+02  1.250127269E+02  0.00000E+00  9.000E+00
       5     1     1     2   501     0 -5.666923608E-01 -4.376431410E-02  1.487940247E+01  1.562952890E+01  4.750000000E+00  0.00000E+00  9.000E+00
      -5     1     1     2     0   503  4.173576930E+00 -1.278070279E+00 -9.295223711E-01  6.517570089E+00  4.750000000E+00  0.00000E+00  9.000E+00
      21     1     1     2   503   512  3.213103944E+00  6.766069770E+00 -1.166323018E+03  1.166347070E+03  1.525878906E-05  0.00000E+00  9.000E+00
#rwgt            1           9   7.2536541422351858E-002           5      980978           0
</event>
<event>
      6   9999  3.45752E-01  5.19321E+01 -1.00000E+00  1.33912E-01
       2    -1     0     0   511     0  0.000000000E+00  0.000000000E+00  5.487007226E+01  5.487007226E+01  0.000000000E+00  0.00000E+00  9.000E+00
      -2    -1     0     0     0   502  0.000000000E+00  0.000000000E+00 -2.053524161E+03  2.053524161E+03  0.000000000E+00  0.00000E+00  9.000E+00
      25     1     1     2     0     0 -1.419117732E+02  2.255430324E+02 -6.644197665E+02  7.266979179E+02  1.250105073E+02  0.00000E+00  9.000E+00
       5     1     1     2   501     0 -9.887306335E+00 -4.441592649E+01 -1.656797403E+02  1.718804009E+02  4.750000000E+00  0.00000E+00  9.000E+00
      -5     1     1     2     0   502  1.987071411E+02 -1.588429886E+02 -1.049962210E+03  1.080351252E+03  4.750000000E+00  0.00000E+00  9.000E+00
      21     1     1     2   511   501 -4.690806159E+01 -2.228411730E+01 -1.185923717E+02  1.294646622E+02  2.697398305E-06  0.00000E+00  9.000E+00
#rwgt            1           4   3.7533934288326315E-006           5      983813           0
</event>
<event>
      6   9999 -3.45752E-01  3.57678E+00 -1.00000E+00  2.58351E-01
      21    -1     0     0   512   502  0.000000000E+00  0.000000000E+00  2.286245685E+02  2.286245685E+02  0.000000000E+00  0.00000E+00  9.000E+00
      21    -1     0     0   502   503  0.000000000E+00  0.000000000E+00 -1.040454454E+03  1.040454454E+03  0.000000000E+00  0.00000E+00  9.000E+00
      25     1     1     2     0     0 -2.585330888E+01  2.878760279E+01 -7.882199941E+02  7.990089750E+02  1.250098531E+02  0.00000E+00  9.000E+00
       5     1     1     2   501     0 -9.357738348E-01 -3.070437332E+00  1.461978167E+01  1.570362296E+01  4.750000000E+00  0.00000E+00  9.000E+00
      -5     1     1     2     0   503  2.566576567E+01 -2.232135228E+01 -2.450852469E+02  2.474799286E+02  4.750000000E+00  0.00000E+00  9.000E+00
      21     1     1     2   512   501  1.123317040E+00 -3.395813175E+00  2.068555743E+02  2.068864955E+02  4.672030912E-06  0.00000E+00  9.000E+00
#rwgt            1           9  -1.3218882707837049E-004           5      984078           0
</event>
<event>
      6   9999 -3.45752E-01  6.50649E+00 -1.00000E+00  2.09270E-01
      21    -1     0     0   501   511  0.000000000E+00  0.000000000E+00  2.762279530E+01  2.762279530E+01  0.000000000E+00  0.00000E+00  9.000E+00
      21    -1     0     0   502   503  0.000000000E+00  0.000000000E+00 -2.881324040E+02  2.881324040E+02  0.000000000E+00  0.00000E+00  9.000E+00
      25     1     1     2     0     0  1.453269829E+01 -5.046038554E+00 -1.795335866E+02  2.193016627E+02  1.249969949E+02  0.00000E+00  9.000E+00
       5     1     1     2   501     0 -1.309941902E-01 -1.186870880E+00  4.071341427E+00  6.368998585E+00  4.750000000E+00  0.00000E+00  9.000E+00
      -5     1     1     2     0   503 -1.763106214E+01  5.843984103E-01 -7.938232633E+01  8.145742512E+01  4.750000000E+00  0.00000E+00  9.000E+00
      21     1     1     2   502   511  3.229358039E+00  5.648511024E+00 -5.665037121E+00  8.627112826E+00  0.000000000E+00  0.00000E+00  9.000E+00
#rwgt            1           9  -21.722986608460211                5      990748           0
</event>
<event>
      6   9999  3.45752E-01  1.76776E+01 -1.00000E+00  1.64413E-01
      21    -1     0     0   501   502  0.000000000E+00  0.000000000E+00  3.537750062E+01  3.537750062E+01  0.000000000E+00  0.00000E+00  9.000E+00
      21    -1     0     0   502   512  0.000000000E+00  0.000000000E+00 -1.433896644E+03  1.433896644E+03  0.000000000E+00  0.00000E+00  9.000E+00
      25     1     1     2     0     0  2.524150805E+01 -4.526499161E+01 -9.986328329E+02  1.007759120E+03  1.249994245E+02  0.00000E+00  9.000E+00
       5     1     1     2   501     0  1.095731446E+00  1.059628625E+00  2.545444155E+01  2.593866872E+01  4.750000000E+00  0.00000E+00  9.000E+00
      -5     1     1     2     0   503 -1.454870400E+01  5.737842236E+01 -1.788215251E+02  1.884241187E+02  4.750000000E+00  0.00000E+00  9.000E+00
      21     1     1     2   503   512 -1.178853550E+01 -1.317305937E+01 -2.465192269E+02  2.471522371E+02  2.697398305E-06  0.00000E+00  9.000E+00
#rwgt            1           9   1.0757344262736661E-004           5      994221           0
</event>
<event>
      6   9999  3.45752E-01  4.41716E+00 -1.00000E+00  2.39258E-01
      21    -1     0     0   501   502  0.000000000E+00  0.000000000E+00  2.805270118E+01  2.805270118E+01  0.000000000E+00  0.00000E+00  9.000E+00
      21    -1     0     0   511   503  0.000000000E+00  0.000000000E+00 -3.372937612E+02  3.372937612E+02  0.000000000E+00  0.00000E+00  9.000E+00
      25     1     1     2     0     0 -4.714296437E+00 -4.304086531E+01 -2.329713999E+02  2.679119351E+02  1.250055643E+02  0.00000E+00  9.000E+00
       5     1     1     2   501     0 -3.246718102E-01  4.907617869E-01  6.368547905E-01  4.828492823E+00  4.750000000E+00  0.00000E+00  9.000E+00
      -5     1     1     2     0   503  6.330398474E-01  4.286488051E+01 -5.318280166E+01  6.847460561E+01  4.750000000E+00  0.00000E+00  9.000E+00
      21     1     1     2   511   502  4.405928399E+00 -3.147769886E-01 -2.372371316E+01  2.413142879E+01  0.000000000E+00  0.00000E+00  9.000E+00
#rwgt            1           9   1.4449811848556655                5      996804           0
</event>
<event>
      6   9999  3.45752E-01  1.19129E+01 -1.00000E+00  1.79527E-01
      21    -1     0     0   512   502  0.000000000E+00  0.000000000E+00  3.374104509E+02  3.374104509E+02  0.000000000E+00  0.00000E+00  9.000E+00
      21    -1     0     0   502   503  0.000000000E+00  0.000000000E+00 -1.415043830E+03  1.415043830E+03  0.000000000E+00  0.00000E+00  9.000E+00
      25     1     1     2     0     0  3.040960294E+01 -4.362515442E+01 -1.223955583E+03  1.231471024E+03  1.250028606E+02  0.00000E+00  9.000E+00
       5     1     1     2   501     0  1.849997815E+00  2.645806250E+00  1.187732957E+00  5.864809648E+00  4.750000000E+00  0.00000E+00  9.000E+00
      -5     1     1     2     0   503 -2.080295930E+01  4.424467769E+01 -1.816206898E+02  1.881461987E+02  4.750000000E+00  0.00000E+00  9.000E+00
      21     1     1     2   512   501 -1.145664145E+01 -3.265329517E+00  3.267551603E+02  3.269722493E+02  5.394796609E-06  0.00000E+00  9.000E+00
#rwgt            1           9   1.3298693017562169E-002           5     1001317           0
</event>
<event>
      6   9999  3.45752E-01  3.65880E+00 -1.00000E+00  2.56147E-01
       2    -1     0     0   501     0  0.000000000E+00  0.000000000E+00  2.772169911E+02  2.772169911E+02  0.000000000E+00  0.00000E+00  9.000E+00
      21    -1     0     0   502   503  0.000000000E+00  0.000000000E+00 -7.657993060E+02  7.657993060E+02  0.000000000E+00  0.00000E+00  9.000E+00
      25     1     1     2     0     0  4.242688916E+00 -1.719783276E+00 -7.410602518E+02  7.515437402E+02  1.250069543E+02  0.00000E+00  9.000E+00
       5     1     1     2   501     0  1.164865319E+00 -2.370549358E-01  6.103872275E-01  4.934387381E+00  4.750000000E+00  0.00000E+00  9.000E+00
      -5     1     1     2     0   503 -1.976349417E+00  6.865531298E-01 -1.693407016E+01  1.771164996E+01  4.750000000E+00  0.00000E+00  9.000E+00
       2     1     1     2   502     0 -3.431204818E+00  1.270285082E+00  2.688016198E+02  2.688265195E+02  5.394796609E-06  0.00000E+00  9.000E+00
#rwgt            1           9   3.5310536083757733E-006           5     1004002           0
</event>
<event>
      6   9999  3.45752E-01  1.11504E+01 -1.00000E+00  1.82346E-01
      21    -1     0     0   501   502  0.000000000E+00  0.000000000E+00  4.887896459E+01  4.887896459E+01  0.000000000E+00  0.00000E+00  9.000E+00
       2    -1     0     0   502     0  0.000000000E+00  0.000000000E+00 -2.700900988E+03  2.700900988E+03  0.000000000E+00  0.00000E+00  9.000E+00
      25     1     1     2     0     0  4.325713770E+01 -5.222478424E+01 -9.264444863E+02  9.372956891E+02  1.250008579E+02  0.00000E+00  9.000E+00
       5     1     1     2   501     0  3.560860833E+00  2.544872868E+00  3.938016075E+01  3.990633620E+01  4.750000000E+00  0.00000E+00  9.000E+00
      -5     1     1     2     0   503 -5.380823330E+01  5.836718052E+01 -4.137221067E+02  4.212963302E+02  4.750000000E+00  0.00000E+00  9.000E+00
       2     1     1     2   503     0  6.990234767E+00 -8.687269147E+00 -1.351235591E+03  1.351281597E+03  1.525878906E-05  0.00000E+00  9.000E+00
#rwgt            1           9   1.0369975269933656E-003           5     1008322           0
</event>
<event>
      6   9999  3.45752E-01  6.92730E+00 -1.00000E+00  2.05718E-01
      21    -1     0     0   501   502  0.000000000E+00  0.000000000E+00  7.892785757E+00  7.892785757E+00  0.000000000E+00  0.00000E+00  9.000E+00
      21    -1     0     0   511   503  0.000000000E+00  0.000000000E+00 -9.898375136E+02  9.898375136E+02  0.000000000E+00  0.00000E+00  9.000E+00
      25     1     1     2     0     0  9.922954445E+00 -8.821365944E+00 -6.779484631E+02  6.895052183E+02  1.250081831E+02  0.00000E+00  9.000E+00
       5     1     1     2   501     0 -2.612663744E-02 -3.716606330E-01 -1.554066151E+00  5.011630057E+00  4.750000000E+00  0.00000E+00  9.000E+00
      -5     1     1     2     0   503 -2.978267509E+00  8.845178129E+00 -8.247598575E+01  8.313818605E+01  4.750000000E+00  0.00000E+00  9.000E+00
      21     1     1     2   511   502 -6.918560299E+00  3.478484482E-01 -2.199662129E+02  2.200752650E+02  2.697398305E-06  0.00000E+00  9.000E+00
#rwgt            1           9   7.9726432549561709E-005           5     1012248           0
</event>
<event>
      6   9999 -3.45752E-01  1.72379E+01 -1.00000E+00  1.65298E-01
      21    -1     0     0   512   502  0.000000000E+00  0.000000000E+00  2.012900976E+01  2.012900976E+01  0.000000000E+00  0.00000E+00  9.000E+00
      21    -1     0     0   502   503  0.000000000E+00  0.000000000E+00 -4.945479102E+02  4.945479102E+02  0.000000000E+00  0.00000E+00  9.000E+00
      25     1     1     2     0     0  2.150845106E+01  1.412529205E+01 -4.214627609E+02  4.403605024E+02  1.249975036E+02  0.00000E+00  9.000E+00
       5     1     1     2   501     0  1.106313129E+00  2.008202780E-02  3.331285774E+00  5.906292995E+00  4.750000000E+00  0.00000E+00  9.000E+00
      -5     1     1     2     0   503 -5.879375010E+00 -1.827729928E+01 -1.945358499E+01  2.774222753E+01  4.750000000E+00  0.00000E+00  9.000E+00
      21     1     1     2   512   501 -1.673538918E+01  4.131925199E+00 -3.683384040E+01  4.066789711E+01  4.768371582E-07  0.00000E+00  9.000E+00
#rwgt            1           9  -7.5999988793922862E-002           5     1015409           0
</event>
<event>
      6   9999  3.45752E-01  3.03431E+00 -1.00000E+00  2.75626E-01
      21    -1     0     0   501   502  0.000000000E+00  0.000000000E+00  2.393725312E+01  2.393725312E+01  0.000000000E+00  0.00000E+00  9.000E+00
      21    -1     0     0   511   503  0.000000000E+00  0.000000000E+00 -1.237915323E+03  1.237915323E+03  0.000000000E+00  0.00000E+00  9.000E+00
      25     1     1     2     0     0  2.137547432E+01  4.515845240E+01 -6.001657159E+02  6.150775966E+02  1.250014664E+02  0.00000E+00  9.000E+00
       5     1     1     2   501     0 -5.298085172E+00  1.799929213E+00  1.460972932E+01  1.634980558E+01  4.750000000E+00  0.00000E+00  9.000E+00
      -5     1     1     2     0   503 -1.514099089E+01 -4.407217290E+01 -5.685996037E+02  5.705257907E+02  4.750000000E+00  0.00000E+00  9.000E+00
      21     1     1     2   511   502 -9.363982526E-01 -2.886208710E+00 -5.982247994E+01  5.989938355E+01  0.000000000E+00  0.00000E+00  9.000E+00
#rwgt            1           9   2.5209973227417027E-004           5     1017056           0
</event>
<event>
      6   9999  3.45752E-01  1.02555E+01 -1.00000E+00  1.86047E-01
      21    -1     0     0   501   512  0.000000000E+00  0.000000000E+00  2.437871157E+03  2.437871157E+03  0.000000000E+00  0.00000E+00  9.000E+00
      21    -1     0     0   502   503  0.000000000E+00  0.000000000E+00 -1.223616149E+03  1.223616149E+03  0.000000000E+00  0.00000E+00  9.000E+00
      25     1     1     2     0     0 -2.896626984E+01  7.153310331E+01 -1.047842288E+03  1.058090358E+03  1.250028651E+02  0.00000E+00  9.000E+00
       5     1     1     2   501     0  6.143662092E+01 -5.748212200E+01 -2.330618726E+01  8.743222292E+01  4.750000000E+00  0.00000E+00  9.000E+00
      -5     1     1     2     0   503 -2.334811391E+01 -9.364747265E+00 -1.138482225E+02  1.166911016E+02  4.750000000E+00  0.00000E+00  9.000E+00
      21     1     1     2   502   512 -9.122237165E+00 -4.686234045E+00  2.399251705E+03  2.399273624E+03  3.051757812E-05  0.00000E+00  9.000E+00
#rwgt            1           9   8.8075717058072697E-002           5     1024315           0
</event>
<event>
      6   9999  3.45752E-01  6.88165E+00 -1.00000E+00  2.06087E-01
      -2    -1     0     0     0   503  0.000000000E+00  0.000000000E+00  9.450163232E+00  9.450163232E+00  0.000000000E+00  0.00000E+00  9.000E+00
      21    -1     0     0   501   502  0.000000000E+00  0.000000000E+00 -6.757665239E+02  6.757665239E+02  0.000000000E+00  0.00000E+00  9.000E+00
      25     1     1     2     0     0 -4.235030479E+00  3.133052025E+00 -6.237231912E+02  6.361451735E+02  1.249892439E+02  0.00000E+00  9.000E+00
       5     1     1     2   501     0  2.953782324E+00 -2.426254666E+00 -8.657106602E+00  1.058865130E+01  4.750000000E+00  0.00000E+00  9.000E+00
      -5     1     1     2     0   503  7.275260853E+00 -4.087462670E+00 -2.723291764E+01  2.887613331E+01  4.750000000E+00  0.00000E+00  9.000E+00
      -2     1     1     2     0   502 -5.994012698E+00  3.380665312E+00 -6.703145299E+00  9.606729051E+00  1.460009660E-07  0.00000E+00  9.000E+00
#rwgt            1           9   8.0210524748087089                5     1028173           0
</event>
<event>
      6   9999  3.45752E-01  5.16104E+01 -1.00000E+00  1.34055E-01
      21    -1     0     0   501   502  0.000000000E+00  0.000000000E+00  8.214099947E+01  8.214099947E+01  0.000000000E+00  0.00000E+00  9.000E+00
       1    -1     0     0   502     0  0.000000000E+00  0.000000000E+00 -2.133434062E+03  2.133434062E+03  0.000000000E+00  0.00000E+00  9.000E+00
      25     1     1     2     0     0 -2.287711998E+02 -5.275228907E+01 -4.124915300E+02  4.908120834E+02  1.250126915E+02  0.00000E+00  9.000E+00
       5     1     1     2   501     0 -1.963155881E+00 -2.766770153E+00  2.775170269E+01  2.835892276E+01  4.750000000E+00  0.00000E+00  9.000E+00
      -5     1     1     2     0   503  2.065430253E+02  9.929498369E+00 -7.385358019E+02  7.669526122E+02  4.750000000E+00  0.00000E+00  9.000E+00
       1     1     1     2   503     0  2.419133035E+01  4.558956085E+01 -9.280174335E+02  9.294514433E+02  1.078959322E-05  0.00000E+00  9.000E+00
#rwgt            1           9   4.8286437029900576E-004           5     1031008           0
</event>
<event>
      6   9999  3.45752E-01  4.75423E+00 -1.00000E+00  2.33281E-01
      21    -1     0     0   501   502  0.000000000E+00  0.000000000E+00  9.990722346E+00  9.990722346E+00  0.000000000E+00  0.00000E+00  9.000E+00
       2    -1     0     0   502     0  0.000000000E+00  0.000000000E+00 -3.317439867E+03  3.317439867E+03  0.000000000E+00  0.00000E+00  9.000E+00
      25     1     1     2     0     0 -1.026658679E+01  8.698899698E+00 -5.739987116E+02  5.876055067E+02  1.249985475E+02  0.00000E+00  9.000E+00
       5     1     1     2   501     0 -3.108475315E+00 -8.444984074E+00 -5.750638751E+00  1.168814446E+01  4.750000000E+00  0.00000E+00  9.000E+00
      -5     1     1     2     0   503  8.652021522E+00 -7.975663468E-01 -1.130589959E+02  1.134918175E+02  4.750000000E+00  0.00000E+00  9.000E+00
       2     1     1     2   503     0  4.723040583E+00  5.436507230E-01 -2.614640798E+03  2.614645121E+03  4.315837288E-05  0.00000E+00  9.000E+00
#rwgt            1           9  0.13425453282677419                5     1032542           0
</event>
<event>
      6   9999  3.45752E-01  4.16472E+00 -1.00000E+00  2.44278E-01
      21    -1     0     0   501   511  0.000000000E+00  0.000000000E+00  1.467087189E+01  1.467087189E+01  0.000000000E+00  0.00000E+00  9.000E+00
      21    -1     0     0   502   503  0.000000000E+00  0.000000000E+00 -4.135403428E+03  4.135403428E+03  0.000000000E+00  0.00000E+00  9.000E+00
      25     1     1     2     0     0  7.469368107E+01 -4.670069771E+01 -5.892125518E+02  6.087350271E+02  1.250072033E+02  0.00000E+00  9.000E+00
       5     1     1     2   501     0  5.896761613E-01  2.804023132E+00  9.654048850E-01  5.630698917E+00  4.750000000E+00  0.00000E+00  9.000E+00
      -5     1     1     2     0   503 -7.944717220E+01  4.381005131E+01 -3.529290294E+03  3.530459420E+03  4.750000000E+00  0.00000E+00  9.000E+00
      21     1     1     2   502   511  4.163814970E+00  8.662327651E-02 -3.195115808E+00  5.249154572E+00  3.931196320E-07  0.00000E+00  9.000E+00
#rwgt            1           9   5.8267876352794772E-005           5     1036854           0
</event>
<event>
      6   9999  3.45752E-01  5.62854E+00 -1.00000E+00  2.17998E-01
      21    -1     0     0   501   502  0.000000000E+00  0.000000000E+00  2.154858816E+01  2.154858816E+01  0.000000000E+00  0.00000E+00  9.000E+00
      21    -1     0     0   512   503  0.000000000E+00  0.000000000E+00 -1.093545346E+03  1.093545346E+03  0.000000000E+00  0.00000E+00  9.000E+00
      25     1     1     2     0     0  5.063127393E+01 -1.440393684E+01 -3.987082370E+02  4.211471742E+02  1.250027390E+02  0.00000E+00  9.000E+00
       5     1     1     2   501     0  1.147147681E+00  2.268996899E+00  8.500105053E+00  1.006372598E+01  4.750000000E+00  0.00000E+00  9.000E+00
      -5     1     1     2     0   503 -4.631622808E+01  1.077667835E+01 -5.991177656E+02  6.010207894E+02  4.750000000E+00  0.00000E+00  9.000E+00
      21     1     1     2   512   502 -5.462193531E+00  1.358261594E+00 -8.267086008E+01  8.286224435E+01  0.000000000E+00  0.00000E+00  9.000E+00
#rwgt            1           9   2.0461137716043031E-002           5     1043299           0
</event>
<event>
      6   9999  3.45752E-01  2.38259E+01 -1.00000E+00  1.54617E-01
      21    -1     0     0   511   503  0.000000000E+00  0.000000000E+00  1.662668161E+02  1.662668161E+02  0.000000000E+00  0.00000E+00  9.000E+00
      21    -1     0     0   501   502  0.000000000E+00  0.000000000E+00 -9.132827746E+01  9.132827746E+01  0.000000000E+00  0.00000E+00  9.000E+00
      25     1     1     2     0     0  3.880909262E+00  3.404112165E+01 -1.667316089E+01  1.306648656E+02  1.249858128E+02  0.00000E+00  9.000E+00
       5     1     1     2   501     0 -1.067629382E+01 -1.195208405E+01 -8.616731914E+00  1.880548143E+01  4.750000000E+00  0.00000E+00  9.000E+00
      -5     1     1     2     0   503 -6.084243695E-01  5.573284570E-01 -2.815944975E-01  4.829346817E+00  4.750000000E+00  0.00000E+00  9.000E+00
      21     1     1     2   511   502  7.403808924E+00 -2.264636606E+01  1.005100259E+02  1.032953997E+02  0.000000000E+00  0.00000E+00  9.000E+00
#rwgt            1           9   3.2654886140343364E-003           5     1048491           0
</event>
<event>
      6   9999 -3.45752E-01  1.80139E+01 -1.00000E+00  1.63756E-01
      21    -1     0     0   501   502  0.000000000E+00  0.000000000E+00  5.256937028E+02  5.256937028E+02  0.000000000E+00  0.00000E+00  9.000E+00
      21    -1     0     0   502   512  0.000000000E+00  0.000000000E+00 -8.358197150E+01  8.358197150E+01  0.000000000E+00  0.00000E+00  9.000E+00
      25     1     1     2     0     0  1.029987429E+01  1.281584037E+01  1.351065431E+00  1.260857013E+02  1.250017821E+02  0.00000E+00  9.000E+00
       5     1     1     2   501     0 -3.843225007E+00  5.737392162E+00  4.532767764E+02  4.533542617E+02  4.750000000E+00  0.00000E+00  9.000E+00
      -5     1     1     2     0   503  5.505729333E-01 -1.958018700E+00  3.073934672E+00  6.012365770E+00  4.750000000E+00  0.00000E+00  9.000E+00
      21     1     1     2   503   512 -7.007222215E+00 -1.659521383E+01 -1.559004520E+01  2.382334558E+01  3.769728732E-07  0.00000E+00  9.000E+00
#rwgt            1           9  -6.1456723012178454E-003           5     1049495           0
</event>
<event>
      6   9999  3.45752E-01  5.12427E+00 -1.00000E+00  2.24070E-01
      21    -1     0     0   501   502  0.000000000E+00  0.000000000E+00  1.146213024E+01  1.146213024E+01  0.000000000E+00  0.00000E+00  9.000E+00
      21    -1     0     0   511   503  0.000000000E+00  0.000000000E+00 -8.112649635E+02  8.112649635E+02  0.000000000E+00  0.00000E+00  9.000E+00
      25     1     1     2     0     0  2.151881898E+01  2.481924139E+01 -6.573018347E+02  6.698873121E+02  1.249970186E+02  0.00000E+00  9.000E+00
       5     1     1     2   501     0  1.010076864E+00 -7.364108112E-01  9.609312283E-01  5.004842153E+00  4.750000000E+00  0.00000E+00  9.000E+00
      -5     1     1     2     0   503 -1.740839870E+01 -2.427934217E+01 -1.148116142E+02  1.187299796E+02  4.750000000E+00  0.00000E+00  9.000E+00
      21     1     1     2   511   502 -5.120497146E+00  1.965115857E-01 -2.865031562E+01  2.910495993E+01  4.768371582E-07  0.00000E+00  9.000E+00
#rwgt            1           9   5.4692799995084609E-004           5     1051891           0
</event>
<event>
      6   9999  3.45752E-01  7.20280E+00 -1.00000E+00  2.03570E-01
      21    -1     0     0   501   502  0.000000000E+00  0.000000000E+00  3.713732407E+02  3.713732407E+02  0.000000000E+00  0.00000E+00  9.000E+00
      21    -1     0     0   502   512  0.000000000E+00  0.000000000E+00 -2.009600116E+01  2.009600116E+01  0.000000000E+00  0.00000E+00  9.000E+00
      25     1     1     2     0     0  7.667421941E+00 -1.022403644E+01  2.089605023E+02  2.438303470E+02  1.250017052E+02  0.00000E+00  9.000E+00
       5     1     1     2   501     0 -1.339274162E+00 -7.667675144E-01  9.537372022E+01  9.550440092E+01  4.750000000E+00  0.00000E+00  9.000E+00
      -5     1     1     2     0   503 -8.398819992E+00  4.092064439E+00  4.226679402E+01  4.354686608E+01  4.750000000E+00  0.00000E+00  9.000E+00
      21     1     1     2   503   512  2.070672212E+00  6.898739519E+00  4.676222914E+00  8.587627792E+00  1.032382731E-07  0.00000E+00  9.000E+00
#rwgt            1           9  0.71537969125374190                5     1055725           0
</event>
<event>
      6   9999  3.45752E-01  2.46768E+01 -1.00000E+00  1.53543E-01
      21    -1     0     0   502   503  0.000000000E+00  0.000000000E+00  9.378250982E+00  9.378250982E+00  0.000000000E+00  0.00000E+00  9.000E+00
      21    -1     0     0   501   511  0.000000000E+00  0.000000000E+00 -1.191374862E+03  1.191374862E+03  0.000000000E+00  0.00000E+00  9.000E+00
      25     1     1     2     0     0  6.201840904E+00  1.221756539E+01 -5.594398871E+02  5.733988581E+02  1.250021260E+02  0.00000E+00  9.000E+00
       5     1     1     2   501     0  1.100762456E+00  4.248509013E-01 -6.657948593E+00  8.263350153E+00  4.750000000E+00  0.00000E+00  9.000E+00
      -5     1     1     2     0   503  1.419330803E+01 -5.234375888E-01 -4.078068708E+01  4.344365222E+01  4.750000000E+00  0.00000E+00  9.000E+00
      21     1     1     2   502   511 -2.149591139E+01 -1.211897870E+01 -5.751180882E+02  5.756472524E+02  1.078959322E-05  0.00000E+00  9.000E+00
#rwgt            1           9   2.1317300689768673E-004           5     1058669           0
</event>
<event>
      6   9999  3.45752E-01  9.12734E+00 -1.00000E+00  1.91470E-01
      21    -1     0     0   501   502  0.000000000E+00  0.000000000E+00  4.980343940E+03  4.980343940E+03  0.000000000E+00  0.00000E+00  9.000E+00
      21    -1     0     0   502   512  0.000000000E+00  0.000000000E+00 -5.610362018E+01  5.610362018E+01  0.000000000E+00  0.00000E+00  9.000E+00
      25     1     1     2     0     0 -6.248392154E+00  1.056824229E+01  1.893977548E+03  1.898137501E+03  1.249971598E+02  0.00000E+00  9.000E+00
       5     1     1     2   501     0 -1.831958694E+00  5.449746461E-01  2.900346913E+03  2.900351433E+03  4.750000000E+00  0.00000E+00  9.000E+00
      -5     1     1     2     0   503  1.016303585E+01 -2.226671508E+00  1.833722695E+02  1.837285963E+02  4.750000000E+00  0.00000E+00  9.000E+00
      21     1     1     2   503   512 -2.082685005E+00 -8.886545429E+00 -5.345641119E+01  5.423003009E+01  1.907348633E-06  0.00000E+00  9.000E+00
#rwgt            1           9   1.7815053511935973E-003           5     1060122           0
</event>
<event>
      6   9999  3.45752E-01  1.36447E+01 -1.00000E+00  1.74014E-01
      21    -1     0     0   501   502  0.000000000E+00  0.000000000E+00  9.378623922E+01  9.378623922E+01  0.000000000E+00  0.00000E+00  9.000E+00
      21    -1     0     0   502   511  0.000000000E+00  0.000000000E+00 -3.601435733E+02  3.601435733E+02  0.000000000E+00  0.00000E+00  9.000E+00
      25     1     1     2     0     0 -2.418749062E+01 -1.851439912E+01 -5.885368475E+01  1.414796319E+02  1.249996494E+02  0.00000E+00  9.000E+00
       5     1     1     2   501     0  2.506971317E+00 -4.343093253E+00  3.819749869E+01  3.881699074E+01  4.750000000E+00  0.00000E+00  9.000E+00
      -5     1     1     2     0   503  2.713832806E+01  1.035185682E+01 -1.945254757E+00  2.949569978E+01  4.750000000E+00  0.00000E+00  9.000E+00
      21     1     1     2   503   511 -5.457808755E+00  1.250563555E+01 -2.437558933E+02  2.441374902E+02  3.814697266E-06  0.00000E+00  9.000E+00
#rwgt            1           9   2.9872524487040027E-002           5     1062823           0
</event>
<event>
      6   9999  3.45752E-01  1.72135E+01 -1.00000E+00  1.65349E-01
      21    -1     0     0   501   502  0.000000000E+00  0.000000000E+00  1.532606300E+02  1.532606300E+02  0.000000000E+00  0.00000E+00  9.000E+00
      21    -1     0     0   502   512  0.000000000E+00  0.000000000E+00 -2.716705290E+02  2.716705290E+02  0.000000000E+00  0.00000E+00  9.000E+00
      25     1     1     2     0     0 -5.785911720E+01  6.301115467E+00 -2.170390532E+02  2.571345537E+02  1.249993864E+02  0.00000E+00  9.000E+00
       5     1     1     2   501     0  2.459882683E+00  8.497556112E+00  8.622973507E+01  8.681237926E+01  4.750000000E+00  0.00000E+00  9.000E+00
      -5     1     1     2     0   503  5.540594999E+01  2.414817552E+00  2.358874210E+01  6.045363423E+01  4.750000000E+00  0.00000E+00  9.000E+00
      21     1     1     2   503   512 -6.715472884E-03 -1.721348913E+01 -1.118932293E+01  2.053059183E+01  2.384185791E-07  0.00000E+00  9.000E+00
#rwgt            1           9   1.0239063618352573E-003           5     1064800           0
</event>
<event>
      6   9999  3.45752E-01  6.89842E+01 -1.00000E+00  1.27711E-01
      21    -1     0     0   502   511  0.000000000E+00  0.000000000E+00  4.035097660E+01  4.035097660E+01  0.000000000E+00  0.00000E+00  9.000E+00
      21    -1     0     0   501   502  0.000000000E+00  0.000000000E+00 -1.159774360E+03  1.159774360E+03  0.000000000E+00  0.00000E+00  9.000E+00
      25     1     1     2     0     0 -1.170099304E+02 -8.498056813E+01 -7.798987100E+02  8.029815793E+02  1.249975923E+02  0.00000E+00  9.000E+00
       5     1     1     2   501     0  3.706149550E+00  2.036289382E+01 -2.109903100E+02  2.120562576E+02  4.750000000E+00  0.00000E+00  9.000E+00
      -5     1     1     2     0   503  4.808120231E+01  4.214914406E+01 -6.506566814E+01  9.134799413E+01  4.750000000E+00  0.00000E+00  9.000E+00
      21     1     1     2   503   511  6.522257852E+01  2.246853026E+01 -6.346869494E+01  9.373950522E+01  1.784161275E-06  0.00000E+00  9.000E+00
#rwgt            1           9  0.71847610276691698                5     1067718           0
</event>
<event>
      6   9999  3.45752E-01  4.56303E+00 -1.00000E+00  2.36578E-01
      21    -1     0     0   512   503  0.000000000E+00  0.000000000E+00  4.423885009E+01  4.423885009E+01  0.000000000E+00  0.00000E+00  9.000E+00
      21    -1     0     0   501   502  0.000000000E+00  0.000000000E+00 -3.881754868E+02  3.881754868E+02  0.000000000E+00  0.00000E+00  9.000E+00
      25     1     1     2     0     0  2.427611524E+01  2.401420434E+01 -3.348935903E+02  3.590913716E+02  1.250075380E+02  0.00000E+00  9.000E+00
       5     1     1     2   501     0  4.287116734E-01  2.176814309E+00  7.745864682E+00  9.353247239E+00  4.750000000E+00  0.00000E+00  9.000E+00
      -5     1     1     2     0   503 -2.155203522E+01 -2.289236572E+01 -3.377100248E+01  4.638527502E+01  4.750000000E+00  0.00000E+00  9.000E+00
      21     1     1     2   512   502 -3.152791694E+00 -3.298652929E+00  1.698209142E+01  1.758444300E+01  4.129530925E-07  0.00000E+00  9.000E+00
#rwgt            1           9   3.9211377563843783E-002           5     1068649           0
</event>
<event>
      6   9999  3.45752E-01  5.64065E+00 -1.00000E+00  2.17863E-01
      21    -1     0     0   501   511  0.000000000E+00  0.000000000E+00  1.735752220E+01  1.735752220E+01  0.000000000E+00  0.00000E+00  9.000E+00
      21    -1     0     0   502   503  0.000000000E+00  0.000000000E+00 -7.842394071E+02  7.842394071E+02  0.000000000E+00  0.00000E+00  9.000E+00
      25     1     1     2     0     0  1.350204172E+01  2.835503090E+01 -6.716393001E+02  6.838928848E+02  1.249952620E+02  0.00000E+00  9.000E+00
       5     1     1     2   501     0 -1.942520519E-01  3.540368096E-01 -7.322219186E+00  8.737303344E+00  4.750000000E+00  0.00000E+00  9.000E+00
      -5     1     1     2     0   503 -1.589885020E+01 -2.369874349E+01 -9.534782003E+01  9.964021861E+01  4.750000000E+00  0.00000E+00  9.000E+00
      21     1     1     2   502   511  2.591060534E+00 -5.010324220E+00  7.427454431E+00  9.326522546E+00  6.019774043E-07  0.00000E+00  9.000E+00
#rwgt            1           9   2.0570959947506938E-004           5     1073067           0
</event>
<event>
      6   9999  3.45752E-01  7.79553E+00 -1.00000E+00  1.99356E-01
      21    -1     0     0   501   502  0.000000000E+00  0.000000000E+00  9.502327637E+00  9.502327637E+00  0.000000000E+00  0.00000E+00  9.000E+00
      21    -1     0     0   502   512  0.000000000E+00  0.000000000E+00 -1.202268394E+03  1.202268394E+03  0.000000000E+00  0.00000E+00  9.000E+00
      25     1     1     2     0     0  2.141632793E+01  1.251844387E+01 -6.222635817E+02  6.351793761E+02  1.250020167E+02  0.00000E+00  9.000E+00
       5     1     1     2   501     0 -8.465290242E-01  5.785625961E-01 -2.377975278E+00  5.410047365E+00  4.750000000E+00  0.00000E+00  9.000E+00
      -5     1     1     2     0   503 -2.709965827E+01 -8.838923571E+00 -1.383350626E+02  1.413211594E+02  4.750000000E+00  0.00000E+00  9.000E+00
      21     1     1     2   503   512  6.529859362E+00 -4.258082891E+00 -4.297894469E+02  4.298601389E+02  0.000000000E+00  0.00000E+00  9.000E+00
#rwgt            1           9   3.8216554604480391E-005           5     1076230           0
</event>
<event>
      6   9999  3.45752E-01  5.27904E+00 -1.00000E+00  2.22107E-01
      21    -1     0     0   501   511  0.000000000E+00  0.000000000E+00  1.269168065E+01  1.269168065E+01  0.000000000E+00  0.00000E+00  9.000E+00
      21    -1     0     0   502   503  0.000000000E+00  0.000000000E+00 -8.866173824E+02  8.866173824E+02  0.000000000E+00  0.00000E+00  9.000E+00
      25     1     1     2     0     0  6.667504979E+00 -1.137490487E+01 -7.984834722E+02  8.083158037E+02  1.249989559E+02  0.00000E+00  9.000E+00
       5     1     1     2   501     0 -1.670867662E+00  1.036320614E+00  2.421322840E-01  5.146541285E+00  4.750000000E+00  0.00000E+00  9.000E+00
      -5     1     1     2     0   503 -6.785424477E+00  1.530531878E+01 -7.811853344E+01  8.003350883E+01  4.750000000E+00  0.00000E+00  9.000E+00
      21     1     1     2   502   511  1.788787160E+00 -4.966734527E+00  2.434171570E+00  5.813209320E+00  2.402740046E-07  0.00000E+00  9.000E+00
#rwgt            1           9   2.4244229399337788E-002           5     1079050           0
</event>
<event>
      6   9999  3.45752E-01  9.63232E+00 -1.00000E+00  1.88924E-01
      21    -1     0     0   501   502  0.000000000E+00  0.000000000E+00  4.442956690E+01  4.442956690E+01  0.000000000E+00  0.00000E+00  9.000E+00
      21    -1     0     0   512   503  0.000000000E+00  0.000000000E+00 -1.335555897E+03  1.335555897E+03  0.000000000E+00  0.00000E+00  9.000E+00
      25     1     1     2     0     0 -1.430267129E+02 -6.648775389E+01 -8.129744122E+02  8.375138345E+02  1.249990640E+02  0.00000E+00  9.000E+00
       5     1     1     2   501     0  3.409750446E+00 -4.174841917E-01  1.985710570E+01  2.070429515E+01  4.750000000E+00  0.00000E+00  9.000E+00
      -5     1     1     2     0   503  1.300050960E+02  6.627791490E+01 -4.651443452E+02  4.875201651E+02  4.750000000E+00  0.00000E+00  9.000E+00
      21     1     1     2   512   502  9.611866441E+00  6.273231828E-01 -3.286467850E+01  3.424716928E+01  4.768371582E-07  0.00000E+00  9.000E+00
#rwgt            1           9   1.4557930768680438E-005           5     1083046           0
</event>
<event>
      6   9999  3.45752E-01  9.17921E+00 -1.00000E+00  1.91199E-01
      21    -1     0     0   501   502  0.000000000E+00  0.000000000E+00  4.932288715E+01  4.932288715E+01  0.000000000E+00  0.00000E+00  9.000E+00
       2    -1     0     0   502     0  0.000000000E+00  0.000000000E+00 -1.276587460E+03  1.276587460E+03  0.000000000E+00  0.00000E+00  9.000E+00
      25     1     1     2     0     0  6.298120510E+00  1.292147862E+01 -1.447780145E+02  1.918131247E+02  1.249998815E+02  0.00000E+00  9.000E+00
       5     1     1     2   501     0 -6.496167651E-02 -2.121959774E-01  1.609473574E+01  1.678249880E+01  4.750000000E+00  0.00000E+00  9.000E+00
      -5     1     1     2     0   503  2.852015941E+00 -1.401978832E+01  3.269807439E+00  1.542538816E+01  4.750000000E+00  0.00000E+00  9.000E+00
       2     1     1     2   503     0 -9.085174775E+00  1.310505670E+00 -1.101851101E+03  1.101889335E+03  1.525878906E-05  0.00000E+00  9.000E+00
#rwgt            1           9   1.0980350808137884E-004           5     1087901           0
</event>
<event>
      6   9999  3.45752E-01  7.66188E+01 -1.00000E+00  1.25564E-01
      21    -1     0     0   501   511  0.000000000E+00  0.000000000E+00  5.028230208E+02  5.028230208E+02  0.000000000E+00  0.00000E+00  9.000E+00
      21    -1     0     0   502   503  0.000000000E+00  0.000000000E+00 -4.823746674E+01  4.823746674E+01  0.000000000E+00  0.00000E+00  9.000E+00
      25     1     1     2     0     0  2.528303645E+01  6.903607828E+01  8.249414982E+01  1.668403480E+02  1.250008197E+02  0.00000E+00  9.000E+00
       5     1     1     2   501     0  1.104709501E+00  3.075768629E+00  9.099275284E+00  1.077218856E+01  4.750000000E+00  0.00000E+00  9.000E+00
      -5     1     1     2     0   503 -9.142378376E-01  1.484091821E-01  3.739718890E+00  6.116032496E+00  4.750000000E+00  0.00000E+00  9.000E+00
      21     1     1     2   502   511 -2.547350811E+01 -7.226025609E+01  3.592524101E+02  3.673319185E+02  0.000000000E+00  0.00000E+00  9.000E+00
#rwgt            1           9   9.7247478658310667E-004           5     1090908           0
</event>
<event>
      6   9999  3.45752E-01  3.28127E+01 -1.00000E+00  1.45364E-01
      21    -1     0     0   512   502  0.000000000E+00  0.000000000E+00  1.748897094E+01  1.748897094E+01  0.000000000E+00  0.00000E+00  9.000E+00
      21    -1     0     0   502   503  0.000000000E+00  0.000000000E+00 -8.703496135E+02  8.703496135E+02  0.000000000E+00  0.00000E+00  9.000E+00
      25     1     1     2     0     0  1.138138059E+01  3.284462542E+01 -7.761968141E+02  7.869655573E+02  1.249999559E+02  0.00000E+00  9.000E+00
       5     1     1     2   501     0 -1.503196275E+00  2.618910519E+00 -2.181846299E+00  6.036658399E+00  4.750000000E+00  0.00000E+00  9.000E+00
      -5     1     1     2     0   503 -2.447100349E+01 -6.074405127E+00 -3.693546874E+01  4.497243334E+01  4.750000000E+00  0.00000E+00  9.000E+00
      21     1     1     2   512   501  1.459281917E+01 -2.938913081E+01 -3.754651346E+01  4.986393540E+01  6.743495762E-07  0.00000E+00  9.000E+00
#rwgt            1           9   6.3730394815013759E-005           5     1091814           0
</event>
<event>
      6   9999  3.45752E-01  1.96654E+00 -1.00000E+00  3.35747E-01
      21    -1     0     0   501   511  0.000000000E+00  0.000000000E+00  3.203726104E+00  3.203726104E+00  0.000000000E+00  0.00000E+00  9.000E+00
      21    -1     0     0   502   503  0.000000000E+00  0.000000000E+00 -3.096742867E+03  3.096742867E+03  0.000000000E+00  0.00000E+00  9.000E+00
      25     1     1     2     0     0 -4.011070025E+00 -1.437249282E+01 -2.960053327E+03  2.962729139E+03  1.250023746E+02  0.00000E+00  9.000E+00
       5     1     1     2   501     0 -5.734438921E-02  1.048353775E-01 -1.783053895E+01  1.845277480E+01  4.750000000E+00  0.00000E+00  9.000E+00
      -5     1     1     2     0   503  5.902537884E+00  1.497706298E+01 -1.155845775E+02  1.167968725E+02  4.750000000E+00  0.00000E+00  9.000E+00
      21     1     1     2   502   511 -1.834123470E+00 -7.094055396E-01 -7.069708619E-02  1.967806698E+00  3.468448332E-07  0.00000E+00  9.000E+00
#rwgt            1           9   2.5196224180222055E-005           5     1092803           0
</event>
<event>
      6   9999 -3.45752E-01  9.91519E+00 -1.00000E+00  1.87584E-01
      21    -1     0     0   501   512  0.000000000E+00  0.000000000E+00  1.457328970E+01  1.457328970E+01  0.000000000E+00  0.00000E+00  9.000E+00
      21    -1     0     0   502   503  0.000000000E+00  0.000000000E+00 -8.853796403E+02  8.853796403E+02  0.000000000E+00  0.00000E+00  9.000E+00
      25     1     1     2     0     0 -2.419242377E+01  3.853743966E+01 -8.049307466E+02  8.158490371E+02  1.250029478E+02  0.00000E+00  9.000E+00
       5     1     1     2   501     0 -1.862178089E+00 -1.077512159E+01 -8.548011807E+00  1.466976341E+01  4.750000000E+00  0.00000E+00  9.000E+00
      -5     1     1     2     0   503  1.766209652E+01 -2.248246479E+01 -3.891584947E+01  4.852233214E+01  4.750000000E+00  0.00000E+00  9.000E+00
      21     1     1     2   502   512  8.392505343E+00 -5.279853281E+00 -1.841174273E+01  2.091179731E+01  4.768371582E-07  0.00000E+00  9.000E+00
#rwgt            1           9  -4.3664585266937900E-004           5     1100308           0
</event>
<event>
      6   9999  3.45752E-01  1.91207E+01 -1.00000E+00  1.61715E-01
      21    -1     0     0   501   511  0.000000000E+00  0.000000000E+00  1.514028040E+01  1.514028040E+01  0.000000000E+00  0.00000E+00  9.000E+00
      21    -1     0     0   502   503  0.000000000E+00  0.000000000E+00 -8.314774614E+02  8.314774614E+02  0.000000000E+00  0.00000E+00  9.000E+00
      25     1     1     2     0     0 -3.269000479E+00  3.330452347E+01 -4.883226894E+02  5.051776627E+02  1.250021770E+02  0.00000E+00  9.000E+00
       5     1     1     2   501     0 -8.825405730E-01  1.993812234E+00 -1.936045463E-01  5.230119292E+00  4.750000000E+00  0.00000E+00  9.000E+00
      -5     1     1     2     0   503  1.407689912E+00 -1.637554624E+01 -3.086840585E+02  3.091578085E+02  4.750000000E+00  0.00000E+00  9.000E+00
      21     1     1     2   502   511  2.743851139E+00 -1.892278947E+01 -1.913682848E+01  2.705215120E+01  4.768371582E-07  0.00000E+00  9.000E+00
#rwgt            1           9   3.9425406394384194E-004           5     1103012           0
</event>
<event>
      6   9999 -3.45752E-01  7.95042E+00 -1.00000E+00  1.98335E-01
      21    -1     0     0   501   502  0.000000000E+00  0.000000000E+00  2.923292966E+01  2.923292966E+01  0.000000000E+00  0.00000E+00  9.000E+00
      21    -1     0     0   502   512  0.000000000E+00  0.000000000E+00 -1.138929843E+03  1.138929843E+03  0.000000000E+00  0.00000E+00  9.000E+00
      25     1     1     2     0     0 -5.636216669E+00 -2.362932350E+01 -9.675619757E+02  9.759053798E+02  1.250000866E+02  0.00000E+00  9.000E+00
       5     1     1     2   501     0  4.620411150E+00  2.935411595E+00  2.281840739E+01  2.394174297E+01  4.750000000E+00  0.00000E+00  9.000E+00
      -5     1     1     2     0   503 -6.377337463E+00  2.361804523E+01 -1.372473699E+02  1.394915249E+02  4.750000000E+00  0.00000E+00  9.000E+00
      21     1     1     2   503   512  7.393142982E+00 -2.924133319E+00 -2.770597511E+01  2.882412489E+01  4.768371582E-07  0.00000E+00  9.000E+00
#rwgt            1           9 -0.37517694418047343                5     1104390           0
</event>
<event>
      6   9999  3.45752E-01  1.43725E+01 -1.00000E+00  1.71996E-01
      21    -1     0     0   511   502  0.000000000E+00  0.000000000E+00  3.119903591E+00  3.119903591E+00  0.000000000E+00  0.00000E+00  9.000E+00
      21    -1     0     0   502   503  0.000000000E+00  0.000000000E+00 -2.115149752E+03  2.115149752E+03  0.000000000E+00  0.00000E+00  9.000E+00
      25     1     1     2     0     0 -1.156365610E+01 -5.466344728E+00 -1.956386760E+03  1.960417863E+03  1.250017795E+02  0.00000E+00  9.000E+00
       5     1     1     2   501     0 -4.024896078E-01 -3.592899721E-01 -2.868596304E+01  2.908157600E+01  4.750000000E+00  0.00000E+00  9.000E+00
      -5     1     1     2     0   503 -1.114047977E+00 -1.306578387E-01 -6.433785677E+01  6.452271297E+01  4.750000000E+00  0.00000E+00  9.000E+00
      21     1     1     2   511   501  1.308019369E+01  5.956292539E+00 -6.261926873E+01  6.424750348E+01  6.743495762E-07  0.00000E+00  9.000E+00
#rwgt            1           9   1.2589181181438320E-004           5     1108443           0
</event>
<event>
      6   9999  3.45752E-01  2.97420E+01 -1.00000E+00  1.48081E-01
      21    -1     0     0   512   502  0.000000000E+00  0.000000000E+00  4.405725119E+01  4.405725119E+01  0.000000000E+00  0.00000E+00  9.000E+00
      21    -1     0     0   502   503  0.000000000E+00  0.000000000E+00 -1.449033826E+03  1.449033826E+03  0.000000000E+00  0.00000E+00  9.000E+00
      25     1     1     2     0     0  1.024738566E+01  3.879469977E+01 -1.340146802E+03  1.346561844E+03  1.250012462E+02  0.00000E+00  9.000E+00
       5     1     1     2   501     0 -1.495899423E+00  1.202302592E+00 -7.529826555E+00  9.107361558E+00  4.750000000E+00  0.00000E+00  9.000E+00
      -5     1     1     2     0   503 -3.322601535E+01 -2.309774461E+01 -8.657875793E+01  9.568655980E+01  4.750000000E+00  0.00000E+00  9.000E+00
      21     1     1     2   512   501  2.447452911E+01 -1.689925775E+01  2.927881126E+01  4.173531210E+01  1.507891493E-06  0.00000E+00  9.000E+00
#rwgt            1           9   8.2361394150533441E-003           5     1110061           0
</event>
<event>
      6   9999  3.45752E-01  1.40026E+01 -1.00000E+00  1.73003E-01
      21    -1     0     0   502   511  0.000000000E+00  0.000000000E+00  1.820628386E+01  1.820628386E+01  0.000000000E+00  0.00000E+00  9.000E+00
      21    -1     0     0   501   502  0.000000000E+00  0.000000000E+00 -8.909551066E+02  8.909551066E+02  0.000000000E+00  0.00000E+00  9.000E+00
      25     1     1     2     0     0  2.561036584E+01 -3.734825134E+00 -4.188699617E+02  4.378915901E+02  1.250086400E+02  0.00000E+00  9.000E+00
       5     1     1     2   501     0 -6.649026562E+00  2.701897038E+01 -4.077662716E+02  4.087421303E+02  4.750000000E+00  0.00000E+00  9.000E+00
      -5     1     1     2     0   503 -5.062932526E+00 -2.498895011E+01 -3.896271414E+01  4.680530426E+01  4.750000000E+00  0.00000E+00  9.000E+00
      21     1     1     2   503   511 -1.389840676E+01  1.704804872E+00 -7.149875236E+00  1.572236579E+01  2.920019320E-07  0.00000E+00  9.000E+00
#rwgt            1           9   3.8693060966742474E-004           5     1111632           0
</event>
<event>
      6   9999 -3.45752E-01  4.03041E+00 -1.00000E+00  2.47171E-01
      21    -1     0     0   512   502  0.000000000E+00  0.000000000E+00  2.818128948E+01  2.818128948E+01  0.000000000E+00  0.00000E+00  9.000E+00
      21    -1     0     0   502   503  0.000000000E+00  0.000000000E+00 -1.709760153E+03  1.709760153E+03  0.000000000E+00  0.00000E+00  9.000E+00
      25     1     1     2     0     0 -5.119190126E+00 -2.071207208E+00 -1.649575385E+03  1.654312393E+03  1.249801843E+02  0.00000E+00  9.000E+00
       5     1     1     2   501     0  1.402989982E-01  2.463340189E-02 -3.332880690E+00  5.804384921E+00  4.750000000E+00  0.00000E+00  9.000E+00
      -5     1     1     2     0   503  1.403331138E+00  1.865720673E-01 -5.296590947E+01  5.319731397E+01  4.750000000E+00  0.00000E+00  9.000E+00
      21     1     1     2   512   501  3.575559990E+00  1.860001739E+00  2.429531163E+01  2.462735071E+01  1.815741803E-06  0.00000E+00  9.000E+00
#rwgt            1           9  -1.3745052579475836E-002           5     1113662           0
</event>
<event>
      6   9999  3.45752E-01  8.49085E+00 -1.00000E+00  1.95002E-01
      21    -1     0     0   501   502  0.000000000E+00  0.000000000E+00  1.818997571E+01  1.818997571E+01  0.000000000E+00  0.00000E+00  9.000E+00
      21    -1     0     0   511   503  0.000000000E+00  0.000000000E+00 -1.309033479E+03  1.309033479E+03  0.000000000E+00  0.00000E+00  9.000E+00
      25     1     1     2     0     0 -6.407615282E+00  1.506138099E+01 -1.135077360E+03  1.142056362E+03  1.249968779E+02  0.00000E+00  9.000E+00
       5     1     1     2   501     0  2.170923292E-01 -3.957271514E+00  1.343340526E+01  1.478938821E+01  4.750000000E+00  0.00000E+00  9.000E+00
      -5     1     1     2     0   503 -1.708350592E+00 -7.989259220E+00 -1.258568015E+02  1.262111077E+02  4.750000000E+00  0.00000E+00  9.000E+00
      21     1     1     2   511   502  7.898873545E+00 -3.114850259E+00 -4.334274701E+01  4.416659613E+01  8.259061849E-07  0.00000E+00  9.000E+00
#rwgt            1           9   2.8042942707009355E-002           5     1118175           0
</event>
<event>
      6   9999  3.45752E-01  6.97967E+01 -1.00000E+00  1.27467E-01
      -2    -1     0     0     0   503  0.000000000E+00  0.000000000E+00  6.567769047E+01  6.567769047E+01  0.000000000E+00  0.00000E+00  9.000E+00
      21    -1     0     0   501   502  0.000000000E+00  0.000000000E+00 -1.296704287E+03  1.296704287E+03  0.000000000E+00  0.00000E+00  9.000E+00
      25     1     1     2     0     0  5.218270277E-01 -1.652484247E+02 -3.212722239E+02  3.822928616E+02  1.249987041E+02  0.00000E+00  9.000E+00
       5     1     1     2   501     0 -1.141807945E+01  1.265226992E+02 -6.710038546E+02  6.829400423E+02  4.750000000E+00  0.00000E+00  9.000E+00
      -5     1     1     2     0   503  5.520439689E+01 -1.520359887E+01 -2.163445635E+02  2.238441590E+02  4.750000000E+00  0.00000E+00  9.000E+00
      -2     1     1     2     0   502 -4.430814447E+01  5.392932443E+01 -2.240595450E+01  7.330491455E+01  1.702649219E-06  0.00000E+00  9.000E+00
#rwgt            1           9   6.3344453505301416E-003           5     1121546           0
</event>
<event>
      6   9999  3.45752E-01  1.07977E+01 -1.00000E+00  1.83750E-01
      21    -1     0     0   501   502  0.000000000E+00  0.000000000E+00  4.244871368E+03  4.244871368E+03  0.000000000E+00  0.00000E+00  9.000E+00
      21    -1     0     0   511   503  0.000000000E+00  0.000000000E+00 -6.510962957E+00  6.510962957E+00  0.000000000E+00  0.00000E+00  9.000E+00
      25     1     1     2     0     0 -1.016833380E+01 -9.742791499E+00  6.533220974E+02  6.653215827E+02  1.249989134E+02  0.00000E+00  9.000E+00
       5     1     1     2   501     0  3.265198580E+00 -3.463156264E-01  3.456676019E+03  3.456680843E+03  4.750000000E+00  0.00000E+00  9.000E+00
      -5     1     1     2     0   503 -7.080447390E-01  2.430100182E+00  4.010434069E+01  4.046390190E+01  4.750000000E+00  0.00000E+00  9.000E+00
      21     1     1     2   511   502  7.611179959E+00  7.659006944E+00  8.825794800E+01  8.891600437E+01  1.651812370E-06  0.00000E+00  9.000E+00
#rwgt            1           9   1.4473399507057542E-004           5     1122442           0
</event>
<event>
      6   9999  3.45752E-01  2.62828E+01 -1.00000E+00  1.51653E-01
      21    -1     0     0   501   512  0.000000000E+00  0.000000000E+00  5.745885671E+02  5.745885671E+02  0.000000000E+00  0.00000E+00  9.000E+00
      21    -1     0     0   502   503  0.000000000E+00  0.000000000E+00 -6.817231125E+02  6.817231125E+02  0.000000000E+00  0.00000E+00  9.000E+00
      25     1     1     2     0     0  2.088641046E+01  2.460136331E+02 -6.939835561E+01  2.853051574E+02  1.249958050E+02  0.00000E+00  9.000E+00
       5     1     1     2   501     0  1.010957683E+01  5.973534264E+00  9.782553458E+01  9.864220380E+01  4.750000000E+00  0.00000E+00  9.000E+00
      -5     1     1     2     0   503 -2.442196338E+01 -2.265397918E+02 -4.776677450E+02  5.292501740E+02  4.750000000E+00  0.00000E+00  9.000E+00
      21     1     1     2   502   512 -6.574023908E+00 -2.544737551E+01  3.421060207E+02  3.431141444E+02  0.000000000E+00  0.00000E+00  9.000E+00
#rwgt            1           9   2.5734565023072035E-002           5     1125155           0
</event>
<event>
      6   9999  3.45752E-01  1.54673E+01 -1.00000E+00  1.69225E-01
      21    -1     0     0   511   502  0.000000000E+00  0.000000000E+00  1.195219638E+01  1.195219638E+01  0.000000000E+00  0.00000E+00  9.000E+00
      21    -1     0     0   502   503  0.000000000E+00  0.000000000E+00 -7.973465291E+02  7.973465291E+02  0.000000000E+00  0.00000E+00  9.000E+00
      25     1     1     2     0     0 -6.790798998E+00  1.330086669E+01 -7.465377575E+02  7.570606565E+02  1.248967024E+02  0.00000E+00  9.000E+00
       5     1     1     2   501     0  8.920965095E-02  1.343328909E+00  7.487840035E-01  4.993562696E+00  4.750000000E+00  0.00000E+00  9.000E+00
      -5     1     1     2     0   503  8.819020892E+00  6.775316328E-01 -1.888377169E+01  2.138676020E+01  4.750000000E+00  0.00000E+00  9.000E+00
      21     1     1     2   511   501 -2.117431545E+00 -1.532172723E+01 -2.072158755E+01  2.585774608E+01  2.384185791E-07  0.00000E+00  9.000E+00
#rwgt            1           9   1.9934768433381143E-004           5     1127800           0
</event>
<event>
      6   9999  3.45752E-01  1.36892E+01 -1.00000E+00  1.73886E-01
      21    -1     0     0   501   502  0.000000000E+00  0.000000000E+00  3.154743500E+01  3.154743500E+01  0.000000000E+00  0.00000E+00  9.000E+00
      21    -1     0     0   512   503  0.000000000E+00  0.000000000E+00 -1.465198133E+03  1.465198133E+03  0.000000000E+00  0.00000E+00  9.000E+00
      25     1     1     2     0     0 -5.254495194E+01  2.556098041E+01 -9.277113399E+02  9.379177448E+02  1.250081203E+02  0.00000E+00  9.000E+00
       5     1     1     2   501     0 -8.690943185E+00 -7.567423440E+00  2.126295953E+01  2.464699452E+01  4.750000000E+00  0.00000E+00  9.000E+00
      -5     1     1     2     0   503  4.812660954E+01 -2.193582306E+01 -2.075543771E+02  2.142398955E+02  4.750000000E+00  0.00000E+00  9.000E+00
      21     1     1     2   512   502  1.310928558E+01  3.942266092E+00 -3.196479403E+02  3.199409329E+02  0.000000000E+00  0.00000E+00  9.000E+00
#rwgt            1           9   8.7318681927330661E-004           5     1129254           0
</event>
<event>
      6   9999  3.45752E-01  7.84930E+00 -1.00000E+00  1.98998E-01
      21    -1     0     0   511   502  0.000000000E+00  0.000000000E+00  3.424011957E+01  3.424011957E+01  0.000000000E+00  0.00000E+00  9.000E+00
      21    -1     0     0   502   503  0.000000000E+00  0.000000000E+00 -8.550107696E+02  8.550107696E+02  0.000000000E+00  0.00000E+00  9.000E+00
      25     1     1     2     0     0 -1.105622367E+01  5.542475139E+00 -7.262957730E+02  7.370687187E+02  1.249471371E+02  0.00000E+00  9.000E+00
       5     1     1     2   501     0  5.226038316E-01  3.764153007E-01  6.431449564E+00  8.021274633E+00  4.750000000E+00  0.00000E+00  9.000E+00
      -5     1     1     2     0   503  1.032191729E+01  1.927551407E+00 -1.215397327E+02  1.220849153E+02  4.750000000E+00  0.00000E+00  9.000E+00
      21     1     1     2   511   501  2.117025491E-01 -7.846441847E+00  2.063340610E+01  2.207598050E+01  1.507891493E-06  0.00000E+00  9.000E+00
#rwgt            1           9   2.0519799846584412E-002           5     1131980           0
</event>
<event>
      6   9999  3.45752E-01  1.12677E+01 -1.00000E+00  1.81894E-01
      21    -1     0     0   501   502  0.000000000E+00  0.000000000E+00  3.705262166E+01  3.705262166E+01  0.000000000E+00  0.00000E+00  9.000E+00
       1    -1     0     0   502     0  0.000000000E+00  0.000000000E+00 -1.427735363E+03  1.427735363E+03  0.000000000E+00  0.00000E+00  9.000E+00
      25     1     1     2     0     0 -7.213817740E+00  6.438824070E+00 -8.277954822E+01  1.502312854E+02  1.249939514E+02  0.00000E+00  9.000E+00
       5     1     1     2   501     0 -4.563985009E-01  3.202214677E-01 -2.582581641E+00  5.435353651E+00  4.750000000E+00  0.00000E+00  9.000E+00
      -5     1     1     2     0   503  1.965995761E-01  1.673339085E+00 -1.508957417E+00  5.261004426E+00  4.750000000E+00  0.00000E+00  9.000E+00
       1     1     1     2   503     0  7.473616665E+00 -8.432384623E+00 -1.303811654E+03  1.303860341E+03  1.525878906E-05  0.00000E+00  9.000E+00
#rwgt            1           9   1.3622301434705089                5     1134744           0
</event>
<event>
      6   9999  3.45752E-01  3.93324E+00 -1.00000E+00  2.49373E-01
      21    -1     0     0   501   502  0.000000000E+00  0.000000000E+00  8.858237526E+00  8.858237526E+00  0.000000000E+00  0.00000E+00  9.000E+00
      21    -1     0     0   502   511  0.000000000E+00  0.000000000E+00 -2.507952126E+03  2.507952126E+03  0.000000000E+00  0.00000E+00  9.000E+00
      25     1     1     2     0     0  5.125683777E+00 -3.045946499E+00 -2.329967110E+03  2.333325307E+03  1.249988291E+02  0.00000E+00  9.000E+00
       5     1     1     2   501     0 -2.401491195E+00  2.914421409E+00  5.632911845E+00  8.279686465E+00  4.750000000E+00  0.00000E+00  9.000E+00
      -5     1     1     2     0   503 -6.643173148E+00 -2.031149630E-01 -9.575781073E+01  9.610563886E+01  4.750000000E+00  0.00000E+00  9.000E+00
      21     1     1     2   503   511  3.918980566E+00  3.346400535E-01 -7.900188027E+01  7.909973122E+01  0.000000000E+00  0.00000E+00  9.000E+00
#rwgt            1           9   3.2793986999689459E-004           5     1137390           0
</event>
<event>
      6   9999  3.45752E-01  1.82259E+01 -1.00000E+00  1.63352E-01
      21    -1     0     0   501   502  0.000000000E+00  0.000000000E+00  2.517323783E+01  2.517323783E+01  0.000000000E+00  0.00000E+00  9.000E+00
      21    -1     0     0   512   503  0.000000000E+00  0.000000000E+00 -1.241106237E+03  1.241106237E+03  0.000000000E+00  0.00000E+00  9.000E+00
      25     1     1     2     0     0  3.869372463E+01  1.666676379E+01 -2.202686044E+02  2.567459956E+02  1.250010513E+02  0.00000E+00  9.000E+00
       5     1     1     2   501     0  2.604801660E+00 -9.416291119E-01  4.564384583E+00  7.146171261E+00  4.750000000E+00  0.00000E+00  9.000E+00
      -5     1     1     2     0   503 -3.339948327E+01 -3.215033822E+01 -7.882915647E+02  7.896678563E+02  4.750000000E+00  0.00000E+00  9.000E+00
      21     1     1     2   512   502 -7.899043024E+00  1.642520354E+01 -2.119372143E+02  2.127194514E+02  0.000000000E+00  0.00000E+00  9.000E+00
#rwgt            1           9  0.12736619480715172                5     1142828           0
</event>
<event>
      6   9999  3.45752E-01  3.10259E+01 -1.00000E+00  1.46900E-01
      21    -1     0     0   501   502  0.000000000E+00  0.000000000E+00  7.773388035E+00  7.773388035E+00  0.000000000E+00  0.00000E+00  9.000E+00
      21    -1     0     0   511   503  0.000000000E+00  0.000000000E+00 -3.064761019E+03  3.064761019E+03  0.000000000E+00  0.00000E+00  9.000E+00
      25     1     1     2     0     0 -3.596810697E+01 -1.165409689E+01 -2.645413414E+03  2.648634712E+03  1.249967338E+02  0.00000E+00  9.000E+00
       5     1     1     2   501     0 -5.778765463E+00  7.729085005E+00 -9.185825064E-01  1.079533136E+01  4.750000000E+00  0.00000E+00  9.000E+00
      -5     1     1     2     0   503  1.075811646E+01  5.442194497E+00 -8.617955576E+01  8.714833838E+01  4.750000000E+00  0.00000E+00  9.000E+00
      21     1     1     2   511   502  3.098875597E+01 -1.517182613E+00 -3.244760780E+02  3.259560247E+02  3.814697266E-06  0.00000E+00  9.000E+00
#rwgt            1           9   4.6522145435389777E-003           5     1145117           0
</event>
<event>
      6   9999  3.45752E-01  1.63998E+02 -1.00000E+00  1.11961E-01
      21    -1     0     0   512   502  0.000000000E+00  0.000000000E+00  3.126678405E+01  3.126678405E+01  0.000000000E+00  0.00000E+00  9.000E+00
       1    -1     0     0   501     0  0.000000000E+00  0.000000000E+00 -2.436749694E+03  2.436749694E+03  0.000000000E+00  0.00000E+00  9.000E+00
      25     1     1     2     0     0 -3.726257913E+01  4.882870511E+01 -3.073019548E+02  3.373900027E+02  1.249991210E+02  0.00000E+00  9.000E+00
       5     1     1     2   501     0  2.000258403E+01 -1.623518053E+01 -4.232666079E+01  4.977743633E+01  4.750000000E+00  0.00000E+00  9.000E+00
      -5     1     1     2     0   502  1.149802393E+02  9.911054901E+01 -7.953047667E+02  8.096762259E+02  4.750000000E+00  0.00000E+00  9.000E+00
       1     1     1     2   512     0 -9.772024417E+01 -1.317040736E+02 -1.260549528E+03  1.271172814E+03  2.157918644E-05  0.00000E+00  9.000E+00
#rwgt            1           1   1.3123220944555236E-003           5     1146185           0
</event>
<event>
      6   9999 -3.45752E-01  4.00555E+00 -1.00000E+00  2.47725E-01
      21    -1     0     0   501   502  0.000000000E+00  0.000000000E+00  8.443818481E+00  8.443818481E+00  0.000000000E+00  0.00000E+00  9.000E+00
      21    -1     0     0   511   503  0.000000000E+00  0.000000000E+00 -2.157553881E+03  2.157553881E+03  0.000000000E+00  0.00000E+00  9.000E+00
      25     1     1     2     0     0 -4.726761409E+00  2.951753653E+01 -7.989420923E+02  8.092140444E+02  1.250011026E+02  0.00000E+00  9.000E+00
       5     1     1     2   501     0 -7.717326387E-01 -1.137846529E+00 -9.226094870E-01  5.030305583E+00  4.750000000E+00  0.00000E+00  9.000E+00
      -5     1     1     2     0   503  1.502361545E+00 -2.865418521E+01 -1.678447338E+02  1.703459321E+02  4.750000000E+00  0.00000E+00  9.000E+00
      21     1     1     2   511   502  3.996132503E+00  2.744952110E-01 -1.181400627E+03  1.181407417E+03  0.000000000E+00  0.00000E+00  9.000E+00
#rwgt            1           9 -0.20592460168897531                5     1146418           0
</event>
<event>
      6   9999  3.45752E-01  4.48103E+00 -1.00000E+00  2.38066E-01
      21    -1     0     0   501   502  0.000000000E+00  0.000000000E+00  5.571851034E+02  5.571851034E+02  0.000000000E+00  0.00000E+00  9.000E+00
      -2    -1     0     0     0   503  0.000000000E+00  0.000000000E+00 -4.263591724E+01  4.263591724E+01  0.000000000E+00  0.00000E+00  9.000E+00
      25     1     1     2     0     0  1.630791163E-01  5.559337737E+00  1.764861762E+02  2.163407273E+02  1.250000284E+02  0.00000E+00  9.000E+00
       5     1     1     2   501     0 -7.740257258E-04 -2.149510847E+00  3.482408068E+02  3.482798335E+02  4.750000000E+00  0.00000E+00  9.000E+00
      -5     1     1     2     0   503 -1.441579275E+00  8.847131273E-01  1.176755237E+01  1.280229108E+01  4.750000000E+00  0.00000E+00  9.000E+00
      -2     1     1     2     0   502  1.279274185E+00 -4.294540017E+00 -2.194534913E+01  2.239816878E+01  7.907449699E-07  0.00000E+00  9.000E+00
#rwgt            1           9   6.3194396918420730E-005           5     1150625           0
</event>
<event>
      6   9999  3.45752E-01  1.92462E+01 -1.00000E+00  1.61494E-01
      21    -1     0     0   501   502  0.000000000E+00  0.000000000E+00  1.865065104E+01  1.865065104E+01  0.000000000E+00  0.00000E+00  9.000E+00
      21    -1     0     0   511   503  0.000000000E+00  0.000000000E+00 -1.988634429E+03  1.988634429E+03  0.000000000E+00  0.00000E+00  9.000E+00
      25     1     1     2     0     0 -5.233966410E+01 -4.669741986E+01 -1.270504803E+03  1.278564644E+03  1.250000282E+02  0.00000E+00  9.000E+00
       5     1     1     2   501     0  1.084346479E+00  5.185413871E-01  9.502040507E+00  1.069092916E+01  4.750000000E+00  0.00000E+00  9.000E+00
      -5     1     1     2     0   503  6.813776240E+01  3.693761161E+01 -3.489928251E+02  3.575271965E+02  4.750000000E+00  0.00000E+00  9.000E+00
      21     1     1     2   511   502 -1.688244478E+01  9.241266860E+00 -3.599881913E+02  3.605023105E+02  0.000000000E+00  0.00000E+00  9.000E+00
#rwgt            1           9   3.5819492561976604E-003           5     1155521           0
</event>
<event>
      6   9999  3.45752E-01  3.94821E+01 -1.00000E+00  1.40515E-01
      21    -1     0     0   512   503  0.000000000E+00  0.000000000E+00  1.206466122E+03  1.206466122E+03  0.000000000E+00  0.00000E+00  9.000E+00
      21    -1     0     0   501   502  0.000000000E+00  0.000000000E+00 -1.647868928E+03  1.647868928E+03  0.000000000E+00  0.00000E+00  9.000E+00
      25     1     1     2     0     0  2.254404333E+00  1.087223634E+01 -6.852519023E+02  6.966508166E+02  1.250156101E+02  0.00000E+00  9.000E+00
       5     1     1     2   501     0 -5.642179037E+01  6.667604768E+00 -7.363462589E+02  7.385501004E+02  4.750000000E+00  0.00000E+00  9.000E+00
      -5     1     1     2     0   503  4.676006442E+01  2.124113865E+01 -2.161088919E+02  2.221785436E+02  4.750000000E+00  0.00000E+00  9.000E+00
      21     1     1     2   512   502  7.407321616E+00 -3.878097975E+01  1.196304247E+03  1.196955589E+03  2.642899792E-05  0.00000E+00  9.000E+00
#rwgt            1           9   133.73759080051963                5     1159305           0
</event>
<event>
      6   9999  3.45752E-01  4.20389E+00 -1.00000E+00  2.43464E-01
      21    -1     0     0   501   502  0.000000000E+00  0.000000000E+00  1.893247769E+03  1.893247769E+03  0.000000000E+00  0.00000E+00  9.000E+00
      21    -1     0     0   502   511  0.000000000E+00  0.000000000E+00 -3.753855837E+01  3.753855837E+01  0.000000000E+00  0.00000E+00  9.000E+00
      25     1     1     2     0     0  1.450034461E+01 -1.191045184E+01  9.970977353E+02  1.005071021E+03  1.249469703E+02  0.00000E+00  9.000E+00
       5     1     1     2   501     0 -3.883567651E-02  1.492072462E-01  3.165048780E+02  3.165405568E+02  4.750000000E+00  0.00000E+00  9.000E+00
      -5     1     1     2     0   503 -1.760395443E+01  8.968804534E+00  5.753288492E+02  5.756875767E+02  4.750000000E+00  0.00000E+00  9.000E+00
      21     1     1     2   503   511  3.142445491E+00  2.792440055E+00 -3.322225207E+01  3.348717243E+01  2.132480600E-06  0.00000E+00  9.000E+00
#rwgt            1           9   1.8342855974241923E-003           5     1160411           0
</event>
<event>
      6   9999  3.45752E-01  2.15324E+01 -1.00000E+00  1.57801E-01
      -1    -1     0     0     0   502  0.000000000E+00  0.000000000E+00  1.131927309E+02  1.131927309E+02  0.000000000E+00  0.00000E+00  9.000E+00
      21    -1     0     0   502   503  0.000000000E+00  0.000000000E+00 -6.880849772E+02  6.880849772E+02  0.000000000E+00  0.00000E+00  9.000E+00
      25     1     1     2     0     0 -1.482667068E+01 -1.494064797E+01 -6.347524950E+02  6.472862505E+02  1.250028280E+02  0.00000E+00  9.000E+00
       5     1     1     2   501     0 -1.190694057E+00 -1.179050967E+00 -7.430527970E+00  8.976812320E+00  4.750000000E+00  0.00000E+00  9.000E+00
      -5     1     1     2     0   503 -8.017654146E-02  1.818952319E+00 -3.759695536E+01  3.793953833E+01  4.750000000E+00  0.00000E+00  9.000E+00
      -1     1     1     2     0   501  1.609754128E+01  1.430074662E+01  1.048877321E+02  1.070751070E+02  1.348699152E-06  0.00000E+00  9.000E+00
#rwgt            1           9   4.5400853402879299E-003           5     1165576           0
</event>
<event>
      6   9999  3.45752E-01  2.61245E+00 -1.00000E+00  2.93629E-01
      21    -1     0     0   511   502  0.000000000E+00  0.000000000E+00  5.660999271E+01  5.660999271E+01  0.000000000E+00  0.00000E+00  9.000E+00
      21    -1     0     0   502   503  0.000000000E+00  0.000000000E+00 -8.436450763E+02  8.436450763E+02  0.000000000E+00  0.00000E+00  9.000E+00
      25     1     1     2     0     0 -1.487939051E+01  2.124322395E+01 -4.343013726E+02  4.526769207E+02  1.250041659E+02  0.00000E+00  9.000E+00
       5     1     1     2   501     0  2.229405350E+00 -1.547479232E+00  5.470222188E+00  7.736328004E+00  4.750000000E+00  0.00000E+00  9.000E+00
      -5     1     1     2     0   503  1.417780109E+01 -2.181487047E+01 -3.985423430E+02  3.994189032E+02  4.750000000E+00  0.00000E+00  9.000E+00
      21     1     1     2   511   501 -1.527815925E+00  2.119125751E+00  4.033840981E+01  4.042291703E+01  3.234066955E-06  0.00000E+00  9.000E+00
#rwgt            1           9   2.9512322721823403                5     1166654           0
</event>
<event>
      6   9999  3.45752E-01  5.21159E+00 -1.00000E+00  2.22951E-01
      21    -1     0     0   512   502  0.000000000E+00  0.000000000E+00  8.611499948E+01  8.611499948E+01  0.000000000E+00  0.00000E+00  9.000E+00
      21    -1     0     0   502   503  0.000000000E+00  0.000000000E+00 -6.282351900E+02  6.282351900E+02  0.000000000E+00  0.00000E+00  9.000E+00
      25     1     1     2     0     0  6.872353870E+00  7.186528139E+00 -5.783655309E+02  5.918035013E+02  1.250032857E+02  0.00000E+00  9.000E+00
       5     1     1     2   501     0 -1.337432446E-01  2.049875324E-01 -3.551204694E+00  5.935778123E+00  4.750000000E+00  0.00000E+00  9.000E+00
      -5     1     1     2     0   503 -1.860140607E+00 -5.558150423E+00 -3.794862269E+01  3.869126029E+01  4.750000000E+00  0.00000E+00  9.000E+00
      21     1     1     2   512   501 -4.878470019E+00 -1.833365248E+00  7.774516778E+01  7.791964971E+01  0.000000000E+00  0.00000E+00  9.000E+00
#rwgt            1           9   2.2721698873507857E-005           5     1173374           0
</event>
<event>
      6   9999 -3.45752E-01  8.13632E+00 -1.00000E+00  1.97150E-01
      21    -1     0     0   502   511  0.000000000E+00  0.000000000E+00  1.351781112E+01  1.351781112E+01  0.000000000E+00  0.00000E+00  9.000E+00
      21    -1     0     0   501   502  0.000000000E+00  0.000000000E+00 -8.300609282E+02  8.300609282E+02  0.000000000E+00  0.00000E+00  9.000E+00
      25     1     1     2     0     0 -2.134898472E+01  1.478183345E+01 -7.692083632E+02  7.797297987E+02  1.249910851E+02  0.00000E+00  9.000E+00
       5     1     1     2   501     0  9.436664310E-02  3.142947396E-01 -1.048613917E+01  1.151647953E+01  4.750000000E+00  0.00000E+00  9.000E+00
      -5     1     1     2     0   503  2.472609632E+01 -7.737555976E+00 -3.530935342E+01  4.405181665E+01  4.750000000E+00  0.00000E+00  9.000E+00
      21     1     1     2   503   511 -3.471478240E+00 -7.358572214E+00 -1.539261364E+00  8.280644404E+00  3.216718606E-07  0.00000E+00  9.000E+00
#rwgt            1           9  -1.8686829760320950E-003           5     1176446           0
</event>
<event>
      6   9999  3.45752E-01  4.06918E+00 -1.00000E+00  2.46319E-01
      21    -1     0     0   501   502  0.000000000E+00  0.000000000E+00  1.105009146E+01  1.105009146E+01  0.000000000E+00  0.00000E+00  9.000E+00
      21    -1     0     0   512   503  0.000000000E+00  0.000000000E+00 -9.083728203E+02  9.083728203E+02  0.000000000E+00  0.00000E+00  9.000E+00
      25     1     1     2     0     0  3.645117271E+01 -1.215967749E+00 -5.741231691E+02  5.887046646E+02  1.250024090E+02  0.00000E+00  9.000E+00
       5     1     1     2   501     0 -7.991969825E-01  1.658493219E-01 -2.316794323E-01  4.825183641E+00  4.750000000E+00  0.00000E+00  9.000E+00
      -5     1     1     2     0   503 -3.551340925E+01 -3.016700148E+00 -2.262260187E+02  2.290656603E+02  4.750000000E+00  0.00000E+00  9.000E+00
      21     1     1     2   512   502 -1.385664760E-01  4.066818575E+00 -9.674186168E+01  9.682740322E+01  0.000000000E+00  0.00000E+00  9.000E+00
#rwgt            1           9   1.0883140647081466E-004           5     1179273           0
</event>
<event>
      6   9999  3.45752E-01  1.45379E+01 -1.00000E+00  1.71558E-01
      21    -1     0     0   502   511  0.000000000E+00  0.000000000E+00  1.343425098E+01  1.343425098E+01  0.000000000E+00  0.00000E+00  9.000E+00
      21    -1     0     0   501   502  0.000000000E+00  0.000000000E+00 -6.959480936E+02  6.959480936E+02  0.000000000E+00  0.00000E+00  9.000E+00
      25     1     1     2     0     0 -3.299518736E+00  2.093360813E+01 -5.830868021E+02  5.967110777E+02  1.249991547E+02  0.00000E+00  9.000E+00
       5     1     1     2   501     0  9.507823506E-01  2.246534085E+00 -3.572979218E+01  3.612660310E+01  4.750000000E+00  0.00000E+00  9.000E+00
      -5     1     1     2     0   503  5.549235916E+00 -8.998941263E+00 -6.057682735E+01  6.167567977E+01  4.750000000E+00  0.00000E+00  9.000E+00
      21     1     1     2   503   511 -3.200499530E+00 -1.418120095E+01 -3.120420952E+00  1.486898398E+01  3.125693942E-07  0.00000E+00  9.000E+00
#rwgt            1           9   1.5822832793859825                5     1183877           0
</event>
<event>
      6   9999  3.45752E-01  1.45714E+01 -1.00000E+00  1.71470E-01
       4    -1     0     0   501     0  0.000000000E+00  0.000000000E+00  1.096153924E+02  1.096153924E+02  0.000000000E+00  0.00000E+00  9.000E+00
      21    -1     0     0   502   503  0.000000000E+00  0.000000000E+00 -3.077283986E+03  3.077283986E+03  0.000000000E+00  0.00000E+00  9.000E+00
      25     1     1     2     0     0  2.586512787E+00  4.993716524E+00 -2.328414445E+03  2.331774167E+03  1.250012490E+02  0.00000E+00  9.000E+00
       5     1     1     2   501     0 -1.541271610E+00  5.578973020E+00 -7.277381114E+00  1.044141916E+01  4.750000000E+00  0.00000E+00  9.000E+00
      -5     1     1     2     0   503 -7.856767546E+00  2.308616533E+00 -7.378006690E+02  7.378614017E+02  4.750000000E+00  0.00000E+00  9.000E+00
       4     1     1     2   502     0  6.811526370E+00 -1.288130608E+01  1.058239015E+02  1.068223902E+02  5.722045898E-06  0.00000E+00  9.000E+00
#rwgt            1           9   2.8131166638496637E-003           5     1185200           0
</event>
<event>
      6   9999  3.45752E-01  6.50195E+00 -1.00000E+00  2.09310E-01
      -2    -1     0     0     0   502  0.000000000E+00  0.000000000E+00  1.379033682E+02  1.379033682E+02  0.000000000E+00  0.00000E+00  9.000E+00
      21    -1     0     0   502   503  0.000000000E+00  0.000000000E+00 -7.613278809E+02  7.613278809E+02  0.000000000E+00  0.00000E+00  9.000E+00
      25     1     1     2     0     0  2.284760227E-01  1.392661209E+01 -6.535133102E+02  6.655067420E+02  1.250022977E+02  0.00000E+00  9.000E+00
       5     1     1     2   501     0  1.088866875E+00  1.131110922E+00  4.212372459E-01  5.020456534E+00  4.750000000E+00  0.00000E+00  9.000E+00
      -5     1     1     2     0   503 -9.204169482E-02 -8.672268765E+00 -9.919044407E+01  9.968211179E+01  4.750000000E+00  0.00000E+00  9.000E+00
      -2     1     1     2     0   501 -1.225301203E+00 -6.385454247E+00  1.288580043E+02  1.290219387E+02  2.697398305E-06  0.00000E+00  9.000E+00
#rwgt            1           9   1.3146374270804552E-004           5     1187087           0
</event>
<event>
      6   9999  3.45752E-01  6.69488E+00 -1.00000E+00  2.07636E-01
      21    -1     0     0   501   511  0.000000000E+00  0.000000000E+00  1.357576733E+01  1.357576733E+01  0.000000000E+00  0.00000E+00  9.000E+00
      21    -1     0     0   502   503  0.000000000E+00  0.000000000E+00 -8.674228364E+02  8.674228364E+02  0.000000000E+00  0.00000E+00  9.000E+00
      25     1     1     2     0     0  2.931130777E+00 -1.192431160E+01 -8.271295873E+02  8.366127622E+02  1.250071159E+02  0.00000E+00  9.000E+00
       5     1     1     2   501     0  2.822875324E+00 -1.057244260E-02  4.173796990E+00  6.924725134E+00  4.750000000E+00  0.00000E+00  9.000E+00
      -5     1     1     2     0   503  2.727674557E-01  9.019498543E+00 -6.326888760E+00  1.200074070E+01  4.750000000E+00  0.00000E+00  9.000E+00
      21     1     1     2   502   511 -6.026773556E+00  2.915385499E+00 -2.456439004E+01  2.546037569E+01  4.768371582E-07  0.00000E+00  9.000E+00
#rwgt            1           9   4.5624683325689221E-003           5     1190133           0
</event>
<event>
      6   9999 -3.45752E-01  6.47033E+00 -1.00000E+00  2.09592E-01
       1    -1     0     0   501     0  0.000000000E+00  0.000000000E+00  2.586952088E+01  2.586952088E+01  0.000000000E+00  0.00000E+00  9.000E+00
      21    -1     0     0   502   503  0.000000000E+00  0.000000000E+00 -1.487042890E+03  1.487042890E+03  0.000000000E+00  0.00000E+00  9.000E+00
      25     1     1     2     0     0  3.049860248E+01 -4.954736144E+01 -6.916949987E+02  7.053294889E+02  1.251503532E+02  0.00000E+00  9.000E+00
       5     1     1     2   501     0  1.139727791E+00  2.416414740E+00  7.332974925E+00  9.136359280E+00  4.750000000E+00  0.00000E+00  9.000E+00
      -5     1     1     2     0   503 -3.765081420E+01  4.474030491E+01 -7.854586156E+02  7.876465439E+02  4.750000000E+00  0.00000E+00  9.000E+00
       1     1     1     2   502     0  6.012483924E+00  2.390641793E+00  8.647270086E+00  1.080001903E+01  8.429369702E-07  0.00000E+00  9.000E+00
#rwgt            1           9  -4.9222671741441055E-004           5     1193452           0
</event>
<event>
      6   9999  3.45752E-01  1.99062E+01 -1.00000E+00  1.60366E-01
      21    -1     0     0   501   502  0.000000000E+00  0.000000000E+00  3.194824577E+02  3.194824577E+02  0.000000000E+00  0.00000E+00  9.000E+00
      21    -1     0     0   511   503  0.000000000E+00  0.000000000E+00 -1.153940151E+03  1.153940151E+03  0.000000000E+00  0.00000E+00  9.000E+00
      25     1     1     2     0     0 -4.056110856E+02 -1.567735389E+02 -1.152821571E+02  4.669169765E+02  1.249927678E+02  0.00000E+00  9.000E+00
       5     1     1     2   501     0  7.066611543E-01  1.289647235E+00  7.937226831E+01  7.952786956E+01  4.750000000E+00  0.00000E+00  9.000E+00
      -5     1     1     2     0   503  4.035093180E+02  1.753411818E+02 -7.026669114E+02  8.290522605E+02  4.750000000E+00  0.00000E+00  9.000E+00
      21     1     1     2   511   502  1.395106404E+00 -1.985729014E+01 -9.588089357E+01  9.792550253E+01  1.907348633E-06  0.00000E+00  9.000E+00
#rwgt            1           9   2.5195983138270551E-003           5     1197971           0
</event>
<event>
      6   9999  3.45752E-01  8.80445E+00 -1.00000E+00  1.93213E-01
      21    -1     0     0   512   502  0.000000000E+00  0.000000000E+00  6.519877367E+01  6.519877367E+01  0.000000000E+00  0.00000E+00  9.000E+00
      21    -1     0     0   502   503  0.000000000E+00  0.000000000E+00 -1.568474078E+02  1.568474078E+02  0.000000000E+00  0.00000E+00  9.000E+00
      25     1     1     2     0     0  6.163229211E+00  5.326320680E+00 -1.117626681E+02  1.678794147E+02  1.250049951E+02  0.00000E+00  9.000E+00
       5     1     1     2   501     0  4.254124545E-02 -5.196815900E-01 -6.050610367E+00  7.710010669E+00  4.750000000E+00  0.00000E+00  9.000E+00
      -5     1     1     2     0   503  1.700207962E+00 -9.318699687E-01 -8.916763532E+00  1.028738357E+01  4.750000000E+00  0.00000E+00  9.000E+00
      21     1     1     2   512   501 -7.905978419E+00 -3.874769121E+00  3.508140791E+01  3.616937256E+01  1.168007728E-06  0.00000E+00  9.000E+00
#rwgt            1           9   1.3249387392961728E-003           5     1201973           0
</event>
<event>
      6   9999  3.45752E-01  2.40463E+01 -1.00000E+00  1.54334E-01
      21    -1     0     0   501   502  0.000000000E+00  0.000000000E+00  1.306802057E+01  1.306802057E+01  0.000000000E+00  0.00000E+00  9.000E+00
      21    -1     0     0   511   503  0.000000000E+00  0.000000000E+00 -1.222660803E+03  1.222660803E+03  0.000000000E+00  0.00000E+00  9.000E+00
      25     1     1     2     0     0  6.070052513E+01  7.149430602E+00 -6.803157273E+02  6.943996090E+02  1.250026403E+02  0.00000E+00  9.000E+00
       5     1     1     2   501     0  2.426474067E+00 -5.684694830E-01  1.332438351E+00  5.527099231E+00  4.750000000E+00  0.00000E+00  9.000E+00
      -5     1     1     2     0   503 -3.921184156E+01 -9.088698768E+00 -1.864920242E+02  1.908455149E+02  4.750000000E+00  0.00000E+00  9.000E+00
      21     1     1     2   511   502 -2.391515763E+01  2.507737649E+00 -3.441174697E+02  3.449566009E+02  5.394796609E-06  0.00000E+00  9.000E+00
#rwgt            1           9   1.0062892265633378E-003           5     1204095           0
</event>
<event>
      6   9999  3.45752E-01  2.30390E+01 -1.00000E+00  1.55659E-01
      21    -1     0     0   501   502  0.000000000E+00  0.000000000E+00  2.285670640E+01  2.285670640E+01  0.000000000E+00  0.00000E+00  9.000E+00
      21    -1     0     0   502   512  0.000000000E+00  0.000000000E+00 -1.164143175E+03  1.164143175E+03  0.000000000E+00  0.00000E+00  9.000E+00
      25     1     1     2     0     0  4.800440600E+01 -2.197500390E+01 -3.578787067E+02  3.827371242E+02  1.249928546E+02  0.00000E+00  9.000E+00
       5     1     1     2   501     0 -2.274945325E+00 -3.487066068E-01  6.452238033E+00  8.336117092E+00  4.750000000E+00  0.00000E+00  9.000E+00
      -5     1     1     2     0   503 -6.590387854E+01  3.344973636E+01 -6.463546790E+02  6.505836915E+02  4.750000000E+00  0.00000E+00  9.000E+00
      21     1     1     2   503   512  2.017441786E+01 -1.112602585E+01 -1.435053214E+02  1.453429491E+02  0.000000000E+00  0.00000E+00  9.000E+00
#rwgt            1           9   3.3393309576327347E-004           5     1205436           0
</event>
<event>
      6   9999  3.45752E-01  3.71692E+00 -1.00000E+00  2.54638E-01
      21    -1     0     0   511   502  0.000000000E+00  0.000000000E+00  1.728373986E+01  1.728373986E+01  0.000000000E+00  0.00000E+00  9.000E+00
      21    -1     0     0   502   503  0.000000000E+00  0.000000000E+00 -1.360778502E+03  1.360778502E+03  0.000000000E+00  0.00000E+00  9.000E+00
      25     1     1     2     0     0  5.406806152E+01  6.165796451E+01 -8.666884120E+02  8.794867393E+02  1.249922443E+02  0.00000E+00  9.000E+00
       5     1     1     2   501     0  6.043758297E-01  9.920400517E-02  6.313802273E+00  7.924753038E+00  4.750000000E+00  0.00000E+00  9.000E+00
      -5     1     1     2     0   503 -5.095602572E+01 -6.169563023E+01 -4.750543322E+02  4.817697047E+02  4.750000000E+00  0.00000E+00  9.000E+00
      21     1     1     2   511   501 -3.716411633E+00 -6.153827848E-02 -8.065820391E+00  8.881045038E+00  1.685873940E-07  0.00000E+00  9.000E+00
#rwgt            1           9   2.5446060255515055E-004           5     1207229           0
</event>
<event>
      6   9999  3.45752E-01  3.96394E+00 -1.00000E+00  2.48667E-01
      21    -1     0     0   502   503  0.000000000E+00  0.000000000E+00  2.770932450E+01  2.770932450E+01  0.000000000E+00  0.00000E+00  9.000E+00
      21    -1     0     0   501   512  0.000000000E+00  0.000000000E+00 -1.398613316E+03  1.398613316E+03  0.000000000E+00  0.00000E+00  9.000E+00
      25     1     1     2     0     0 -8.553754342E+01  1.022153521E+02 -4.098617444E+02  4.487495111E+02  1.249992986E+02  0.00000E+00  9.000E+00
       5     1     1     2   501     0  8.521127443E+01 -9.605485116E+01 -6.472352516E+02  6.598662964E+02  4.750000000E+00  0.00000E+00  9.000E+00
      -5     1     1     2     0   503  9.105475040E-01 -1.008114517E+01 -1.420070769E+01  1.807432388E+01  4.750000000E+00  0.00000E+00  9.000E+00
      21     1     1     2   502   512 -5.842785125E-01  3.920644248E+00 -2.996062874E+02  2.996325088E+02  0.000000000E+00  0.00000E+00  9.000E+00
#rwgt            1           9   6.5007953682874278E-002           5     1213022           0
</event>
<event>
      6   9999  3.45752E-01  7.55864E+00 -1.00000E+00  2.00979E-01
      21    -1     0     0   501   511  0.000000000E+00  0.000000000E+00  2.038419973E+01  2.038419973E+01  0.000000000E+00  0.00000E+00  9.000E+00
      21    -1     0     0   502   503  0.000000000E+00  0.000000000E+00 -9.819701096E+02  9.819701096E+02  0.000000000E+00  0.00000E+00  9.000E+00
      25     1     1     2     0     0 -1.109733168E+01  1.099881312E+01 -8.857579916E+02  8.946705090E+02  1.249959010E+02  0.00000E+00  9.000E+00
       5     1     1     2   501     0  1.398771475E+00  2.155099728E+00  1.382126577E+01  1.483883095E+01  4.750000000E+00  0.00000E+00  9.000E+00
      -5     1     1     2     0   503  5.027082715E+00 -7.211660142E+00 -7.983275541E+01  8.045564579E+01  4.750000000E+00  0.00000E+00  9.000E+00
      21     1     1     2   502   511  4.671477490E+00 -5.942252706E+00 -9.816428669E+00  1.238932367E+01  2.384185791E-07  0.00000E+00  9.000E+00
#rwgt            1           9   4.2219089238152113E-004           5     1218935           0
</event>
<event>
      6   9999  3.45752E-01  2.35302E+00 -1.00000E+00  3.07769E-01
      21    -1     0     0   501   512  0.000000000E+00  0.000000000E+00  2.726009511E+01  2.726009511E+01  0.000000000E+00  0.00000E+00  9.000E+00
      21    -1     0     0   502   503  0.000000000E+00  0.000000000E+00 -2.472768448E+02  2.472768448E+02  0.000000000E+00  0.00000E+00  9.000E+00
      25     1     1     2     0     0  3.447115091E+00 -6.901423807E+00 -2.086766186E+02  2.433751860E+02  1.250041509E+02  0.00000E+00  9.000E+00
       5     1     1     2   501     0 -2.506860110E-01 -4.725631380E-01  1.741144100E-01  4.783197176E+00  4.750000000E+00  0.00000E+00  9.000E+00
      -5     1     1     2     0   503 -3.572383001E+00  5.051197088E+00 -1.792558919E+01  1.954906034E+01  4.750000000E+00  0.00000E+00  9.000E+00
      21     1     1     2   502   512  3.759539213E-01  2.322789857E+00  6.411343673E+00  6.829496450E+00  2.384185791E-07  0.00000E+00  9.000E+00
#rwgt            1           9  0.70528549017371545                5     1223729           0
</event>
<event>
      6   9999  3.45752E-01  2.00702E+00 -1.00000E+00  3.32299E-01
      21    -1     0     0   501   511  0.000000000E+00  0.000000000E+00  5.916996209E+02  5.916996209E+02  0.000000000E+00  0.00000E+00  9.000E+00
      21    -1     0     0   502   503  0.000000000E+00  0.000000000E+00 -1.385351694E+01  1.385351694E+01  0.000000000E+00  0.00000E+00  9.000E+00
      25     1     1     2     0     0 -3.676810308E+00 -4.444162111E+00  2.906572815E+02  3.164523795E+02  1.250087343E+02  0.00000E+00  9.000E+00
       5     1     1     2   501     0  5.674698467E-01 -5.209749468E-01  1.119808865E+02  1.120842311E+02  4.750000000E+00  0.00000E+00  9.000E+00
      -5     1     1     2     0   503  2.246557020E+00  3.153034249E+00  9.553364819E+00  1.134979836E+01  4.750000000E+00  0.00000E+00  9.000E+00
      21     1     1     2   502   511  8.627834414E-01  1.812102808E+00  1.656545711E+02  1.656667289E+02  1.907348633E-06  0.00000E+00  9.000E+00
#rwgt            1           9   6.1082329191151387E-004           5     1230009           0
</event>
<event>
      6   9999 -3.45752E-01  2.56236E+01 -1.00000E+00  1.52409E-01
      21    -1     0     0   501   502  0.000000000E+00  0.000000000E+00  4.025313314E+01  4.025313314E+01  0.000000000E+00  0.00000E+00  9.000E+00
      21    -1     0     0   502   512  0.000000000E+00  0.000000000E+00 -1.542908087E+03  1.542908087E+03  0.000000000E+00  0.00000E+00  9.000E+00
      25     1     1     2     0     0 -5.121218318E+01 -2.824205811E+01 -7.521313007E+02  7.646876125E+02  1.250013988E+02  0.00000E+00  9.000E+00
       5     1     1     2   501     0 -1.018472241E+01 -1.033528206E+01  3.045811515E+01  3.407060176E+01  4.750000000E+00  0.00000E+00  9.000E+00
      -5     1     1     2     0   503  3.857779078E+01  2.692167881E+01 -4.731094758E+02  4.754662568E+02  4.750000000E+00  0.00000E+00  9.000E+00
      21     1     1     2   503   512  2.281911480E+01  1.165566136E+01 -3.078722921E+02  3.089367487E+02  3.814697266E-06  0.00000E+00  9.000E+00
#rwgt            1           9  -3.5931514577013895E-003           5     1237695           0
</event>
<event>
      6   9999  3.45752E-01  5.89451E+01 -1.00000E+00  1.31071E-01
      21    -1     0     0   501   502  0.000000000E+00  0.000000000E+00  4.956277181E+01  4.956277181E+01  0.000000000E+00  0.00000E+00  9.000E+00
      21    -1     0     0   502   511  0.000000000E+00  0.000000000E+00 -1.524360508E+03  1.524360508E+03  0.000000000E+00  0.00000E+00  9.000E+00
      25     1     1     2     0     0 -7.481544770E+01  1.569937759E+02 -8.296961963E+02  8.568937217E+02  1.250067006E+02  0.00000E+00  9.000E+00
       5     1     1     2   501     0  1.327987970E+02 -1.576314204E+02 -2.882145807E+02  3.543633618E+02  4.750000000E+00  0.00000E+00  9.000E+00
      -5     1     1     2     0   503  9.097561046E-01 -1.836998839E+00 -4.117036780E+01  4.149414303E+01  4.750000000E+00  0.00000E+00  9.000E+00
      21     1     1     2   503   511 -5.889310544E+01  2.474643288E+00 -3.157165912E+02  3.211720531E+02  3.814697266E-06  0.00000E+00  9.000E+00
#rwgt            1           9   7.5901066975781861E-004           5     1239537           0
</event>
<event>
      6   9999  3.45752E-01  5.74218E+00 -1.00000E+00  2.16750E-01
      21    -1     0     0   501   502  0.000000000E+00  0.000000000E+00  4.875133908E+01  4.875133908E+01  0.000000000E+00  0.00000E+00  9.000E+00
      21    -1     0     0   502   512  0.000000000E+00  0.000000000E+00 -1.397984081E+03  1.397984081E+03  0.000000000E+00  0.00000E+00  9.000E+00
      25     1     1     2     0     0  1.930428906E+01  8.218349341E+00 -1.251053585E+03  1.257459360E+03  1.250150882E+02  0.00000E+00  9.000E+00
       5     1     1     2   501     0 -4.455277170E+00 -8.742204866E+00  4.443921043E+01  4.575676523E+01  4.750000000E+00  0.00000E+00  9.000E+00
      -5     1     1     2     0   503 -9.114176012E+00  8.141338892E-01 -9.010098449E+01  9.068892393E+01  4.750000000E+00  0.00000E+00  9.000E+00
      21     1     1     2   503   512 -5.734835873E+00 -2.902783642E-01 -5.251738330E+01  5.283037150E+01  0.000000000E+00  0.00000E+00  9.000E+00
#rwgt            1           9   1.9999799672091308E-002           5     1240599           0
</event>
<event>
      6   9999  3.45752E-01  5.89216E+00 -1.00000E+00  2.15161E-01
      21    -1     0     0   501   502  0.000000000E+00  0.000000000E+00  3.573390985E+01  3.573390985E+01  0.000000000E+00  0.00000E+00  9.000E+00
      21    -1     0     0   502   511  0.000000000E+00  0.000000000E+00 -1.227653661E+03  1.227653661E+03  0.000000000E+00  0.00000E+00  9.000E+00
      25     1     1     2     0     0  1.042628861E+02 -1.155530340E+01 -5.429539447E+02  5.669467062E+02  1.250012288E+02  0.00000E+00  9.000E+00
       5     1     1     2   501     0  2.277464093E+00 -3.775833538E+00  1.887524871E+01  1.995698563E+01  4.750000000E+00  0.00000E+00  9.000E+00
      -5     1     1     2     0   503 -1.006546052E+02  1.505620176E+01 -6.288720452E+02  6.370719351E+02  4.750000000E+00  0.00000E+00  9.000E+00
      21     1     1     2   503   511 -5.885744994E+00  2.749351724E-01 -3.896901011E+01  3.941194403E+01  6.743495762E-07  0.00000E+00  9.000E+00
#rwgt            1           9   6.9688758538864271E-004           5     1246724           0
</event>
<event>
      6   9999  3.45752E-01  8.06310E+01 -1.00000E+00  1.24547E-01
      21    -1     0     0   501   502  0.000000000E+00  0.000000000E+00  9.749063459E+01  9.749063459E+01  0.000000000E+00  0.00000E+00  9.000E+00
      21    -1     0     0   512   503  0.000000000E+00  0.000000000E+00 -9.789296945E+02  9.789296945E+02  0.000000000E+00  0.00000E+00  9.000E+00
      25     1     1     2     0     0 -5.607162747E+01  2.041130070E+01 -6.036872761E+00  1.386452213E+02  1.250016198E+02  0.00000E+00  9.000E+00
       5     1     1     2   501     0 -4.613309366E+00 -3.556585654E-01  9.855861433E+00  1.187895706E+01  4.750000000E+00  0.00000E+00  9.000E+00
      -5     1     1     2     0   503 -1.981765776E+01 -2.460497685E+01  4.700505118E+00  3.229244019E+01  4.750000000E+00  0.00000E+00  9.000E+00
      21     1     1     2   512   502  8.050259459E+01  4.549334719E+00 -8.899585537E+02  8.936037106E+02  0.000000000E+00  0.00000E+00  9.000E+00
#rwgt            1           9   2.6248948552417234E-003           5     1252303           0
</event>
<event>
      6   9999  3.45752E-01  2.33771E+01 -1.00000E+00  1.55205E-01
      21    -1     0     0   501   502  0.000000000E+00  0.000000000E+00  5.844719775E+02  5.844719775E+02  0.000000000E+00  0.00000E+00  9.000E+00
      21    -1     0     0   502   511  0.000000000E+00  0.000000000E+00 -8.573205585E+01  8.573205585E+01  0.000000000E+00  0.00000E+00  9.000E+00
      25     1     1     2     0     0  2.016586774E+01 -3.671752481E+00  1.618821338E+01  1.277361999E+02  1.250373325E+02  0.00000E+00  9.000E+00
       5     1     1     2   501     0  1.746139999E+00 -2.607968277E+00  4.986584814E+02  4.986909805E+02  4.750000000E+00  0.00000E+00  9.000E+00
      -5     1     1     2     0   503  6.007412618E-01 -1.833434537E-02  8.550262102E+00  9.799525919E+00  4.750000000E+00  0.00000E+00  9.000E+00
      21     1     1     2   503   511 -2.251274900E+01  6.298055103E+00 -2.465703522E+01  3.397732702E+01  3.371747881E-07  0.00000E+00  9.000E+00
#rwgt            1           9   1.3220605039833948E-002           5     1253045           0
</event>
<event>
      6   9999  3.45752E-01  5.53653E+00 -1.00000E+00  2.19040E-01
      21    -1     0     0   501   512  0.000000000E+00  0.000000000E+00  7.187247911E+01  7.187247911E+01  0.000000000E+00  0.00000E+00  9.000E+00
      21    -1     0     0   502   503  0.000000000E+00  0.000000000E+00 -7.361019515E+02  7.361019515E+02  0.000000000E+00  0.00000E+00  9.000E+00
      25     1     1     2     0     0 -1.145225433E+01  4.229576321E-02 -6.203417452E+02  6.329139158E+02  1.249999521E+02  0.00000E+00  9.000E+00
       5     1     1     2   501     0  2.384253406E-01 -4.962511732E-02 -1.742379941E+00  5.065342748E+00  4.750000000E+00  0.00000E+00  9.000E+00
      -5     1     1     2     0   503  5.692380313E+00 -4.009889372E-01 -1.058200593E+02  1.060802122E+02  4.750000000E+00  0.00000E+00  9.000E+00
      21     1     1     2   502   512  5.521448679E+00  4.083182913E-01  6.367471210E+01  6.391495976E+01  1.507891493E-06  0.00000E+00  9.000E+00
#rwgt            1           9   1.0659029448653176E-003           5     1254996           0
</event>
<event>
      6   9999  3.45752E-01  3.80693E+00 -1.00000E+00  2.52383E-01
      21    -1     0     0   511   502  0.000000000E+00  0.000000000E+00  6.227596318E+00  6.227596318E+00  0.000000000E+00  0.00000E+00  9.000E+00
      21    -1     0     0   502   503  0.000000000E+00  0.000000000E+00 -5.217329241E+03  5.217329241E+03  0.000000000E+00  0.00000E+00  9.000E+00
      25     1     1     2     0     0  3.609796852E+01 -3.573828464E+00 -2.857845830E+03  2.860807623E+03  1.249865303E+02  0.00000E+00  9.000E+00
       5     1     1     2   501     0  3.713324954E+00  1.999169131E+00 -3.799867941E+00  7.401821114E+00  4.750000000E+00  0.00000E+00  9.000E+00
      -5     1     1     2     0   503 -3.885916183E+01  5.260595804E+00 -2.350932375E+03  2.351264193E+03  4.750000000E+00  0.00000E+00  9.000E+00
      21     1     1     2   511   501 -9.521316424E-01 -3.685936470E+00  1.476428704E+00  4.083200221E+00  1.042868388E-06  0.00000E+00  9.000E+00
#rwgt            1           9   5.3691494375897070E-004           5     1258119           0
</event>
<event>
      6   9999  3.45752E-01  1.59125E+01 -1.00000E+00  1.68178E-01
      21    -1     0     0   501   502  0.000000000E+00  0.000000000E+00  1.200262646E+01  1.200262646E+01  0.000000000E+00  0.00000E+00  9.000E+00
      21    -1     0     0   502   512  0.000000000E+00  0.000000000E+00 -1.839188439E+03  1.839188439E+03  0.000000000E+00  0.00000E+00  9.000E+00
      25     1     1     2     0     0  5.642600398E-01  1.160151709E+01 -7.563313734E+02  7.666768851E+02  1.249855442E+02  0.00000E+00  9.000E+00
       5     1     1     2   501     0  1.785934081E+00  3.559508959E+00  5.111919221E+00  8.034543092E+00  4.750000000E+00  0.00000E+00  9.000E+00
      -5     1     1     2     0   503 -5.872435850E+00  3.567752631E-01 -7.368189643E+01  7.406886764E+01  4.750000000E+00  0.00000E+00  9.000E+00
      21     1     1     2   503   512  3.522241729E+00 -1.551780132E+01 -1.002284462E+03  1.002410770E+03  0.000000000E+00  0.00000E+00  9.000E+00
#rwgt            1           9   3.3310971604994525E-004           5     1263533           0
</event>
<event>
      6   9999  3.45752E-01  6.98446E+00 -1.00000E+00  2.05262E-01
      21    -1     0     0   511   503  0.000000000E+00  0.000000000E+00  3.179990029E+01  3.179990029E+01  0.000000000E+00  0.00000E+00  9.000E+00
      21    -1     0     0   501   502  0.000000000E+00  0.000000000E+00 -1.905115588E+02  1.905115588E+02  0.000000000E+00  0.00000E+00  9.000E+00
      25     1     1     2     0     0 -2.435852352E+00 -8.789656079E+00 -1.513174793E+02  1.964796412E+02  1.249963137E+02  0.00000E+00  9.000E+00
       5     1     1     2   501     0  1.230933833E+00  6.539298314E+00 -5.826579261E-01  8.196316904E+00  4.750000000E+00  0.00000E+00  9.000E+00
      -5     1     1     2     0   503 -4.505704594E+00  6.271739528E+00 -5.256762894E+00  1.048008334E+01  4.750000000E+00  0.00000E+00  9.000E+00
      21     1     1     2   511   502  5.710623113E+00 -4.021381763E+00 -1.554758364E+00  7.155417612E+00  5.161913656E-08  0.00000E+00  9.000E+00
#rwgt            1           9  0.31956615015675627                5     1265441           0
</event>
<event>
      6   9999  3.45752E-01  2.90108E+00 -1.00000E+00  2.80776E-01
      21    -1     0     0   501   502  0.000000000E+00  0.000000000E+00  1.020422001E+01  1.020422001E+01  0.000000000E+00  0.00000E+00  9.000E+00
      21    -1     0     0   502   512  0.000000000E+00  0.000000000E+00 -1.070622004E+03  1.070622004E+03  0.000000000E+00  0.00000E+00  9.000E+00
      25     1     1     2     0     0 -5.916720389E+00  4.663740125E+00 -6.959870343E+02  7.071638169E+02  1.250038158E+02  0.00000E+00  9.000E+00
       5     1     1     2   501     0 -1.895097507E-01 -1.400502820E+00  2.965198311E+00  5.775138364E+00  4.750000000E+00  0.00000E+00  9.000E+00
      -5     1     1     2     0   503  7.907137698E+00 -9.888097298E-01 -9.013707095E+01  9.061321444E+01  4.750000000E+00  0.00000E+00  9.000E+00
      21     1     1     2   503   512 -1.800907558E+00 -2.274427575E+00 -2.772588775E+02  2.772740547E+02  5.394796609E-06  0.00000E+00  9.000E+00
#rwgt            1           9   8.1308702919014736E-004           5     1268740           0
</event>
<event>
      6   9999  3.45752E-01  5.44266E+00 -1.00000E+00  2.20131E-01
      21    -1     0     0   501   502  0.000000000E+00  0.000000000E+00  7.760872452E+01  7.760872452E+01  0.000000000E+00  0.00000E+00  9.000E+00
      21    -1     0     0   502   511  0.000000000E+00  0.000000000E+00 -7.072145522E+02  7.072145522E+02  0.000000000E+00  0.00000E+00  9.000E+00
      25     1     1     2     0     0 -2.686662593E+01  6.655275644E+01 -5.063148130E+01  1.527737747E+02  1.250007774E+02  0.00000E+00  9.000E+00
       5     1     1     2   501     0  2.323809970E-01 -4.187636797E-01  2.308252992E+01  2.357106385E+01  4.750000000E+00  0.00000E+00  9.000E+00
      -5     1     1     2     0   503  3.207296427E+01 -6.592697650E+01 -4.225721350E+02  4.289111948E+02  4.750000000E+00  0.00000E+00  9.000E+00
      21     1     1     2   503   511 -5.438719341E+00 -2.070162674E-01 -1.794847413E+02  1.795672433E+02  1.907348633E-06  0.00000E+00  9.000E+00
#rwgt            1           9   3.8252087171130822E-002           5     1274235           0
</event>
<event>
      6   9999  3.45752E-01  4.76922E+01 -1.00000E+00  1.35895E-01
      21    -1     0     0   512   503  0.000000000E+00  0.000000000E+00  1.412184869E+01  1.412184869E+01  0.000000000E+00  0.00000E+00  9.000E+00
      21    -1     0     0   501   502  0.000000000E+00  0.000000000E+00 -4.966504653E+03  4.966504653E+03  0.000000000E+00  0.00000E+00  9.000E+00
      25     1     1     2     0     0  1.834428269E+02 -3.034874382E+00 -1.612511558E+03  1.627722613E+03  1.250076030E+02  0.00000E+00  9.000E+00
       5     1     1     2   501     0 -2.066346207E+02  2.965529625E+01 -2.971097455E+03  2.978425751E+03  4.750000000E+00  0.00000E+00  9.000E+00
      -5     1     1     2     0   503 -1.069982317E+01  6.934088494E+00 -3.971311735E+01  4.197930429E+01  4.750000000E+00  0.00000E+00  9.000E+00
      21     1     1     2   512   502  3.389161693E+01 -3.355451036E+01 -3.290606748E+02  3.324988339E+02  5.394796609E-06  0.00000E+00  9.000E+00
#rwgt            1           9   3.3904571103950739E-004           5     1279908           0
</event>
<event>
      6   9999  3.45752E-01  2.20620E+01 -1.00000E+00  1.57024E-01
      21    -1     0     0   511   503  0.000000000E+00  0.000000000E+00  3.185974689E+01  3.185974689E+01  0.000000000E+00  0.00000E+00  9.000E+00
      21    -1     0     0   501   502  0.000000000E+00  0.000000000E+00 -7.973602031E+02  7.973602031E+02  0.000000000E+00  0.00000E+00  9.000E+00
      25     1     1     2     0     0  3.954367575E+01 -2.156001950E+01 -4.856994997E+02  5.035446525E+02  1.249987052E+02  0.00000E+00  9.000E+00
       5     1     1     2   501     0 -2.469418024E+01 -5.307599381E+00 -2.147185851E+02  2.162512577E+02  4.750000000E+00  0.00000E+00  9.000E+00
      -5     1     1     2     0   503 -6.208921724E+00  6.568039369E+00 -8.136556460E+01  8.200370390E+01  4.750000000E+00  0.00000E+00  9.000E+00
      21     1     1     2   511   502 -8.640573787E+00  2.029957951E+01  1.628319318E+01  2.742033596E+01  9.830249847E-07  0.00000E+00  9.000E+00
#rwgt            1           9   8.8724122356097120E-003           5     1280992           0
</event>
<event>
      6   9999  3.45752E-01  3.09825E+01 -1.00000E+00  1.46938E-01
      21    -1     0     0   501   502  0.000000000E+00  0.000000000E+00  2.019730858E+01  2.019730858E+01  0.000000000E+00  0.00000E+00  9.000E+00
      21    -1     0     0   512   503  0.000000000E+00  0.000000000E+00 -8.844363197E+02  8.844363197E+02  0.000000000E+00  0.00000E+00  9.000E+00
      25     1     1     2     0     0  1.249732305E+00  8.343857882E+00 -7.133321425E+02  7.242508513E+02  1.250014730E+02  0.00000E+00  9.000E+00
       5     1     1     2   501     0  3.984792778E+00  4.764193524E+00  9.139926811E+00  1.202817008E+01  4.750000000E+00  0.00000E+00  9.000E+00
      -5     1     1     2     0   503  2.003366501E+01  4.820490630E+00 -5.975011121E+01  6.338156793E+01  4.750000000E+00  0.00000E+00  9.000E+00
      21     1     1     2   512   502 -2.526819009E+01 -1.792854204E+01 -1.002966842E+02  1.049730390E+02  0.000000000E+00  0.00000E+00  9.000E+00
#rwgt            1           9  0.11103760178784423                5     1282305           0
</event>
<event>
      6   9999  3.45752E-01  9.72098E+00 -1.00000E+00  1.88498E-01
      21    -1     0     0   511   502  0.000000000E+00  0.000000000E+00  2.130255355E+01  2.130255355E+01  0.000000000E+00  0.00000E+00  9.000E+00
      21    -1     0     0   502   503  0.000000000E+00  0.000000000E+00 -9.765428322E+02  9.765428322E+02  0.000000000E+00  0.00000E+00  9.000E+00
      25     1     1     2     0     0 -7.493999424E+00  1.886607083E+01 -8.128170191E+02  8.226199228E+02  1.249797671E+02  0.00000E+00  9.000E+00
       5     1     1     2   501     0 -4.593195021E+00 -4.443487784E+00  1.162456448E+01  1.409024569E+01  4.750000000E+00  0.00000E+00  9.000E+00
      -5     1     1     2     0   503  6.626378096E+00 -2.246478608E+01 -1.474792866E+02  1.494030722E+02  4.750000000E+00  0.00000E+00  9.000E+00
      21     1     1     2   511   501  5.460816350E+00  8.042203034E+00 -6.568537457E+00  1.173214512E+01  4.042583694E-07  0.00000E+00  9.000E+00
#rwgt            1           9   2.4359698829294477E-004           5     1283183           0
</event>
<event>
      6   9999  3.45752E-01  1.49724E+01 -1.00000E+00  1.70441E-01
      21    -1     0     0   501   502  0.000000000E+00  0.000000000E+00  7.611236608E+00  7.611236608E+00  0.000000000E+00  0.00000E+00  9.000E+00
      21    -1     0     0   512   503  0.000000000E+00  0.000000000E+00 -8.331529463E+02  8.331529463E+02  0.000000000E+00  0.00000E+00  9.000E+00
      25     1     1     2     0     0 -1.313309994E+01 -1.686850272E+01 -6.665278014E+02  6.784853026E+02  1.250038841E+02  0.00000E+00  9.000E+00
       5     1     1     2   501     0  6.560160710E+00  1.819755214E+00 -2.160196554E+01  2.314205334E+01  4.750000000E+00  0.00000E+00  9.000E+00
      -5     1     1     2     0   503  2.644870927E-01  1.470276623E+00 -1.482398721E+01  1.563792708E+01  4.750000000E+00  0.00000E+00  9.000E+00
      21     1     1     2   512   502  6.308452141E+00  1.357847088E+01 -1.225879556E+02  1.234989000E+02  0.000000000E+00  0.00000E+00  9.000E+00
#rwgt            1           9   1.9173068477275565E-003           5     1286182           0
</event>
<event>
      6   9999  3.45752E-01  8.74031E+00 -1.00000E+00  1.93571E-01
      21    -1     0     0   501   502  0.000000000E+00  0.000000000E+00  2.846568241E+03  2.846568241E+03  0.000000000E+00  0.00000E+00  9.000E+00
       2    -1     0     0   502     0  0.000000000E+00  0.000000000E+00 -4.291122825E+02  4.291122825E+02  0.000000000E+00  0.00000E+00  9.000E+00
      25     1     1     2     0     0 -1.033797410E+00 -1.138775328E+01  1.587664689E+03  1.592606113E+03  1.248371656E+02  0.00000E+00  9.000E+00
       5     1     1     2   501     0  2.180860034E-01  1.971015159E+00  1.118831684E+03  1.118843525E+03  4.750000000E+00  0.00000E+00  9.000E+00
      -5     1     1     2     0   503 -4.211736635E+00  1.656641168E+01  1.369783527E+02  1.381224686E+02  4.750000000E+00  0.00000E+00  9.000E+00
       2     1     1     2   503     0  5.027448042E+00 -7.149673558E+00 -4.260187672E+02  4.261084171E+02  1.427329020E-05  0.00000E+00  9.000E+00
#rwgt            1           9   5.0716299116109920E-002           5     1288687           0
</event>
<event>
      6   9999  3.45752E-01  2.35894E+01 -1.00000E+00  1.54925E-01
      21    -1     0     0   502   503  0.000000000E+00  0.000000000E+00  1.245218569E+01  1.245218569E+01  0.000000000E+00  0.00000E+00  9.000E+00
      21    -1     0     0   511   502  0.000000000E+00  0.000000000E+00 -5.690627529E+02  5.690627529E+02  0.000000000E+00  0.00000E+00  9.000E+00
      25     1     1     2     0     0 -4.319224394E+00  2.001209354E+01 -3.585900323E+02  3.803058316E+02  1.250062987E+02  0.00000E+00  9.000E+00
       5     1     1     2   501     0  2.381431944E+00  1.590517134E+00 -5.166200008E+01  5.195888485E+01  4.750000000E+00  0.00000E+00  9.000E+00
      -5     1     1     2     0   503  1.865933256E+00  1.986673945E+00 -2.177701752E+01  2.245505673E+01  4.750000000E+00  0.00000E+00  9.000E+00
      21     1     1     2   511   501  7.185919398E-02 -2.358928462E+01 -1.245815173E+02  1.267951654E+02  1.348699152E-06  0.00000E+00  9.000E+00
#rwgt            1           9  0.14692389841001058                5     1291068           0
</event>
<event>
      6   9999  3.45752E-01  2.01674E+01 -1.00000E+00  1.59935E-01
      21    -1     0     0   512   502  0.000000000E+00  0.000000000E+00  1.261485290E+01  1.261485290E+01  0.000000000E+00  0.00000E+00  9.000E+00
      21    -1     0     0   502   503  0.000000000E+00  0.000000000E+00 -2.570883693E+03  2.570883693E+03  0.000000000E+00  0.00000E+00  9.000E+00
      25     1     1     2     0     0 -2.060471824E+01 -2.646473703E+01 -2.074708824E+03  2.078741609E+03  1.250001360E+02  0.00000E+00  9.000E+00
       5     1     1     2   501     0 -1.047150317E+01  1.123080557E+00 -3.025754713E+00  1.194283803E+01  4.750000000E+00  0.00000E+00  9.000E+00
      -5     1     1     2     0   503  1.162180124E+01  3.065656238E+01 -4.677811804E+02  4.689527549E+02  4.750000000E+00  0.00000E+00  9.000E+00
      21     1     1     2   512   501  1.945442017E+01 -5.314905902E+00 -1.275308124E+01  2.386134468E+01  1.792108581E-06  0.00000E+00  9.000E+00
#rwgt            1           9  0.20880651876028544                5     1292304           0
</event>
<event>
      6   9999 -3.45752E-01  4.52960E+00 -1.00000E+00  2.37179E-01
      21    -1     0     0   502   503  0.000000000E+00  0.000000000E+00  8.206550625E+00  8.206550625E+00  0.000000000E+00  0.00000E+00  9.000E+00
      21    -1     0     0   511   502  0.000000000E+00  0.000000000E+00 -7.530713010E+02  7.530713010E+02  0.000000000E+00  0.00000E+00  9.000E+00
      25     1     1     2     0     0  7.266145628E+00 -5.301664542E+00 -5.225916090E+02  5.374090385E+02  1.250023210E+02  0.00000E+00  9.000E+00
       5     1     1     2   501     0 -9.575825549E+00  7.190287536E-01 -1.866788326E+02  1.869859954E+02  4.750000000E+00  0.00000E+00  9.000E+00
      -5     1     1     2     0   503  8.950664815E-01  2.796018681E-01 -1.385439465E+01  1.467603735E+01  4.750000000E+00  0.00000E+00  9.000E+00
      21     1     1     2   511   501  1.414613440E+00  4.303033920E+00 -2.173991403E+01  2.220678037E+01  4.129530925E-07  0.00000E+00  9.000E+00
#rwgt            1           9  -1.0477225173614777E-003           5     1293717           0
</event>
<event>
      6   9999  3.45752E-01  2.08134E+02 -1.00000E+00  1.08298E-01
      21    -1     0     0   512   502  0.000000000E+00  0.000000000E+00  8.412618946E+01  8.412618946E+01  0.000000000E+00  0.00000E+00  9.000E+00
      21    -1     0     0   502   503  0.000000000E+00  0.000000000E+00 -1.588390721E+03  1.588390721E+03  0.000000000E+00  0.00000E+00  9.000E+00
      25     1     1     2     0     0 -2.480296463E+02  1.000927113E+02 -1.011752063E+03  1.053947600E+03  1.250041975E+02  0.00000E+00  9.000E+00
       5     1     1     2   501     0  2.682801557E+01 -1.550776426E+01 -5.443669883E+00  3.181869284E+01  4.750000000E+00  0.00000E+00  9.000E+00
      -5     1     1     2     0   503  1.307227264E+01 -8.316919099E+01 -2.828807159E+02  2.951814028E+02  4.750000000E+00  0.00000E+00  9.000E+00
      21     1     1     2   512   501  2.081293581E+02 -1.415756085E+00 -2.041880826E+02  2.915692150E+02  3.814697266E-06  0.00000E+00  9.000E+00
#rwgt            1           9   3.9739629894362510E-003           5     1297617           0
</event>
<event>
      6   9999  3.45752E-01  5.99970E+00 -1.00000E+00  2.14061E-01
      21    -1     0     0   502   511  0.000000000E+00  0.000000000E+00  8.607261929E+01  8.607261929E+01  0.000000000E+00  0.00000E+00  9.000E+00
      21    -1     0     0   501   502  0.000000000E+00  0.000000000E+00 -4.231775821E+02  4.231775821E+02  0.000000000E+00  0.00000E+00  9.000E+00
      25     1     1     2     0     0  2.991425235E+00 -1.488473200E+01 -3.603704092E+02  3.817360490E+02  1.250003017E+02  0.00000E+00  9.000E+00
       5     1     1     2   501     0 -9.083752522E-01  1.633572335E+00 -8.923681479E+00  1.028048128E+01  4.750000000E+00  0.00000E+00  9.000E+00
      -5     1     1     2     0   503  3.506004897E+00  1.106967439E+01 -4.147229139E+01  4.332831885E+01  4.750000000E+00  0.00000E+00  9.000E+00
      21     1     1     2   503   511 -5.589054880E+00  2.181485276E+00  7.366141921E+01  7.390535226E+01  1.907348633E-06  0.00000E+00  9.000E+00
#rwgt            1           9   1032.5398879515751                5     1298458           0
</event>
<event>
      6   9999  3.45752E-01  7.68649E+01 -1.00000E+00  1.25500E-01
      21    -1     0     0   501   502  0.000000000E+00  0.000000000E+00  7.468750075E+01  7.468750075E+01  0.000000000E+00  0.00000E+00  9.000E+00
      21    -1     0     0   512   503  0.000000000E+00  0.000000000E+00 -1.896754579E+03  1.896754579E+03  0.000000000E+00  0.00000E+00  9.000E+00
      25     1     1     2     0     0  2.582669371E+02 -1.198242766E+02 -6.901307181E+02  7.569447434E+02  1.250010743E+02  0.00000E+00  9.000E+00
       5     1     1     2   501     0  2.329350834E+01  7.872856806E+01 -6.310924802E+01  1.036634682E+02  4.750000000E+00  0.00000E+00  9.000E+00
      -5     1     1     2     0   503 -2.198330302E+02 -4.707485013E+00 -8.775419554E+02  9.046829100E+02  4.750000000E+00  0.00000E+00  9.000E+00
      21     1     1     2   512   502 -6.172741517E+01  4.580319353E+01 -1.912851564E+02  2.061509577E+02  0.000000000E+00  0.00000E+00  9.000E+00
#rwgt            1           9   1.1470007292393399E-004           5     1301537           0
</event>
<event>
      6   9999  3.45752E-01  1.12297E+01 -1.00000E+00  1.82040E-01
      21    -1     0     0   511   502  0.000000000E+00  0.000000000E+00  3.376125830E+01  3.376125830E+01  0.000000000E+00  0.00000E+00  9.000E+00
      21    -1     0     0   502   503  0.000000000E+00  0.000000000E+00 -1.044170011E+03  1.044170011E+03  0.000000000E+00  0.00000E+00  9.000E+00
      25     1     1     2     0     0 -1.586767157E+00  6.972153663E+00 -9.742008319E+02  9.822131732E+02  1.249973114E+02  0.00000E+00  9.000E+00
       5     1     1     2   501     0  7.954681604E+00  3.704725763E+00  2.400922126E+01  2.600013765E+01  4.750000000E+00  0.00000E+00  9.000E+00
      -5     1     1     2     0   503  7.591757223E-01 -1.998739269E+00 -5.804732721E+01  5.828057998E+01  4.750000000E+00  0.00000E+00  9.000E+00
      21     1     1     2   511   501 -7.127090169E+00 -8.678140157E+00 -2.169814811E+00  1.143737851E+01  2.995096332E-07  0.00000E+00  9.000E+00
#rwgt            1           9  0.45054677761431977                5     1302463           0
</event>
<event>
      6   9999  3.45752E-01  1.76562E+01 -1.00000E+00  1.64455E-01
      21    -1     0     0   501   502  0.000000000E+00  0.000000000E+00  9.175292552E+01  9.175292552E+01  0.000000000E+00  0.00000E+00  9.000E+00
      21    -1     0     0   502   512  0.000000000E+00  0.000000000E+00 -1.892323823E+03  1.892323823E+03  0.000000000E+00  0.00000E+00  9.000E+00
      25     1     1     2     0     0 -8.399761085E+01 -1.960640086E+02 -1.259814466E+02  2.774756967E+02  1.249989730E+02  0.00000E+00  9.000E+00
       5     1     1     2   501     0 -6.097622139E-01 -2.848011104E+00  8.228364218E+00  9.937376661E+00  4.750000000E+00  0.00000E+00  9.000E+00
      -5     1     1     2     0   503  7.905954516E+01  1.821500406E+02 -1.537022015E+03  1.549802660E+03  4.750000000E+00  0.00000E+00  9.000E+00
      21     1     1     2   503   512  5.547827899E+00  1.676197909E+01 -1.457958006E+02  1.468610153E+02  0.000000000E+00  0.00000E+00  9.000E+00
#rwgt            1           9   4.9921637936743962E-004           5     1305622           0
</event>
<event>
      6   9999  3.45752E-01  1.06781E+01 -1.00000E+00  1.84241E-01
      21    -1     0     0   501   502  0.000000000E+00  0.000000000E+00  3.091970516E+01  3.091970516E+01  0.000000000E+00  0.00000E+00  9.000E+00
      21    -1     0     0   511   503  0.000000000E+00  0.000000000E+00 -5.837515035E+02  5.837515035E+02  0.000000000E+00  0.00000E+00  9.000E+00
      25     1     1     2     0     0 -3.804255346E+00  7.905266448E+00 -2.712511766E+02  2.987949937E+02  1.249971274E+02  0.00000E+00  9.000E+00
       5     1     1     2   501     0  2.383844024E+00  4.487802823E+00  1.569936108E+01  1.717135769E+01  4.750000000E+00  0.00000E+00  9.000E+00
      -5     1     1     2     0   503  2.750848873E+00 -1.798161523E+00 -1.301214989E+01  1.423654098E+01  4.750000000E+00  0.00000E+00  9.000E+00
      21     1     1     2   511   502 -1.330437551E+00 -1.059490775E+01 -2.842678329E+02  2.844683162E+02  3.814697266E-06  0.00000E+00  9.000E+00
#rwgt            1           9  0.11553844982211718                5     1309372           0
</event>
<event>
      6   9999  3.45752E-01  1.00268E+01 -1.00000E+00  1.87071E-01
      21    -1     0     0   501   502  0.000000000E+00  0.000000000E+00  2.773610404E+01  2.773610404E+01  0.000000000E+00  0.00000E+00  9.000E+00
      21    -1     0     0   512   503  0.000000000E+00  0.000000000E+00 -1.742841328E+03  1.742841328E+03  0.000000000E+00  0.00000E+00  9.000E+00
      25     1     1     2     0     0  1.885202382E+01  5.928517619E+01 -7.240863948E+02  7.374267502E+02  1.250078953E+02  0.00000E+00  9.000E+00
       5     1     1     2   501     0 -5.161312881E+00  2.972718441E+00  1.928906645E+01  2.073901613E+01  4.750000000E+00  0.00000E+00  9.000E+00
      -5     1     1     2     0   503 -7.881086594E+00 -5.408571135E+01 -8.882009669E+02  8.898937553E+02  4.750000000E+00  0.00000E+00  9.000E+00
      21     1     1     2   512   502 -5.809624347E+00 -8.172183276E+00 -1.221069283E+02  1.225179100E+02  1.348699152E-06  0.00000E+00  9.000E+00
#rwgt            1           9   2.4900316559118671E-003           5     1312249           0
</event>
<event>
      6   9999  3.45752E-01  1.04197E+01 -1.00000E+00  1.85332E-01
      21    -1     0     0   511   502  0.000000000E+00  0.000000000E+00  3.859577587E+01  3.859577587E+01  0.000000000E+00  0.00000E+00  9.000E+00
      21    -1     0     0   502   503  0.000000000E+00  0.000000000E+00 -1.234067730E+03  1.234067730E+03  0.000000000E+00  0.00000E+00  9.000E+00
      25     1     1     2     0     0  1.249120747E+02  4.347913508E+01 -7.086679993E+02  7.316613892E+02  1.249983749E+02  0.00000E+00  9.000E+00
       5     1     1     2   501     0  9.796754051E-01  1.770595123E+00  1.578075283E+01  1.660389806E+01  4.750000000E+00  0.00000E+00  9.000E+00
      -5     1     1     2     0   503 -1.263199358E+02 -5.566066007E+01 -4.808651409E+02  5.003085863E+02  4.750000000E+00  0.00000E+00  9.000E+00
      21     1     1     2   511   501  4.281856679E-01  1.041092987E+01 -2.171956684E+01  2.408963236E+01  5.840038640E-07  0.00000E+00  9.000E+00
#rwgt            1           9   3.7274071297281863E-004           5     1315911           0
</event>
<event>
      6   9999  3.45752E-01  3.96061E+00 -1.00000E+00  2.48743E-01
      21    -1     0     0   512   502  0.000000000E+00  0.000000000E+00  4.787216824E+01  4.787216824E+01  0.000000000E+00  0.00000E+00  9.000E+00
      21    -1     0     0   502   503  0.000000000E+00  0.000000000E+00 -9.590227430E+02  9.590227430E+02  0.000000000E+00  0.00000E+00  9.000E+00
      25     1     1     2     0     0 -8.833961043E+00  3.153136189E+01 -4.909456121E+02  5.076659441E+02  1.249994047E+02  0.00000E+00  9.000E+00
       5     1     1     2   501     0 -2.847227610E+00 -6.415059170E-01  8.421647315E+00  1.009974645E+01  4.750000000E+00  0.00000E+00  9.000E+00
      -5     1     1     2     0   503  9.078657839E+00 -3.387535994E+01 -4.580627070E+02  4.594278704E+02  4.750000000E+00  0.00000E+00  9.000E+00
      21     1     1     2   512   501  2.602530815E+00  2.985503967E+00  2.943609701E+01  2.970135027E+01  1.469710828E-06  0.00000E+00  9.000E+00
#rwgt            1           9   1.2088636753997543E-002           5     1319593           0
</event>
<event>
      6   9999  3.45752E-01  6.25238E+00 -1.00000E+00  2.11595E-01
      21    -1     0     0   501   511  0.000000000E+00  0.000000000E+00  3.178368349E+03  3.178368349E+03  0.000000000E+00  0.00000E+00  9.000E+00
      21    -1     0     0   502   503  0.000000000E+00  0.000000000E+00 -2.189095255E+00  2.189095255E+00  0.000000000E+00  0.00000E+00  9.000E+00
      25     1     1     2     0     0 -8.332761603E+00 -1.306796653E+01  2.104263853E+03  2.108030585E+03  1.250055016E+02  0.00000E+00  9.000E+00
       5     1     1     2   501     0 -5.488880628E-02 -1.415523194E+00  7.168927818E+02  7.169099175E+02  4.750000000E+00  0.00000E+00  9.000E+00
      -5     1     1     2     0   503  4.003795173E+00  1.002545225E+01  1.376285073E+02  1.381329381E+02  4.750000000E+00  0.00000E+00  9.000E+00
      21     1     1     2   502   511  4.383855237E+00  4.458037470E+00  2.173941109E+02  2.174840034E+02  2.697398305E-06  0.00000E+00  9.000E+00
#rwgt            1           9   6.9328095715759114E-004           5     1325064           0
</event>
<event>
      6   9999  3.45752E-01  3.17773E+01 -1.00000E+00  1.46239E-01
      21    -1     0     0   501   512  0.000000000E+00  0.000000000E+00  4.316540621E+01  4.316540621E+01  0.000000000E+00  0.00000E+00  9.000E+00
      21    -1     0     0   502   503  0.000000000E+00  0.000000000E+00 -1.546137571E+03  1.546137571E+03  0.000000000E+00  0.00000E+00  9.000E+00
      25     1     1     2     0     0 -6.880148853E+01 -1.622136734E+01 -1.418383162E+03  1.425633654E+03  1.249949750E+02  0.00000E+00  9.000E+00
       5     1     1     2   501     0 -1.044001390E+01  6.685401044E+00  2.458910251E+01  2.794413962E+01  4.750000000E+00  0.00000E+00  9.000E+00
      -5     1     1     2     0   503  4.793333755E+01  4.095658375E+00 -7.320804561E+01  8.772889894E+01  4.750000000E+00  0.00000E+00  9.000E+00
      21     1     1     2   502   512  3.130816487E+01  5.440307920E+00 -3.597005960E+01  4.799628450E+01  1.066240300E-06  0.00000E+00  9.000E+00
#rwgt            1           9   5.8660824685149472E-004           5     1328318           0
</event>
<event>
      6   9999  3.45752E-01  1.42207E+01 -1.00000E+00  1.72404E-01
       1    -1     0     0   501     0  0.000000000E+00  0.000000000E+00  1.368553208E+02  1.368553208E+02  0.000000000E+00  0.00000E+00  9.000E+00
      21    -1     0     0   502   503  0.000000000E+00  0.000000000E+00 -1.470911027E+03  1.470911027E+03  0.000000000E+00  0.00000E+00  9.000E+00
      25     1     1     2     0     0 -2.851868522E+01 -2.129708729E+01 -1.333806604E+03  1.340125831E+03  1.250212209E+02  0.00000E+00  9.000E+00
       5     1     1     2   501     0  7.004156775E+00 -1.204212973E+01  5.832060744E+01  6.014920492E+01  4.750000000E+00  0.00000E+00  9.000E+00
      -5     1     1     2     0   503  1.015368910E+01  2.478590189E+01 -1.309406144E+02  1.337364772E+02  4.750000000E+00  0.00000E+00  9.000E+00
       1     1     1     2   502     0  1.136083935E+01  8.553315133E+00  7.237090423E+01  7.375483475E+01  2.132480600E-06  0.00000E+00  9.000E+00
#rwgt            1           9   6.7968202334382034E-005           5     1330309           0
</event>
<event>
      6   9999  3.45752E-01  3.55650E+01 -1.00000E+00  1.43211E-01
      21    -1     0     0   501   511  0.000000000E+00  0.000000000E+00  1.190676061E+02  1.190676061E+02  0.000000000E+00  0.00000E+00  9.000E+00
      21    -1     0     0   502   503  0.000000000E+00  0.000000000E+00 -1.377981142E+03  1.377981142E+03  0.000000000E+00  0.00000E+00  9.000E+00
      25     1     1     2     0     0 -5.033379614E+01  8.906730397E+01 -8.120796427E+02  8.279881339E+02  1.249981127E+02  0.00000E+00  9.000E+00
       5     1     1     2   501     0  1.291055289E+01  1.076449847E+01  2.676438336E+01  3.196015519E+01  4.750000000E+00  0.00000E+00  9.000E+00
      -5     1     1     2     0   503  4.914262708E+01 -6.625317966E+01 -5.482333625E+02  5.544248045E+02  4.750000000E+00  0.00000E+00  9.000E+00
      21     1     1     2   502   511 -1.171938382E+01 -3.357862278E+01  7.463508570E+01  8.267565471E+01  2.861022949E-06  0.00000E+00  9.000E+00
#rwgt            1           9   3.2044214397309988E-003           5     1333792           0
</event>
<event>
      6   9999  3.45752E-01  6.21150E+00 -1.00000E+00  2.11983E-01
      21    -1     0     0   512   502  0.000000000E+00  0.000000000E+00  7.090440110E+01  7.090440110E+01  0.000000000E+00  0.00000E+00  9.000E+00
      21    -1     0     0   502   503  0.000000000E+00  0.000000000E+00 -8.707688002E+02  8.707688002E+02  0.000000000E+00  0.00000E+00  9.000E+00
      25     1     1     2     0     0  2.877113034E+01  2.065637361E+01 -6.609277942E+02  6.735742403E+02  1.249889769E+02  0.00000E+00  9.000E+00
       5     1     1     2   501     0  3.073040408E+00  4.302860683E-01  4.482776124E+00  7.230940826E+00  4.750000000E+00  0.00000E+00  9.000E+00
      -5     1     1     2     0   503 -2.576827228E+01 -1.979585603E+01 -2.006407597E+02  2.033104934E+02  4.750000000E+00  0.00000E+00  9.000E+00
      21     1     1     2   512   501 -6.075898466E+00 -1.290803644E+00  5.722137866E+01  5.755752680E+01  1.784161275E-06  0.00000E+00  9.000E+00
#rwgt            1           9   3.7863054030437353E-004           5     1335245           0
</event>
<event>
      6   9999  3.45752E-01  2.97392E+00 -1.00000E+00  2.77907E-01
      21    -1     0     0   501   511  0.000000000E+00  0.000000000E+00  7.286718375E+01  7.286718375E+01  0.000000000E+00  0.00000E+00  9.000E+00
      21    -1     0     0   502   503  0.000000000E+00  0.000000000E+00 -8.988559297E+02  8.988559297E+02  0.000000000E+00  0.00000E+00  9.000E+00
      25     1     1     2     0     0 -2.569252370E+00 -1.868902552E-01 -7.724802244E+02  7.825317206E+02  1.249942425E+02  0.00000E+00  9.000E+00
       5     1     1     2   501     0  3.228271030E+00  8.849309464E-01  9.131804851E+00  1.082391780E+01  4.750000000E+00  0.00000E+00  9.000E+00
      -5     1     1     2     0   503 -1.677972025E+00 -3.491952230E+00 -1.203876656E+02  1.205436098E+02  4.750000000E+00  0.00000E+00  9.000E+00
      21     1     1     2   502   511  1.018953365E+00  2.793911539E+00  5.774733924E+01  5.782386529E+01  1.507891493E-06  0.00000E+00  9.000E+00
#rwgt            1           9   1.3839268497536159E-003           5     1338641           0
</event>
<event>
      6   9999  3.45752E-01  5.94081E+00 -1.00000E+00  2.14659E-01
      21    -1     0     0   501   512  0.000000000E+00  0.000000000E+00  1.069646316E+03  1.069646316E+03  0.000000000E+00  0.00000E+00  9.000E+00
      21    -1     0     0   502   503  0.000000000E+00  0.000000000E+00 -3.605422721E+01  3.605422721E+01  0.000000000E+00  0.00000E+00  9.000E+00
      25     1     1     2     0     0  4.348986474E+00 -6.122612723E+01  1.821329606E+02  2.292702764E+02  1.249995679E+02  0.00000E+00  9.000E+00
       5     1     1     2   501     0 -1.991639739E+00 -2.797997233E+00  1.642846849E+02  1.643892199E+02  4.750000000E+00  0.00000E+00  9.000E+00
      -5     1     1     2     0   503 -4.043497770E+00  5.832762838E+01  5.684835699E+01  8.168696529E+01  4.750000000E+00  0.00000E+00  9.000E+00
      21     1     1     2   502   512  1.686151035E+00  5.696496085E+00  6.303260862E+02  6.303540816E+02  0.000000000E+00  0.00000E+00  9.000E+00
#rwgt            1           9   1.8876030345618313                5     1345524           0
</event>
<event>
      6   9999  3.45752E-01  1.21102E+01 -1.00000E+00  1.78840E-01
      21    -1     0     0   511   502  0.000000000E+00  0.000000000E+00  2.371251519E+01  2.371251519E+01  0.000000000E+00  0.00000E+00  9.000E+00
      21    -1     0     0   502   503  0.000000000E+00  0.000000000E+00 -9.711631342E+02  9.711631342E+02  0.000000000E+00  0.00000E+00  9.000E+00
      25     1     1     2     0     0  7.995891579E-01 -1.867638489E+01 -3.116556974E+02  3.363086281E+02  1.249990915E+02  0.00000E+00  9.000E+00
       5     1     1     2   501     0  2.861785604E+00  1.891830596E+00  4.820951335E+00  7.587681571E+00  4.750000000E+00  0.00000E+00  9.000E+00
      -5     1     1     2     0   503  8.348898365E+00  1.523193615E+01 -6.384172407E+02  6.386711609E+02  4.750000000E+00  0.00000E+00  9.000E+00
      21     1     1     2   511   501 -1.201027313E+01  1.552618144E+00 -2.198632199E+00  1.230817888E+01  5.960464478E-08  0.00000E+00  9.000E+00
#rwgt            1           9   2.7558994625078883E-003           5     1349918           0
</event>
<event>
      6   9999  3.45752E-01  6.60985E+00 -1.00000E+00  2.08365E-01
      21    -1     0     0   501   502  0.000000000E+00  0.000000000E+00  2.409471147E+03  2.409471147E+03  0.000000000E+00  0.00000E+00  9.000E+00
      21    -1     0     0   502   512  0.000000000E+00  0.000000000E+00 -9.783855729E+00  9.783855729E+00  0.000000000E+00  0.00000E+00  9.000E+00
      25     1     1     2     0     0 -4.884397719E+00  2.264613444E+01  4.909320582E+02  5.071488221E+02  1.250957121E+02  0.00000E+00  9.000E+00
       5     1     1     2   501     0 -4.435890901E+00 -1.652632322E+00  1.821834457E+03  1.821846800E+03  4.750000000E+00  0.00000E+00  9.000E+00
      -5     1     1     2     0   503  9.137722368E+00 -1.438617212E+01  6.484404146E+01  6.721437444E+01  4.750000000E+00  0.00000E+00  9.000E+00
      21     1     1     2   503   512  1.825662518E-01 -6.607329994E+00  2.207673381E+01  2.304500631E+01  5.840038640E-07  0.00000E+00  9.000E+00
#rwgt            1           9   6.2257681729578846E-004           5     1352498           0
</event>
<event>
      6   9999  3.45752E-01  1.09458E+01 -1.00000E+00  1.83152E-01
      21    -1     0     0   501   502  0.000000000E+00  0.000000000E+00  5.542768435E+02  5.542768435E+02  0.000000000E+00  0.00000E+00  9.000E+00
      21    -1     0     0   502   511  0.000000000E+00  0.000000000E+00 -5.265488071E+01  5.265488071E+01  0.000000000E+00  0.00000E+00  9.000E+00
      25     1     1     2     0     0 -1.008845611E+01 -2.407013914E+00  2.421264840E+02  2.726861726E+02  1.249997751E+02  0.00000E+00  9.000E+00
       5     1     1     2   501     0 -3.029191999E-01 -2.127165639E-01  2.813724546E+02  2.814127889E+02  4.750000000E+00  0.00000E+00  9.000E+00
      -5     1     1     2     0   503 -3.283175297E-01  4.062177874E-01  1.427839121E+01  1.505681775E+01  4.750000000E+00  0.00000E+00  9.000E+00
      21     1     1     2   503   511  1.071969284E+01  2.213512691E+00 -3.615536710E+01  3.777594504E+01  6.743495762E-07  0.00000E+00  9.000E+00
#rwgt            1           9   3.3639676831207698E-003           5     1356475           0
</event>
<event>
      6   9999  3.45752E-01  8.33588E+00 -1.00000E+00  1.95924E-01
      21    -1     0     0   501   512  0.000000000E+00  0.000000000E+00  9.843262588E+01  9.843262588E+01  0.000000000E+00  0.00000E+00  9.000E+00
      21    -1     0     0   502   503  0.000000000E+00  0.000000000E+00 -1.527132472E+03  1.527132472E+03  0.000000000E+00  0.00000E+00  9.000E+00
      25     1     1     2     0     0  4.219991553E+00 -2.120631059E-01 -9.299243367E+02  9.382973334E+02  1.249990421E+02  0.00000E+00  9.000E+00
       5     1     1     2   501     0 -1.039002224E+01  8.341603075E+00  7.166506121E+01  7.304778163E+01  4.750000000E+00  0.00000E+00  9.000E+00
      -5     1     1     2     0   503 -4.168317013E-01 -3.020703213E+00 -5.915227197E+02  5.915496504E+02  4.750000000E+00  0.00000E+00  9.000E+00
      21     1     1     2   502   512  6.586862389E+00 -5.108836756E+00  2.108214905E+01  2.267033255E+01  4.768371582E-07  0.00000E+00  9.000E+00
#rwgt            1           9   4.5900393632858725E-003           5     1358736           0
</event>
<event>
      6   9999  3.45752E-01  1.39119E+01 -1.00000E+00  1.73255E-01
      21    -1     0     0   511   502  0.000000000E+00  0.000000000E+00  6.336908423E+01  6.336908423E+01  0.000000000E+00  0.00000E+00  9.000E+00
      21    -1     0     0   502   503  0.000000000E+00  0.000000000E+00 -3.483921260E+02  3.483921260E+02  0.000000000E+00  0.00000E+00  9.000E+00
      25     1     1     2     0     0 -1.060115937E+02  3.653993333E+01 -2.038354674E+02  2.640975697E+02  1.250000152E+02  0.00000E+00  9.000E+00
       5     1     1     2   501     0  2.283074318E+01 -2.336983447E+01 -1.641448052E+01  3.686990193E+01  4.750000000E+00  0.00000E+00  9.000E+00
      -5     1     1     2     0   503  7.348903436E+01 -3.189683492E+00 -6.261365145E+01  9.671527335E+01  4.750000000E+00  0.00000E+00  9.000E+00
      21     1     1     2   511   501  9.691816199E+00 -9.980415363E+00 -2.159442344E+00  1.407846523E+01  2.995096332E-07  0.00000E+00  9.000E+00
#rwgt            1           9   6.9072989355458846E-004           5     1364019           0
</event>
<event>
      6   9999  3.45752E-01  1.40805E+01 -1.00000E+00  1.72787E-01
      21    -1     0     0   501   502  0.000000000E+00  0.000000000E+00  2.527197574E+01  2.527197574E+01  0.000000000E+00  0.00000E+00  9.000E+00
      21    -1     0     0   502   512  0.000000000E+00  0.000000000E+00 -1.169005228E+03  1.169005228E+03  0.000000000E+00  0.00000E+00  9.000E+00
      25     1     1     2     0     0 -3.396555176E-01 -7.714521706E+00 -9.569007938E+02  9.650622530E+02  1.250055747E+02  0.00000E+00  9.000E+00
       5     1     1     2   501     0 -7.055269265E+00  1.089082061E+01  1.808172688E+01  2.275737562E+01  4.750000000E+00  0.00000E+00  9.000E+00
      -5     1     1     2     0   503 -1.020787061E+00  8.112478808E+00 -1.211236129E+02  1.214921661E+02  4.750000000E+00  0.00000E+00  9.000E+00
      21     1     1     2   503   512  8.415711843E+00 -1.128877771E+01 -8.379057260E+01  8.496540923E+01  0.000000000E+00  0.00000E+00  9.000E+00
#rwgt            1           9   5.8891315783096200E-004           5     1366311           0
</event>
<event>
      6   9999  3.45752E-01  7.47643E+00 -1.00000E+00  2.01560E-01
      21    -1     0     0   501   502  0.000000000E+00  0.000000000E+00  8.474029717E+01  8.474029717E+01  0.000000000E+00  0.00000E+00  9.000E+00
      21    -1     0     0   511   503  0.000000000E+00  0.000000000E+00 -1.650876459E+03  1.650876459E+03  0.000000000E+00  0.00000E+00  9.000E+00
      25     1     1     2     0     0 -1.769271855E+01  1.008951226E+02 -1.386297588E+02  2.129236783E+02  1.250016987E+02  0.00000E+00  9.000E+00
       5     1     1     2   501     0 -3.220585192E+00 -3.413709374E+00  4.514107046E+01  4.563227282E+01  4.750000000E+00  0.00000E+00  9.000E+00
      -5     1     1     2     0   503  2.640316093E+01 -1.025566992E+02 -1.330235899E+03  1.334453114E+03  4.750000000E+00  0.00000E+00  9.000E+00
      21     1     1     2   511   502 -5.489857191E+00  5.075285986E+00 -1.424115747E+02  1.426076915E+02  0.000000000E+00  0.00000E+00  9.000E+00
#rwgt            1           9   5.3654307628776590E-005           5     1369238           0
</event>
<event>
      6   9999  3.45752E-01  2.68070E+01 -1.00000E+00  1.51071E-01
      21    -1     0     0   501   512  0.000000000E+00  0.000000000E+00  8.022519327E+00  8.022519327E+00  0.000000000E+00  0.00000E+00  9.000E+00
      21    -1     0     0   502   503  0.000000000E+00  0.000000000E+00 -1.457745275E+03  1.457745275E+03  0.000000000E+00  0.00000E+00  9.000E+00
      25     1     1     2     0     0 -2.842471298E+01 -2.632778927E+01 -8.334504255E+02  8.436621788E+02  1.250005734E+02  0.00000E+00  9.000E+00
       5     1     1     2   501     0 -3.333127675E-01 -3.047357315E+00 -4.352058739E+00  7.134451575E+00  4.750000000E+00  0.00000E+00  9.000E+00
      -5     1     1     2     0   503  2.369868306E+01  3.049923271E+00 -4.641607019E+02  4.647995797E+02  4.750000000E+00  0.00000E+00  9.000E+00
      21     1     1     2   502   512  5.059342684E+00  2.632522331E+01 -1.477595697E+02  1.501715844E+02  1.907348633E-06  0.00000E+00  9.000E+00
#rwgt            1           9   8.9800908559462195E-004           5     1374998           0
</event>
<event>
      6   9999  3.45752E-01  1.57672E+01 -1.00000E+00  1.68515E-01
      21    -1     0     0   511   502  0.000000000E+00  0.000000000E+00  8.846095856E+02  8.846095856E+02  0.000000000E+00  0.00000E+00  9.000E+00
      21    -1     0     0   502   503  0.000000000E+00  0.000000000E+00 -1.381165650E+01  1.381165650E+01  0.000000000E+00  0.00000E+00  9.000E+00
      25     1     1     2     0     0 -2.087470591E+00 -1.448654142E+01  2.870278171E+02  3.134067037E+02  1.249983069E+02  0.00000E+00  9.000E+00
       5     1     1     2   501     0  6.582985355E-01 -2.549127281E+00  3.531909522E+02  3.532327032E+02  4.750000000E+00  0.00000E+00  9.000E+00
      -5     1     1     2     0   503 -1.306947324E+00  1.507652801E+00  2.148723554E+01  2.209626483E+01  4.750000000E+00  0.00000E+00  9.000E+00
      21     1     1     2   511   501  2.736119380E+00  1.552801590E+01  2.090919242E+02  2.096855703E+02  3.814697266E-06  0.00000E+00  9.000E+00
#rwgt            1           9   5.0140973189638811E-005           5     1376129           0
</event>
<event>
      6   9999  3.45752E-01  2.18130E+01 -1.00000E+00  1.57386E-01
      21    -1     0     0   501   502  0.000000000E+00  0.000000000E+00  1.798544759E+01  1.798544759E+01  0.000000000E+00  0.00000E+00  9.000E+00
      21    -1     0     0   502   512  0.000000000E+00  0.000000000E+00 -1.033198701E+03  1.033198701E+03  0.000000000E+00  0.00000E+00  9.000E+00
      25     1     1     2     0     0 -5.437427976E+01 -4.861684699E+01 -7.430305956E+02  7.569936465E+02  1.249990192E+02  0.00000E+00  9.000E+00
       5     1     1     2   501     0 -5.671862016E-01 -3.329645896E+00  4.455097064E+00  7.336118308E+00  4.750000000E+00  0.00000E+00  9.000E+00
      -5     1     1     2     0   503  3.959588971E+01  3.644429095E+01 -1.929022512E+02  2.003243915E+02  4.750000000E+00  0.00000E+00  9.000E+00
      21     1     1     2   503   512  1.534557626E+01  1.550220193E+01 -8.373550382E+01  8.652999235E+01  9.536743164E-07  0.00000E+00  9.000E+00
#rwgt            1           9   2.0859634371136176E-003           5     1378628           0
</event>
<event>
      6   9999  3.45752E-01  6.75107E+01 -1.00000E+00  1.28161E-01
      21    -1     0     0   502   503  0.000000000E+00  0.000000000E+00  4.616229357E+01  4.616229357E+01  0.000000000E+00  0.00000E+00  9.000E+00
      21    -1     0     0   501   511  0.000000000E+00  0.000000000E+00 -6.945580418E+02  6.945580418E+02  0.000000000E+00  0.00000E+00  9.000E+00
      25     1     1     2     0     0 -1.264703788E+01 -1.938300852E+01 -4.806820829E+02  4.972077170E+02  1.249984018E+02  0.00000E+00  9.000E+00
       5     1     1     2   501     0 -1.734739875E+00  3.516792414E+00  3.347480928E+00  7.010369454E+00  4.750000000E+00  0.00000E+00  9.000E+00
      -5     1     1     2     0   503 -8.236898341E+00  7.947506431E+01 -4.092608738E+01  8.989793919E+01  4.750000000E+00  0.00000E+00  9.000E+00
      21     1     1     2   502   511  2.261867609E+01 -6.360884820E+01 -1.301350589E+02  1.466043097E+02  1.907348633E-06  0.00000E+00  9.000E+00
#rwgt            1           9   9.5056970915538864E-005           5     1380238           0
</event>
<event>
      6   9999  3.45752E-01  1.14910E+01 -1.00000E+00  1.81052E-01
      21    -1     0     0   502   512  0.000000000E+00  0.000000000E+00  5.511880763E+01  5.511880763E+01  0.000000000E+00  0.00000E+00  9.000E+00
      21    -1     0     0   501   502  0.000000000E+00  0.000000000E+00 -9.841691054E+01  9.841691054E+01  0.000000000E+00  0.00000E+00  9.000E+00
      25     1     1     2     0     0  1.712791922E+00 -1.222901777E+01 -3.668060897E+01  1.308219202E+02  1.249656961E+02  0.00000E+00  9.000E+00
       5     1     1     2   501     0 -8.385273886E-02  1.690303294E+00 -3.381856642E+00  6.071541061E+00  4.750000000E+00  0.00000E+00  9.000E+00
      -5     1     1     2     0   503 -1.072235178E-01 -8.510709523E-01 -1.177911390E+00  4.968480038E+00  4.750000000E+00  0.00000E+00  9.000E+00
      21     1     1     2   503   512 -1.521715665E+00  1.138978542E+01 -2.057725907E+00  1.167377687E+01  2.980232239E-08  0.00000E+00  9.000E+00
#rwgt            1           9   6.6683577431473945E-004           5     1380830           0
</event>
<event>
      6   9999  3.45752E-01  9.16674E+00 -1.00000E+00  1.91264E-01
       1    -1     0     0   501     0  0.000000000E+00  0.000000000E+00  1.778915003E+03  1.778915003E+03  0.000000000E+00  0.00000E+00  9.000E+00
      21    -1     0     0   502   503  0.000000000E+00  0.000000000E+00 -9.970280934E+02  9.970280934E+02  0.000000000E+00  0.00000E+00  9.000E+00
      25     1     1     2     0     0 -2.830281818E+00  4.913575238E+00 -8.280050334E+02  8.374063088E+02  1.249993477E+02  0.00000E+00  9.000E+00
       5     1     1     2   501     0  5.042301951E+00  1.865385422E-02  1.512890943E+01  1.663945785E+01  4.750000000E+00  0.00000E+00  9.000E+00
      -5     1     1     2     0   503  5.019261713E+00  7.013892785E-01 -1.634814524E+02  1.636289483E+02  4.750000000E+00  0.00000E+00  9.000E+00
       1     1     1     2   502     0 -7.231281846E+00 -5.633618371E+00  1.758244486E+03  1.758268382E+03  2.157918644E-05  0.00000E+00  9.000E+00
#rwgt            1           9   6.2837506872681734E-002           5     1382652           0
</event>
<event>
      6   9999  3.45752E-01  9.87032E+00 -1.00000E+00  1.87793E-01
      21    -1     0     0   501   502  0.000000000E+00  0.000000000E+00  1.982898666E+01  1.982898666E+01  0.000000000E+00  0.00000E+00  9.000E+00
      21    -1     0     0   511   503  0.000000000E+00  0.000000000E+00 -4.715249018E+02  4.715249018E+02  0.000000000E+00  0.00000E+00  9.000E+00
      25     1     1     2     0     0  6.896856236E+00 -6.852430637E+00 -2.856970739E+02  3.119959256E+02  1.249964685E+02  0.00000E+00  9.000E+00
       5     1     1     2   501     0 -4.450936906E-01 -1.151497277E+00  4.315945626E+00  6.535590334E+00  4.750000000E+00  0.00000E+00  9.000E+00
      -5     1     1     2     0   503 -2.680334175E+00 -1.117445595E+00 -5.901741123E+00  8.113317708E+00  4.750000000E+00  0.00000E+00  9.000E+00
      21     1     1     2   511   502 -3.771428371E+00  9.121373509E+00 -1.644130457E+02  1.647090548E+02  1.907348633E-06  0.00000E+00  9.000E+00
#rwgt            1           9   3.1825772596007982E-004           5     1386056           0
</event>
<event>
      6   9999  3.45752E-01  1.28843E+01 -1.00000E+00  1.76300E-01
      21    -1     0     0   501   502  0.000000000E+00  0.000000000E+00  4.040508967E+01  4.040508967E+01  0.000000000E+00  0.00000E+00  9.000E+00
      21    -1     0     0   502   512  0.000000000E+00  0.000000000E+00 -1.511442836E+03  1.511442836E+03  0.000000000E+00  0.00000E+00  9.000E+00
      25     1     1     2     0     0  1.021559500E+02  9.257838909E+01 -8.430004306E+02  8.632965832E+02  1.249986736E+02  0.00000E+00  9.000E+00
       5     1     1     2   501     0 -2.397065697E+00 -5.707662765E+00  2.021538381E+01  2.166904660E+01  4.750000000E+00  0.00000E+00  9.000E+00
      -5     1     1     2     0   503 -8.954860978E+01 -9.472918123E+01 -4.585432156E+02  4.767357910E+02  4.750000000E+00  0.00000E+00  9.000E+00
      21     1     1     2   503   512 -1.021027457E+01  7.858454898E+00 -1.897094843E+02  1.901465052E+02  0.000000000E+00  0.00000E+00  9.000E+00
#rwgt            1           9   1.8652065762073475E-004           5     1388854           0
</event>
<event>
      6   9999  3.45752E-01  1.32986E+01 -1.00000E+00  1.75031E-01
      21    -1     0     0   502   511  0.000000000E+00  0.000000000E+00  5.466963828E+01  5.466963828E+01  0.000000000E+00  0.00000E+00  9.000E+00
      21    -1     0     0   501   502  0.000000000E+00  0.000000000E+00 -4.167610140E+02  4.167610140E+02  0.000000000E+00  0.00000E+00  9.000E+00
      25     1     1     2     0     0  4.066763081E+01 -8.105887942E+01 -1.839422926E+02  2.401753115E+02  1.250000605E+02  0.00000E+00  9.000E+00
       5     1     1     2   501     0  1.064354838E+00  3.615183768E+00 -9.585435033E+00  1.134219863E+01  4.750000000E+00  0.00000E+00  9.000E+00
      -5     1     1     2     0   503 -3.215660603E+01  8.667213932E+01 -1.799780800E+02  2.023876943E+02  4.750000000E+00  0.00000E+00  9.000E+00
      21     1     1     2   503   511 -9.575379622E+00 -9.228443668E+00  1.141443188E+01  1.752544785E+01  2.384185791E-07  0.00000E+00  9.000E+00
#rwgt            1           9   8.9556944174280361E-004           5     1392063           0
</event>
<event>
      6   9999  3.45752E-01  1.41340E+02 -1.00000E+00  1.14378E-01
      21    -1     0     0   512   502  0.000000000E+00  0.000000000E+00  1.186837284E+02  1.186837284E+02  0.000000000E+00  0.00000E+00  9.000E+00
       1    -1     0     0   501     0  0.000000000E+00  0.000000000E+00 -5.867547162E+02  5.867547162E+02  0.000000000E+00  0.00000E+00  9.000E+00
      25     1     1     2     0     0 -7.505456482E+01  1.267059459E+02 -1.505783521E+02  2.449213448E+02  1.250001623E+02  0.00000E+00  9.000E+00
       5     1     1     2   501     0 -6.738785890E+00  6.494992832E+00  9.461691017E+00  1.413089750E+01  4.750000000E+00  0.00000E+00  9.000E+00
      -5     1     1     2     0   502 -2.005457381E+01 -3.520103235E+01  3.754733308E+01  5.544062888E+01  4.750000000E+00  0.00000E+00  9.000E+00
       1     1     1     2   512     0  1.018479245E+02 -9.799990640E+01 -3.645016598E+02  3.909455734E+02  7.629394531E-06  0.00000E+00  9.000E+00
#rwgt            1           1   1.1474085168120846E-005           5     1394987           0
</event>
<event>
      6   9999  3.45752E-01  9.00297E+00 -1.00000E+00  1.92130E-01
      21    -1     0     0   502   503  0.000000000E+00  0.000000000E+00  9.108675646E+00  9.108675646E+00  0.000000000E+00  0.00000E+00  9.000E+00
       1    -1     0     0   501     0  0.000000000E+00  0.000000000E+00 -1.819660643E+03  1.819660643E+03  0.000000000E+00  0.00000E+00  9.000E+00
      25     1     1     2     0     0  2.552890820E+01 -9.151828971E+00 -6.137249827E+02  6.269114376E+02  1.249964603E+02  0.00000E+00  9.000E+00
       5     1     1     2   501     0 -2.361869781E+01 -9.374508740E+00 -1.045337268E+02  1.076828066E+02  4.750000000E+00  0.00000E+00  9.000E+00
      -5     1     1     2     0   503  2.217217089E+00  1.052522290E+01 -3.657873868E+01  3.842216798E+01  4.750000000E+00  0.00000E+00  9.000E+00
       1     1     1     2   502     0 -4.127427481E+00  8.001114809E+00 -1.055714520E+03  1.055752907E+03  1.525878906E-05  0.00000E+00  9.000E+00
#rwgt            1           9   3.2833826578123178E-002           5     1395032           0
</event>
<event>
      6   9999  3.45752E-01  1.50773E+01 -1.00000E+00  1.70178E-01
      21    -1     0     0   501   502  0.000000000E+00  0.000000000E+00  1.243067871E+01  1.243067871E+01  0.000000000E+00  0.00000E+00  9.000E+00
      21    -1     0     0   511   503  0.000000000E+00  0.000000000E+00 -1.143208721E+03  1.143208721E+03  0.000000000E+00  0.00000E+00  9.000E+00
      25     1     1     2     0     0  3.665329139E+01 -2.625363680E+01 -5.991923074E+02  6.137515465E+02  1.250072893E+02  0.00000E+00  9.000E+00
       5     1     1     2   501     0  1.138129905E+00  9.227123025E-01 -7.585304702E-01  5.028380072E+00  4.750000000E+00  0.00000E+00  9.000E+00
      -5     1     1     2     0   503 -2.306171683E+01  2.854969190E+01 -1.160345173E+02  1.217928544E+02  4.750000000E+00  0.00000E+00  9.000E+00
      21     1     1     2   511   502 -1.472970446E+01 -3.218767409E+00 -4.147926876E+02  4.150666191E+02  0.000000000E+00  0.00000E+00  9.000E+00
#rwgt            1           9  0.13817900660251711                5     1397831           0
</event>
<event>
      6   9999  3.45752E-01  4.11887E+00 -1.00000E+00  2.45247E-01
      21    -1     0     0   501   512  0.000000000E+00  0.000000000E+00  8.802886053E+01  8.802886053E+01  0.000000000E+00  0.00000E+00  9.000E+00
      21    -1     0     0   502   503  0.000000000E+00  0.000000000E+00 -3.570417063E+02  3.570417063E+02  0.000000000E+00  0.00000E+00  9.000E+00
      25     1     1     2     0     0  1.637305366E+01  1.199374154E+01 -2.766943454E+02  3.042951234E+02  1.249953385E+02  0.00000E+00  9.000E+00
       5     1     1     2   501     0 -1.290947256E+00  6.336175071E-02  6.856324536E+00  8.440512169E+00  4.750000000E+00  0.00000E+00  9.000E+00
      -5     1     1     2     0   503 -1.435619421E+01 -8.002710091E+00 -6.457612624E+01  6.680405872E+01  4.750000000E+00  0.00000E+00  9.000E+00
      21     1     1     2   502   512 -7.259121914E-01 -4.054393198E+00  6.540130126E+01  6.553087257E+01  9.536743164E-07  0.00000E+00  9.000E+00
#rwgt            1           9   4.1169487728619236                5     1400136           0
</event>
<event>
      6   9999  3.45752E-01  2.75500E+01 -1.00000E+00  1.50272E-01
      21    -1     0     0   501   511  0.000000000E+00  0.000000000E+00  1.418763693E+02  1.418763693E+02  0.000000000E+00  0.00000E+00  9.000E+00
      21    -1     0     0   502   503  0.000000000E+00  0.000000000E+00 -2.415748158E+02  2.415748158E+02  0.000000000E+00  0.00000E+00  9.000E+00
      25     1     1     2     0     0 -1.364026102E+01 -1.558154528E+01 -2.066261623E+02  2.423855405E+02  1.250101516E+02  0.00000E+00  9.000E+00
       5     1     1     2   501     0 -1.209879508E+00 -4.330536890E+00  1.063192318E+02  1.065202277E+02  4.750000000E+00  0.00000E+00  9.000E+00
      -5     1     1     2     0   503  8.007259639E-01 -3.786378798E+00 -2.889582064E+00  6.774216632E+00  4.750000000E+00  0.00000E+00  9.000E+00
      21     1     1     2   502   511  1.404941456E+01  2.369846097E+01  3.498066102E+00  2.777120034E+01  7.090197357E-07  0.00000E+00  9.000E+00
#rwgt            1           9   8.8285825851687275E-003           5     1404762           0
</event>
<event>
      6   9999  3.45752E-01  9.66379E+00 -1.00000E+00  1.88772E-01
      21    -1     0     0   512   502  0.000000000E+00  0.000000000E+00  6.935826504E+01  6.935826504E+01  0.000000000E+00  0.00000E+00  9.000E+00
      21    -1     0     0   502   503  0.000000000E+00  0.000000000E+00 -1.091168941E+02  1.091168941E+02  0.000000000E+00  0.00000E+00  9.000E+00
      25     1     1     2     0     0  9.430113572E+00  2.188528693E+01 -5.754537700E+01  1.396572476E+02  1.249991343E+02  0.00000E+00  9.000E+00
       5     1     1     2   501     0 -4.022754256E-01  1.058919087E+00  7.255426544E+00  8.745676045E+00  4.750000000E+00  0.00000E+00  9.000E+00
      -5     1     1     2     0   503 -9.339111021E+00 -1.328543398E+01  1.742174455E+00  1.700939219E+01  4.750000000E+00  0.00000E+00  9.000E+00
      21     1     1     2   512   501  3.112728743E-01 -9.658772036E+00  8.789146983E+00  1.306284321E+01  0.000000000E+00  0.00000E+00  9.000E+00
#rwgt            1           9  0.48267618804038726                5     1406561           0
</event>
<event>
      6   9999  3.45752E-01  5.94137E+00 -1.00000E+00  2.14654E-01
      21    -1     0     0   501   511  0.000000000E+00  0.000000000E+00  3.227534585E+03  3.227534585E+03  0.000000000E+00  0.00000E+00  9.000E+00
      21    -1     0     0   502   503  0.000000000E+00  0.000000000E+00 -2.138572524E+00  2.138572524E+00  0.000000000E+00  0.00000E+00  9.000E+00
      25     1     1     2     0     0  6.257160767E+00 -3.074471212E+00  2.339293596E+03  2.342640295E+03  1.249816740E+02  0.00000E+00  9.000E+00
       5     1     1     2   501     0  1.612779560E-01  3.406840557E-01  6.112620439E+02  6.112806155E+02  4.750000000E+00  0.00000E+00  9.000E+00
      -5     1     1     2     0   503 -2.010006745E+00 -1.249384278E+00  1.627022193E+01  1.711384556E+01  4.750000000E+00  0.00000E+00  9.000E+00
      21     1     1     2   502   511 -4.408431978E+00  3.983171434E+00  2.585701505E+02  2.586384014E+02  3.814697266E-06  0.00000E+00  9.000E+00
#rwgt            1           9   4.2496377285552799E-004           5     1408662           0
</event>
<event>
      6   9999  3.45752E-01  2.55213E+00 -1.00000E+00  2.96666E-01
      21    -1     0     0   501   512  0.000000000E+00  0.000000000E+00  1.725044246E+01  1.725044246E+01  0.000000000E+00  0.00000E+00  9.000E+00
      21    -1     0     0   502   503  0.000000000E+00  0.000000000E+00 -8.746057677E+02  8.746057677E+02  0.000000000E+00  0.00000E+00  9.000E+00
      25     1     1     2     0     0 -1.706308846E+00  2.254322071E+01 -4.036047743E+02  4.231220063E+02  1.249972402E+02  0.00000E+00  9.000E+00
       5     1     1     2   501     0  1.338144932E+00  1.235361398E+00  1.903463386E+00  5.431613251E+00  4.750000000E+00  0.00000E+00  9.000E+00
      -5     1     1     2     0   503  2.730753788E+00 -2.281340818E+01 -4.587164811E+02  4.593161016E+02  4.750000000E+00  0.00000E+00  9.000E+00
      21     1     1     2   502   512 -2.362589874E+00 -9.651739309E-01  3.062466843E+00  3.986489031E+00  2.980232239E-07  0.00000E+00  9.000E+00
#rwgt            1           9   2.1536744798146884E-004           5     1412024           0
</event>
<event>
      6   9999  3.45752E-01  2.19430E+01 -1.00000E+00  1.57197E-01
      21    -1     0     0   511   502  0.000000000E+00  0.000000000E+00  3.586935874E+01  3.586935874E+01  0.000000000E+00  0.00000E+00  9.000E+00
      21    -1     0     0   502   503  0.000000000E+00  0.000000000E+00 -1.818487931E+03  1.818487931E+03  0.000000000E+00  0.00000E+00  9.000E+00
      25     1     1     2     0     0 -1.495441141E+01 -9.735620589E+00 -1.589104558E+03  1.594113328E+03  1.250023539E+02  0.00000E+00  9.000E+00
       5     1     1     2   501     0  3.545033692E+00 -7.589852065E+00  1.925215254E+01  2.152628615E+01  4.750000000E+00  0.00000E+00  9.000E+00
      -5     1     1     2     0   503 -1.841907715E+00 -1.644811761E-01 -2.164135840E+02  2.164736047E+02  4.750000000E+00  0.00000E+00  9.000E+00
      21     1     1     2   511   501  1.325128543E+01  1.748995383E+01  3.647417266E+00  2.224407119E+01  1.025477084E-06  0.00000E+00  9.000E+00
#rwgt            1           9   5.4199228335001055E-003           5     1419130           0
</event>
<event>
      6   9999  3.45752E-01  3.14398E+00 -1.00000E+00  2.71693E-01
      -1    -1     0     0     0   502  0.000000000E+00  0.000000000E+00  8.991027758E+02  8.991027758E+02  0.000000000E+00  0.00000E+00  9.000E+00
      21    -1     0     0   502   503  0.000000000E+00  0.000000000E+00 -7.194552069E+02  7.194552069E+02  0.000000000E+00  0.00000E+00  9.000E+00
      25     1     1     2     0     0  2.694028662E+00 -1.488068301E+01 -5.585513543E+02  5.725426194E+02  1.248869212E+02  0.00000E+00  9.000E+00
       5     1     1     2   501     0  2.444042087E-01 -1.179648089E-02 -2.778292364E+00  5.508292025E+00  4.750000000E+00  0.00000E+00  9.000E+00
      -5     1     1     2     0   503 -5.609004554E+00  1.323335791E+01 -1.493796371E+02  1.501446675E+02  4.750000000E+00  0.00000E+00  9.000E+00
      -1     1     1     2     0   501  2.670571683E+00  1.659121585E+00  8.903568528E+02  8.903624037E+02  1.078959322E-05  0.00000E+00  9.000E+00
#rwgt            1           9   1.5595381582390143E-002           5     1421414           0
</event>
<event>
      6   9999  3.45752E-01  4.29330E+00 -1.00000E+00  2.41656E-01
      21    -1     0     0   511   502  0.000000000E+00  0.000000000E+00  5.376480980E+00  5.376480980E+00  0.000000000E+00  0.00000E+00  9.000E+00
      21    -1     0     0   502   503  0.000000000E+00  0.000000000E+00 -1.226222221E+03  1.226222221E+03  0.000000000E+00  0.00000E+00  9.000E+00
      25     1     1     2     0     0  5.217055089E-01 -3.454917640E+00 -1.086759454E+03  1.093930084E+03  1.249988424E+02  0.00000E+00  9.000E+00
       5     1     1     2   501     0  7.975842134E-01 -4.042634642E-01 -3.497388684E+00  5.966053732E+00  4.750000000E+00  0.00000E+00  9.000E+00
      -5     1     1     2     0   503  1.082651934E+00  7.417708826E+00 -1.192228660E+02  1.195527031E+02  4.750000000E+00  0.00000E+00  9.000E+00
      21     1     1     2   511   501 -2.401941656E+00 -3.558527721E+00 -1.136603212E+01  1.214986130E+01  3.371747881E-07  0.00000E+00  9.000E+00
#rwgt            1           9   5.7011986747782760E-002           5     1426241           0
</event>
<event>
      6   9999  3.45752E-01  6.38748E+00 -1.00000E+00  2.10341E-01
      21    -1     0     0   502   512  0.000000000E+00  0.000000000E+00  1.199967327E+01  1.199967327E+01  0.000000000E+00  0.00000E+00  9.000E+00
      21    -1     0     0   501   502  0.000000000E+00  0.000000000E+00 -8.946040438E+02  8.946040438E+02  0.000000000E+00  0.00000E+00  9.000E+00
      25     1     1     2     0     0  4.031143298E+00  4.775128731E+01 -5.837944420E+02  5.989472964E+02  1.250019110E+02  0.00000E+00  9.000E+00
       5     1     1     2   501     0 -9.787953114E+00 -4.457832063E+01 -2.795855095E+02  2.833260495E+02  4.750000000E+00  0.00000E+00  9.000E+00
      -5     1     1     2     0   503  2.469103921E-01  5.827505695E-02 -1.686186338E+01  1.751996853E+01  4.750000000E+00  0.00000E+00  9.000E+00
      21     1     1     2   503   512  5.509899424E+00 -3.231241730E+00 -2.362555581E+00  6.810402606E+00  2.874031890E-07  0.00000E+00  9.000E+00
#rwgt            1           9   1.8457801822661463E-002           5     1430614           0
</event>
<event>
      6   9999  3.45752E-01  2.45498E+01 -1.00000E+00  1.53700E-01
      21    -1     0     0   501   502  0.000000000E+00  0.000000000E+00  7.105178668E+01  7.105178668E+01  0.000000000E+00  0.00000E+00  9.000E+00
      21    -1     0     0   502   511  0.000000000E+00  0.000000000E+00 -1.270258791E+02  1.270258791E+02  0.000000000E+00  0.00000E+00  9.000E+00
      25     1     1     2     0     0 -2.119403678E+01 -4.692820474E+00 -3.946190169E+01  1.328694623E+02  1.250033702E+02  0.00000E+00  9.000E+00
       5     1     1     2   501     0 -3.466776468E+00  3.761776784E-01  1.357783182E+01  1.480135351E+01  4.750000000E+00  0.00000E+00  9.000E+00
      -5     1     1     2     0   503  2.197933780E-01  6.625339117E+00  3.439354740E+00  8.850711190E+00  4.750000000E+00  0.00000E+00  9.000E+00
      21     1     1     2   503   511  2.444101987E+01 -2.308696321E+00 -3.352937732E+01  4.155613883E+01  6.743495762E-07  0.00000E+00  9.000E+00
#rwgt            1           9   7.0757076393607975E-003           5     1433971           0
</event>
<event>
      6   9999 -3.45752E-01  5.92667E+01 -1.00000E+00  1.30952E-01
      21    -1     0     0   501   502  0.000000000E+00  0.000000000E+00  9.145024062E+01  9.145024062E+01  0.000000000E+00  0.00000E+00  9.000E+00
      21    -1     0     0   512   503  0.000000000E+00  0.000000000E+00 -8.900672871E+02  8.900672871E+02  0.000000000E+00  0.00000E+00  9.000E+00
      25     1     1     2     0     0  2.591821292E+02 -7.665925541E+01 -4.337720974E+02  5.261508997E+02  1.249980771E+02  0.00000E+00  9.000E+00
       5     1     1     2   501     0 -2.379179238E+01  8.816405413E+00 -3.190683708E+01  4.104128582E+01  4.750000000E+00  0.00000E+00  9.000E+00
      -5     1     1     2     0   503 -1.818535176E+02  4.241941726E+01 -2.405271687E+02  3.045422634E+02  4.750000000E+00  0.00000E+00  9.000E+00
      21     1     1     2   512   502 -5.353681917E+01  2.542343273E+01 -9.241094338E+01  1.097830788E+02  1.348699152E-06  0.00000E+00  9.000E+00
#rwgt            1           9  -2.0736684051699792E-002           5     1435324           0
</event>
<event>
      6   9999  3.45752E-01  1.08605E+01 -1.00000E+00  1.83495E-01
      21    -1     0     0   501   502  0.000000000E+00  0.000000000E+00  3.417698387E+02  3.417698387E+02  0.000000000E+00  0.00000E+00  9.000E+00
      21    -1     0     0   502   511  0.000000000E+00  0.000000000E+00 -1.411996244E+02  1.411996244E+02  0.000000000E+00  0.00000E+00  9.000E+00
      25     1     1     2     0     0  5.877611051E+01 -4.898846448E+01 -3.550422156E+01  1.508013297E+02  1.250039618E+02  0.00000E+00  9.000E+00
       5     1     1     2   501     0 -1.895625124E+00  1.955487417E+00  1.998740921E+02  1.999490749E+02  4.750000000E+00  0.00000E+00  9.000E+00
      -5     1     1     2     0   503 -4.641774442E+01  4.412058112E+01  7.101834643E+01  9.574654409E+01  4.750000000E+00  0.00000E+00  9.000E+00
      21     1     1     2   503   511 -1.046274098E+01  2.912395945E+00 -3.481800273E+01  3.647251449E+01  0.000000000E+00  0.00000E+00  9.000E+00
#rwgt            1           9   8.9097602060309589E-002           5     1436498           0
</event>
<event>
      6   9999  3.45752E-01  6.95208E+00 -1.00000E+00  2.05519E-01
      21    -1     0     0   512   502  0.000000000E+00  0.000000000E+00  1.029632794E+02  1.029632794E+02  0.000000000E+00  0.00000E+00  9.000E+00
      21    -1     0     0   502   503  0.000000000E+00  0.000000000E+00 -1.593656633E+03  1.593656633E+03  0.000000000E+00  0.00000E+00  9.000E+00
      25     1     1     2     0     0 -1.263910563E+01 -9.849689812E+00 -1.366318526E+03  1.372117269E+03  1.249908886E+02  0.00000E+00  9.000E+00
       5     1     1     2   501     0  1.175533034E+01  1.254934792E+01  8.326377738E+01  8.515335019E+01  4.750000000E+00  0.00000E+00  9.000E+00
      -5     1     1     2     0   503  7.769276073E+00 -1.739841321E+00 -2.226307405E+02  2.228236922E+02  4.750000000E+00  0.00000E+00  9.000E+00
      21     1     1     2   512   501 -6.885500785E+00 -9.598167883E-01  1.499213538E+01  1.652560112E+01  6.078504936E-07  0.00000E+00  9.000E+00
#rwgt            1           9   1.4311532984973962E-003           5     1440180           0
</event>
<event>
      6   9999  3.45752E-01  5.32534E+00 -1.00000E+00  2.21538E-01
      21    -1     0     0   501   511  0.000000000E+00  0.000000000E+00  6.802691246E+01  6.802691246E+01  0.000000000E+00  0.00000E+00  9.000E+00
      21    -1     0     0   502   503  0.000000000E+00  0.000000000E+00 -7.534252069E+02  7.534252069E+02  0.000000000E+00  0.00000E+00  9.000E+00
      25     1     1     2     0     0  1.187170414E+01  6.507496576E+00 -6.228934421E+02  6.354585572E+02  1.250122110E+02  0.00000E+00  9.000E+00
       5     1     1     2   501     0  6.816403925E-01 -5.660359151E-01 -5.211036517E-01  4.859946429E+00  4.750000000E+00  0.00000E+00  9.000E+00
      -5     1     1     2     0   503 -7.813777810E+00 -8.369582127E+00 -1.211226931E+02  1.217553872E+02  4.750000000E+00  0.00000E+00  9.000E+00
      21     1     1     2   502   511 -4.739566726E+00  2.428121467E+00  5.913894443E+01  5.937822846E+01  1.651812370E-06  0.00000E+00  9.000E+00
#rwgt            1           9   8.5212854674804328E-004           5     1445842           0
</event>
<event>
      6   9999  3.45752E-01  7.42473E+00 -1.00000E+00  2.01931E-01
      21    -1     0     0   501   512  0.000000000E+00  0.000000000E+00  1.295893198E+01  1.295893198E+01  0.000000000E+00  0.00000E+00  9.000E+00
      21    -1     0     0   502   503  0.000000000E+00  0.000000000E+00 -7.316703465E+02  7.316703465E+02  0.000000000E+00  0.00000E+00  9.000E+00
      25     1     1     2     0     0  8.680136417E-01 -5.235292582E+00 -6.747744238E+02  6.862752321E+02  1.250000379E+02  0.00000E+00  9.000E+00
       5     1     1     2   501     0  3.153848686E+00 -1.298665792E+00  2.352825880E+00  6.303299453E+00  4.750000000E+00  0.00000E+00  9.000E+00
      -5     1     1     2     0   503  2.844405385E+00  3.708897076E+00 -4.367279825E+01  4.417830199E+01  4.750000000E+00  0.00000E+00  9.000E+00
      21     1     1     2   502   512 -6.866267713E+00  2.825061297E+00 -2.617018315E+00  7.872444887E+00  1.659323085E-07  0.00000E+00  9.000E+00
#rwgt            1           9   9.1766749050508782E-005           5     1449337           0
</event>
<event>
      6   9999  3.45752E-01  1.26722E+01 -1.00000E+00  1.76973E-01
      21    -1     0     0   501   502  0.000000000E+00  0.000000000E+00  8.386835080E+01  8.386835080E+01  0.000000000E+00  0.00000E+00  9.000E+00
      21    -1     0     0   511   503  0.000000000E+00  0.000000000E+00 -2.545792236E+02  2.545792236E+02  0.000000000E+00  0.00000E+00  9.000E+00
      25     1     1     2     0     0 -2.854793189E+00 -2.344394208E+01 -2.158394737E+02  2.505386152E+02  1.250006041E+02  0.00000E+00  9.000E+00
       5     1     1     2   501     0  6.162030335E+00 -3.100235807E+00  5.634408953E+01  5.696315481E+01  4.750000000E+00  0.00000E+00  9.000E+00
      -5     1     1     2     0   503  7.457949785E-01  1.453764031E+01 -2.376404146E+00  1.549545070E+01  4.750000000E+00  0.00000E+00  9.000E+00
      21     1     1     2   511   502 -4.053032124E+00  1.200653758E+01 -8.839084442E+00  1.545035365E+01  1.192092896E-07  0.00000E+00  9.000E+00
#rwgt            1           9  0.16623586842373309                5     1452160           0
</event>
<event>
      6   9999  3.45752E-01  7.01773E+00 -1.00000E+00  2.04999E-01
      21    -1     0     0   501   502  0.000000000E+00  0.000000000E+00  1.180252432E+01  1.180252432E+01  0.000000000E+00  0.00000E+00  9.000E+00
      21    -1     0     0   512   503  0.000000000E+00  0.000000000E+00 -8.574197316E+02  8.574197316E+02  0.000000000E+00  0.00000E+00  9.000E+00
      25     1     1     2     0     0  4.426215105E+00  9.483568858E+00 -4.177226668E+02  4.361494158E+02  1.249982284E+02  0.00000E+00  9.000E+00
       5     1     1     2   501     0 -1.782314206E-02  2.858285624E-01 -6.872742532E-01  4.807999743E+00  4.750000000E+00  0.00000E+00  9.000E+00
      -5     1     1     2     0   503  2.982873231E-01 -1.497475155E+01 -3.945176815E+02  3.948304645E+02  4.750000000E+00  0.00000E+00  9.000E+00
      21     1     1     2   512   502 -4.706679286E+00  5.205354134E+00 -3.268958470E+01  3.343437587E+01  0.000000000E+00  0.00000E+00  9.000E+00
#rwgt            1           9   5.2346475786438036E-005           5     1454691           0
</event>
<event>
      6   9999  3.45752E-01  2.99497E+00 -1.00000E+00  2.77103E-01
      21    -1     0     0   501   511  0.000000000E+00  0.000000000E+00  1.248329835E+02  1.248329835E+02  0.000000000E+00  0.00000E+00  9.000E+00
      21    -1     0     0   502   503  0.000000000E+00  0.000000000E+00 -4.565214261E+01  4.565214261E+01  0.000000000E+00  0.00000E+00  9.000E+00
      25     1     1     2     0     0  1.893822316E+00  9.725569852E-01  4.871645577E+01  1.341754692E+02  1.250009242E+02  0.00000E+00  9.000E+00
       5     1     1     2   501     0  4.576523731E-01  3.813142436E-02  2.232754795E+01  2.283183736E+01  4.750000000E+00  0.00000E+00  9.000E+00
      -5     1     1     2     0   503 -4.670553904E+00  8.844872809E-01  2.643870225E+00  7.221422387E+00  4.750000000E+00  0.00000E+00  9.000E+00
      21     1     1     2   502   511  2.319079215E+00 -1.895175691E+00  5.492966974E+00  6.256397165E+00  1.460009660E-07  0.00000E+00  9.000E+00
#rwgt            1           9   9.9165239721120098E-004           5     1457755           0
</event>
<event>
      6   9999  3.45752E-01  1.01413E+01 -1.00000E+00  1.86554E-01
      21    -1     0     0   501   502  0.000000000E+00  0.000000000E+00  2.634641783E+01  2.634641783E+01  0.000000000E+00  0.00000E+00  9.000E+00
       2    -1     0     0   502     0  0.000000000E+00  0.000000000E+00 -1.550038341E+03  1.550038341E+03  0.000000000E+00  0.00000E+00  9.000E+00
      25     1     1     2     0     0  1.463961680E+01  7.835719588E+00 -3.252904092E+02  3.488763277E+02  1.250004992E+02  0.00000E+00  9.000E+00
       5     1     1     2   501     0  2.091446614E+00 -1.620468976E-01  1.275586404E+01  1.377225383E+01  4.750000000E+00  0.00000E+00  9.000E+00
      -5     1     1     2     0   503 -1.204475714E+01  1.319909421E+00 -3.213841717E+01  3.467360226E+01  4.750000000E+00  0.00000E+00  9.000E+00
       2     1     1     2   503     0 -4.686306280E+00 -8.993582112E+00 -1.179018960E+03  1.179062575E+03  1.525878906E-05  0.00000E+00  9.000E+00
#rwgt            1           9   2.2416182299379965                5     1463203           0
</event>
<event>
      6   9999  3.45752E-01  1.31589E+01 -1.00000E+00  1.75452E-01
      21    -1     0     0   511   502  0.000000000E+00  0.000000000E+00  4.207575759E+01  4.207575759E+01  0.000000000E+00  0.00000E+00  9.000E+00
      21    -1     0     0   502   503  0.000000000E+00  0.000000000E+00 -1.581948530E+03  1.581948530E+03  0.000000000E+00  0.00000E+00  9.000E+00
      25     1     1     2     0     0  5.579554939E+00  1.695660081E+01 -4.911808673E+02  5.071511692E+02  1.250000251E+02  0.00000E+00  9.000E+00
       5     1     1     2   501     0 -7.214288919E+00  2.923851170E+00  3.204126929E+01  3.331366549E+01  4.750000000E+00  0.00000E+00  9.000E+00
      -5     1     1     2     0   503  9.628505975E+00 -9.427876966E+00 -1.050373590E+03  1.050470768E+03  4.750000000E+00  0.00000E+00  9.000E+00
      21     1     1     2   511   501 -7.993771995E+00 -1.045257502E+01 -3.035958451E+01  3.308868517E+01  4.768371582E-07  0.00000E+00  9.000E+00
#rwgt            1           9   3.6063155512832941E-004           5     1466089           0
</event>
<event>
      6   9999  3.45752E-01  2.55891E+01 -1.00000E+00  1.52449E-01
      21    -1     0     0   501   502  0.000000000E+00  0.000000000E+00  4.890362411E+02  4.890362411E+02  0.000000000E+00  0.00000E+00  9.000E+00
      21    -1     0     0   512   503  0.000000000E+00  0.000000000E+00 -4.478181845E+02  4.478181845E+02  0.000000000E+00  0.00000E+00  9.000E+00
      25     1     1     2     0     0  9.444832183E+01 -3.981809090E+01 -1.364626678E+02  2.115373995E+02  1.249801817E+02  0.00000E+00  9.000E+00
       5     1     1     2   501     0 -2.138238223E+00 -1.303850057E+00  4.267839932E+02  4.268177731E+02  4.750000000E+00  0.00000E+00  9.000E+00
      -5     1     1     2     0   503 -9.711763649E+01  1.598847101E+01 -7.849360091E+01  1.259812462E+02  4.750000000E+00  0.00000E+00  9.000E+00
      21     1     1     2   512   502  4.807552880E+00  2.513346995E+01 -1.706096680E+02  1.725180068E+02  3.303624740E-06  0.00000E+00  9.000E+00
#rwgt            1           9   2.6239388708739621E-003           5     1469576           0
</event>
<event>
      6   9999  3.45752E-01  6.96552E+00 -1.00000E+00  2.05412E-01
      21    -1     0     0   501   502  0.000000000E+00  0.000000000E+00  7.185049658E+00  7.185049658E+00  0.000000000E+00  0.00000E+00  9.000E+00
      21    -1     0     0   502   511  0.000000000E+00  0.000000000E+00 -8.072266811E+02  8.072266811E+02  0.000000000E+00  0.00000E+00  9.000E+00
      25     1     1     2     0     0  3.001299850E+00 -1.735802406E+01 -6.282786774E+02  6.408349658E+02  1.250001923E+02  0.00000E+00  9.000E+00
       5     1     1     2   501     0 -1.513178275E+00  3.423944862E+00 -2.224312884E+01  2.305064831E+01  4.750000000E+00  0.00000E+00  9.000E+00
      -5     1     1     2     0   503 -8.291081837E-01  6.999803421E+00 -4.645650911E+01  4.722768687E+01  4.750000000E+00  0.00000E+00  9.000E+00
      21     1     1     2   503   511 -6.590133906E-01  6.934275779E+00 -1.030633160E+02  1.032984297E+02  1.348699152E-06  0.00000E+00  9.000E+00
#rwgt            1           9   1.7495917617114654E-003           5     1471875           0
</event>
<event>
      6   9999 -3.45752E-01  7.39864E+00 -1.00000E+00  2.02120E-01
      21    -1     0     0   501   512  0.000000000E+00  0.000000000E+00  3.808741396E+03  3.808741396E+03  0.000000000E+00  0.00000E+00  9.000E+00
      21    -1     0     0   502   503  0.000000000E+00  0.000000000E+00 -1.361824998E+01  1.361824998E+01  0.000000000E+00  0.00000E+00  9.000E+00
      25     1     1     2     0     0 -8.357342930E+00 -1.640672811E+01  3.095043313E+02  3.343112482E+02  1.250282114E+02  0.00000E+00  9.000E+00
       5     1     1     2   501     0  5.397973116E+00  4.657133174E+00  3.100172792E+03  3.100184628E+03  4.750000000E+00  0.00000E+00  9.000E+00
      -5     1     1     2     0   503  2.710631195E-01  4.856634264E+00  8.682611087E+00  1.102771993E+01  4.750000000E+00  0.00000E+00  9.000E+00
      21     1     1     2   502   512  2.688306695E+00  6.892960676E+00  3.767634123E+02  3.768360502E+02  0.000000000E+00  0.00000E+00  9.000E+00
#rwgt            1           9 -0.15259550833225691                5     1475620           0
</event>
<event>
      6   9999  3.45752E-01  5.49750E+00 -1.00000E+00  2.19490E-01
      21    -1     0     0   501   502  0.000000000E+00  0.000000000E+00  2.094494873E+01  2.094494873E+01  0.000000000E+00  0.00000E+00  9.000E+00
      21    -1     0     0   511   503  0.000000000E+00  0.000000000E+00 -1.076768383E+03  1.076768383E+03  0.000000000E+00  0.00000E+00  9.000E+00
      25     1     1     2     0     0  1.260519682E+01  2.704729856E+01 -2.286209176E+02  2.622653413E+02  1.250005517E+02  0.00000E+00  9.000E+00
       5     1     1     2   501     0 -1.139546990E+00  7.611990137E-01  1.876763330E+00  5.287979943E+00  4.750000000E+00  0.00000E+00  9.000E+00
      -5     1     1     2     0   503 -1.599771431E+01 -3.092023360E+01 -7.764028140E+02  7.771974523E+02  4.750000000E+00  0.00000E+00  9.000E+00
      21     1     1     2   511   502  4.532064479E+00  3.111736029E+00 -5.267646624E+01  5.296255853E+01  6.743495762E-07  0.00000E+00  9.000E+00
#rwgt            1           9   1.5593921860564720E-002           5     1480137           0
</event>
<event>
      6   9999  3.45752E-01  3.78450E+00 -1.00000E+00  2.52935E-01
      21    -1     0     0   501   502  0.000000000E+00  0.000000000E+00  1.952655798E+02  1.952655798E+02  0.000000000E+00  0.00000E+00  9.000E+00
      21    -1     0     0   502   512  0.000000000E+00  0.000000000E+00 -6.836573555E+01  6.836573555E+01  0.000000000E+00  0.00000E+00  9.000E+00
      25     1     1     2     0     0  4.076880936E+01 -2.854129921E+01  5.438770792E+01  1.451215617E+02  1.250021733E+02  0.00000E+00  9.000E+00
       5     1     1     2   501     0  1.775575591E+00  1.277991531E+00  6.653524953E+01  6.674045146E+01  4.750000000E+00  0.00000E+00  9.000E+00
      -5     1     1     2     0   503 -3.923543246E+01  2.542665138E+01  7.682070356E+00  4.761838370E+01  4.750000000E+00  0.00000E+00  9.000E+00
      21     1     1     2   503   512 -3.308952493E+00  1.836656299E+00 -1.705183559E+00  4.150918444E+00  6.989264130E-08  0.00000E+00  9.000E+00
#rwgt            1           9  0.30271797447831095                5     1485000           0
</event>
<event>
      6   9999  3.45752E-01  5.42108E+02 -1.00000E+00  9.57518E-02
      21    -1     0     0   501   511  0.000000000E+00  0.000000000E+00  2.535581822E+02  2.535581822E+02  0.000000000E+00  0.00000E+00  9.000E+00
      -3    -1     0     0     0   502  0.000000000E+00  0.000000000E+00 -2.435423881E+03  2.435423881E+03  0.000000000E+00  0.00000E+00  9.000E+00
      25     1     1     2     0     0 -3.187935031E+02  1.825384855E+02 -3.925964621E+02  5.520020504E+02  1.249987411E+02  0.00000E+00  9.000E+00
       5     1     1     2   501     0 -3.594091299E+01  4.651823933E+00 -1.417430308E+01  3.920283230E+01  4.750000000E+00  0.00000E+00  9.000E+00
      -5     1     1     2     0   502 -1.840199829E+02 -1.269810151E+02 -1.446864731E+03  1.464044960E+03  4.750000000E+00  0.00000E+00  9.000E+00
      -3     1     1     2     0   511  5.387543989E+02 -6.020929437E+01 -3.282302026E+02  6.337322206E+02  5.394796609E-06  0.00000E+00  9.000E+00
#rwgt            1           8   1.2033129574788317E-007           5     1490684           0
</event>
<event>
      6   9999 -3.45752E-01  1.27676E+01 -1.00000E+00  1.76668E-01
      21    -1     0     0   501   502  0.000000000E+00  0.000000000E+00  2.515316655E+02  2.515316655E+02  0.000000000E+00  0.00000E+00  9.000E+00
      21    -1     0     0   502   512  0.000000000E+00  0.000000000E+00 -6.249743168E+01  6.249743168E+01  0.000000000E+00  0.00000E+00  9.000E+00
      25     1     1     2     0     0 -9.828805856E+00 -2.980322155E+01  3.603637655E+01  1.338222256E+02  1.249997208E+02  0.00000E+00  9.000E+00
       5     1     1     2   501     0  1.583270882E+00 -3.819323337E+00  1.428475552E+02  1.429862948E+02  4.750000000E+00  0.00000E+00  9.000E+00
      -5     1     1     2     0   503  6.389078977E+00  2.099059648E+01  9.670446495E+00  2.444392575E+01  4.750000000E+00  0.00000E+00  9.000E+00
      21     1     1     2   503   512  1.856455997E+00  1.263194841E+01  4.798556036E-01  1.277665100E+01  1.811272767E-07  0.00000E+00  9.000E+00
#rwgt            1           9  -1.5077007780346877E-002           5     1491190           0
</event>
<event>
      6   9999  3.45752E-01  2.03325E+01 -1.00000E+00  1.59666E-01
      21    -1     0     0   511   503  0.000000000E+00  0.000000000E+00  8.776388586E+02  8.776388586E+02  0.000000000E+00  0.00000E+00  9.000E+00
      21    -1     0     0   501   502  0.000000000E+00  0.000000000E+00 -9.076622337E+02  9.076622337E+02  0.000000000E+00  0.00000E+00  9.000E+00
      25     1     1     2     0     0  8.331549848E+01 -1.728027043E+01 -3.951226515E+02  4.230681130E+02  1.249985540E+02  0.00000E+00  9.000E+00
       5     1     1     2   501     0 -7.803179374E+01  4.478937100E+01 -3.974439990E+02  4.075283345E+02  4.750000000E+00  0.00000E+00  9.000E+00
      -5     1     1     2     0   503 -1.657147652E+01 -1.059760465E+01 -9.489335298E+01  9.702697562E+01  4.750000000E+00  0.00000E+00  9.000E+00
      21     1     1     2   511   502  1.128777178E+01 -1.691149592E+01  8.574366284E+02  8.576776691E+02  0.000000000E+00  0.00000E+00  9.000E+00
#rwgt            1           9   1.4903051896110962E-002           5     1493563           0
</event>
<event>
      6   9999 -3.45752E-01  7.27941E+00 -1.00000E+00  2.02996E-01
      21    -1     0     0   512   502  0.000000000E+00  0.000000000E+00  1.920352271E+01  1.920352271E+01  0.000000000E+00  0.00000E+00  9.000E+00
      21    -1     0     0   502   503  0.000000000E+00  0.000000000E+00 -9.104641893E+02  9.104641893E+02  0.000000000E+00  0.00000E+00  9.000E+00
      25     1     1     2     0     0 -6.837362577E+00 -4.389766628E+00 -8.845438897E+02  8.933691177E+02  1.249978721E+02  0.00000E+00  9.000E+00
       5     1     1     2   501     0  2.739503997E-01 -5.345584473E-01 -1.264792935E+00  4.952070549E+00  4.750000000E+00  0.00000E+00  9.000E+00
      -5     1     1     2     0   503  6.220674676E-01  7.183450606E-01 -1.701048267E+01  1.768677495E+01  4.750000000E+00  0.00000E+00  9.000E+00
      21     1     1     2   512   501  5.941344709E+00  4.205980015E+00  1.155849872E+01  1.365974881E+01  1.143415337E-06  0.00000E+00  9.000E+00
#rwgt            1           9  -1.6333551934288040E-003           5     1495475           0
</event>
<event>
      6   9999  3.45752E-01  9.27251E+00 -1.00000E+00  1.90716E-01
      21    -1     0     0   511   502  0.000000000E+00  0.000000000E+00  4.649735916E+01  4.649735916E+01  0.000000000E+00  0.00000E+00  9.000E+00
      21    -1     0     0   502   503  0.000000000E+00  0.000000000E+00 -7.598176175E+02  7.598176175E+02  0.000000000E+00  0.00000E+00  9.000E+00
      25     1     1     2     0     0 -4.210157023E+01  1.611956815E+01 -4.717554132E+02  4.901116984E+02  1.249956972E+02  0.00000E+00  9.000E+00
       5     1     1     2   501     0 -1.316320022E+00 -3.336319491E+00 -2.217167156E+01  2.295668194E+01  4.750000000E+00  0.00000E+00  9.000E+00
      -5     1     1     2     0   503  4.462145262E+01 -2.197731197E+01 -2.532555708E+02  2.581376046E+02  4.750000000E+00  0.00000E+00  9.000E+00
      21     1     1     2   511   501 -1.203562373E+00  9.194063313E+00  3.386239716E+01  3.510899178E+01  2.078484985E-06  0.00000E+00  9.000E+00
#rwgt            1           9   1.1528411956518289E-002           5     1498120           0
</event>
<event>
      6   9999  3.45752E-01  1.38851E+01 -1.00000E+00  1.73331E-01
      21    -1     0     0   501   502  0.000000000E+00  0.000000000E+00  1.298627505E+01  1.298627505E+01  0.000000000E+00  0.00000E+00  9.000E+00
      21    -1     0     0   512   503  0.000000000E+00  0.000000000E+00 -9.446501801E+02  9.446501801E+02  0.000000000E+00  0.00000E+00  9.000E+00
      25     1     1     2     0     0  1.613244025E+01  4.111777266E+00 -7.954931111E+02  8.054261770E+02  1.249994976E+02  0.00000E+00  9.000E+00
       5     1     1     2   501     0 -2.491646115E-01  6.734066939E-01  3.691717793E+00  6.058616991E+00  4.750000000E+00  0.00000E+00  9.000E+00
      -5     1     1     2     0   503 -1.702330867E+01  9.053026541E+00 -3.393428552E+01  3.931728070E+01  4.750000000E+00  0.00000E+00  9.000E+00
      21     1     1     2   512   502  1.140033038E+00 -1.383821050E+01 -1.059282261E+02  1.068343804E+02  0.000000000E+00  0.00000E+00  9.000E+00
#rwgt            1           9   1.1583898243966071E-004           5     1501342           0
</event>
<event>
      6   9999  3.45752E-01  3.73583E+01 -1.00000E+00  1.41929E-01
      21    -1     0     0   501   502  0.000000000E+00  0.000000000E+00  1.760941925E+02  1.760941925E+02  0.000000000E+00  0.00000E+00  9.000E+00
      21    -1     0     0   502   511  0.000000000E+00  0.000000000E+00 -1.292805705E+02  1.292805705E+02  0.000000000E+00  0.00000E+00  9.000E+00
      25     1     1     2     0     0 -2.106522323E+01 -9.754695307E+00 -3.579736739E+01  1.320821459E+02  1.250013762E+02  0.00000E+00  9.000E+00
       5     1     1     2   501     0 -1.069839298E+01  1.859772836E+00  1.164469475E+02  1.170485730E+02  4.750000000E+00  0.00000E+00  9.000E+00
      -5     1     1     2     0   503 -5.150006693E+00  2.147936842E+00 -7.837364732E+00  1.072953809E+01  4.750000000E+00  0.00000E+00  9.000E+00
      21     1     1     2   503   511  3.691362290E+01  5.746985629E+00 -2.599859331E+01  4.551450597E+01  7.539457465E-07  0.00000E+00  9.000E+00
#rwgt            1           9   2.4040775986619066E-003           5     1503467           0
</event>
<event>
      6   9999  3.45752E-01  2.45229E+01 -1.00000E+00  1.53734E-01
      21    -1     0     0   512   502  0.000000000E+00  0.000000000E+00  1.914665121E+02  1.914665121E+02  0.000000000E+00  0.00000E+00  9.000E+00
      21    -1     0     0   502   503  0.000000000E+00  0.000000000E+00 -7.406968224E+02  7.406968224E+02  0.000000000E+00  0.00000E+00  9.000E+00
      25     1     1     2     0     0 -4.500983693E+01 -1.755037165E+01 -5.227213784E+02  5.396360813E+02  1.250422324E+02  0.00000E+00  9.000E+00
       5     1     1     2   501     0  3.425431768E+01 -7.279831300E+00 -1.587293142E+02  1.626158415E+02  4.750000000E+00  0.00000E+00  9.000E+00
      -5     1     1     2     0   503  3.518363739E+00  1.399504050E+00 -4.782217761E+01  4.820643802E+01  4.750000000E+00  0.00000E+00  9.000E+00
      21     1     1     2   512   501  7.237155512E+00  2.343069890E+01  1.800425599E+02  1.817049737E+02  2.697398305E-06  0.00000E+00  9.000E+00
#rwgt            1           9   1.5588969491644721E-004           5     1504784           0
</event>
<event>
      6   9999 -3.45752E-01  6.40441E+01 -1.00000E+00  1.29276E-01
      21    -1     0     0   511   502  0.000000000E+00  0.000000000E+00  4.117318097E+01  4.117318097E+01  0.000000000E+00  0.00000E+00  9.000E+00
      21    -1     0     0   502   503  0.000000000E+00  0.000000000E+00 -5.290468495E+02  5.290468495E+02  0.000000000E+00  0.00000E+00  9.000E+00
      25     1     1     2     0     0 -2.269592358E+01 -2.010927670E+01 -4.304605070E+02  4.492680346E+02  1.250041234E+02  0.00000E+00  9.000E+00
       5     1     1     2   501     0 -7.681611047E+00 -1.291200069E+01  2.380979586E+00  1.593607460E+01  4.750000000E+00  0.00000E+00  9.000E+00
      -5     1     1     2     0   503 -7.788267164E+00 -1.840843839E+01 -2.420185363E+01  3.174617975E+01  4.750000000E+00  0.00000E+00  9.000E+00
      21     1     1     2   511   501  3.816580179E+01  5.142971577E+01 -3.559228744E+01  7.326974147E+01  1.430511475E-06  0.00000E+00  9.000E+00
#rwgt            1           9  -2.7628122085195327E-005           5     1505981           0
</event>
<event>
      6   9999  3.45752E-01  4.89447E+00 -1.00000E+00  2.31004E-01
      21    -1     0     0   512   503  0.000000000E+00  0.000000000E+00  6.145688531E+01  6.145688531E+01  0.000000000E+00  0.00000E+00  9.000E+00
      21    -1     0     0   501   502  0.000000000E+00  0.000000000E+00 -9.093470311E+02  9.093470311E+02  0.000000000E+00  0.00000E+00  9.000E+00
      25     1     1     2     0     0 -6.379751828E+01  1.579326855E+01 -3.665569599E+02  3.928239152E+02  1.250082909E+02  0.00000E+00  9.000E+00
       5     1     1     2   501     0 -1.578577065E+00 -5.196462665E+00 -3.382822353E+02  3.383591706E+02  4.750000000E+00  0.00000E+00  9.000E+00
      -5     1     1     2     0   503  6.918933333E+01 -1.366520700E+01 -1.846591561E+02  1.977257398E+02  4.750000000E+00  0.00000E+00  9.000E+00
      21     1     1     2   512   502 -3.813237983E+00  3.068401116E+00  4.160820554E+01  4.189509086E+01  1.784161275E-06  0.00000E+00  9.000E+00
#rwgt            1           9   3.0322543736654353E-002           5     1506450           0
</event>
<event>
      6   9999  3.45752E-01  1.40114E+01 -1.00000E+00  1.72978E-01
      21    -1     0     0   501   502  0.000000000E+00  0.000000000E+00  8.265038294E+00  8.265038294E+00  0.000000000E+00  0.00000E+00  9.000E+00
      21    -1     0     0   511   503  0.000000000E+00  0.000000000E+00 -8.218023852E+02  8.218023852E+02  0.000000000E+00  0.00000E+00  9.000E+00
      25     1     1     2     0     0  1.949363460E+01  8.535987441E-01 -6.854986772E+02  6.970752639E+02  1.249990268E+02  0.00000E+00  9.000E+00
       5     1     1     2   501     0  7.046138728E-01  5.011875968E-01 -4.179269149E+00  6.385644865E+00  4.750000000E+00  0.00000E+00  9.000E+00
      -5     1     1     2     0   503 -7.509559823E+00  4.587907177E+00 -2.807743724E+01  2.980515665E+01  4.750000000E+00  0.00000E+00  9.000E+00
      21     1     1     2   511   502 -1.268868865E+01 -5.942693518E+00 -9.578196336E+01  9.680135810E+01  1.907348633E-06  0.00000E+00  9.000E+00
#rwgt            1           9   2.7553836375843156E-004           5     1511699           0
</event>
<event>
      6   9999  3.45752E-01  1.89822E+01 -1.00000E+00  1.61961E-01
      21    -1     0     0   501   502  0.000000000E+00  0.000000000E+00  6.248076403E+01  6.248076403E+01  0.000000000E+00  0.00000E+00  9.000E+00
      21    -1     0     0   502   512  0.000000000E+00  0.000000000E+00 -1.420599825E+03  1.420599825E+03  0.000000000E+00  0.00000E+00  9.000E+00
      25     1     1     2     0     0 -1.771233919E+02 -2.988898288E+01 -1.010241663E+03  1.033672609E+03  1.249991852E+02  0.00000E+00  9.000E+00
       5     1     1     2   501     0 -2.179536041E+00  1.198093743E-01  1.759472357E+01  1.835487753E+01  4.750000000E+00  0.00000E+00  9.000E+00
      -5     1     1     2     0   503  1.892966200E+02  4.590760350E+01 -2.656590557E+02  3.294510810E+02  4.750000000E+00  0.00000E+00  9.000E+00
      21     1     1     2   503   512 -9.993692055E+00 -1.613842999E+01 -9.981306581E+01  1.016020222E+02  1.348699152E-06  0.00000E+00  9.000E+00
#rwgt            1           9   1.0674191220765291E-004           5     1514051           0
</event>
<event>
      6   9999  3.45752E-01  3.47704E+01 -1.00000E+00  1.43808E-01
      21    -1     0     0   501   502  0.000000000E+00  0.000000000E+00  2.500117295E+01  2.500117295E+01  0.000000000E+00  0.00000E+00  9.000E+00
      21    -1     0     0   511   503  0.000000000E+00  0.000000000E+00 -1.231582134E+03  1.231582134E+03  0.000000000E+00  0.00000E+00  9.000E+00
      25     1     1     2     0     0 -1.860034382E+01  1.978841824E+01 -8.067732990E+02  8.168506434E+02  1.249970535E+02  0.00000E+00  9.000E+00
       5     1     1     2   501     0 -9.840356152E+00  3.126328063E+00  1.624820192E+01  1.982859304E+01  4.750000000E+00  0.00000E+00  9.000E+00
      -5     1     1     2     0   503 -5.481418609E+00 -1.528113614E+01 -2.304140495E+02  2.310341009E+02  4.750000000E+00  0.00000E+00  9.000E+00
      21     1     1     2   511   502  3.392211859E+01 -7.633610160E+00 -1.856418145E+02  1.888699696E+02  2.697398305E-06  0.00000E+00  9.000E+00
#rwgt            1           9   1.0108027388649309E-002           5     1517399           0
</event>
<event>
      6   9999  3.45752E-01  5.26708E+00 -1.00000E+00  2.22255E-01
      21    -1     0     0   501   502  0.000000000E+00  0.000000000E+00  4.491824491E+01  4.491824491E+01  0.000000000E+00  0.00000E+00  9.000E+00
      21    -1     0     0   512   503  0.000000000E+00  0.000000000E+00 -1.530733315E+02  1.530733315E+02  0.000000000E+00  0.00000E+00  9.000E+00
      25     1     1     2     0     0 -7.139221672E+00 -1.533412468E+01 -9.666130177E+01  1.589192916E+02  1.250033205E+02  0.00000E+00  9.000E+00
       5     1     1     2   501     0  9.149607855E-01 -7.210979334E-01  8.566649078E+00  9.864436725E+00  4.750000000E+00  0.00000E+00  9.000E+00
      -5     1     1     2     0   503  8.999209351E+00  1.157841319E+01 -1.180639985E+01  1.941646205E+01  4.750000000E+00  0.00000E+00  9.000E+00
      21     1     1     2   512   502 -2.774948464E+00  4.476809417E+00 -8.254034058E+00  9.791385998E+00  2.064765462E-07  0.00000E+00  9.000E+00
#rwgt            1           9   7.2359194104317350E-003           5     1518907           0
</event>
<event>
      6   9999  3.45752E-01  1.07266E+01 -1.00000E+00  1.84041E-01
      21    -1     0     0   511   502  0.000000000E+00  0.000000000E+00  1.362775946E+02  1.362775946E+02  0.000000000E+00  0.00000E+00  9.000E+00
      21    -1     0     0   502   503  0.000000000E+00  0.000000000E+00 -1.280951964E+03  1.280951964E+03  0.000000000E+00  0.00000E+00  9.000E+00
      25     1     1     2     0     0  9.169444564E+01  1.941237571E+01 -1.104318351E+03  1.115315463E+03  1.249993991E+02  0.00000E+00  9.000E+00
       5     1     1     2   501     0 -9.370925495E+01  1.041810338E+01 -2.085522135E+01  9.668228431E+01  4.750000000E+00  0.00000E+00  9.000E+00
      -5     1     1     2     0   503  5.009830045E+00 -1.953053834E+01 -1.110959685E+02  1.130106943E+02  4.750000000E+00  0.00000E+00  9.000E+00
      21     1     1     2   511   501 -2.995020727E+00 -1.029994076E+01  9.159517158E+01  9.222111681E+01  2.336015456E-06  0.00000E+00  9.000E+00
#rwgt            1           9   2.2597561246291878E-002           5     1522894           0
</event>
<event>
      6   9999  3.45752E-01  2.31400E+01 -1.00000E+00  1.55522E-01
      21    -1     0     0   512   502  0.000000000E+00  0.000000000E+00  8.315905208E+02  8.315905208E+02  0.000000000E+00  0.00000E+00  9.000E+00
      21    -1     0     0   502   503  0.000000000E+00  0.000000000E+00 -3.990805918E+01  3.990805918E+01  0.000000000E+00  0.00000E+00  9.000E+00
      25     1     1     2     0     0 -1.926250523E+01 -9.068037537E+00  7.612466104E+01  1.479035815E+02  1.250089276E+02  0.00000E+00  9.000E+00
       5     1     1     2   501     0 -2.728763173E+00 -4.101707296E+00  8.036235565E+01  8.065321356E+01  4.750000000E+00  0.00000E+00  9.000E+00
      -5     1     1     2     0   503  2.890015545E+00  1.083682454E-01 -1.552281400E+00  5.773734586E+00  4.750000000E+00  0.00000E+00  9.000E+00
      21     1     1     2   512   501  1.910125286E+01  1.306137659E+01  6.367477264E+02  6.371680504E+02  7.629394531E-06  0.00000E+00  9.000E+00
#rwgt            1           9  0.43366688654257479                5     1526899           0
</event>
<event>
      6   9999  3.45752E-01  1.03926E+01 -1.00000E+00  1.85449E-01
      21    -1     0     0   501   502  0.000000000E+00  0.000000000E+00  1.791649038E+01  1.791649038E+01  0.000000000E+00  0.00000E+00  9.000E+00
      21    -1     0     0   502   511  0.000000000E+00  0.000000000E+00 -1.372241817E+03  1.372241817E+03  0.000000000E+00  0.00000E+00  9.000E+00
      25     1     1     2     0     0  3.012514425E+00  3.781523522E+00 -7.483548020E+02  7.587368945E+02  1.249935606E+02  0.00000E+00  9.000E+00
       5     1     1     2   501     0 -2.133886730E+00 -3.112806671E+00  1.174167404E+01  1.321637042E+01  4.750000000E+00  0.00000E+00  9.000E+00
      -5     1     1     2     0   503 -1.059058838E+01  3.030546351E+00 -1.972642605E+02  1.976286814E+02  4.750000000E+00  0.00000E+00  9.000E+00
      21     1     1     2   503   511  9.711960689E+00 -3.699263201E+00 -4.204479377E+02  4.205763605E+02  5.394796609E-06  0.00000E+00  9.000E+00
#rwgt            1           9   2.7541908799774925E-003           5     1528461           0
</event>
<event>
      6   9999  3.45752E-01  3.60854E+01 -1.00000E+00  1.42830E-01
      -2    -1     0     0     0   502  0.000000000E+00  0.000000000E+00  3.159594814E+01  3.159594814E+01  0.000000000E+00  0.00000E+00  9.000E+00
       2    -1     0     0   512     0  0.000000000E+00  0.000000000E+00 -1.267484006E+03  1.267484006E+03  0.000000000E+00  0.00000E+00  9.000E+00
      25     1     1     2     0     0  1.556118444E+02  5.451541996E+00 -4.485777140E+02  4.910110292E+02  1.250003997E+02  0.00000E+00  9.000E+00
       5     1     1     2   501     0 -3.022676127E+01  3.594675633E+01 -1.596148357E+02  1.664490452E+02  4.750000000E+00  0.00000E+00  9.000E+00
      -5     1     1     2     0   502 -9.189208349E+01 -2.796800781E+01 -4.840462289E+02  4.935075265E+02  4.750000000E+00  0.00000E+00  9.000E+00
      21     1     1     2   512   501 -3.349299966E+01 -1.343029052E+01 -1.436492791E+02  1.481123530E+02  0.000000000E+00  0.00000E+00  9.000E+00
#rwgt            1           3   2.9709678145515195E-004           5     1531157           0
</event>
<event>
      6   9999  3.45752E-01  7.63427E+00 -1.00000E+00  2.00452E-01
      21    -1     0     0   511   502  0.000000000E+00  0.000000000E+00  2.808924580E+01  2.808924580E+01  0.000000000E+00  0.00000E+00  9.000E+00
      21    -1     0     0   502   503  0.000000000E+00  0.000000000E+00 -6.456073695E+02  6.456073695E+02  0.000000000E+00  0.00000E+00  9.000E+00
      25     1     1     2     0     0 -1.664821045E+01 -9.910077580E+00 -2.642373736E+02  2.929527521E+02  1.249982112E+02  0.00000E+00  9.000E+00
       5     1     1     2   501     0 -9.129291644E-01 -1.547299847E+00  1.216844753E+01  1.318564339E+01  4.750000000E+00  0.00000E+00  9.000E+00
      -5     1     1     2     0   503  1.353389410E+01  4.971752958E+00 -3.499672191E+02  3.502963054E+02  4.750000000E+00  0.00000E+00  9.000E+00
      21     1     1     2   511   501  4.027245507E+00  6.485624469E+00 -1.548197849E+01  1.726191441E+01  3.769728732E-07  0.00000E+00  9.000E+00
#rwgt            1           9   1.6588275854423302E-002           5     1533450           0
</event>
<event>
      6   9999  3.45752E-01  9.69713E+01 -1.00000E+00  1.21005E-01
      21    -1     0     0   501   512  0.000000000E+00  0.000000000E+00  1.984117187E+02  1.984117187E+02  0.000000000E+00  0.00000E+00  9.000E+00
      -2    -1     0     0     0   502  0.000000000E+00  0.000000000E+00 -1.288167330E+02  1.288167330E+02  0.000000000E+00  0.00000E+00  9.000E+00
      25     1     1     2     0     0  1.009649701E+01 -8.479358467E+01  1.107654038E+02  1.875766913E+02  1.249965968E+02  0.00000E+00  9.000E+00
       5     1     1     2   501     0  5.278920128E-01 -3.638835346E+00  7.964667850E+00  9.975882247E+00  4.750000000E+00  0.00000E+00  9.000E+00
      -5     1     1     2     0   502  1.658343357E+00 -7.757814971E+00  1.191909474E+01  1.508512894E+01  4.750000000E+00  0.00000E+00  9.000E+00
      -2     1     1     2     0   512 -1.228273238E+01  9.619023499E+01 -6.105418059E+01  1.145907491E+02  6.743495762E-07  0.00000E+00  9.000E+00
#rwgt            1           4   1.2658736667972960E-004           5     1537293           0
</event>
<event>
      6   9999  3.45752E-01  8.94245E+00 -1.00000E+00  1.92456E-01
      21    -1     0     0   501   502  0.000000000E+00  0.000000000E+00  3.560390530E+02  3.560390530E+02  0.000000000E+00  0.00000E+00  9.000E+00
      21    -1     0     0   511   503  0.000000000E+00  0.000000000E+00 -2.096435196E+01  2.096435196E+01  0.000000000E+00  0.00000E+00  9.000E+00
      25     1     1     2     0     0 -1.477359342E+01  7.386534446E+00  2.287143785E+02  2.611653662E+02  1.249970465E+02  0.00000E+00  9.000E+00
       5     1     1     2   501     0 -9.821466055E-01  6.315814433E-01  9.159155949E+01  9.172207901E+01  4.750000000E+00  0.00000E+00  9.000E+00
      -5     1     1     2     0   503  7.812067639E+00 -3.911360502E+00  9.410122569E+00  1.369087464E+01  4.750000000E+00  0.00000E+00  9.000E+00
      21     1     1     2   511   502  7.943672387E+00 -4.106755387E+00  5.358640487E+00  1.042508507E+01  1.192092896E-07  0.00000E+00  9.000E+00
#rwgt            1           9   276.83083611744416                5     1537736           0
</event>
<event>
      6   9999  3.45752E-01  2.13851E+01 -1.00000E+00  1.58022E-01
      21    -1     0     0   501   502  0.000000000E+00  0.000000000E+00  2.723696546E+01  2.723696546E+01  0.000000000E+00  0.00000E+00  9.000E+00
      21    -1     0     0   502   512  0.000000000E+00  0.000000000E+00 -4.066734797E+03  4.066734797E+03  0.000000000E+00  0.00000E+00  9.000E+00
      25     1     1     2     0     0 -2.188538080E+02 -2.004165002E+02 -1.541186294E+03  1.574466318E+03  1.250009304E+02  0.00000E+00  9.000E+00
       5     1     1     2   501     0  2.932386379E-01 -1.196468657E+00 -1.629184635E+00  5.170519193E+00  4.750000000E+00  0.00000E+00  9.000E+00
      -5     1     1     2     0   503  2.023923966E+02  1.876160726E+02 -2.323841336E+03  2.340175974E+03  4.750000000E+00  0.00000E+00  9.000E+00
      21     1     1     2   503   512  1.616817282E+01  1.399689627E+01 -1.728410174E+02  1.741589510E+02  2.697398305E-06  0.00000E+00  9.000E+00
#rwgt            1           9   5.4895219845555140E-005           5     1540549           0
</event>
<event>
      6   9999  3.45752E-01  7.27425E+00 -1.00000E+00  2.03034E-01
      21    -1     0     0   501   502  0.000000000E+00  0.000000000E+00  9.834344815E+01  9.834344815E+01  0.000000000E+00  0.00000E+00  9.000E+00
      21    -1     0     0   511   503  0.000000000E+00  0.000000000E+00 -3.475018052E+03  3.475018052E+03  0.000000000E+00  0.00000E+00  9.000E+00
      25     1     1     2     0     0  9.375750083E+00 -1.506833297E+01 -2.393468733E+02  2.706038688E+02  1.249982747E+02  0.00000E+00  9.000E+00
       5     1     1     2   501     0 -6.241508337E-02  3.792100137E+00  7.877039063E+01  7.900456227E+01  4.750000000E+00  0.00000E+00  9.000E+00
      -5     1     1     2     0   503 -7.847777583E+00  4.151148856E+00 -2.805774449E+00  1.045248870E+01  4.750000000E+00  0.00000E+00  9.000E+00
      21     1     1     2   511   502 -1.465557416E+00  7.125083978E+00 -3.213292347E+03  3.213300581E+03  4.315837288E-05  0.00000E+00  9.000E+00
#rwgt            1           9   7.8261390300574400E-004           5     1543753           0
</event>
<event>
      6   9999  3.45752E-01  7.05316E+00 -1.00000E+00  2.04721E-01
      21    -1     0     0   501   512  0.000000000E+00  0.000000000E+00  9.682488209E+01  9.682488209E+01  0.000000000E+00  0.00000E+00  9.000E+00
      21    -1     0     0   502   503  0.000000000E+00  0.000000000E+00 -1.230674144E+03  1.230674144E+03  0.000000000E+00  0.00000E+00  9.000E+00
      25     1     1     2     0     0 -2.268410371E+01 -9.111775908E+00 -5.384529394E+02  5.533122718E+02  1.250012364E+02  0.00000E+00  9.000E+00
       5     1     1     2   501     0 -1.130667471E+01 -1.478713089E-01  3.016085078E+01  3.255921036E+01  4.750000000E+00  0.00000E+00  9.000E+00
      -5     1     1     2     0   503  2.796782662E+01  1.292995413E+01 -6.830211733E+02  6.837323078E+02  4.750000000E+00  0.00000E+00  9.000E+00
      21     1     1     2   502   512  6.022951811E+00 -3.670306909E+00  5.746399990E+01  5.789523630E+01  2.939421655E-06  0.00000E+00  9.000E+00
#rwgt            1           9   1.2458295977487742E-004           5     1547714           0
</event>
<event>
      6   9999  3.45752E-01  2.31961E+01 -1.00000E+00  1.55447E-01
      21    -1     0     0   511   502  0.000000000E+00  0.000000000E+00  2.213583490E+02  2.213583490E+02  0.000000000E+00  0.00000E+00  9.000E+00
      21    -1     0     0   502   503  0.000000000E+00  0.000000000E+00 -3.645532918E+01  3.645532918E+01  0.000000000E+00  0.00000E+00  9.000E+00
      25     1     1     2     0     0  8.652727511E+00 -2.013293933E+01  9.675442755E+01  1.595796748E+02  1.249961937E+02  0.00000E+00  9.000E+00
       5     1     1     2   501     0  1.233350712E+00 -2.385399232E+00  2.879767633E+01  2.931006560E+01  4.750000000E+00  0.00000E+00  9.000E+00
      -5     1     1     2     0   503 -7.678369064E-01  1.189522892E+00 -2.555301775E-01  4.963097208E+00  4.750000000E+00  0.00000E+00  9.000E+00
      21     1     1     2   511   501 -9.118241316E+00  2.132881567E+01  5.960644613E+01  6.396084054E+01  0.000000000E+00  0.00000E+00  9.000E+00
#rwgt            1           9   27.613001031128963                5     1552197           0
</event>
<event>
      6   9999  3.45752E-01  1.60026E+01 -1.00000E+00  1.67972E-01
      21    -1     0     0   512   502  0.000000000E+00  0.000000000E+00  8.585765001E+00  8.585765001E+00  0.000000000E+00  0.00000E+00  9.000E+00
      21    -1     0     0   502   503  0.000000000E+00  0.000000000E+00 -7.575302829E+02  7.575302829E+02  0.000000000E+00  0.00000E+00  9.000E+00
      25     1     1     2     0     0  2.036914361E+01 -8.769353638E+00 -6.692755136E+02  6.812139527E+02  1.250237285E+02  0.00000E+00  9.000E+00
       5     1     1     2   501     0 -2.988138762E+00  2.960520567E+00 -1.050655853E+01  1.227370879E+01  4.750000000E+00  0.00000E+00  9.000E+00
      -5     1     1     2     0   503 -3.214276179E+00 -1.633387991E+00 -2.342926248E+01  2.417627697E+01  4.750000000E+00  0.00000E+00  9.000E+00
      21     1     1     2   512   501 -1.416672867E+01  7.442221062E+00 -4.573318331E+01  4.845210946E+01  1.168007728E-06  0.00000E+00  9.000E+00
#rwgt            1           9   3.6303627080156466E-005           5     1553700           0
</event>
<event>
      6   9999  3.45752E-01  4.64517E+00 -1.00000E+00  2.35133E-01
      21    -1     0     0   511   503  0.000000000E+00  0.000000000E+00  4.789561540E+02  4.789561540E+02  0.000000000E+00  0.00000E+00  9.000E+00
      21    -1     0     0   501   502  0.000000000E+00  0.000000000E+00 -1.205572121E+03  1.205572121E+03  0.000000000E+00  0.00000E+00  9.000E+00
      25     1     1     2     0     0 -1.530559750E+01 -5.382736453E-01 -7.559270331E+02  7.663452939E+02  1.249995163E+02  0.00000E+00  9.000E+00
       5     1     1     2   501     0  8.883069199E+00  2.020375164E+00 -4.330320399E+02  4.331538998E+02  4.750000000E+00  0.00000E+00  9.000E+00
      -5     1     1     2     0   503  3.512727091E+00  2.138762889E+00 -1.046064831E+01  1.220250882E+01  4.750000000E+00  0.00000E+00  9.000E+00
      21     1     1     2   511   502  2.909801207E+00 -3.620864408E+00  4.728037543E+02  4.728265725E+02  5.394796609E-06  0.00000E+00  9.000E+00
#rwgt            1           9   101946.05459293880                5     1554967           0
</event>
<event>
      6   9999  3.45752E-01  1.90243E+01 -1.00000E+00  1.61886E-01
      21    -1     0     0   512   502  0.000000000E+00  0.000000000E+00  2.911890707E+01  2.911890707E+01  0.000000000E+00  0.00000E+00  9.000E+00
      21    -1     0     0   502   503  0.000000000E+00  0.000000000E+00 -1.402385247E+03  1.402385247E+03  0.000000000E+00  0.00000E+00  9.000E+00
      25     1     1     2     0     0 -7.219725077E+00 -9.606517668E+00 -1.111389070E+03  1.118460896E+03  1.249988030E+02  0.00000E+00  9.000E+00
       5     1     1     2   501     0 -5.254969875E+00  2.990822532E+00  2.341958429E+01  2.464952649E+01  4.750000000E+00  0.00000E+00  9.000E+00
      -5     1     1     2     0   503 -6.477912854E+00  4.966013343E+00 -2.243058043E+02  2.245045233E+02  4.750000000E+00  0.00000E+00  9.000E+00
      21     1     1     2   512   501  1.895260781E+01  1.649681793E+00 -6.099104909E+01  6.388920771E+01  6.743495762E-07  0.00000E+00  9.000E+00
#rwgt            1           9   4.0096001148430023E-004           5     1558733           0
</event>
<event>
      6   9999  3.45752E-01  2.66092E+00 -1.00000E+00  2.91285E-01
      21    -1     0     0   501   502  0.000000000E+00  0.000000000E+00  6.911468544E+01  6.911468544E+01  0.000000000E+00  0.00000E+00  9.000E+00
      21    -1     0     0   502   511  0.000000000E+00  0.000000000E+00 -2.569768455E+03  2.569768455E+03  0.000000000E+00  0.00000E+00  9.000E+00
      25     1     1     2     0     0  8.298305089E+01  2.124305165E+01 -1.245690553E+02  1.961680164E+02  1.250079483E+02  0.00000E+00  9.000E+00
       5     1     1     2   501     0 -1.586430570E+00  1.836086030E+00  2.824443057E+01  2.874366595E+01  4.750000000E+00  0.00000E+00  9.000E+00
      -5     1     1     2     0   503 -8.322420440E+01 -2.501315454E+01 -3.880246680E+02  3.976652255E+02  4.750000000E+00  0.00000E+00  9.000E+00
      21     1     1     2   503   511  1.827584079E+00  1.934016861E+00 -2.016304476E+03  2.016306232E+03  2.157918644E-05  0.00000E+00  9.000E+00
#rwgt            1           9   6.0771688158502721E-004           5     1561684           0
</event>
<event>
      6   9999  3.45752E-01  1.67689E+01 -1.00000E+00  1.66280E-01
      21    -1     0     0   501   502  0.000000000E+00  0.000000000E+00  3.857961947E+01  3.857961947E+01  0.000000000E+00  0.00000E+00  9.000E+00
      21    -1     0     0   512   503  0.000000000E+00  0.000000000E+00 -3.374150615E+03  3.374150615E+03  0.000000000E+00  0.00000E+00  9.000E+00
      25     1     1     2     0     0 -2.596078753E+01  2.942812084E+00 -1.689433064E+03  1.694252809E+03  1.250035186E+02  0.00000E+00  9.000E+00
       5     1     1     2   501     0 -2.690564092E+00 -8.549247898E+00  3.524986044E+01  3.668029357E+01  4.750000000E+00  0.00000E+00  9.000E+00
      -5     1     1     2     0   503  1.188257745E+01  5.668694194E+00 -3.198484642E+02  3.201545444E+02  4.750000000E+00  0.00000E+00  9.000E+00
      21     1     1     2   512   502  1.676877417E+01 -6.225838058E-02 -1.361539327E+03  1.361642587E+03  1.525878906E-05  0.00000E+00  9.000E+00
#rwgt            1           9   5.4223497489082687E-002           5     1570870           0
</event>
<event>
      6   9999  3.45752E-01  1.27329E+01 -1.00000E+00  1.76779E-01
      21    -1     0     0   501   511  0.000000000E+00  0.000000000E+00  2.378031398E+02  2.378031398E+02  0.000000000E+00  0.00000E+00  9.000E+00
      21    -1     0     0   502   503  0.000000000E+00  0.000000000E+00 -7.921284550E+01  7.921284550E+01  0.000000000E+00  0.00000E+00  9.000E+00
      25     1     1     2     0     0 -1.030872053E+01 -8.642231248E+00 -2.048547047E+01  1.273805592E+02  1.250007779E+02  0.00000E+00  9.000E+00
       5     1     1     2   501     0  1.209460122E+00 -2.651822808E+00  1.397973457E+02  1.399083819E+02  4.750000000E+00  0.00000E+00  9.000E+00
      -5     1     1     2     0   503 -1.986426734E-01  2.594801187E+00 -2.562362324E+00  5.991715346E+00  4.750000000E+00  0.00000E+00  9.000E+00
      21     1     1     2   502   511  9.297903082E+00  8.699252869E+00  4.184078140E+01  4.373532886E+01  4.768371582E-07  0.00000E+00  9.000E+00
#rwgt            1           9   5.6705315034739832E-005           5     1574061           0
</event>
<event>
      6   9999  3.45752E-01  9.80878E+00 -1.00000E+00  1.88081E-01
      21    -1     0     0   501   502  0.000000000E+00  0.000000000E+00  1.519269440E+01  1.519269440E+01  0.000000000E+00  0.00000E+00  9.000E+00
      21    -1     0     0   512   503  0.000000000E+00  0.000000000E+00 -9.195497706E+02  9.195497706E+02  0.000000000E+00  0.00000E+00  9.000E+00
      25     1     1     2     0     0  7.910992018E+00  2.573521892E+00 -8.356672838E+02  8.450051433E+02  1.249987042E+02  0.00000E+00  9.000E+00
       5     1     1     2   501     0  1.778043738E+00 -3.596203127E-01  8.955397791E+00  1.029817537E+01  4.750000000E+00  0.00000E+00  9.000E+00
      -5     1     1     2     0   503 -2.431888361E+00  4.385037102E+00 -3.574190386E+01  3.640314304E+01  4.750000000E+00  0.00000E+00  9.000E+00
      21     1     1     2   512   502 -7.257147395E+00 -6.598938682E+00 -4.190328632E+01  4.303600335E+01  4.768371582E-07  0.00000E+00  9.000E+00
#rwgt            1           9   3.3356742995344995E-003           5     1576490           0
</event>
<event>
      6   9999  3.45752E-01  8.14871E+01 -1.00000E+00  1.24338E-01
      21    -1     0     0   501   502  0.000000000E+00  0.000000000E+00  5.122385093E+01  5.122385093E+01  0.000000000E+00  0.00000E+00  9.000E+00
      21    -1     0     0   511   503  0.000000000E+00  0.000000000E+00 -1.754273696E+03  1.754273696E+03  0.000000000E+00  0.00000E+00  9.000E+00
      25     1     1     2     0     0  9.669189648E+01  1.252914287E+02 -9.424020957E+02  9.637450411E+02  1.250421099E+02  0.00000E+00  9.000E+00
       5     1     1     2   501     0  2.466126731E+01  1.698338643E+01  2.142725718E+01  3.712550835E+01  4.750000000E+00  0.00000E+00  9.000E+00
      -5     1     1     2     0   503 -6.736752191E+01 -8.123628753E+01 -3.820565039E+02  3.963930526E+02  4.750000000E+00  0.00000E+00  9.000E+00
      21     1     1     2   511   502 -5.398564188E+01 -6.103852765E+01 -4.000185031E+02  4.082339454E+02  0.000000000E+00  0.00000E+00  9.000E+00
#rwgt            1           9   3.3055684219717894E-004           5     1579278           0
</event>
<event>
      6   9999 -3.45752E-01  1.28517E+01 -1.00000E+00  1.76402E-01
      21    -1     0     0   512   503  0.000000000E+00  0.000000000E+00  9.257642195E+00  9.257642195E+00  0.000000000E+00  0.00000E+00  9.000E+00
      21    -1     0     0   501   502  0.000000000E+00  0.000000000E+00 -7.717726878E+02  7.717726878E+02  0.000000000E+00  0.00000E+00  9.000E+00
      25     1     1     2     0     0  3.537893463E+00  1.868963455E+01 -5.641690559E+02  5.781639680E+02  1.250001245E+02  0.00000E+00  9.000E+00
       5     1     1     2   501     0 -1.371627115E+01 -1.173965918E+01 -1.478973063E+02  1.490708938E+02  4.750000000E+00  0.00000E+00  9.000E+00
      -5     1     1     2     0   503 -1.733430713E-01  6.663718116E-01 -7.011313834E+00  8.496771204E+00  4.750000000E+00  0.00000E+00  9.000E+00
      21     1     1     2   512   502  1.035172076E+01 -7.616347184E+00 -4.343736960E+01  4.529869695E+01  9.536743164E-07  0.00000E+00  9.000E+00
#rwgt            1           9  -887.30494771106237                5     1580626           0
</event>
<event>
      6   9999 -3.45752E-01  2.77987E+01 -1.00000E+00  1.50011E-01
      21    -1     0     0   501   502  0.000000000E+00  0.000000000E+00  1.018770638E+02  1.018770638E+02  0.000000000E+00  0.00000E+00  9.000E+00
      21    -1     0     0   511   503  0.000000000E+00  0.000000000E+00 -4.016546477E+02  4.016546477E+02  0.000000000E+00  0.00000E+00  9.000E+00
      25     1     1     2     0     0 -4.532359307E+01  4.932042404E+00  1.626091595E+01  1.340432185E+02  1.249984556E+02  0.00000E+00  9.000E+00
       5     1     1     2   501     0 -1.521639699E+00 -2.393373145E+00  1.465137363E+01  1.566106227E+01  4.750000000E+00  0.00000E+00  9.000E+00
      -5     1     1     2     0   503  2.979992575E+01 -2.449833307E+01 -2.357977133E+01  4.546176431E+01  4.750000000E+00  0.00000E+00  9.000E+00
      21     1     1     2   511   502  1.704530702E+01  2.195966381E+01 -3.071101021E+02  3.083656663E+02  3.814697266E-06  0.00000E+00  9.000E+00
#rwgt            1           9  -6.9324400822183118E-003           5     1582834           0
</event>
<event>
      6   9999  3.45752E-01  2.40522E+01 -1.00000E+00  1.54326E-01
      21    -1     0     0   501   502  0.000000000E+00  0.000000000E+00  2.629361053E+01  2.629361053E+01  0.000000000E+00  0.00000E+00  9.000E+00
      21    -1     0     0   502   512  0.000000000E+00  0.000000000E+00 -2.256442805E+03  2.256442805E+03  0.000000000E+00  0.00000E+00  9.000E+00
      25     1     1     2     0     0  1.613786181E+02 -1.466619907E+01 -1.695492173E+03  1.707798863E+03  1.250003624E+02  0.00000E+00  9.000E+00
       5     1     1     2   501     0  1.846068630E-01  1.673041459E+00  6.746007126E+00  8.420466707E+00  4.750000000E+00  0.00000E+00  9.000E+00
      -5     1     1     2     0   503 -1.377905595E+02  1.664924004E+01 -4.086459729E+02  4.315988057E+02  4.750000000E+00  0.00000E+00  9.000E+00
      21     1     1     2   503   512 -2.377266551E+01 -3.656082428E+00 -1.327570558E+02  1.349182805E+02  1.907348633E-06  0.00000E+00  9.000E+00
#rwgt            1           9   3.8850130957371098E-004           5     1584107           0
</event>
<event>
      6   9999  3.45752E-01  5.38571E+00 -1.00000E+00  2.20807E-01
      21    -1     0     0   511   503  0.000000000E+00  0.000000000E+00  5.550040257E+02  5.550040257E+02  0.000000000E+00  0.00000E+00  9.000E+00
      21    -1     0     0   501   502  0.000000000E+00  0.000000000E+00 -7.079756269E+02  7.079756269E+02  0.000000000E+00  0.00000E+00  9.000E+00
      25     1     1     2     0     0 -1.091234703E+01 -1.904371893E+00 -4.722956348E+02  4.886830813E+02  1.250011253E+02  0.00000E+00  9.000E+00
       5     1     1     2   501     0  3.517781647E-02 -1.143234595E-01 -1.242454317E+01  1.330210811E+01  4.750000000E+00  0.00000E+00  9.000E+00
      -5     1     1     2     0   503  8.366187476E+00 -2.745848869E+00 -2.144930667E+02  2.147262698E+02  4.750000000E+00  0.00000E+00  9.000E+00
      21     1     1     2   511   502  2.510981736E+00  4.764544222E+00  5.462416435E+02  5.462681933E+02  7.629394531E-06  0.00000E+00  9.000E+00
#rwgt            1           9   2.4365838374369202E-004           5     1587076           0
</event>
<event>
      6   9999 -3.45752E-01  6.57894E+00 -1.00000E+00  2.08633E-01
       1    -1     0     0   501     0  0.000000000E+00  0.000000000E+00  3.760571440E+01  3.760571440E+01  0.000000000E+00  0.00000E+00  9.000E+00
      21    -1     0     0   502   503  0.000000000E+00  0.000000000E+00 -9.273083653E+02  9.273083653E+02  0.000000000E+00  0.00000E+00  9.000E+00
      25     1     1     2     0     0 -4.775068270E+00  1.149889069E+01 -9.077284735E+02  9.163791747E+02  1.249991381E+02  0.00000E+00  9.000E+00
       5     1     1     2   501     0 -5.569954626E-01  1.454491514E-01 -2.058205944E+00  5.208657323E+00  4.750000000E+00  0.00000E+00  9.000E+00
      -5     1     1     2     0   503  4.021712561E+00 -5.197213440E+00 -9.804025980E+00  1.272268151E+01  4.750000000E+00  0.00000E+00  9.000E+00
       1     1     1     2   502     0  1.310351171E+00 -6.447126399E+00  2.988805451E+01  3.060356615E+01  1.390207266E-06  0.00000E+00  9.000E+00
#rwgt            1           9  -1.5442003269295278E-002           5     1591541           0
</event>
<event>
      6   9999  3.45752E-01  6.10504E+00 -1.00000E+00  2.13013E-01
      21    -1     0     0   511   502  0.000000000E+00  0.000000000E+00  2.593341588E+02  2.593341588E+02  0.000000000E+00  0.00000E+00  9.000E+00
      21    -1     0     0   502   503  0.000000000E+00  0.000000000E+00 -7.574921298E+01  7.574921298E+01  0.000000000E+00  0.00000E+00  9.000E+00
      25     1     1     2     0     0 -1.644128761E+01  2.400401080E+01 -1.503039158E+01  1.292241870E+02  1.250058773E+02  0.00000E+00  9.000E+00
       5     1     1     2   501     0 -1.685978554E+00 -2.536957930E+00  1.191239452E+02  1.192575176E+02  4.750000000E+00  0.00000E+00  9.000E+00
      -5     1     1     2     0   503  1.328080156E+01 -1.775447191E+01  3.506555287E+01  4.175831009E+01  4.750000000E+00  0.00000E+00  9.000E+00
      21     1     1     2   511   501  4.846464612E+00 -3.712580954E+00  4.442583937E+01  4.484335715E+01  4.768371582E-07  0.00000E+00  9.000E+00
#rwgt            1           9   7.2658351417930573E-003           5     1594478           0
</event>
<event>
      6   9999  3.45752E-01  4.99031E+00 -1.00000E+00  2.29510E-01
      21    -1     0     0   501   512  0.000000000E+00  0.000000000E+00  3.706208237E+01  3.706208237E+01  0.000000000E+00  0.00000E+00  9.000E+00
      21    -1     0     0   502   503  0.000000000E+00  0.000000000E+00 -3.704355515E+02  3.704355515E+02  0.000000000E+00  0.00000E+00  9.000E+00
      25     1     1     2     0     0  1.381393920E+01 -2.415537587E+01 -3.307061122E+02  3.546357460E+02  1.250026903E+02  0.00000E+00  9.000E+00
       5     1     1     2   501     0 -1.258139998E+00 -7.324377313E-01  1.081429590E+01  1.190087716E+01  4.750000000E+00  0.00000E+00  9.000E+00
      -5     1     1     2     0   503 -1.666083437E+01  2.772539414E+01 -8.223045078E+00  3.371144987E+01  4.750000000E+00  0.00000E+00  9.000E+00
      21     1     1     2   502   512  4.105035168E+00 -2.837580542E+00 -5.258607715E+00  7.249560826E+00  1.884864366E-07  0.00000E+00  9.000E+00
#rwgt            1           9   3.4759870753261416E-004           5     1598628           0
</event>
<event>
      6   9999  3.45752E-01  1.41217E+01 -1.00000E+00  1.72674E-01
      21    -1     0     0   511   502  0.000000000E+00  0.000000000E+00  1.427940370E+02  1.427940370E+02  0.000000000E+00  0.00000E+00  9.000E+00
      21    -1     0     0   502   503  0.000000000E+00  0.000000000E+00 -9.440420302E+02  9.440420302E+02  0.000000000E+00  0.00000E+00  9.000E+00
      25     1     1     2     0     0  1.253341746E+01 -7.264588849E+00 -8.208545616E+02  8.304419903E+02  1.249873075E+02  0.00000E+00  9.000E+00
       5     1     1     2   501     0  2.634441384E+00  5.305272565E-01 -5.682574536E+01  5.708721027E+01  4.750000000E+00  0.00000E+00  9.000E+00
      -5     1     1     2     0   503 -1.145831459E+00  5.059311552E+00 -6.087262600E+01  6.127763588E+01  4.750000000E+00  0.00000E+00  9.000E+00
      21     1     1     2   511   501 -1.402202739E+01  1.674750041E+00  1.373049398E+02  1.380292307E+02  3.814697266E-06  0.00000E+00  9.000E+00
#rwgt            1           9   1.8271703527928212E-004           5     1604056           0
</event>
<event>
      6   9999  3.45752E-01  1.06245E+01 -1.00000E+00  1.84464E-01
      21    -1     0     0   512   502  0.000000000E+00  0.000000000E+00  1.001105584E+01  1.001105584E+01  0.000000000E+00  0.00000E+00  9.000E+00
      21    -1     0     0   502   503  0.000000000E+00  0.000000000E+00 -8.082330525E+02  8.082330525E+02  0.000000000E+00  0.00000E+00  9.000E+00
      25     1     1     2     0     0 -3.314508201E+00  2.695858306E+00 -5.841183135E+02  5.973577069E+02  1.249950887E+02  0.00000E+00  9.000E+00
       5     1     1     2   501     0  1.185670101E+00 -1.867741441E+00 -4.065821575E-01  5.255671292E+00  4.750000000E+00  0.00000E+00  9.000E+00
      -5     1     1     2     0   503  3.701975302E+00 -1.133553719E+01 -1.759303740E+02  1.763980102E+02  4.750000000E+00  0.00000E+00  9.000E+00
      21     1     1     2   512   501 -1.573137202E+00  1.050742032E+01 -3.776672707E+01  3.923271996E+01  4.768371582E-07  0.00000E+00  9.000E+00
#rwgt            1           9   1.6722545794952187E-003           5     1605656           0
</event>
<event>
      6   9999  3.45752E-01  2.21159E+00 -1.00000E+00  3.16857E-01
      21    -1     0     0   501   511  0.000000000E+00  0.000000000E+00  8.805564021E+01  8.805564021E+01  0.000000000E+00  0.00000E+00  9.000E+00
      21    -1     0     0   502   503  0.000000000E+00  0.000000000E+00 -1.418100722E+03  1.418100722E+03  0.000000000E+00  0.00000E+00  9.000E+00
      25     1     1     2     0     0 -1.918937755E+01  1.741129372E+01 -1.148845204E+03  1.155915917E+03  1.249996745E+02  0.00000E+00  9.000E+00
       5     1     1     2   501     0 -1.979196402E+00 -1.532864173E-02  2.391580855E-01  5.151422129E+00  4.750000000E+00  0.00000E+00  9.000E+00
      -5     1     1     2     0   503  2.101617319E+01 -1.960230177E+01 -2.624431482E+02  2.640547259E+02  4.750000000E+00  0.00000E+00  9.000E+00
      21     1     1     2   502   511  1.524007602E-01  2.206336694E+00  8.100411226E+01  8.103429737E+01  3.932099939E-06  0.00000E+00  9.000E+00
#rwgt            1           9   9.0281189325661759E-002           5     1607900           0
</event>
<event>
      6   9999  3.45752E-01  1.65127E+01 -1.00000E+00  1.66833E-01
      21    -1     0     0   501   502  0.000000000E+00  0.000000000E+00  1.292412499E+01  1.292412499E+01  0.000000000E+00  0.00000E+00  9.000E+00
       2    -1     0     0   502     0  0.000000000E+00  0.000000000E+00 -1.443935301E+03  1.443935301E+03  0.000000000E+00  0.00000E+00  9.000E+00
      25     1     1     2     0     0 -1.918600025E+01  3.579312645E+00 -6.543211254E+02  6.664404055E+02  1.250030595E+02  0.00000E+00  9.000E+00
       5     1     1     2   501     0 -4.266077493E+00 -1.108549288E+00  5.024970658E+00  8.200068830E+00  4.750000000E+00  0.00000E+00  9.000E+00
      -5     1     1     2     0   503  8.211823525E+00  3.885624120E+00 -1.926834075E+02  1.929559280E+02  4.750000000E+00  0.00000E+00  9.000E+00
       2     1     1     2   503     0  1.524025421E+01 -6.356387477E+00 -5.890316137E+02  5.892630236E+02  0.000000000E+00  0.00000E+00  9.000E+00
#rwgt            1           9   2.8059129889465329E-004           5     1615187           0
</event>
<event>
      6   9999  3.45752E-01  1.84667E+01 -1.00000E+00  1.62900E-01
      21    -1     0     0   511   503  0.000000000E+00  0.000000000E+00  9.586046058E+02  9.586046058E+02  0.000000000E+00  0.00000E+00  9.000E+00
      21    -1     0     0   501   502  0.000000000E+00  0.000000000E+00 -9.571812939E+02  9.571812939E+02  0.000000000E+00  0.00000E+00  9.000E+00
      25     1     1     2     0     0 -2.266905381E+01 -7.904170946E+01 -6.121557585E+02  6.301719360E+02  1.249820725E+02  0.00000E+00  9.000E+00
       5     1     1     2   501     0  1.604250263E+00 -2.069908491E+00 -1.283177246E+02  1.284323133E+02  4.750000000E+00  0.00000E+00  9.000E+00
      -5     1     1     2     0   503  3.480812767E+00  8.675263079E+01 -1.984447713E+02  2.166587750E+02  4.750000000E+00  0.00000E+00  9.000E+00
      21     1     1     2   511   502  1.758399078E+01 -5.641012843E+00  9.403415663E+02  9.405228754E+02  2.157918644E-05  0.00000E+00  9.000E+00
#rwgt            1           9   1.0124337586000636                5     1617291           0
</event>
<event>
      6   9999  3.45752E-01  2.01382E+01 -1.00000E+00  1.59982E-01
      21    -1     0     0   512   503  0.000000000E+00  0.000000000E+00  8.584271498E+01  8.584271498E+01  0.000000000E+00  0.00000E+00  9.000E+00
      21    -1     0     0   501   502  0.000000000E+00  0.000000000E+00 -1.406949677E+03  1.406949677E+03  0.000000000E+00  0.00000E+00  9.000E+00
      25     1     1     2     0     0 -1.243396577E+02  5.235051122E+01 -3.467309943E+02  3.924882024E+02  1.249947203E+02  0.00000E+00  9.000E+00
       5     1     1     2   501     0 -5.793039005E+01 -1.415003689E+02 -6.315887315E+02  6.498501155E+02  4.750000000E+00  0.00000E+00  9.000E+00
      -5     1     1     2     0   503  1.787239910E+02  6.932631440E+01 -3.699182584E+02  4.166659132E+02  4.750000000E+00  0.00000E+00  9.000E+00
      21     1     1     2   512   502  3.546056712E+00  1.982354324E+01  2.713102269E+01  3.378816031E+01  7.539457465E-07  0.00000E+00  9.000E+00
#rwgt            1           9   5.4200662003422431E-004           5     1619726           0
</event>
<event>
      6   9999  3.45752E-01  2.90987E+01 -1.00000E+00  1.48700E-01
      21    -1     0     0   501   511  0.000000000E+00  0.000000000E+00  8.783543257E+02  8.783543257E+02  0.000000000E+00  0.00000E+00  9.000E+00
      21    -1     0     0   502   503  0.000000000E+00  0.000000000E+00 -6.745481507E+01  6.745481507E+01  0.000000000E+00  0.00000E+00  9.000E+00
      25     1     1     2     0     0  3.622565063E+01 -2.486594757E+01  9.695024836E+00  1.328527111E+02  1.250009449E+02  0.00000E+00  9.000E+00
       5     1     1     2   501     0 -1.194183931E+01  3.739930594E+01  1.031504911E+02  1.104712720E+02  4.750000000E+00  0.00000E+00  9.000E+00
      -5     1     1     2     0   503  1.293447358E+00  1.342476415E+00  1.493030096E+00  5.316661345E+00  4.750000000E+00  0.00000E+00  9.000E+00
      21     1     1     2   502   511 -2.557725868E+01 -1.387583478E+01  6.965609646E+02  6.971684964E+02  0.000000000E+00  0.00000E+00  9.000E+00
#rwgt            1           9   1.9657471519348692E-002           5     1622539           0
</event>
<event>
      6   9999  3.45752E-01  8.77265E+00 -1.00000E+00  1.93390E-01
      21    -1     0     0   512   503  0.000000000E+00  0.000000000E+00  1.561848540E+01  1.561848540E+01  0.000000000E+00  0.00000E+00  9.000E+00
      21    -1     0     0   501   502  0.000000000E+00  0.000000000E+00 -4.281285445E+02  4.281285445E+02  0.000000000E+00  0.00000E+00  9.000E+00
      25     1     1     2     0     0 -1.385764508E+01 -2.701567940E-01 -3.976372238E+02  4.170515488E+02  1.249981011E+02  0.00000E+00  9.000E+00
       5     1     1     2   501     0 -5.468688538E-01 -6.386279005E-01 -1.967615397E+00  5.209694952E+00  4.750000000E+00  0.00000E+00  9.000E+00
      -5     1     1     2     0   503  6.146234469E+00 -2.050979985E+00 -8.401668003E+00  1.162468246E+01  4.750000000E+00  0.00000E+00  9.000E+00
      21     1     1     2   512   502  8.258279466E+00  2.959764679E+00 -4.503551907E+00  9.861103715E+00  1.576990671E-07  0.00000E+00  9.000E+00
#rwgt            1           9   2.0310195021502834E-004           5     1623759           0
</event>
<event>
      6   9999  3.45752E-01  3.53853E+00 -1.00000E+00  2.59410E-01
      21    -1     0     0   501   502  0.000000000E+00  0.000000000E+00  2.151100227E+01  2.151100227E+01  0.000000000E+00  0.00000E+00  9.000E+00
      21    -1     0     0   511   503  0.000000000E+00  0.000000000E+00 -1.026804891E+03  1.026804891E+03  0.000000000E+00  0.00000E+00  9.000E+00
      25     1     1     2     0     0 -1.028067616E+01  4.607770762E+00 -9.344319922E+02  9.428219986E+02  1.249929962E+02  0.00000E+00  9.000E+00
       5     1     1     2   501     0  5.946354484E+00 -4.066841664E+00  1.577905089E+01  1.798441769E+01  4.750000000E+00  0.00000E+00  9.000E+00
      -5     1     1     2     0   503  6.165283442E+00 -3.568930453E+00 -6.786645237E+01  6.840442852E+01  4.750000000E+00  0.00000E+00  9.000E+00
      21     1     1     2   511   502 -1.830961771E+00  3.028001355E+00 -1.877449472E+01  1.910504816E+01  2.384185791E-07  0.00000E+00  9.000E+00
#rwgt            1           9   1.9126167111722687E-005           5     1626020           0
</event>
<event>
      6   9999 -3.45752E-01  1.96523E+01 -1.00000E+00  1.60794E-01
      21    -1     0     0   502   503  0.000000000E+00  0.000000000E+00  5.325704269E+00  5.325704269E+00  0.000000000E+00  0.00000E+00  9.000E+00
      21    -1     0     0   501   512  0.000000000E+00  0.000000000E+00 -4.193971744E+03  4.193971744E+03  0.000000000E+00  0.00000E+00  9.000E+00
      25     1     1     2     0     0  1.180184097E+02  2.519825753E+01 -2.327005110E+03  2.333482737E+03  1.250024140E+02  0.00000E+00  9.000E+00
       5     1     1     2   501     0 -5.186626784E+00  2.165348475E+00 -9.199343979E+01  9.228729758E+01  4.750000000E+00  0.00000E+00  9.000E+00
      -5     1     1     2     0   503 -9.319144364E+01 -2.804917998E+01 -1.436446578E+03  1.439747456E+03  4.750000000E+00  0.00000E+00  9.000E+00
      21     1     1     2   502   512 -1.964033928E+01  6.855739799E-01 -3.332009110E+02  3.337799575E+02  6.607249480E-06  0.00000E+00  9.000E+00
#rwgt            1           9  -8.1316239577223283E-006           5     1631525           0
</event>
<event>
      6   9999  3.45752E-01  9.53850E+00 -1.00000E+00  1.89381E-01
      21    -1     0     0   502   503  0.000000000E+00  0.000000000E+00  5.724204511E+01  5.724204511E+01  0.000000000E+00  0.00000E+00  9.000E+00
      21    -1     0     0   501   511  0.000000000E+00  0.000000000E+00 -1.384406503E+03  1.384406503E+03  0.000000000E+00  0.00000E+00  9.000E+00
      25     1     1     2     0     0 -1.538921981E+01  3.387301978E+01 -6.374475897E+02  6.506519550E+02  1.249973098E+02  0.00000E+00  9.000E+00
       5     1     1     2   501     0  1.698061164E+01 -1.280514541E+01 -6.576097548E+02  6.579707175E+02  4.750000000E+00  0.00000E+00  9.000E+00
      -5     1     1     2     0   503 -8.254486222E+00 -1.424247108E+01  4.871642814E+01  5.164143100E+01  4.750000000E+00  0.00000E+00  9.000E+00
      21     1     1     2   502   511  6.663094396E+00 -6.825403294E+00 -8.082354164E+01  8.138444471E+01  0.000000000E+00  0.00000E+00  9.000E+00
#rwgt            1           9   283.02796956207908                5     1633223           0
</event>
<event>
      6   9999  3.45752E-01  1.38383E+01 -1.00000E+00  1.73462E-01
      21    -1     0     0   501   502  0.000000000E+00  0.000000000E+00  6.417728783E+01  6.417728783E+01  0.000000000E+00  0.00000E+00  9.000E+00
      21    -1     0     0   512   503  0.000000000E+00  0.000000000E+00 -4.405026345E+02  4.405026345E+02  0.000000000E+00  0.00000E+00  9.000E+00
      25     1     1     2     0     0  4.837983723E-02  3.532207373E+00 -5.633058682E+01  1.371359710E+02  1.249826416E+02  0.00000E+00  9.000E+00
       5     1     1     2   501     0  1.579154715E+00 -6.271528664E-01  1.414607802E+01  1.501869081E+01  4.750000000E+00  0.00000E+00  9.000E+00
      -5     1     1     2     0   503  1.218984731E+01 -3.666466299E+00  3.951655345E+00  1.414967959E+01  4.750000000E+00  0.00000E+00  9.000E+00
      21     1     1     2   512   502 -1.381738186E+01  7.614117925E-01 -3.380924932E+02  3.383755809E+02  5.394796609E-06  0.00000E+00  9.000E+00
#rwgt            1           9   3.3263299923047654E-004           5     1637631           0
</event>
<event>
      6   9999  3.45752E-01  9.41381E+00 -1.00000E+00  1.90000E-01
      21    -1     0     0   501   502  0.000000000E+00  0.000000000E+00  1.061646022E+01  1.061646022E+01  0.000000000E+00  0.00000E+00  9.000E+00
      21    -1     0     0   502   511  0.000000000E+00  0.000000000E+00 -1.171471346E+03  1.171471346E+03  0.000000000E+00  0.00000E+00  9.000E+00
      25     1     1     2     0     0  2.432088130E+00  8.147555549E+00 -7.752701937E+02  7.853286142E+02  1.249994454E+02  0.00000E+00  9.000E+00
       5     1     1     2   501     0 -1.559421153E+00  5.817116972E-01  3.971263754E+00  6.411210388E+00  4.750000000E+00  0.00000E+00  9.000E+00
      -5     1     1     2     0   503 -2.625051915E+00  5.199985436E-01 -2.179462701E+01  2.246618709E+01  4.750000000E+00  0.00000E+00  9.000E+00
      21     1     1     2   503   511  1.752384938E+00 -9.249265790E+00 -3.677613287E+02  3.678817944E+02  5.394796609E-06  0.00000E+00  9.000E+00
#rwgt            1           9   6.5222769577799860E-004           5     1639260           0
</event>
<event>
      6   9999  3.45752E-01  9.93071E+00 -1.00000E+00  1.87512E-01
      21    -1     0     0   501   512  0.000000000E+00  0.000000000E+00  5.078281325E+02  5.078281325E+02  0.000000000E+00  0.00000E+00  9.000E+00
      21    -1     0     0   502   503  0.000000000E+00  0.000000000E+00 -1.326754923E+02  1.326754923E+02  0.000000000E+00  0.00000E+00  9.000E+00
      25     1     1     2     0     0 -2.399785507E+01  5.225360806E+01 -6.427349410E+01  1.518622818E+02  1.249989359E+02  0.00000E+00  9.000E+00
       5     1     1     2   501     0 -6.504123963E+00 -9.687356935E-01  1.832617222E+02  1.834411715E+02  4.750000000E+00  0.00000E+00  9.000E+00
      -5     1     1     2     0   503  2.203492496E+01 -4.609565607E+01  2.532948772E+00  5.137436867E+01  4.750000000E+00  0.00000E+00  9.000E+00
      21     1     1     2   502   512  8.467054069E+00 -5.189216299E+00  2.536314634E+02  2.538258028E+02  0.000000000E+00  0.00000E+00  9.000E+00
#rwgt            1           9   8.0228441580291632E-002           5     1641936           0
</event>
<event>
      6   9999  3.45752E-01  1.71970E+01 -1.00000E+00  1.65383E-01
      21    -1     0     0   501   502  0.000000000E+00  0.000000000E+00  3.485636873E+02  3.485636873E+02  0.000000000E+00  0.00000E+00  9.000E+00
      21    -1     0     0   502   511  0.000000000E+00  0.000000000E+00 -1.437221360E+02  1.437221360E+02  0.000000000E+00  0.00000E+00  9.000E+00
      25     1     1     2     0     0  3.660723755E+01 -1.256057538E+01 -8.818689999E+01  1.577906811E+02  1.249924470E+02  0.00000E+00  9.000E+00
       5     1     1     2   501     0 -5.309536310E-01  4.180959917E+00  2.942363778E+02  2.943048944E+02  4.750000000E+00  0.00000E+00  9.000E+00
      -5     1     1     2     0   503 -1.902104570E+01  6.175956549E+00  6.194019690E+00  2.146790625E+01  4.750000000E+00  0.00000E+00  9.000E+00
      21     1     1     2   503   511 -1.705523822E+01  2.203658913E+00 -7.401946261E+00  1.872234152E+01  2.795705652E-07  0.00000E+00  9.000E+00
#rwgt            1           9  0.46746430524000160                5     1645091           0
</event>
<event>
      6   9999  3.45752E-01  3.69098E+01 -1.00000E+00  1.42241E-01
      21    -1     0     0   512   503  0.000000000E+00  0.000000000E+00  5.494691996E+02  5.494691996E+02  0.000000000E+00  0.00000E+00  9.000E+00
      21    -1     0     0   501   502  0.000000000E+00  0.000000000E+00 -3.355240806E+01  3.355240806E+01  0.000000000E+00  0.00000E+00  9.000E+00
      25     1     1     2     0     0  7.786554375E-01  1.434942763E+01  1.845111993E+02  2.233288428E+02  1.249995079E+02  0.00000E+00  9.000E+00
       5     1     1     2   501     0 -1.581148172E+00 -4.832281246E+00 -8.263377812E+00  1.080263322E+01  4.750000000E+00  0.00000E+00  9.000E+00
      -5     1     1     2     0   503  3.421033029E+01 -2.520942508E+01  1.791911363E+02  1.842223864E+02  4.750000000E+00  0.00000E+00  9.000E+00
      21     1     1     2   512   502 -3.340783755E+01  1.569227870E+01  1.604778337E+02  1.646677453E+02  0.000000000E+00  0.00000E+00  9.000E+00
#rwgt            1           9   17.995108224424989                5     1648594           0
</event>
<event>
      6   9999  3.45752E-01  9.49864E+00 -1.00000E+00  1.89578E-01
      21    -1     0     0   511   502  0.000000000E+00  0.000000000E+00  9.365098490E+00  9.365098490E+00  0.000000000E+00  0.00000E+00  9.000E+00
      21    -1     0     0   502   503  0.000000000E+00  0.000000000E+00 -7.718739270E+02  7.718739270E+02  0.000000000E+00  0.00000E+00  9.000E+00
      25     1     1     2     0     0 -1.672213221E+01  3.485504090E+00 -7.116290610E+02  7.227254314E+02  1.249974013E+02  0.00000E+00  9.000E+00
       5     1     1     2   501     0 -3.319283339E-01 -4.706065460E-01 -5.947230104E-01  4.821601643E+00  4.750000000E+00  0.00000E+00  9.000E+00
      -5     1     1     2     0   503  7.980115142E+00 -2.064093294E-01 -2.646751234E+01  2.805025048E+01  4.750000000E+00  0.00000E+00  9.000E+00
      21     1     1     2   511   501  9.073945403E+00 -2.808488214E+00 -2.381753217E+01  2.564174194E+01  4.768371582E-07  0.00000E+00  9.000E+00
#rwgt            1           9   7.5926988882726051E-004           5     1649505           0
</event>
<event>
      6   9999  3.45752E-01  2.27410E+01 -1.00000E+00  1.56066E-01
      21    -1     0     0   501   502  0.000000000E+00  0.000000000E+00  1.726850218E+01  1.726850218E+01  0.000000000E+00  0.00000E+00  9.000E+00
      21    -1     0     0   502   512  0.000000000E+00  0.000000000E+00 -1.020637882E+03  1.020637882E+03  0.000000000E+00  0.00000E+00  9.000E+00
      25     1     1     2     0     0 -1.020980388E+01 -3.806080946E+01 -7.165319377E+02  7.284191904E+02  1.249945356E+02  0.00000E+00  9.000E+00
       5     1     1     2   501     0  1.054098936E+00  3.066607572E+00  4.359523286E+00  7.216865652E+00  4.750000000E+00  0.00000E+00  9.000E+00
      -5     1     1     2     0   503  2.401470597E+01  5.220935650E+01 -1.904226969E+02  1.989620291E+02  4.750000000E+00  0.00000E+00  9.000E+00
      21     1     1     2   503   512 -1.485900103E+01 -1.721515461E+01 -1.007742685E+02  1.033082990E+02  1.348699152E-06  0.00000E+00  9.000E+00
#rwgt            1           9   5.9011689397665389E-004           5     1652167           0
</event>
<event>
      6   9999  3.45752E-01  7.76505E+00 -1.00000E+00  1.99560E-01
      21    -1     0     0   501   502  0.000000000E+00  0.000000000E+00  1.857601514E+02  1.857601514E+02  0.000000000E+00  0.00000E+00  9.000E+00
      21    -1     0     0   511   503  0.000000000E+00  0.000000000E+00 -2.114576477E+02  2.114576477E+02  0.000000000E+00  0.00000E+00  9.000E+00
      25     1     1     2     0     0  1.400417044E+01  3.873226713E+00 -1.574239372E+02  2.015462541E+02  1.250099109E+02  0.00000E+00  9.000E+00
       5     1     1     2   501     0 -1.344700738E+00  2.250797269E+00  1.606551877E+02  1.607467765E+02  4.750000000E+00  0.00000E+00  9.000E+00
      -5     1     1     2     0   503 -4.895918414E+00 -6.276817438E+00 -6.866824474E+00  1.153621396E+01  4.750000000E+00  0.00000E+00  9.000E+00
      21     1     1     2   511   502 -7.763551292E+00  1.527934556E-01 -2.206192231E+01  2.338855469E+01  2.384185791E-07  0.00000E+00  9.000E+00
#rwgt            1           9   2.5473264444021313E-003           5     1653671           0
</event>
<event>
      6   9999  3.45752E-01  4.00057E+00 -1.00000E+00  2.47837E-01
      -2    -1     0     0     0   502  0.000000000E+00  0.000000000E+00  1.053830618E+03  1.053830618E+03  0.000000000E+00  0.00000E+00  9.000E+00
      21    -1     0     0   502   503  0.000000000E+00  0.000000000E+00 -7.341418968E+02  7.341418968E+02  0.000000000E+00  0.00000E+00  9.000E+00
      25     1     1     2     0     0  1.120983851E+01 -1.337254156E+01 -6.772165225E+02  6.888757158E+02  1.249921921E+02  0.00000E+00  9.000E+00
       5     1     1     2   501     0  2.104765983E-01 -2.549839432E-01 -4.190644896E+00  6.342974212E+00  4.750000000E+00  0.00000E+00  9.000E+00
      -5     1     1     2     0   503 -8.886797185E+00  1.053142486E+01 -4.466612459E+01  4.698415967E+01  4.750000000E+00  0.00000E+00  9.000E+00
      -2     1     1     2     0   501 -2.533517920E+00  3.096100642E+00  1.045762014E+03  1.045769666E+03  2.157918644E-05  0.00000E+00  9.000E+00
#rwgt            1           9   3.7997504668520158E-005           5     1657590           0
</event>
<event>
      6   9999 -3.45752E-01  1.93885E+01 -1.00000E+00  1.61247E-01
      21    -1     0     0   501   511  0.000000000E+00  0.000000000E+00  2.245725393E+03  2.245725393E+03  0.000000000E+00  0.00000E+00  9.000E+00
      21    -1     0     0   502   503  0.000000000E+00  0.000000000E+00 -1.457548805E+01  1.457548805E+01  0.000000000E+00  0.00000E+00  9.000E+00
      25     1     1     2     0     0  1.109850728E+01  3.973923530E+01  3.122018555E+02  3.388163199E+02  1.249964653E+02  0.00000E+00  9.000E+00
       5     1     1     2   501     0 -1.778301214E+00 -1.920968358E+00  3.971927590E+02  3.972297859E+02  4.750000000E+00  0.00000E+00  9.000E+00
      -5     1     1     2     0   503 -1.398512610E+01 -5.663722035E+01  1.372224769E+03  1.373472511E+03  4.750000000E+00  0.00000E+00  9.000E+00
      21     1     1     2   502   511  4.664920033E+00  1.881895341E+01  1.495305216E+02  1.507822648E+02  0.000000000E+00  0.00000E+00  9.000E+00
#rwgt            1           9  -1.8468288882260022E-005           5     1661779           0
</event>
<event>
      6   9999  3.45752E-01  2.25473E+01 -1.00000E+00  1.56335E-01
      21    -1     0     0   501   512  0.000000000E+00  0.000000000E+00  8.223736008E+01  8.223736008E+01  0.000000000E+00  0.00000E+00  9.000E+00
      21    -1     0     0   502   503  0.000000000E+00  0.000000000E+00 -1.530993531E+03  1.530993531E+03  0.000000000E+00  0.00000E+00  9.000E+00
      25     1     1     2     0     0  1.287474736E+02 -1.138851495E+01 -4.057512281E+02  4.438029382E+02  1.249855136E+02  0.00000E+00  9.000E+00
       5     1     1     2   501     0  1.787384859E+00 -3.320212625E-01  5.129355945E+01  5.154509408E+01  4.750000000E+00  0.00000E+00  9.000E+00
      -5     1     1     2     0   503 -1.303349319E+02  3.426693987E+01 -1.085237068E+03  1.093582861E+03  4.750000000E+00  0.00000E+00  9.000E+00
      21     1     1     2   502   512 -1.999265865E-01 -2.254640366E+01 -9.061433782E+00  2.429999734E+01  6.307962682E-07  0.00000E+00  9.000E+00
#rwgt            1           9   7.3961078069936803E-004           5     1664289           0
</event>
<event>
      6   9999  3.45752E-01  9.37510E+00 -1.00000E+00  1.90195E-01
      21    -1     0     0   511   502  0.000000000E+00  0.000000000E+00  3.746434906E+02  3.746434906E+02  0.000000000E+00  0.00000E+00  9.000E+00
      21    -1     0     0   502   503  0.000000000E+00  0.000000000E+00 -1.582129916E+01  1.582129916E+01  0.000000000E+00  0.00000E+00  9.000E+00
      25     1     1     2     0     0 -1.190707897E+01 -1.149225962E+00  2.525820003E+02  2.820742656E+02  1.250005009E+02  0.00000E+00  9.000E+00
       5     1     1     2   501     0 -1.914498644E-01  1.705653977E-02  3.757318469E+01  3.787272966E+01  4.750000000E+00  0.00000E+00  9.000E+00
      -5     1     1     2     0   503  2.724718118E+00  1.287366793E+00  3.903066575E+01  3.943395454E+01  4.750000000E+00  0.00000E+00  9.000E+00
      21     1     1     2   511   501  9.373810720E+00 -1.551973712E-01  2.963634069E+01  3.108383990E+01  5.840038640E-07  0.00000E+00  9.000E+00
#rwgt            1           9   1.5113033436432843E-002           5     1666589           0
</event>
<event>
      6   9999  3.45752E-01  1.67966E+01 -1.00000E+00  1.66221E-01
      21    -1     0     0   512   503  0.000000000E+00  0.000000000E+00  1.378312754E+01  1.378312754E+01  0.000000000E+00  0.00000E+00  9.000E+00
      21    -1     0     0   501   502  0.000000000E+00  0.000000000E+00 -7.107064487E+02  7.107064487E+02  0.000000000E+00  0.00000E+00  9.000E+00
      25     1     1     2     0     0 -1.846690654E+01 -4.867060596E+00 -5.877778831E+02  6.012261053E+02  1.250010997E+02  0.00000E+00  9.000E+00
       5     1     1     2   501     0  2.825118239E+00 -3.802385097E+00 -4.057755869E+01  4.112833810E+01  4.750000000E+00  0.00000E+00  9.000E+00
      -5     1     1     2     0   503  6.351029609E+00 -5.323641472E+00 -6.402699981E+01  6.473558481E+01  4.750000000E+00  0.00000E+00  9.000E+00
      21     1     1     2   512   502  9.290758695E+00  1.399308716E+01 -4.540879590E+00  1.739954807E+01  2.795705652E-07  0.00000E+00  9.000E+00
#rwgt            1           9   3.1052696460056396E-004           5     1668775           0
</event>
<event>
      6   9999  3.45752E-01  9.14523E+00 -1.00000E+00  1.91376E-01
      21    -1     0     0   501   502  0.000000000E+00  0.000000000E+00  1.328164254E+01  1.328164254E+01  0.000000000E+00  0.00000E+00  9.000E+00
      21    -1     0     0   502   511  0.000000000E+00  0.000000000E+00 -1.208410768E+03  1.208410768E+03  0.000000000E+00  0.00000E+00  9.000E+00
      25     1     1     2     0     0  4.280828265E+00 -2.021581009E+01 -7.199249036E+02  7.309879943E+02  1.249983057E+02  0.00000E+00  9.000E+00
       5     1     1     2   501     0  2.696850023E+00  2.498841401E+00  5.425000217E+00  8.093845548E+00  4.750000000E+00  0.00000E+00  9.000E+00
      -5     1     1     2     0   503  1.512660932E+00  2.111539609E+01 -1.253545566E+02  1.272182198E+02  4.750000000E+00  0.00000E+00  9.000E+00
      21     1     1     2   503   511 -8.490339220E+00 -3.398427408E+00 -3.552746654E+02  3.553923508E+02  6.607249480E-06  0.00000E+00  9.000E+00
#rwgt            1           9   6.1064763397036044E-002           5     1669965           0
</event>
<event>
      6   9999  3.45752E-01  1.20142E+01 -1.00000E+00  1.79172E-01
      21    -1     0     0   512   502  0.000000000E+00  0.000000000E+00  1.233368820E+02  1.233368820E+02  0.000000000E+00  0.00000E+00  9.000E+00
      21    -1     0     0   502   503  0.000000000E+00  0.000000000E+00 -1.383977511E+03  1.383977511E+03  0.000000000E+00  0.00000E+00  9.000E+00
      25     1     1     2     0     0  1.946712601E+02  3.043248859E+01 -7.167866194E+02  7.538089118E+02  1.249871267E+02  0.00000E+00  9.000E+00
       5     1     1     2   501     0  9.919257882E+00 -1.333937060E+01  7.696463081E+01  7.888249097E+01  4.750000000E+00  0.00000E+00  9.000E+00
      -5     1     1     2     0   503 -2.059196591E+02 -2.903361942E+01 -6.273585005E+02  6.609441033E+02  4.750000000E+00  0.00000E+00  9.000E+00
      21     1     1     2   512   501  1.329141094E+00  1.194050143E+01  6.539859787E+00  1.367888726E+01  1.460009660E-07  0.00000E+00  9.000E+00
#rwgt            1           9   2.8922396890852679E-002           5     1672591           0
</event>
<event>
      6   9999  3.45752E-01  3.95555E+01 -1.00000E+00  1.40468E-01
      21    -1     0     0   501   502  0.000000000E+00  0.000000000E+00  1.733746141E+02  1.733746141E+02  0.000000000E+00  0.00000E+00  9.000E+00
      21    -1     0     0   502   511  0.000000000E+00  0.000000000E+00 -5.248402473E+02  5.248402473E+02  0.000000000E+00  0.00000E+00  9.000E+00
      25     1     1     2     0     0  4.827967941E+01  1.848654264E+02 -1.239752769E+02  2.598132515E+02  1.250076120E+02  0.00000E+00  9.000E+00
       5     1     1     2   501     0 -6.033216415E+01 -1.631519435E+02  7.804584897E+00  1.741895540E+02  4.750000000E+00  0.00000E+00  9.000E+00
      -5     1     1     2     0   503  4.723457606E+01 -3.634304624E+00 -3.262258405E+01  5.771575899E+01  4.750000000E+00  0.00000E+00  9.000E+00
      21     1     1     2   503   511 -3.518209132E+01 -1.807917833E+01 -2.026723572E+02  2.064962968E+02  2.697398305E-06  0.00000E+00  9.000E+00
#rwgt            1           9   3.5107781084369686E-003           5     1676384           0
</event>
<event>
      6   9999  3.45752E-01  7.74198E+00 -1.00000E+00  1.99716E-01
      21    -1     0     0   501   512  0.000000000E+00  0.000000000E+00  1.323780216E+01  1.323780216E+01  0.000000000E+00  0.00000E+00  9.000E+00
      21    -1     0     0   502   503  0.000000000E+00  0.000000000E+00 -2.127486769E+03  2.127486769E+03  0.000000000E+00  0.00000E+00  9.000E+00
      25     1     1     2     0     0  8.131075796E+01  8.079002677E+01 -1.044917977E+03  1.058592467E+03  1.250038541E+02  0.00000E+00  9.000E+00
       5     1     1     2   501     0 -1.022839791E+00 -1.281461252E-01  5.150173402E-01  4.887777156E+00  4.750000000E+00  0.00000E+00  9.000E+00
      -5     1     1     2     0   503 -7.316081194E+01 -8.368556290E+01 -1.050965944E+03  1.056838566E+03  4.750000000E+00  0.00000E+00  9.000E+00
      21     1     1     2   502   512 -7.127106223E+00  3.023682255E+00 -1.888006348E+01  2.040576131E+01  2.384185791E-07  0.00000E+00  9.000E+00
#rwgt            1           9   2.6034011505230157E-005           5     1678140           0
</event>
<event>
      6   9999 -3.45752E-01  1.47916E+01 -1.00000E+00  1.70900E-01
      21    -1     0     0   501   502  0.000000000E+00  0.000000000E+00  1.229754804E+02  1.229754804E+02  0.000000000E+00  0.00000E+00  9.000E+00
      21    -1     0     0   511   503  0.000000000E+00  0.000000000E+00 -5.902312056E+01  5.902312056E+01  0.000000000E+00  0.00000E+00  9.000E+00
      25     1     1     2     0     0 -3.057085203E+00  5.586999167E+00  2.571297293E+01  1.277614014E+02  1.249850326E+02  0.00000E+00  9.000E+00
       5     1     1     2   501     0 -1.211768003E+00  7.206296854E-01  2.315099952E+01  2.367528178E+01  4.750000000E+00  0.00000E+00  9.000E+00
      -5     1     1     2     0   503 -5.528761302E+00  4.773789572E+00  1.296191369E+01  1.561825774E+01  4.750000000E+00  0.00000E+00  9.000E+00
      21     1     1     2   511   502  9.797614508E+00 -1.108141842E+01  2.126473664E+00  1.494366001E+01  1.429269172E-07  0.00000E+00  9.000E+00
#rwgt            1           9  -8.6016097249562331E-004           5     1681680           0
</event>
<event>
      6   9999  3.45752E-01  2.66952E+01 -1.00000E+00  1.51193E-01
      21    -1     0     0   501   512  0.000000000E+00  0.000000000E+00  7.130216991E+01  7.130216991E+01  0.000000000E+00  0.00000E+00  9.000E+00
      21    -1     0     0   502   503  0.000000000E+00  0.000000000E+00 -1.564007567E+03  1.564007567E+03  0.000000000E+00  0.00000E+00  9.000E+00
      25     1     1     2     0     0  2.335570274E+02  6.426887031E+01 -1.029159046E+03  1.064646610E+03  1.249987568E+02  0.00000E+00  9.000E+00
       5     1     1     2   501     0 -3.719583704E+00  3.113013807E+00  1.137072734E+01  1.324319064E+01  4.750000000E+00  0.00000E+00  9.000E+00
      -5     1     1     2     0   503 -2.562681531E+02 -6.363355258E+01 -4.436752214E+02  5.163263114E+02  4.750000000E+00  0.00000E+00  9.000E+00
      21     1     1     2   502   512  2.643070936E+01 -3.748331544E+00 -3.124185724E+01  4.109362518E+01  9.536743164E-07  0.00000E+00  9.000E+00
#rwgt            1           9   6.3693683083426169E-005           5     1683034           0
</event>
<event>
      6   9999  3.45752E-01  1.21471E+01 -1.00000E+00  1.78714E-01
      21    -1     0     0   501   511  0.000000000E+00  0.000000000E+00  2.066454700E+02  2.066454700E+02  0.000000000E+00  0.00000E+00  9.000E+00
      21    -1     0     0   502   503  0.000000000E+00  0.000000000E+00 -3.897991665E+02  3.897991665E+02  0.000000000E+00  0.00000E+00  9.000E+00
      25     1     1     2     0     0  4.102251190E+01 -9.269287704E+01 -4.835694656E+01  1.680465396E+02  1.250057169E+02  0.00000E+00  9.000E+00
       5     1     1     2   501     0 -1.029274202E+00  1.645070151E+00  1.304480139E+02  1.305488893E+02  4.750000000E+00  0.00000E+00  9.000E+00
      -5     1     1     2     0   503 -4.076303143E+01  7.892512427E+01 -2.703974504E+02  2.846544285E+02  4.750000000E+00  0.00000E+00  9.000E+00
      21     1     1     2   502   511  7.697937255E-01  1.212268262E+01  5.152686547E+00  1.319477908E+01  1.788139343E-07  0.00000E+00  9.000E+00
#rwgt            1           9   9.8054929941125959                5     1685129           0
</event>
<event>
      6   9999  3.45752E-01  5.32833E+01 -1.00000E+00  1.33326E-01
      21    -1     0     0   501   502  0.000000000E+00  0.000000000E+00  1.843785167E+02  1.843785167E+02  0.000000000E+00  0.00000E+00  9.000E+00
       2    -1     0     0   502     0  0.000000000E+00  0.000000000E+00 -1.307868846E+03  1.307868846E+03  0.000000000E+00  0.00000E+00  9.000E+00
      25     1     1     2     0     0 -9.945887086E+01 -9.474436072E+01 -5.284884432E+02  5.601725611E+02  1.249988108E+02  0.00000E+00  9.000E+00
       5     1     1     2   501     0  1.554566095E+02  3.111889960E+01  1.269599837E+02  2.031662948E+02  4.750000000E+00  0.00000E+00  9.000E+00
      -5     1     1     2     0   503 -3.316099408E+01  1.548412532E+01 -1.501263358E+02  1.545958889E+02  4.750000000E+00  0.00000E+00  9.000E+00
       2     1     1     2   503     0 -2.283674456E+01  4.814133580E+01 -5.718355345E+02  5.743126184E+02  0.000000000E+00  0.00000E+00  9.000E+00
#rwgt            1           9   5.4373240351556641E-002           5     1688707           0
</event>
<event>
      6   9999  3.45752E-01  1.40011E+01 -1.00000E+00  1.73007E-01
      21    -1     0     0   501   502  0.000000000E+00  0.000000000E+00  1.241205078E+03  1.241205078E+03  0.000000000E+00  0.00000E+00  9.000E+00
       4    -1     0     0   502     0  0.000000000E+00  0.000000000E+00 -3.878231608E+02  3.878231608E+02  0.000000000E+00  0.00000E+00  9.000E+00
      25     1     1     2     0     0 -1.518979815E+01 -1.152464707E+02  6.860429883E+02  7.069600967E+02  1.250004703E+02  0.00000E+00  9.000E+00
       5     1     1     2   501     0 -7.422797913E-02 -4.471864956E-01  2.217924720E+02  2.218437933E+02  4.750000000E+00  0.00000E+00  9.000E+00
      -5     1     1     2     0   503  3.133715143E+00  1.087018542E+02  3.135746040E+02  3.319299746E+02  4.750000000E+00  0.00000E+00  9.000E+00
       4     1     1     2   503     0  1.213031098E+01  6.991802960E+00 -3.680281466E+02  3.682943747E+02  7.629394531E-06  0.00000E+00  9.000E+00
#rwgt            1           9   1.1766774766856969E-004           5     1690292           0
</event>
<event>
      6   9999 -3.45752E-01  2.49906E+01 -1.00000E+00  1.53161E-01
      21    -1     0     0   501   502  0.000000000E+00  0.000000000E+00  1.039549152E+01  1.039549152E+01  0.000000000E+00  0.00000E+00  9.000E+00
      21    -1     0     0   511   503  0.000000000E+00  0.000000000E+00 -9.802101184E+02  9.802101184E+02  0.000000000E+00  0.00000E+00  9.000E+00
      25     1     1     2     0     0  8.536448789E-01  3.172951480E+00 -6.505374364E+02  6.624434410E+02  1.249862396E+02  0.00000E+00  9.000E+00
       5     1     1     2   501     0 -4.362003634E+00  1.619212178E+00 -1.635323417E+00  6.847313814E+00  4.750000000E+00  0.00000E+00  9.000E+00
      -5     1     1     2     0   503 -2.148116245E+01 -5.020855073E+00 -1.204303347E+02  1.225262312E+02  4.750000000E+00  0.00000E+00  9.000E+00
      21     1     1     2   511   502  2.498952120E+01  2.286914145E-01 -1.972115324E+02  1.987886238E+02  2.697398305E-06  0.00000E+00  9.000E+00
#rwgt            1           9  -8.3807839104112642E-005           5     1693384           0
</event>
<event>
      6   9999  3.45752E-01  5.44412E+00 -1.00000E+00  2.20113E-01
      21    -1     0     0   512   502  0.000000000E+00  0.000000000E+00  7.728307601E+02  7.728307601E+02  0.000000000E+00  0.00000E+00  9.000E+00
      21    -1     0     0   502   503  0.000000000E+00  0.000000000E+00 -6.305522620E+01  6.305522620E+01  0.000000000E+00  0.00000E+00  9.000E+00
      25     1     1     2     0     0  7.824350935E-01  4.825916268E+00  8.756764274E+00  1.254037680E+02  1.250020897E+02  0.00000E+00  9.000E+00
       5     1     1     2   501     0  2.782797664E-02 -5.771987242E+00  1.533981483E+02  1.535801778E+02  4.750000000E+00  0.00000E+00  9.000E+00
      -5     1     1     2     0   503 -3.324953918E+00 -3.882468351E+00 -1.996529622E+00  7.257927361E+00  4.750000000E+00  0.00000E+00  9.000E+00
      21     1     1     2   512   501  2.514690847E+00  4.828539325E+00  5.496171510E+02  5.496441132E+02  0.000000000E+00  0.00000E+00  9.000E+00
#rwgt            1           9   9.8849010377339078E-002           5     1694245           0
</event>
<event>
      6   9999  3.45752E-01  2.03953E+01 -1.00000E+00  1.59564E-01
      21    -1     0     0   511   503  0.000000000E+00  0.000000000E+00  3.971025781E+01  3.971025781E+01  0.000000000E+00  0.00000E+00  9.000E+00
      21    -1     0     0   501   502  0.000000000E+00  0.000000000E+00 -1.310034875E+03  1.310034875E+03  0.000000000E+00  0.00000E+00  9.000E+00
      25     1     1     2     0     0 -1.707799073E+01 -8.062606072E+01 -1.892281184E+02  2.412987035E+02  1.250022562E+02  0.00000E+00  9.000E+00
       5     1     1     2   501     0  5.061487348E+01  1.071532617E+02 -1.031944588E+03  1.038737639E+03  4.750000000E+00  0.00000E+00  9.000E+00
      -5     1     1     2     0   503 -2.427746963E+01 -8.354981928E+00 -3.898182730E+01  4.691851036E+01  4.750000000E+00  0.00000E+00  9.000E+00
      21     1     1     2   511   502 -9.259413125E+00 -1.817221905E+01 -1.017008349E+01  2.279028027E+01  7.348554138E-07  0.00000E+00  9.000E+00
#rwgt            1           9   7.5270791947164330E-003           5     1698020           0
</event>
<event>
      6   9999  3.45752E-01  3.16426E+00 -1.00000E+00  2.70994E-01
      21    -1     0     0   501   502  0.000000000E+00  0.000000000E+00  4.486544843E+00  4.486544843E+00  0.000000000E+00  0.00000E+00  9.000E+00
      21    -1     0     0   512   503  0.000000000E+00  0.000000000E+00 -1.096299184E+03  1.096299184E+03  0.000000000E+00  0.00000E+00  9.000E+00
      25     1     1     2     0     0  1.918839909E+00  2.520915751E+00 -1.016044244E+03  1.023709355E+03  1.249996034E+02  0.00000E+00  9.000E+00
       5     1     1     2   501     0  1.017007790E+00 -4.793521112E-01 -2.560884658E+01  2.606989848E+01  4.750000000E+00  0.00000E+00  9.000E+00
      -5     1     1     2     0   503 -6.078572187E-01  1.015611600E-01 -1.602339045E+01  1.672397520E+01  4.750000000E+00  0.00000E+00  9.000E+00
      21     1     1     2   512   502 -2.327990481E+00 -2.143124800E+00 -3.413615854E+01  3.428250054E+01  0.000000000E+00  0.00000E+00  9.000E+00
#rwgt            1           9   1.9738477595345458E-002           5     1700174           0
</event>
<event>
      6   9999  3.45752E-01  4.43734E+01 -1.00000E+00  1.37622E-01
       2    -1     0     0   501     0  0.000000000E+00  0.000000000E+00  4.135923699E+03  4.135923699E+03  0.000000000E+00  0.00000E+00  9.000E+00
      -2    -1     0     0     0   511  0.000000000E+00  0.000000000E+00 -3.663776004E+01  3.663776004E+01  0.000000000E+00  0.00000E+00  9.000E+00
      25     1     1     2     0     0  2.056758943E+02 -1.837534141E+02  3.119124818E+03  3.133788752E+03  1.249976829E+02  0.00000E+00  9.000E+00
       5     1     1     2   501     0 -1.739741354E+02  9.940992515E+01  4.288084778E+02  4.733377295E+02  4.750000000E+00  0.00000E+00  9.000E+00
      -5     1     1     2     0   502  5.564616857E+00  6.025584488E+01  4.587682808E+02  4.627662799E+02  4.750000000E+00  0.00000E+00  9.000E+00
      21     1     1     2   502   511 -3.726637579E+01  2.408764412E+01  9.258436292E+01  1.026686983E+02  0.000000000E+00  0.00000E+00  9.000E+00
#rwgt            1           4   7.6847313535901001E-004           5     1704834           0
</event>
<event>
      6   9999  3.45752E-01  5.51629E+00 -1.00000E+00  2.19272E-01
      21    -1     0     0   502   512  0.000000000E+00  0.000000000E+00  4.884822664E+01  4.884822664E+01  0.000000000E+00  0.00000E+00  9.000E+00
      21    -1     0     0   501   502  0.000000000E+00  0.000000000E+00 -9.454850757E+02  9.454850757E+02  0.000000000E+00  0.00000E+00  9.000E+00
      25     1     1     2     0     0  5.703994832E+01 -4.452956335E+01 -3.716091560E+02  3.986881131E+02  1.249896357E+02  0.00000E+00  9.000E+00
       5     1     1     2   501     0  8.110016423E+00  1.778059173E+01 -2.137534670E+02  2.146975290E+02  4.750000000E+00  0.00000E+00  9.000E+00
      -5     1     1     2     0   503 -6.577314352E+01  2.126799928E+01 -3.423981637E+02  3.493386598E+02  4.750000000E+00  0.00000E+00  9.000E+00
      21     1     1     2   503   512  6.231787827E-01  5.480972337E+00  3.112393767E+01  3.160900039E+01  5.840038640E-07  0.00000E+00  9.000E+00
#rwgt            1           9   1.4521840258201501E-003           5     1705740           0
</event>
<event>
      6   9999  3.45752E-01  7.45144E+00 -1.00000E+00  2.01739E-01
      21    -1     0     0   501   502  0.000000000E+00  0.000000000E+00  2.152993333E+01  2.152993333E+01  0.000000000E+00  0.00000E+00  9.000E+00
      21    -1     0     0   502   511  0.000000000E+00  0.000000000E+00 -1.078728046E+03  1.078728046E+03  0.000000000E+00  0.00000E+00  9.000E+00
      25     1     1     2     0     0  3.029956012E+00 -2.640877783E+00 -9.922875456E+02  1.000138409E+03  1.250044362E+02  0.00000E+00  9.000E+00
       5     1     1     2   501     0  6.080646719E+00 -2.572797704E+00  1.610064878E+01  1.803848507E+01  4.750000000E+00  0.00000E+00  9.000E+00
      -5     1     1     2     0   503 -2.232832970E+00  2.346588506E+00 -3.381882023E+01  3.430403945E+01  4.750000000E+00  0.00000E+00  9.000E+00
      21     1     1     2   503   511 -6.877769761E+00  2.867086981E+00 -4.719239526E+01  4.777704548E+01  6.743495762E-07  0.00000E+00  9.000E+00
#rwgt            1           9   2.7381935624575266E-003           5     1709947           0
</event>
<event>
      6   9999  3.45752E-01  8.96150E+00 -1.00000E+00  1.92353E-01
      21    -1     0     0   512   502  0.000000000E+00  0.000000000E+00  2.638855321E+00  2.638855321E+00  0.000000000E+00  0.00000E+00  9.000E+00
      21    -1     0     0   502   503  0.000000000E+00  0.000000000E+00 -3.849483545E+03  3.849483545E+03  0.000000000E+00  0.00000E+00  9.000E+00
      25     1     1     2     0     0 -2.233635150E+01  7.589111499E+00 -2.357510330E+03  2.360939700E+03  1.249992030E+02  0.00000E+00  9.000E+00
       5     1     1     2   501     0 -9.774508363E+00 -1.467794719E+01 -1.525438571E+02  1.536332451E+02  4.750000000E+00  0.00000E+00  9.000E+00
      -5     1     1     2     0   503  2.318726298E+01  7.912219012E+00 -1.258550077E+03  1.258797486E+03  4.750000000E+00  0.00000E+00  9.000E+00
      21     1     1     2   512   501  8.923596884E+00 -8.233833259E-01 -7.824042500E+01  7.875196915E+01  1.651812370E-06  0.00000E+00  9.000E+00
#rwgt            1           9   4.1212719442474816E-003           5     1714524           0
</event>
<event>
      6   9999 -3.45752E-01  4.48129E+00 -1.00000E+00  2.38061E-01
      21    -1     0     0   501   502  0.000000000E+00  0.000000000E+00  8.614981235E+00  8.614981235E+00  0.000000000E+00  0.00000E+00  9.000E+00
      21    -1     0     0   511   503  0.000000000E+00  0.000000000E+00 -1.178623183E+03  1.178623183E+03  0.000000000E+00  0.00000E+00  9.000E+00
      25     1     1     2     0     0 -1.412761032E+00  6.637227757E+00 -8.173715396E+02  8.269015115E+02  1.249953093E+02  0.00000E+00  9.000E+00
       5     1     1     2   501     0 -1.699849201E+00 -3.452619816E-01  1.167867807E+00  5.189904465E+00  4.750000000E+00  0.00000E+00  9.000E+00
      -5     1     1     2     0   503 -1.195751755E+00 -5.059095970E+00 -1.823697006E+01  1.954926728E+01  4.750000000E+00  0.00000E+00  9.000E+00
      21     1     1     2   511   502  4.308361987E+00 -1.232869806E+00 -3.355675595E+02  3.355974805E+02  0.000000000E+00  0.00000E+00  9.000E+00
#rwgt            1           9  -8.4718962801567352E-006           5     1717259           0
</event>
<event>
      6   9999  3.45752E-01  6.87195E+00 -1.00000E+00  2.06166E-01
      21    -1     0     0   501   502  0.000000000E+00  0.000000000E+00  2.299163925E+01  2.299163925E+01  0.000000000E+00  0.00000E+00  9.000E+00
      21    -1     0     0   502   512  0.000000000E+00  0.000000000E+00 -1.541502855E+03  1.541502855E+03  0.000000000E+00  0.00000E+00  9.000E+00
      25     1     1     2     0     0  1.313288324E+01  1.726878900E+01 -2.227949506E+02  2.563844313E+02  1.249988116E+02  0.00000E+00  9.000E+00
       5     1     1     2   501     0 -1.022510338E-01  2.743121376E+00  4.836638487E+00  7.313736529E+00  4.750000000E+00  0.00000E+00  9.000E+00
      -5     1     1     2     0   503 -9.570882863E+00 -1.407441693E+01 -7.926985396E+02  7.928954711E+02  4.750000000E+00  0.00000E+00  9.000E+00
      21     1     1     2   503   512 -3.459749342E+00 -5.937493442E+00 -5.078543636E+02  5.079008549E+02  0.000000000E+00  0.00000E+00  9.000E+00
#rwgt            1           9   4.8503967959376950E-003           5     1721635           0
</event>
<event>
      6   9999  3.45752E-01  2.52971E+01 -1.00000E+00  1.52793E-01
      21    -1     0     0   501   502  0.000000000E+00  0.000000000E+00  2.726994273E+01  2.726994273E+01  0.000000000E+00  0.00000E+00  9.000E+00
      21    -1     0     0   511   503  0.000000000E+00  0.000000000E+00 -1.610590806E+03  1.610590806E+03  0.000000000E+00  0.00000E+00  9.000E+00
      25     1     1     2     0     0 -4.685389629E+01 -4.472414008E+00 -7.861465751E+02  7.974123810E+02  1.249991109E+02  0.00000E+00  9.000E+00
       5     1     1     2   501     0 -5.508637483E+00 -1.086960478E+01  1.795379672E+01  2.221248999E+01  4.750000000E+00  0.00000E+00  9.000E+00
      -5     1     1     2     0   503  3.562010348E+01 -3.622035233E+00 -2.559351789E+02  2.584710607E+02  4.750000000E+00  0.00000E+00  9.000E+00
      21     1     1     2   511   502  1.674243030E+01  1.896405402E+01 -5.591929062E+02  5.597648173E+02  0.000000000E+00  0.00000E+00  9.000E+00
#rwgt            1           9   1.2406414945371565E-003           5     1725507           0
</event>
<event>
      6   9999  3.45752E-01  3.19664E+01 -1.00000E+00  1.46076E-01
      21    -1     0     0   501   502  0.000000000E+00  0.000000000E+00  4.253168645E+02  4.253168645E+02  0.000000000E+00  0.00000E+00  9.000E+00
      21    -1     0     0   512   503  0.000000000E+00  0.000000000E+00 -8.181186952E+02  8.181186952E+02  0.000000000E+00  0.00000E+00  9.000E+00
      25     1     1     2     0     0 -6.715876572E+01 -1.236610105E+01 -2.664226389E+02  3.021083516E+02  1.250008534E+02  0.00000E+00  9.000E+00
       5     1     1     2   501     0 -8.962286309E+00 -9.115905534E+00  3.932245592E+02  3.934609749E+02  4.750000000E+00  0.00000E+00  9.000E+00
      -5     1     1     2     0   503  1.032244384E+02  4.533392067E+00 -1.867463900E+02  2.134774297E+02  4.750000000E+00  0.00000E+00  9.000E+00
      21     1     1     2   512   502 -2.710338635E+01  1.694861452E+01 -3.328573610E+02  3.343888034E+02  0.000000000E+00  0.00000E+00  9.000E+00
#rwgt            1           9   2.2795617179377992                5     1726973           0
</event>
<event>
      6   9999  3.45752E-01  5.98366E+00 -1.00000E+00  2.14223E-01
      21    -1     0     0   511   502  0.000000000E+00  0.000000000E+00  3.376906362E+02  3.376906362E+02  0.000000000E+00  0.00000E+00  9.000E+00
      21    -1     0     0   502   503  0.000000000E+00  0.000000000E+00 -2.665279344E+02  2.665279344E+02  0.000000000E+00  0.00000E+00  9.000E+00
      25     1     1     2     0     0 -6.969836414E+00 -5.877796469E+00 -1.761617678E+02  2.161969803E+02  1.250001549E+02  0.00000E+00  9.000E+00
       5     1     1     2   501     0 -2.746827355E-01  6.049954691E-01  8.916963545E+00  1.012502884E+01  4.750000000E+00  0.00000E+00  9.000E+00
      -5     1     1     2     0   503  1.229394776E+01  8.483331768E+00 -6.883442017E+01  7.059637363E+01  4.750000000E+00  0.00000E+00  9.000E+00
      21     1     1     2   511   501 -5.049428608E+00 -3.210530768E+00  3.072419263E+02  3.073001879E+02  5.394796609E-06  0.00000E+00  9.000E+00
#rwgt            1           9   10.564944919959753                5     1729495           0
</event>
<event>
      6   9999  3.45752E-01  2.61257E+01 -1.00000E+00  1.51830E-01
      21    -1     0     0   501   502  0.000000000E+00  0.000000000E+00  7.101606410E+01  7.101606410E+01  0.000000000E+00  0.00000E+00  9.000E+00
      21    -1     0     0   512   503  0.000000000E+00  0.000000000E+00 -3.871189542E+02  3.871189542E+02  0.000000000E+00  0.00000E+00  9.000E+00
      25     1     1     2     0     0  1.199642145E+01  1.336951443E+01 -1.828812913E+01  1.276017228E+02  1.250003438E+02  0.00000E+00  9.000E+00
       5     1     1     2   501     0  1.807716395E+00  5.883965418E-01  9.901940555E+00  1.114562586E+01  4.750000000E+00  0.00000E+00  9.000E+00
      -5     1     1     2     0   503  8.106937767E+00  2.708963099E-01  1.103389426E+00  9.464448901E+00  4.750000000E+00  0.00000E+00  9.000E+00
      21     1     1     2   512   502 -2.191107562E+01 -1.422880729E+01 -3.088200910E+02  3.099232208E+02  6.607249480E-06  0.00000E+00  9.000E+00
#rwgt            1           9   1.0745913057403520E-002           5     1732861           0
</event>
<event>
      6   9999  3.45752E-01  4.02180E+00 -1.00000E+00  2.47362E-01
      21    -1     0     0   501   511  0.000000000E+00  0.000000000E+00  2.550183866E+02  2.550183866E+02  0.000000000E+00  0.00000E+00  9.000E+00
      21    -1     0     0   502   503  0.000000000E+00  0.000000000E+00 -1.448297019E+03  1.448297019E+03  0.000000000E+00  0.00000E+00  9.000E+00
      25     1     1     2     0     0 -1.391535495E+01 -1.301414009E+01 -1.182387380E+03  1.189128215E+03  1.249919575E+02  0.00000E+00  9.000E+00
       5     1     1     2   501     0 -4.855636064E-01  1.230272245E+01  7.187280509E+01  7.307431398E+01  4.750000000E+00  0.00000E+00  9.000E+00
      -5     1     1     2     0   503  1.275136819E+01  4.379370472E+00 -2.617208315E+02  2.621109162E+02  4.750000000E+00  0.00000E+00  9.000E+00
      21     1     1     2   502   511  1.649550364E+00 -3.667952830E+00  1.789567742E+02  1.790019607E+02  3.303624740E-06  0.00000E+00  9.000E+00
#rwgt            1           9  0.65020623869176564                5     1734218           0
</event>
<event>
      6   9999  3.45752E-01  4.78529E+00 -1.00000E+00  2.32767E-01
      21    -1     0     0   501   502  0.000000000E+00  0.000000000E+00  3.432528516E+03  3.432528516E+03  0.000000000E+00  0.00000E+00  9.000E+00
      21    -1     0     0   512   503  0.000000000E+00  0.000000000E+00 -1.910029345E+00  1.910029345E+00  0.000000000E+00  0.00000E+00  9.000E+00
      25     1     1     2     0     0 -6.484530223E+00  4.508100042E+00  2.441962784E+03  2.445172810E+03  1.250018315E+02  0.00000E+00  9.000E+00
       5     1     1     2   501     0  4.571878861E-01 -4.937067521E-01  6.025526545E+02  6.025717523E+02  4.750000000E+00  0.00000E+00  9.000E+00
      -5     1     1     2     0   503  9.905855989E+00 -1.211513531E+00  3.591106786E+02  3.592807200E+02  4.750000000E+00  0.00000E+00  9.000E+00
      21     1     1     2   512   502 -3.878513651E+00 -2.802879760E+00  2.699236936E+01  2.741326333E+01  6.743495762E-07  0.00000E+00  9.000E+00
#rwgt            1           9   1.7695764559677008E-003           5     1741919           0
</event>
<event>
      6   9999  3.45752E-01  4.20994E+00 -1.00000E+00  2.43340E-01
      21    -1     0     0   502   503  0.000000000E+00  0.000000000E+00  1.602540047E+01  1.602540047E+01  0.000000000E+00  0.00000E+00  9.000E+00
      21    -1     0     0   501   511  0.000000000E+00  0.000000000E+00 -9.364288505E+02  9.364288505E+02  0.000000000E+00  0.00000E+00  9.000E+00
      25     1     1     2     0     0 -2.085712323E+00  4.842946010E-02 -8.847973414E+02  8.936047251E+02  1.251347945E+02  0.00000E+00  9.000E+00
       5     1     1     2   501     0  2.098294902E+00  4.914347191E-01  4.423511138E+00  6.839173953E+00  4.750000000E+00  0.00000E+00  9.000E+00
      -5     1     1     2     0   503 -3.359651506E-01  3.657640654E+00  4.360680045E+00  7.420865057E+00  4.750000000E+00  0.00000E+00  9.000E+00
      21     1     1     2   502   511  3.233825711E-01 -4.197504834E+00 -4.439029985E+01  4.458948692E+01  4.768371582E-07  0.00000E+00  9.000E+00
#rwgt            1           9   2.6407870605924140E-004           5     1745660           0
</event>
<event>
      6   9999  3.45752E-01  1.75035E+01 -1.00000E+00  1.64760E-01
      21    -1     0     0   502   512  0.000000000E+00  0.000000000E+00  9.501500989E+00  9.501500989E+00  0.000000000E+00  0.00000E+00  9.000E+00
      21    -1     0     0   501   502  0.000000000E+00  0.000000000E+00 -8.407206735E+02  8.407206735E+02  0.000000000E+00  0.00000E+00  9.000E+00
      25     1     1     2     0     0 -3.821808985E+00 -1.262705793E+01 -6.199167585E+02  6.325311936E+02  1.249994980E+02  0.00000E+00  9.000E+00
       5     1     1     2   501     0  6.549742786E+00  8.021974811E+00 -5.468031906E+01  5.585473125E+01  4.750000000E+00  0.00000E+00  9.000E+00
      -5     1     1     2     0   503 -1.843691028E+01 -3.115127512E+00 -1.161503990E+02  1.177416722E+02  4.750000000E+00  0.00000E+00  9.000E+00
      21     1     1     2   503   512  1.570897648E+01  7.720210629E+00 -4.047169589E+01  4.409457747E+01  1.168007728E-06  0.00000E+00  9.000E+00
#rwgt            1           9   4.8933078222249780                5     1750789           0
</event>
<event>
      6   9999  3.45752E-01  3.29599E+01 -1.00000E+00  1.45242E-01
      21    -1     0     0   501   511  0.000000000E+00  0.000000000E+00  1.431463880E+02  1.431463880E+02  0.000000000E+00  0.00000E+00  9.000E+00
      21    -1     0     0   502   503  0.000000000E+00  0.000000000E+00 -1.801164942E+02  1.801164942E+02  0.000000000E+00  0.00000E+00  9.000E+00
      25     1     1     2     0     0  4.747968867E+01  5.240549194E+01 -6.892528518E+01  1.593072923E+02  1.250098478E+02  0.00000E+00  9.000E+00
       5     1     1     2   501     0  2.194950020E+00  4.160394231E+00  2.135484529E+01  2.237674246E+01  4.750000000E+00  0.00000E+00  9.000E+00
      -5     1     1     2     0   503 -2.719529895E+01 -3.246120456E+01 -5.415949827E+01  6.891391615E+01  4.750000000E+00  0.00000E+00  9.000E+00
      21     1     1     2   502   511 -2.247933974E+01 -2.410468161E+01  6.475983196E+01  7.266493120E+01  9.536743164E-07  0.00000E+00  9.000E+00
#rwgt            1           9   1.2929981676129535E-003           5     1752165           0
</event>
<event>
      6   9999  3.45752E-01  3.69980E+01 -1.00000E+00  1.42180E-01
      21    -1     0     0   501   502  0.000000000E+00  0.000000000E+00  3.650426759E+01  3.650426759E+01  0.000000000E+00  0.00000E+00  9.000E+00
      21    -1     0     0   512   503  0.000000000E+00  0.000000000E+00 -1.350091681E+03  1.350091681E+03  0.000000000E+00  0.00000E+00  9.000E+00
      25     1     1     2     0     0  1.018746075E+02  6.532559846E+01 -5.308862670E+02  5.586692072E+02  1.250007406E+02  0.00000E+00  9.000E+00
       5     1     1     2   501     0  1.007206229E+01  2.362529022E+00  1.539235856E+01  1.914458629E+01  4.750000000E+00  0.00000E+00  9.000E+00
      -5     1     1     2     0   503 -7.991171997E+01 -4.917837037E+01 -5.577612585E+02  5.656187578E+02  4.750000000E+00  0.00000E+00  9.000E+00
      21     1     1     2   512   502 -3.203494980E+01 -1.850975711E+01 -2.403322466E+02  2.431633975E+02  3.814697266E-06  0.00000E+00  9.000E+00
#rwgt            1           9   5.9646344907855467E-003           5     1753239           0
</event>
<event>
      6   9999  3.45752E-01  2.28091E+01 -1.00000E+00  1.55973E-01
       3    -1     0     0   501     0  0.000000000E+00  0.000000000E+00  3.005817139E+02  3.005817139E+02  0.000000000E+00  0.00000E+00  9.000E+00
      21    -1     0     0   502   503  0.000000000E+00  0.000000000E+00 -1.266634060E+02  1.266634060E+02  0.000000000E+00  0.00000E+00  9.000E+00
      25     1     1     2     0     0  3.200072809E+01  1.472797569E+01  6.731046100E+01  1.462735443E+02  1.249971669E+02  0.00000E+00  9.000E+00
       5     1     1     2   501     0  2.320372012E+01 -7.464808150E+00  1.041533782E+01  2.692912457E+01  4.750000000E+00  0.00000E+00  9.000E+00
      -5     1     1     2     0   503 -6.616085105E+01  1.274209164E+01 -6.351378375E+01  9.271559921E+01  4.750000000E+00  0.00000E+00  9.000E+00
       3     1     1     2   502     0  1.095640283E+01 -2.000525917E+01  1.597062928E+02  1.613268518E+02  0.000000000E+00  0.00000E+00  9.000E+00
#rwgt            1           9   1057.8665644500477                5     1754752           0
</event>
<event>
      6   9999  3.45752E-01  6.18464E+01 -1.00000E+00  1.30025E-01
      21    -1     0     0   501   502  0.000000000E+00  0.000000000E+00  3.676901527E+01  3.676901527E+01  0.000000000E+00  0.00000E+00  9.000E+00
      21    -1     0     0   511   503  0.000000000E+00  0.000000000E+00 -2.156265370E+03  2.156265370E+03  0.000000000E+00  0.00000E+00  9.000E+00
      25     1     1     2     0     0 -9.351425435E+00  6.116656194E+01 -3.684078124E+02  3.939278545E+02  1.250041633E+02  0.00000E+00  9.000E+00
       5     1     1     2   501     0 -1.186499724E+01 -2.640830580E+00  1.909208606E+01  2.312622745E+01  4.750000000E+00  0.00000E+00  9.000E+00
      -5     1     1     2     0   503 -3.992518252E+01 -6.783593619E+01 -8.175511372E+02  8.213453347E+02  4.750000000E+00  0.00000E+00  9.000E+00
      21     1     1     2   511   502  6.114160520E+01  9.310204830E+00 -9.526294913E+02  9.546349687E+02  1.078959322E-05  0.00000E+00  9.000E+00
#rwgt            1           9   1.8545176270503332E-004           5     1756734           0
</event>
<event>
      6   9999 -3.45752E-01  1.28618E+01 -1.00000E+00  1.76371E-01
      21    -1     0     0   501   512  0.000000000E+00  0.000000000E+00  1.339170982E+02  1.339170982E+02  0.000000000E+00  0.00000E+00  9.000E+00
      21    -1     0     0   502   503  0.000000000E+00  0.000000000E+00 -1.828665790E+02  1.828665790E+02  0.000000000E+00  0.00000E+00  9.000E+00
      25     1     1     2     0     0 -3.104801590E+01  1.685989794E+01 -1.396907321E+02  1.907488548E+02  1.249935578E+02  0.00000E+00  9.000E+00
       5     1     1     2   501     0  4.866330145E-01 -5.497129689E+00  6.440814528E+01  6.481841501E+01  4.750000000E+00  0.00000E+00  9.000E+00
      -5     1     1     2     0   503  3.501429446E+01 -2.342912438E+01  2.053618803E+01  4.710862134E+01  4.750000000E+00  0.00000E+00  9.000E+00
      21     1     1     2   502   512 -4.452911581E+00  1.206635613E+01  5.796918031E+00  1.410778617E+01  2.230201594E-07  0.00000E+00  9.000E+00
#rwgt            1           9  -4.6476478833150390E-006           5     1758552           0
</event>
<event>
      6   9999  3.45752E-01  1.89944E+02 -1.00000E+00  1.09675E-01
      -1    -1     0     0     0   502  0.000000000E+00  0.000000000E+00  3.877252405E+02  3.877252405E+02  0.000000000E+00  0.00000E+00  9.000E+00
      21    -1     0     0   502   503  0.000000000E+00  0.000000000E+00 -1.635374705E+03  1.635374705E+03  0.000000000E+00  0.00000E+00  9.000E+00
      25     1     1     2     0     0 -4.596978184E+01  1.196278215E+02 -1.852251052E+02  2.575951063E+02  1.249914506E+02  0.00000E+00  9.000E+00
       5     1     1     2   501     0 -1.638362445E+02 -1.422216759E+01 -1.104825016E+02  1.981755049E+02  4.750000000E+00  0.00000E+00  9.000E+00
      -5     1     1     2     0   503  1.067016525E+02  5.411882326E+01 -1.227127785E+03  1.232955495E+03  4.750000000E+00  0.00000E+00  9.000E+00
      -1     1     1     2     0   501  1.031043739E+02 -1.595244772E+02  2.751859265E+02  3.343738400E+02  6.607249480E-06  0.00000E+00  9.000E+00
#rwgt            1           9   3.6260241788626824E-004           5     1762019           0
</event>
<event>
      6   9999  3.45752E-01  9.56407E+00 -1.00000E+00  1.89256E-01
      21    -1     0     0   501   502  0.000000000E+00  0.000000000E+00  6.424061540E+02  6.424061540E+02  0.000000000E+00  0.00000E+00  9.000E+00
      21    -1     0     0   502   511  0.000000000E+00  0.000000000E+00 -4.413280895E+01  4.413280895E+01  0.000000000E+00  0.00000E+00  9.000E+00
      25     1     1     2     0     0 -4.968584563E+01 -1.323130962E+01  2.252235232E+02  2.626762512E+02  1.250177057E+02  0.00000E+00  9.000E+00
       5     1     1     2   501     0 -1.199913281E+00 -2.784607115E+00  3.687525224E+02  3.687955791E+02  4.750000000E+00  0.00000E+00  9.000E+00
      -5     1     1     2     0   503  4.132256561E+01  1.588608387E+01 -1.364918224E-01  4.452530987E+01  4.750000000E+00  0.00000E+00  9.000E+00
      21     1     1     2   503   511  9.563193306E+00  1.298328623E-01  4.433791188E+00  1.054182276E+01  1.576990671E-07  0.00000E+00  9.000E+00
#rwgt            1           9   46.691997736863456                5     1762484           0
</event>
<event>
      6   9999  3.45752E-01  6.89650E+00 -1.00000E+00  2.05966E-01
      21    -1     0     0   501   502  0.000000000E+00  0.000000000E+00  2.674229910E+01  2.674229910E+01  0.000000000E+00  0.00000E+00  9.000E+00
      21    -1     0     0   502   512  0.000000000E+00  0.000000000E+00 -1.116455881E+03  1.116455881E+03  0.000000000E+00  0.00000E+00  9.000E+00
      25     1     1     2     0     0 -1.901356630E+00 -1.243468865E+01 -9.602009535E+02  9.683842463E+02  1.249957630E+02  0.00000E+00  9.000E+00
       5     1     1     2   501     0  5.738003681E+00  6.396816770E+00  2.108750510E+01  2.326132675E+01  4.750000000E+00  0.00000E+00  9.000E+00
      -5     1     1     2     0   503  3.018937044E+00  5.287726328E+00 -1.168587033E+02  1.171135904E+02  4.750000000E+00  0.00000E+00  9.000E+00
      21     1     1     2   503   512 -6.855584095E+00  7.501455487E-01 -3.374142978E+01  3.443901617E+01  6.743495762E-07  0.00000E+00  9.000E+00
#rwgt            1           9   2.0652947596397171E-004           5     1765907           0
</event>
<event>
      6   9999  3.45752E-01  1.03660E+01 -1.00000E+00  1.85564E-01
      21    -1     0     0   501   511  0.000000000E+00  0.000000000E+00  1.088490773E+01  1.088490773E+01  0.000000000E+00  0.00000E+00  9.000E+00
      21    -1     0     0   502   503  0.000000000E+00  0.000000000E+00 -7.420000868E+02  7.420000868E+02  0.000000000E+00  0.00000E+00  9.000E+00
      25     1     1     2     0     0  3.762150246E+00  5.216201861E+00 -6.392813588E+02  6.514196166E+02  1.250019943E+02  0.00000E+00  9.000E+00
       5     1     1     2   501     0 -9.849959792E-02  1.003877548E+00 -2.027922450E+00  5.262360855E+00  4.750000000E+00  0.00000E+00  9.000E+00
      -5     1     1     2     0   503 -8.640464176E+00  2.873086476E+00 -8.337298747E+01  8.400315343E+01  4.750000000E+00  0.00000E+00  9.000E+00
      21     1     1     2   502   511  4.976813528E+00 -9.093165885E+00 -6.432910392E+00  1.219986372E+01  3.862822472E-07  0.00000E+00  9.000E+00
#rwgt            1           9   2.8990687753485320E-004           5     1770582           0
</event>
<event>
      6   9999  3.45752E-01  4.21463E+01 -1.00000E+00  1.38882E-01
      21    -1     0     0   501   512  0.000000000E+00  0.000000000E+00  2.978630163E+01  2.978630163E+01  0.000000000E+00  0.00000E+00  9.000E+00
      21    -1     0     0   502   503  0.000000000E+00  0.000000000E+00 -9.078418898E+02  9.078418898E+02  0.000000000E+00  0.00000E+00  9.000E+00
      25     1     1     2     0     0 -7.711163390E+00  2.444877319E+01 -7.711795043E+02  7.816645196E+02  1.249975551E+02  0.00000E+00  9.000E+00
       5     1     1     2   501     0  3.105142750E+01 -1.083884476E+01 -3.372632290E+01  4.734658447E+01  4.750000000E+00  0.00000E+00  9.000E+00
      -5     1     1     2     0   503  1.781878032E+01 -4.540911574E+00 -6.225206221E+01  6.508464150E+01  4.750000000E+00  0.00000E+00  9.000E+00
      21     1     1     2   502   512 -4.115904442E+01 -9.069016862E+00 -1.089769877E+01  4.353244587E+01  8.085167388E-07  0.00000E+00  9.000E+00
#rwgt            1           9   2.1842252501805840E-005           5     1772785           0
</event>
<event>
      6   9999  3.45752E-01  1.53775E+01 -1.00000E+00  1.69441E-01
      21    -1     0     0   501   502  0.000000000E+00  0.000000000E+00  6.421033353E+01  6.421033353E+01  0.000000000E+00  0.00000E+00  9.000E+00
      21    -1     0     0   502   511  0.000000000E+00  0.000000000E+00 -1.496685844E+03  1.496685844E+03  0.000000000E+00  0.00000E+00  9.000E+00
      25     1     1     2     0     0 -6.593170602E+00  4.634873276E+00 -1.230324591E+03  1.236684853E+03  1.250035006E+02  0.00000E+00  9.000E+00
       5     1     1     2   501     0  8.549043759E+00  1.441738901E+01  5.895375865E+01  6.147402227E+01  4.750000000E+00  0.00000E+00  9.000E+00
      -5     1     1     2     0   503 -9.551660183E+00 -5.681720675E+00 -1.616074641E+02  1.620587891E+02  4.750000000E+00  0.00000E+00  9.000E+00
      21     1     1     2   503   511  7.595787027E+00 -1.337054161E+01 -9.949721341E+01  1.006785123E+02  1.348699152E-06  0.00000E+00  9.000E+00
#rwgt            1           9   5.0127464361112576E-003           5     1773702           0
</event>
<event>
      6   9999  3.45752E-01  5.03759E+00 -1.00000E+00  2.25211E-01
      21    -1     0     0   501   512  0.000000000E+00  0.000000000E+00  1.098719012E+02  1.098719012E+02  0.000000000E+00  0.00000E+00  9.000E+00
      21    -1     0     0   502   503  0.000000000E+00  0.000000000E+00 -2.520649269E+02  2.520649269E+02  0.000000000E+00  0.00000E+00  9.000E+00
      25     1     1     2     0     0 -2.357447717E+01  2.473590396E+01 -1.453273685E+02  1.947114997E+02  1.249996126E+02  0.00000E+00  9.000E+00
       5     1     1     2   501     0 -5.838966332E-01 -5.292628386E+00  6.279478018E+01  6.319889056E+01  4.750000000E+00  0.00000E+00  9.000E+00
      -5     1     1     2     0   503  2.903110262E+01 -2.072147710E+01 -7.752320449E+01  8.546691914E+01  4.750000000E+00  0.00000E+00  9.000E+00
      21     1     1     2   502   512 -4.872728815E+00  1.278201530E+00  1.786276712E+01  1.855951871E+01  2.384185791E-07  0.00000E+00  9.000E+00
#rwgt            1           9   9.9992567261019153E-004           5     1776741           0
</event>
<event>
      6   9999  3.45752E-01  7.84081E+00 -1.00000E+00  1.99054E-01
      21    -1     0     0   501   502  0.000000000E+00  0.000000000E+00  2.735263082E+02  2.735263082E+02  0.000000000E+00  0.00000E+00  9.000E+00
      21    -1     0     0   511   503  0.000000000E+00  0.000000000E+00 -3.041786060E+02  3.041786060E+02  0.000000000E+00  0.00000E+00  9.000E+00
      25     1     1     2     0     0 -2.626768983E+01 -7.034494554E+01  5.265979106E+01  1.550344035E+02  1.249968391E+02  0.00000E+00  9.000E+00
       5     1     1     2   501     0  6.763701984E+00  2.171085821E-01  1.618958225E+02  1.621068002E+02  4.750000000E+00  0.00000E+00  9.000E+00
      -5     1     1     2     0   503  1.282195499E+01  7.423011310E+01 -2.387777981E+02  2.504234645E+02  4.750000000E+00  0.00000E+00  9.000E+00
      21     1     1     2   511   502  6.682032856E+00 -4.102276139E+00 -6.430113249E+00  1.014024600E+01  1.192092896E-07  0.00000E+00  9.000E+00
#rwgt            1           9   9.5454853151817761E-004           5     1782902           0
</event>
<event>
      6   9999  3.45752E-01  1.07485E+01 -1.00000E+00  1.83951E-01
      21    -1     0     0   512   503  0.000000000E+00  0.000000000E+00  1.043667612E+01  1.043667612E+01  0.000000000E+00  0.00000E+00  9.000E+00
      21    -1     0     0   501   502  0.000000000E+00  0.000000000E+00 -6.995253342E+02  6.995253342E+02  0.000000000E+00  0.00000E+00  9.000E+00
      25     1     1     2     0     0  3.313265268E+00  9.201840482E+00 -4.548251120E+02  4.717909273E+02  1.250005798E+02  0.00000E+00  9.000E+00
       5     1     1     2   501     0  5.034276056E+00 -4.911468036E+00 -1.977821132E+02  1.979641211E+02  4.750000000E+00  0.00000E+00  9.000E+00
      -5     1     1     2     0   503  9.481268156E-01  1.106082506E+00 -1.939199417E+01  2.001834910E+01  4.750000000E+00  0.00000E+00  9.000E+00
      21     1     1     2   512   502 -9.295668139E+00 -5.396454952E+00 -1.708943878E+01  2.018861288E+01  3.371747881E-07  0.00000E+00  9.000E+00
#rwgt            1           9   7.6966043015192968E-006           5     1788231           0
</event>
<event>
      6   9999 -3.45752E-01  1.28701E+01 -1.00000E+00  1.76345E-01
      21    -1     0     0   501   502  0.000000000E+00  0.000000000E+00  1.005594455E+02  1.005594455E+02  0.000000000E+00  0.00000E+00  9.000E+00
      21    -1     0     0   511   503  0.000000000E+00  0.000000000E+00 -5.005380621E+02  5.005380621E+02  0.000000000E+00  0.00000E+00  9.000E+00
      25     1     1     2     0     0  1.596748666E+01  1.983237482E+01 -4.535344788E+02  4.711356301E+02  1.250078987E+02  0.00000E+00  9.000E+00
       5     1     1     2   501     0 -3.602274657E-01 -4.303876631E+00  8.673258994E+01  8.696986705E+01  4.750000000E+00  0.00000E+00  9.000E+00
      -5     1     1     2     0   503 -1.241774297E+01 -3.059911752E+00 -1.178968374E+01  1.803115479E+01  4.750000000E+00  0.00000E+00  9.000E+00
      21     1     1     2   511   502 -3.189516224E+00 -1.246858644E+01 -2.138704398E+01  2.496085559E+01  2.384185791E-07  0.00000E+00  9.000E+00
#rwgt            1           9  -6.9815743004260952E-002           5     1790368           0
</event>
<event>
      6   9999  3.45752E-01  1.97815E+01 -1.00000E+00  1.60575E-01
      21    -1     0     0   512   502  0.000000000E+00  0.000000000E+00  2.826974226E+02  2.826974226E+02  0.000000000E+00  0.00000E+00  9.000E+00
      21    -1     0     0   502   503  0.000000000E+00  0.000000000E+00 -5.471792373E+01  5.471792373E+01  0.000000000E+00  0.00000E+00  9.000E+00
      25     1     1     2     0     0  2.229980519E+01 -4.556813115E+01  9.172667496E+01  1.631241311E+02  1.249878529E+02  0.00000E+00  9.000E+00
       5     1     1     2   501     0 -1.691360530E+01  3.186701961E+01  2.456291672E+01  4.390303362E+01  4.750000000E+00  0.00000E+00  9.000E+00
      -5     1     1     2     0   503 -2.456878213E+01  8.870268476E+00  1.268082843E+01  2.942231514E+01  4.750000000E+00  0.00000E+00  9.000E+00
      21     1     1     2   512   501  1.918258224E+01  4.830843062E+00  9.900907880E+01  1.009658665E+02  1.348699152E-06  0.00000E+00  9.000E+00
#rwgt            1           9   2.0173222822938741E-005           5     1794080           0
</event>
<event>
      6   9999  3.45752E-01  6.07011E+00 -1.00000E+00  2.13357E-01
      21    -1     0     0   501   502  0.000000000E+00  0.000000000E+00  9.439230182E+02  9.439230182E+02  0.000000000E+00  0.00000E+00  9.000E+00
      21    -1     0     0   502   511  0.000000000E+00  0.000000000E+00 -7.372726333E+01  7.372726333E+01  0.000000000E+00  0.00000E+00  9.000E+00
      25     1     1     2     0     0 -4.448044921E+00  1.790914383E+00  2.661487756E+02  2.940784146E+02  1.249958027E+02  0.00000E+00  9.000E+00
       5     1     1     2   501     0  9.896118520E-01  2.877524794E-01  6.509797214E+02  6.509978666E+02  4.750000000E+00  0.00000E+00  9.000E+00
      -5     1     1     2     0   503 -2.449256283E+00 -3.473471172E+00  1.186239080E+01  1.346635340E+01  4.750000000E+00  0.00000E+00  9.000E+00
      21     1     1     2   503   511  5.907689353E+00  1.394804309E+00 -5.879513293E+01  5.910764695E+01  2.780414531E-06  0.00000E+00  9.000E+00
#rwgt            1           9   19.561922219707327                5     1795604           0
</event>
<event>
      6   9999  3.45752E-01  3.50844E+01 -1.00000E+00  1.43570E-01
       2    -1     0     0   501     0  0.000000000E+00  0.000000000E+00  7.820289955E+02  7.820289955E+02  0.000000000E+00  0.00000E+00  9.000E+00
      21    -1     0     0   502   503  0.000000000E+00  0.000000000E+00 -5.402684909E+02  5.402684909E+02  0.000000000E+00  0.00000E+00  9.000E+00
      25     1     1     2     0     0 -4.334181261E+00  9.657560770E+01 -4.393822458E+02  4.669341553E+02  1.250004574E+02  0.00000E+00  9.000E+00
       5     1     1     2   501     0  2.010255996E+01 -2.557360768E+01  2.785887379E+02  2.805216030E+02  4.750000000E+00  0.00000E+00  9.000E+00
      -5     1     1     2     0   503  1.369794464E+01 -9.004530521E+01 -6.115315406E+01  1.098092047E+02  4.750000000E+00  0.00000E+00  9.000E+00
       2     1     1     2   502     0 -2.946632335E+01  1.904330519E+01  4.637071665E+02  4.650325235E+02  0.000000000E+00  0.00000E+00  9.000E+00
#rwgt            1           9   7.4667408583867240E-003           5     1799729           0
</event>
<event>
      6   9999  3.45752E-01  2.23692E+01 -1.00000E+00  1.56586E-01
      21    -1     0     0   501   511  0.000000000E+00  0.000000000E+00  7.017701336E+00  7.017701336E+00  0.000000000E+00  0.00000E+00  9.000E+00
      21    -1     0     0   502   503  0.000000000E+00  0.000000000E+00 -3.473602294E+03  3.473602294E+03  0.000000000E+00  0.00000E+00  9.000E+00
      25     1     1     2     0     0 -1.962039605E+01  2.278243651E+01 -2.622835129E+03  2.625984028E+03  1.249960022E+02  0.00000E+00  9.000E+00
       5     1     1     2   501     0 -1.101825320E+00  2.346655082E-01 -3.355098947E+01  3.390428412E+01  4.750000000E+00  0.00000E+00  9.000E+00
      -5     1     1     2     0   503  1.636100531E-01 -1.420083648E+01 -7.913177424E+02  7.914594256E+02  4.750000000E+00  0.00000E+00  9.000E+00
      21     1     1     2   502   511  2.055861131E+01 -8.816265535E+00 -1.888073135E+01  2.927225740E+01  1.651812370E-06  0.00000E+00  9.000E+00
#rwgt            1           9   1.3424858325180127E-002           5     1802235           0
</event>
<event>
      6   9999 -3.45752E-01  7.66889E+00 -1.00000E+00  2.00214E-01
      21    -1     0     0   512   502  0.000000000E+00  0.000000000E+00  3.698690451E+00  3.698690451E+00  0.000000000E+00  0.00000E+00  9.000E+00
      21    -1     0     0   502   503  0.000000000E+00  0.000000000E+00 -1.754529286E+03  1.754529286E+03  0.000000000E+00  0.00000E+00  9.000E+00
      25     1     1     2     0     0  1.243047278E+00  6.323774319E+00 -1.650912010E+03  1.655650004E+03  1.249997408E+02  0.00000E+00  9.000E+00
       5     1     1     2   501     0 -7.879854728E-01  1.234221161E+00 -8.261370834E+00  9.641419555E+00  4.750000000E+00  0.00000E+00  9.000E+00
      -5     1     1     2     0   503 -8.655632881E-01  9.990115828E-02 -6.551389523E+01  6.569164444E+01  4.750000000E+00  0.00000E+00  9.000E+00
      21     1     1     2   512   501  4.105014824E-01 -7.657896639E+00 -2.614331973E+01  2.724490886E+01  8.920806376E-07  0.00000E+00  9.000E+00
#rwgt            1           9  -2.4480379178358703E-004           5     1803390           0
</event>
<event>
      6   9999  3.45752E-01  2.48781E+01 -1.00000E+00  1.53297E-01
      21    -1     0     0   511   503  0.000000000E+00  0.000000000E+00  6.668146894E+02  6.668146894E+02  0.000000000E+00  0.00000E+00  9.000E+00
      21    -1     0     0   501   502  0.000000000E+00  0.000000000E+00 -5.381927256E+01  5.381927256E+01  0.000000000E+00  0.00000E+00  9.000E+00
      25     1     1     2     0     0  1.053585051E+01  2.186385210E+01  1.241589899E+02  1.778671168E+02  1.250288938E+02  0.00000E+00  9.000E+00
       5     1     1     2   501     0  7.986401258E-01  3.923498667E+00 -2.561348802E+01  2.635611763E+01  4.750000000E+00  0.00000E+00  9.000E+00
      -5     1     1     2     0   503  1.064876711E+01 -1.414022384E+01  1.505664752E+02  1.516778432E+02  4.750000000E+00  0.00000E+00  9.000E+00
      21     1     1     2   511   502 -2.198325774E+01 -1.164712693E+01  3.638834398E+02  3.647328844E+02  7.629394531E-06  0.00000E+00  9.000E+00
#rwgt            1           9   1246.8820127971339                5     1805739           0
</event>
<event>
      6   9999  3.45752E-01  1.36581E+01 -1.00000E+00  1.73976E-01
      21    -1     0     0   501   502  0.000000000E+00  0.000000000E+00  2.591167640E+01  2.591167640E+01  0.000000000E+00  0.00000E+00  9.000E+00
      21    -1     0     0   502   512  0.000000000E+00  0.000000000E+00 -2.212374982E+03  2.212374982E+03  0.000000000E+00  0.00000E+00  9.000E+00
      25     1     1     2     0     0  1.495219778E+01  4.707841535E-01 -1.772692611E+03  1.777156911E+03  1.249952035E+02  0.00000E+00  9.000E+00
       5     1     1     2   501     0  8.650625610E-01 -5.042249258E+00  2.275891904E+01  2.380553521E+01  4.750000000E+00  0.00000E+00  9.000E+00
      -5     1     1     2     0   503 -2.171031561E+00  4.002603563E+00 -3.834831250E+01  3.890873662E+01  4.750000000E+00  0.00000E+00  9.000E+00
      21     1     1     2   503   512 -1.364622878E+01  5.688615417E-01 -3.981813010E+02  3.984154761E+02  0.000000000E+00  0.00000E+00  9.000E+00
#rwgt            1           9   4.5889340214001365E-006           5     1807479           0
</event>
<event>
      6   9999  3.45752E-01  2.77282E+01 -1.00000E+00  1.50085E-01
      21    -1     0     0   501   502  0.000000000E+00  0.000000000E+00  2.790315673E+01  2.790315673E+01  0.000000000E+00  0.00000E+00  9.000E+00
      21    -1     0     0   511   503  0.000000000E+00  0.000000000E+00 -1.720805476E+03  1.720805476E+03  0.000000000E+00  0.00000E+00  9.000E+00
      25     1     1     2     0     0  2.179744749E+01  1.445838165E+01 -1.521831829E+03  1.527180152E+03  1.249917021E+02  0.00000E+00  9.000E+00
       5     1     1     2   501     0  8.118345981E+00  1.860810285E+00  2.256780703E+01  2.452016661E+01  4.750000000E+00  0.00000E+00  9.000E+00
      -5     1     1     2     0   503 -6.747351743E+00 -1.085217241E+00 -3.596035437E+01  3.691089322E+01  4.750000000E+00  0.00000E+00  9.000E+00
      21     1     1     2   511   502 -2.316844173E+01 -1.523397469E+01 -1.576779421E+02  1.600974207E+02  2.697398305E-06  0.00000E+00  9.000E+00
#rwgt            1           9   4.1493188878514878E-004           5     1810647           0
</event>
<event>
      6   9999  3.45752E-01  2.01054E+01 -1.00000E+00  1.60036E-01
      21    -1     0     0   501   502  0.000000000E+00  0.000000000E+00  9.128071762E+00  9.128071762E+00  0.000000000E+00  0.00000E+00  9.000E+00
       1    -1     0     0   502     0  0.000000000E+00  0.000000000E+00 -2.967578519E+03  2.967578519E+03  0.000000000E+00  0.00000E+00  9.000E+00
      25     1     1     2     0     0  2.561627248E-01 -1.803035989E+01 -6.417497488E+02  6.540600616E+02  1.250066579E+02  0.00000E+00  9.000E+00
       5     1     1     2   501     0 -8.554366632E-01  9.855730439E+00 -1.506752169E+01  1.864027640E+01  4.750000000E+00  0.00000E+00  9.000E+00
      -5     1     1     2     0   503 -1.949809967E+01  7.605846153E+00 -9.980848532E+01  1.020897695E+02  4.750000000E+00  0.00000E+00  9.000E+00
       1     1     1     2   503     0  2.009737361E+01  5.687832931E-01 -2.201824692E+03  2.201916484E+03  3.051757812E-05  0.00000E+00  9.000E+00
#rwgt            1           9   1.2952887710389219E-004           5     1813173           0
</event>
<event>
      6   9999  3.45752E-01  7.91476E+00 -1.00000E+00  1.98568E-01
      21    -1     0     0   501   502  0.000000000E+00  0.000000000E+00  2.149924002E+01  2.149924002E+01  0.000000000E+00  0.00000E+00  9.000E+00
      21    -1     0     0   511   503  0.000000000E+00  0.000000000E+00 -1.587585894E+03  1.587585894E+03  0.000000000E+00  0.00000E+00  9.000E+00
      25     1     1     2     0     0 -2.155858413E+01 -1.187494565E+01 -2.257210958E+02  2.591917102E+02  1.249981706E+02  0.00000E+00  9.000E+00
       5     1     1     2   501     0 -2.471671811E+00 -1.016064606E-01  3.052418436E+00  6.164352660E+00  4.750000000E+00  0.00000E+00  9.000E+00
      -5     1     1     2     0   503  1.630458900E+01  1.025683259E+01 -7.661093275E+02  7.663661699E+02  4.750000000E+00  0.00000E+00  9.000E+00
      21     1     1     2   511   502  7.725666940E+00  1.719719526E+00 -5.773086488E+02  5.773629009E+02  7.629394531E-06  0.00000E+00  9.000E+00
#rwgt            1           9   1.2377102948456535E-004           5     1814404           0
</event>
<event>
      6   9999  3.45752E-01  1.46736E+01 -1.00000E+00  1.71204E-01
      21    -1     0     0   501   512  0.000000000E+00  0.000000000E+00  8.017089923E+02  8.017089923E+02  0.000000000E+00  0.00000E+00  9.000E+00
      21    -1     0     0   502   503  0.000000000E+00  0.000000000E+00 -4.098791071E+01  4.098791071E+01  0.000000000E+00  0.00000E+00  9.000E+00
      25     1     1     2     0     0 -1.008258803E+01 -6.716205411E+00  9.998390634E+01  1.605228628E+02  1.249961678E+02  0.00000E+00  9.000E+00
       5     1     1     2   501     0  3.167910041E+00  6.194699245E+00  6.327720871E+02  6.328281652E+02  4.750000000E+00  0.00000E+00  9.000E+00
      -5     1     1     2     0   503 -2.834332990E+00  1.148836747E+01 -4.657864970E+00  1.357476470E+01  4.750000000E+00  0.00000E+00  9.000E+00
      21     1     1     2   502   512  9.749010976E+00 -1.096686130E+01  3.262295316E+01  3.577111033E+01  4.768371582E-07  0.00000E+00  9.000E+00
#rwgt            1           9   1.0987428235605126E-002           5     1818108           0
</event>
<event>
      6   9999  3.45752E-01  7.10698E+00 -1.00000E+00  2.04303E-01
      21    -1     0     0   501   502  0.000000000E+00  0.000000000E+00  6.881836774E+00  6.881836774E+00  0.000000000E+00  0.00000E+00  9.000E+00
       1    -1     0     0   502     0  0.000000000E+00  0.000000000E+00 -8.994985850E+02  8.994985850E+02  0.000000000E+00  0.00000E+00  9.000E+00
      25     1     1     2     0     0 -8.213135709E+00  1.752533019E+00 -6.207094402E+02  6.332267146E+02  1.250013438E+02  0.00000E+00  9.000E+00
       5     1     1     2   501     0  3.592199135E-01 -1.528161901E+00 -3.326767591E+01  3.364171633E+01  4.750000000E+00  0.00000E+00  9.000E+00
      -5     1     1     2     0   503  3.738087395E+00 -6.018257923E+00 -4.883238034E+01  4.957173181E+01  4.750000000E+00  0.00000E+00  9.000E+00
       1     1     1     2   503     0  4.115828401E+00  5.793886805E+00 -1.898072518E+02  1.899402591E+02  2.697398305E-06  0.00000E+00  9.000E+00
#rwgt            1           9   3.2325662722805141E-004           5     1821447           0
</event>
<event>
      6   9999  3.45752E-01  2.33466E+01 -1.00000E+00  1.55245E-01
      21    -1     0     0   501   502  0.000000000E+00  0.000000000E+00  2.615956603E+01  2.615956603E+01  0.000000000E+00  0.00000E+00  9.000E+00
      21    -1     0     0   511   503  0.000000000E+00  0.000000000E+00 -1.299866743E+03  1.299866743E+03  0.000000000E+00  0.00000E+00  9.000E+00
      25     1     1     2     0     0  9.624413251E+00 -3.866257975E+01 -3.740871838E+02  3.964263243E+02  1.250007406E+02  0.00000E+00  9.000E+00
       5     1     1     2   501     0  7.441218733E+00  1.506014959E+00  1.246124598E+01  1.534551950E+01  4.750000000E+00  0.00000E+00  9.000E+00
      -5     1     1     2     0   503  3.636554392E+00  2.636377409E+01 -7.513815094E+02  7.518676800E+02  4.750000000E+00  0.00000E+00  9.000E+00
      21     1     1     2   511   502 -2.070218638E+01  1.079279070E+01 -1.606997300E+02  1.623867854E+02  0.000000000E+00  0.00000E+00  9.000E+00
#rwgt            1           9  0.16106541660336768                5     1824186           0
</event>
<event>
      6   9999  3.45752E-01  4.94434E+00 -1.00000E+00  2.30220E-01
      21    -1     0     0   501   512  0.000000000E+00  0.000000000E+00  1.069987234E+01  1.069987234E+01  0.000000000E+00  0.00000E+00  9.000E+00
      21    -1     0     0   502   503  0.000000000E+00  0.000000000E+00 -7.940974650E+02  7.940974650E+02  0.000000000E+00  0.00000E+00  9.000E+00
      25     1     1     2     0     0 -2.444882585E+00 -8.679466555E-01 -7.341098331E+02  7.446801645E+02  1.249982782E+02  0.00000E+00  9.000E+00
       5     1     1     2   501     0  1.564339065E+00 -1.178313206E+00  1.811368063E+00  5.447855815E+00  4.750000000E+00  0.00000E+00  9.000E+00
      -5     1     1     2     0   503  5.427745183E+00  3.987777617E+00 -4.827865961E+01  4.897707895E+01  4.750000000E+00  0.00000E+00  9.000E+00
      21     1     1     2   502   512 -4.547201663E+00 -1.941517755E+00 -2.820467941E+00  5.692238010E+00  2.439425222E-07  0.00000E+00  9.000E+00
#rwgt            1           9   7.2081275547840572E-003           5     1826069           0
</event>
<event>
      6   9999  3.45752E-01  1.95114E+01 -1.00000E+00  1.61035E-01
      21    -1     0     0   501   502  0.000000000E+00  0.000000000E+00  1.195977822E+03  1.195977822E+03  0.000000000E+00  0.00000E+00  9.000E+00
      21    -1     0     0   502   511  0.000000000E+00  0.000000000E+00 -9.160958712E+01  9.160958712E+01  0.000000000E+00  0.00000E+00  9.000E+00
      25     1     1     2     0     0  8.436761221E+01  9.315370522E+01  5.193994985E+01  1.847104737E+02  1.249987756E+02  0.00000E+00  9.000E+00
       5     1     1     2   501     0 -1.605040352E+00 -2.184826330E+00  4.162117272E+02  4.162476595E+02  4.750000000E+00  0.00000E+00  9.000E+00
      -5     1     1     2     0   503 -7.683295402E+01 -1.095574262E+02  6.494137270E+02  6.630738148E+02  4.750000000E+00  0.00000E+00  9.000E+00
      21     1     1     2   503   511 -5.929617838E+00  1.858854732E+01 -1.319716949E+01  2.355546097E+01  1.092571186E-06  0.00000E+00  9.000E+00
#rwgt            1           9   1.4868722562912973E-005           5     1829899           0
</event>
<event>
      6   9999  3.45752E-01  9.62449E+00 -1.00000E+00  1.88962E-01
      21    -1     0     0   501   502  0.000000000E+00  0.000000000E+00  2.750462402E+01  2.750462402E+01  0.000000000E+00  0.00000E+00  9.000E+00
      21    -1     0     0   512   503  0.000000000E+00  0.000000000E+00 -1.785384716E+03  1.785384716E+03  0.000000000E+00  0.00000E+00  9.000E+00
      25     1     1     2     0     0 -7.275129104E+01  6.581581011E+01 -2.994207184E+02  3.389723719E+02  1.250001245E+02  0.00000E+00  9.000E+00
       5     1     1     2   501     0 -1.103121579E+00 -3.062977956E+00  3.787125399E+00  6.892280462E+00  4.750000000E+00  0.00000E+00  9.000E+00
      -5     1     1     2     0   503  7.661501108E+01 -7.197291795E+01 -1.408352809E+03  1.412278357E+03  4.750000000E+00  0.00000E+00  9.000E+00
      21     1     1     2   512   502 -2.760598462E+00  9.220085792E+00 -5.389369087E+01  5.474633140E+01  1.168007728E-06  0.00000E+00  9.000E+00
#rwgt            1           9   5.5401058326342281E-003           5     1832797           0
</event>
<event>
      6   9999  3.45752E-01  1.09249E+01 -1.00000E+00  1.83236E-01
      21    -1     0     0   501   511  0.000000000E+00  0.000000000E+00  1.377455183E+01  1.377455183E+01  0.000000000E+00  0.00000E+00  9.000E+00
      21    -1     0     0   502   503  0.000000000E+00  0.000000000E+00 -8.585775993E+02  8.585775993E+02  0.000000000E+00  0.00000E+00  9.000E+00
      25     1     1     2     0     0  5.502442459E+00 -9.473293150E+00 -8.003385293E+02  8.101141484E+02  1.249926071E+02  0.00000E+00  9.000E+00
       5     1     1     2   501     0 -3.365201929E+00  9.909533026E-01  2.677208669E+00  6.483557568E+00  4.750000000E+00  0.00000E+00  9.000E+00
      -5     1     1     2     0   503 -1.214061094E+01  1.287393850E+01 -3.436184199E+01  3.894138430E+01  4.750000000E+00  0.00000E+00  9.000E+00
      21     1     1     2   502   511  1.000337041E+01 -4.391598652E+00 -1.277988484E+01  1.681306084E+01  4.129530925E-07  0.00000E+00  9.000E+00
#rwgt            1           9   1.0157414086997272E-004           5     1836439           0
</event>
<event>
      6   9999  3.45752E-01  2.10971E+01 -1.00000E+00  1.58460E-01
      21    -1     0     0   501   502  0.000000000E+00  0.000000000E+00  4.154281399E+01  4.154281399E+01  0.000000000E+00  0.00000E+00  9.000E+00
      21    -1     0     0   502   512  0.000000000E+00  0.000000000E+00 -2.225813301E+03  2.225813301E+03  0.000000000E+00  0.00000E+00  9.000E+00
      25     1     1     2     0     0 -1.194265579E+01  1.468450472E+02 -2.636381259E+02  3.268591020E+02  1.250028649E+02  0.00000E+00  9.000E+00
       5     1     1     2   501     0  5.531361391E-01 -4.426864745E-01  5.491460157E+00  7.295242667E+00  4.750000000E+00  0.00000E+00  9.000E+00
      -5     1     1     2     0   503 -6.860799765E+00 -1.358187202E+02 -1.814948076E+03  1.820041999E+03  4.750000000E+00  0.00000E+00  9.000E+00
      21     1     1     2   503   512  1.825031941E+01 -1.058364057E+01 -1.111757447E+02  1.131597712E+02  2.336015456E-06  0.00000E+00  9.000E+00
#rwgt            1           9   5.9913064982985195E-002           5     1838748           0
</event>
<event>
      6   9999  3.45752E-01  1.91615E+01 -1.00000E+00  1.61643E-01
      21    -1     0     0   501   511  0.000000000E+00  0.000000000E+00  9.741877844E+01  9.741877844E+01  0.000000000E+00  0.00000E+00  9.000E+00
      21    -1     0     0   502   503  0.000000000E+00  0.000000000E+00 -1.590542643E+03  1.590542643E+03  0.000000000E+00  0.00000E+00  9.000E+00
      25     1     1     2     0     0 -1.549582927E+00  3.308509491E+00 -4.157810531E+02  4.341798282E+02  1.249995663E+02  0.00000E+00  9.000E+00
       5     1     1     2   501     0  1.513782969E+01 -2.233637589E+00  7.074766120E+01  7.253921070E+01  4.750000000E+00  0.00000E+00  9.000E+00
      -5     1     1     2     0   503 -2.429406590E+00  1.450215249E+01 -1.159060079E+03  1.159163079E+03  4.750000000E+00  0.00000E+00  9.000E+00
      21     1     1     2   502   511 -1.115884018E+01 -1.557702440E+01  1.096960609E+01  2.207930390E+01  3.953724850E-07  0.00000E+00  9.000E+00
#rwgt            1           9   4.6884027732201224E-004           5     1841272           0
</event>
<event>
      6   9999  3.45752E-01  4.36345E+00 -1.00000E+00  2.40283E-01
      21    -1     0     0   501   502  0.000000000E+00  0.000000000E+00  3.762207605E+01  3.762207605E+01  0.000000000E+00  0.00000E+00  9.000E+00
      21    -1     0     0   502   512  0.000000000E+00  0.000000000E+00 -2.811030537E+02  2.811030537E+02  0.000000000E+00  0.00000E+00  9.000E+00
      25     1     1     2     0     0 -1.548188092E+01 -2.288390677E+00 -1.315653175E+02  1.821506758E+02  1.249980422E+02  0.00000E+00  9.000E+00
       5     1     1     2   501     0 -2.623982541E-01 -1.233143217E+00  1.090305113E+01  1.195945313E+01  4.750000000E+00  0.00000E+00  9.000E+00
      -5     1     1     2     0   503  1.183836251E+01  1.576412509E+00 -4.868513152E+01  5.035311743E+01  4.750000000E+00  0.00000E+00  9.000E+00
      21     1     1     2   503   512  3.905916655E+00  1.945121385E+00 -7.413357976E+01  7.426188343E+01  0.000000000E+00  0.00000E+00  9.000E+00
#rwgt            1           9   2.9632263100276795E-003           5     1844322           0
</event>
<event>
      6   9999  3.45752E-01  6.76231E+00 -1.00000E+00  2.07069E-01
      21    -1     0     0   501   502  0.000000000E+00  0.000000000E+00  1.098803563E+01  1.098803563E+01  0.000000000E+00  0.00000E+00  9.000E+00
      21    -1     0     0   511   503  0.000000000E+00  0.000000000E+00 -8.439897828E+02  8.439897828E+02  0.000000000E+00  0.00000E+00  9.000E+00
      25     1     1     2     0     0  6.406610265E+00  6.121318875E+00 -7.744111973E+02  7.844843499E+02  1.249979102E+02  0.00000E+00  9.000E+00
       5     1     1     2   501     0 -6.831280743E+00 -6.304702918E+00 -7.735097931E-01  1.046787910E+01  4.750000000E+00  0.00000E+00  9.000E+00
      -5     1     1     2     0   503  1.384803637E+00 -6.510412907E+00 -1.997236014E+01  2.158149269E+01  4.750000000E+00  0.00000E+00  9.000E+00
      21     1     1     2   511   502 -9.601331589E-01  6.693796950E+00 -3.784467998E+01  3.844409676E+01  4.768371582E-07  0.00000E+00  9.000E+00
#rwgt            1           9   1.5564623415311798E-003           5     1848682           0
</event>
<event>
      6   9999  3.45752E-01  3.05651E+01 -1.00000E+00  1.47316E-01
      21    -1     0     0   512   502  0.000000000E+00  0.000000000E+00  1.058995217E+01  1.058995217E+01  0.000000000E+00  0.00000E+00  9.000E+00
      21    -1     0     0   502   503  0.000000000E+00  0.000000000E+00 -9.296581077E+02  9.296581077E+02  0.000000000E+00  0.00000E+00  9.000E+00
      25     1     1     2     0     0  1.072911735E+01 -9.768401902E+00 -6.214954059E+02  6.341043756E+02  1.249851349E+02  0.00000E+00  9.000E+00
       5     1     1     2   501     0 -1.850826386E+01 -3.026418145E+00 -9.976101835E+01  1.016195765E+02  4.750000000E+00  0.00000E+00  9.000E+00
      -5     1     1     2     0   503  1.848042394E+00 -1.718932112E+01 -1.121195624E+02  1.135440302E+02  4.750000000E+00  0.00000E+00  9.000E+00
      21     1     1     2   512   501  5.931104122E+00  2.998414116E+01 -8.569216890E+01  9.098007764E+01  2.523185073E-06  0.00000E+00  9.000E+00
#rwgt            1           9   3.5738059027933034E-003           5     1852182           0
</event>
<event>
      6   9999  3.45752E-01  7.68877E+00 -1.00000E+00  2.00078E-01
      21    -1     0     0   511   502  0.000000000E+00  0.000000000E+00  4.317784250E+01  4.317784250E+01  0.000000000E+00  0.00000E+00  9.000E+00
      21    -1     0     0   502   503  0.000000000E+00  0.000000000E+00 -1.107427973E+03  1.107427973E+03  0.000000000E+00  0.00000E+00  9.000E+00
      25     1     1     2     0     0  2.275379221E+01  3.800027715E+01 -1.800431555E+02  2.236202553E+02  1.250148976E+02  0.00000E+00  9.000E+00
       5     1     1     2   501     0  2.044625564E+00  2.010197551E-01  4.829298143E+00  7.078525495E+00  4.750000000E+00  0.00000E+00  9.000E+00
      -5     1     1     2     0   503 -1.772643844E+01 -4.121863258E+01 -9.029145780E+02  9.040412048E+02  4.750000000E+00  0.00000E+00  9.000E+00
      21     1     1     2   511   501 -7.071979328E+00  3.017335675E+00  1.387830497E+01  1.586582979E+01  6.078504936E-07  0.00000E+00  9.000E+00
#rwgt            1           9   9.5474363817783369E-004           5     1853170           0
</event>
<event>
      6   9999  3.45752E-01  2.11343E+00 -1.00000E+00  3.23885E-01
      21    -1     0     0   501   502  0.000000000E+00  0.000000000E+00  7.317841781E+02  7.317841781E+02  0.000000000E+00  0.00000E+00  9.000E+00
      21    -1     0     0   512   503  0.000000000E+00  0.000000000E+00 -2.124853167E+02  2.124853167E+02  0.000000000E+00  0.00000E+00  9.000E+00
      25     1     1     2     0     0  2.742252444E+00  4.332371081E+00  1.536731570E+02  1.981610308E+02  1.250042621E+02  0.00000E+00  9.000E+00
       5     1     1     2   501     0 -1.249890620E+00 -5.353554035E+00  5.526229597E+02  5.526707165E+02  4.750000000E+00  0.00000E+00  9.000E+00
      -5     1     1     2     0   503  1.065530833E-01 -3.608637730E-01  1.448467377E+00  4.980174090E+00  4.750000000E+00  0.00000E+00  9.000E+00
      21     1     1     2   512   502 -1.598914908E+00  1.382046727E+00 -1.884457227E+02  1.884575734E+02  0.000000000E+00  0.00000E+00  9.000E+00
#rwgt            1           9   4.7030519966051475E-002           5     1857208           0
</event>
<event>
      6   9999  3.45752E-01  1.66960E+01 -1.00000E+00  1.66436E-01
      21    -1     0     0   501   502  0.000000000E+00  0.000000000E+00  2.688271442E+01  2.688271442E+01  0.000000000E+00  0.00000E+00  9.000E+00
       2    -1     0     0   502     0  0.000000000E+00  0.000000000E+00 -1.623606888E+03  1.623606888E+03  0.000000000E+00  0.00000E+00  9.000E+00
      25     1     1     2     0     0  2.184298290E+01  5.204130646E+00 -1.001786673E+03  1.009804889E+03  1.250007075E+02  0.00000E+00  9.000E+00
       5     1     1     2   501     0  7.197072710E-03 -8.408632563E-01  1.916840098E+01  1.976606180E+01  4.750000000E+00  0.00000E+00  9.000E+00
      -5     1     1     2     0   503 -2.987551931E+01  1.027746300E+01 -7.458832632E+01  8.114279896E+01  4.750000000E+00  0.00000E+00  9.000E+00
       2     1     1     2   503     0  8.025339334E+00 -1.464073039E+01 -5.395175754E+02  5.397758527E+02  1.078959322E-05  0.00000E+00  9.000E+00
#rwgt            1           9   4.0087659028000883E-004           5     1866016           0
</event>
<event>
      6   9999  3.45752E-01  8.77885E+00 -1.00000E+00  1.93355E-01
      21    -1     0     0   511   502  0.000000000E+00  0.000000000E+00  1.126794200E+01  1.126794200E+01  0.000000000E+00  0.00000E+00  9.000E+00
      21    -1     0     0   502   503  0.000000000E+00  0.000000000E+00 -4.612778514E+03  4.612778514E+03  0.000000000E+00  0.00000E+00  9.000E+00
      25     1     1     2     0     0  8.260415042E+01  3.177612842E+01 -1.753022897E+03  1.759700813E+03  1.249980350E+02  0.00000E+00  9.000E+00
       5     1     1     2   501     0 -6.965656482E+00  7.254422530E+00  2.432897896E+00  1.138545162E+01  4.750000000E+00  0.00000E+00  9.000E+00
      -5     1     1     2     0   503 -8.377137893E+01 -3.572534771E+01 -2.780419304E+03  2.781914451E+03  4.750000000E+00  0.00000E+00  9.000E+00
      21     1     1     2   511   501  8.132884999E+00 -3.305203241E+00 -7.050126967E+01  7.104574028E+01  1.907348633E-06  0.00000E+00  9.000E+00
#rwgt            1           9   1.3094333702744322E-003           5     1868719           0
</event>
<event>
      6   9999  3.45752E-01  8.07635E+00 -1.00000E+00  1.97528E-01
       1    -1     0     0   501     0  0.000000000E+00  0.000000000E+00  9.112569463E+02  9.112569463E+02  0.000000000E+00  0.00000E+00  9.000E+00
      21    -1     0     0   502   503  0.000000000E+00  0.000000000E+00 -1.010924375E+03  1.010924375E+03  0.000000000E+00  0.00000E+00  9.000E+00
      25     1     1     2     0     0 -2.007352717E+00  5.710516054E+00 -8.265558516E+02  8.359762594E+02  1.250003639E+02  0.00000E+00  9.000E+00
       5     1     1     2   501     0 -1.647259678E+00 -8.941739292E+00  1.526999241E+01  1.839574228E+01  4.750000000E+00  0.00000E+00  9.000E+00
      -5     1     1     2     0   503  1.574532825E+00 -4.572663866E+00 -1.780126050E+02  1.781416247E+02  4.750000000E+00  0.00000E+00  9.000E+00
       1     1     1     2   502     0  2.080079570E+00  7.803887103E+00  8.896310357E+02  8.896676947E+02  1.078959322E-05  0.00000E+00  9.000E+00
#rwgt            1           9   4.7942574497503745E-004           5     1872297           0
</event>
<event>
      6   9999  3.45752E-01  4.24807E+00 -1.00000E+00  2.42563E-01
      21    -1     0     0   501   511  0.000000000E+00  0.000000000E+00  1.277358827E+03  1.277358827E+03  0.000000000E+00  0.00000E+00  9.000E+00
      21    -1     0     0   502   503  0.000000000E+00  0.000000000E+00 -4.375353140E+00  4.375353140E+00  0.000000000E+00  0.00000E+00  9.000E+00
      25     1     1     2     0     0 -3.406546181E+00 -1.005055528E+00  9.525952543E+02  9.607681663E+02  1.250005449E+02  0.00000E+00  9.000E+00
       5     1     1     2   501     0 -5.020423742E-01  4.508573086E-01  2.428331502E+02  2.428805399E+02  4.750000000E+00  0.00000E+00  9.000E+00
      -5     1     1     2     0   503 -3.334720162E-01  7.800064425E-01  3.918434494E+01  3.948031158E+01  4.750000000E+00  0.00000E+00  9.000E+00
      21     1     1     2   502   511  4.242060572E+00 -2.258082230E-01  3.837072405E+01  3.860516198E+01  0.000000000E+00  0.00000E+00  9.000E+00
#rwgt            1           9   8.3019016149051775E-004           5     1876277           0
</event>
<event>
      6   9999  3.45752E-01  5.48577E+00 -1.00000E+00  2.19626E-01
      21    -1     0     0   501   512  0.000000000E+00  0.000000000E+00  3.107968454E+01  3.107968454E+01  0.000000000E+00  0.00000E+00  9.000E+00
      21    -1     0     0   502   503  0.000000000E+00  0.000000000E+00 -1.095156925E+03  1.095156925E+03  0.000000000E+00  0.00000E+00  9.000E+00
      25     1     1     2     0     0  6.667434975E+00 -1.486061251E+01 -9.904130181E+02  9.984028083E+02  1.249997148E+02  0.00000E+00  9.000E+00
       5     1     1     2   501     0 -3.716900600E+00  5.675966920E+00  2.530640572E+01  2.662721579E+01  4.750000000E+00  0.00000E+00  9.000E+00
      -5     1     1     2     0   503  2.333812316E+00  1.065752193E+01 -8.929233108E+01  9.008169816E+01  4.750000000E+00  0.00000E+00  9.000E+00
      21     1     1     2   502   512 -5.284346691E+00 -1.472876335E+00 -9.678296936E+00  1.112488725E+01  1.685873940E-07  0.00000E+00  9.000E+00
#rwgt            1           9   1.3356792722076603E-003           5     1880622           0
</event>
<event>
      6   9999  3.45752E-01  8.67583E+00 -1.00000E+00  1.93935E-01
      21    -1     0     0   501   511  0.000000000E+00  0.000000000E+00  1.110069902E+02  1.110069902E+02  0.000000000E+00  0.00000E+00  9.000E+00
      21    -1     0     0   502   503  0.000000000E+00  0.000000000E+00 -1.261021518E+03  1.261021518E+03  0.000000000E+00  0.00000E+00  9.000E+00
      25     1     1     2     0     0 -5.904907663E+01  1.133782410E+02 -1.044536494E+03  1.059727726E+03  1.249997856E+02  0.00000E+00  9.000E+00
       5     1     1     2   501     0 -6.796768353E-01  8.129570880E+00  2.333373781E+01  2.517096946E+01  4.750000000E+00  0.00000E+00  9.000E+00
      -5     1     1     2     0   503  5.670291135E+01 -1.133767366E+02 -1.882825783E+02  2.270295055E+02  4.750000000E+00  0.00000E+00  9.000E+00
      21     1     1     2   502   511  3.025842113E+00 -8.131075308E+00  5.947080673E+01  6.010030748E+01  3.015782986E-06  0.00000E+00  9.000E+00
#rwgt            1           9   1.5684768105119208E-004           5     1885386           0
</event>
<event>
      6   9999 -3.45752E-01  6.24560E+00 -1.00000E+00  2.11659E-01
      21    -1     0     0   501   502  0.000000000E+00  0.000000000E+00  4.173867704E+01  4.173867704E+01  0.000000000E+00  0.00000E+00  9.000E+00
      21    -1     0     0   512   503  0.000000000E+00  0.000000000E+00 -3.469228696E+02  3.469228696E+02  0.000000000E+00  0.00000E+00  9.000E+00
      25     1     1     2     0     0 -3.387168049E+01 -1.659584738E+01 -1.590625261E+02  2.056825219E+02  1.248266787E+02  0.00000E+00  9.000E+00
       5     1     1     2   501     0  1.704326007E+00 -9.473889256E-01  9.947391647E+00  1.119443493E+01  4.750000000E+00  0.00000E+00  9.000E+00
      -5     1     1     2     0   503  3.834020683E+01  1.849371375E+01 -5.130176347E+01  6.683129763E+01  4.750000000E+00  0.00000E+00  9.000E+00
      21     1     1     2   512   502 -6.172852341E+00 -9.504774380E-01 -1.047672946E+02  1.049532922E+02  1.348699152E-06  0.00000E+00  9.000E+00
#rwgt            1           9  -3.2405570060115019E-002           5     1889680           0
</event>
<event>
      6   9999 -3.45752E-01  9.89934E+00 -1.00000E+00  1.87658E-01
      21    -1     0     0   501   502  0.000000000E+00  0.000000000E+00  1.519529184E+01  1.519529184E+01  0.000000000E+00  0.00000E+00  9.000E+00
      21    -1     0     0   511   503  0.000000000E+00  0.000000000E+00 -1.005262366E+03  1.005262366E+03  0.000000000E+00  0.00000E+00  9.000E+00
      25     1     1     2     0     0 -1.002770636E+01 -4.304156855E+00 -8.372445085E+02  8.465937708E+02  1.249942604E+02  0.00000E+00  9.000E+00
       5     1     1     2   501     0  2.336310196E-01 -1.648250308E+00  9.402445816E+00  1.066488630E+01  4.750000000E+00  0.00000E+00  9.000E+00
      -5     1     1     2     0   503  1.722245264E+00  2.215734139E-01 -1.998731646E+01  2.061723897E+01  4.750000000E+00  0.00000E+00  9.000E+00
      21     1     1     2   511   502  8.071830073E+00  5.730833749E+00 -1.422376953E+02  1.425817620E+02  1.907348633E-06  0.00000E+00  9.000E+00
#rwgt            1           9  -2.5040251754838657E-003           5     1893353           0
</event>
<event>
      6   9999  3.45752E-01  2.84775E+01 -1.00000E+00  1.49316E-01
      21    -1     0     0   502   512  0.000000000E+00  0.000000000E+00  1.136233468E+01  1.136233468E+01  0.000000000E+00  0.00000E+00  9.000E+00
      21    -1     0     0   501   502  0.000000000E+00  0.000000000E+00 -8.168569177E+02  8.168569177E+02  0.000000000E+00  0.00000E+00  9.000E+00
      25     1     1     2     0     0 -4.578390113E+00  3.307408492E+01 -5.748441539E+02  5.892208494E+02  1.249822044E+02  0.00000E+00  9.000E+00
       5     1     1     2   501     0 -4.165575356E+00 -1.296159573E+01 -1.274596045E+02  1.282726326E+02  4.750000000E+00  0.00000E+00  9.000E+00
      -5     1     1     2     0   503  5.510640329E+00  8.180901023E+00 -3.887868166E+01  4.039070049E+01  4.750000000E+00  0.00000E+00  9.000E+00
      21     1     1     2   503   512  3.233325140E+00 -2.829339021E+01 -6.431214296E+01  7.033506986E+01  9.536743164E-07  0.00000E+00  9.000E+00
#rwgt            1           9   1.0712648952633973E-004           5     1896664           0
</event>
<event>
      6   9999  3.45752E-01  4.31849E+00 -1.00000E+00  2.41159E-01
      21    -1     0     0   501   502  0.000000000E+00  0.000000000E+00  2.982908091E+00  2.982908091E+00  0.000000000E+00  0.00000E+00  9.000E+00
      21    -1     0     0   502   511  0.000000000E+00  0.000000000E+00 -2.010353554E+03  2.010353554E+03  0.000000000E+00  0.00000E+00  9.000E+00
      25     1     1     2     0     0  7.700775192E+00 -8.750819905E-02 -1.639645034E+03  1.644420913E+03  1.249999669E+02  0.00000E+00  9.000E+00
       5     1     1     2   501     0  5.121152102E-01 -5.012244695E-02 -1.212909713E+01  1.303619083E+01  4.750000000E+00  0.00000E+00  9.000E+00
      -5     1     1     2     0   503 -7.015352799E+00  4.286759856E+00 -2.032665384E+02  2.034881805E+02  4.750000000E+00  0.00000E+00  9.000E+00
      21     1     1     2   503   511 -1.197537603E+00 -4.149129210E+00 -1.523299758E+02  1.523911772E+02  1.907348633E-06  0.00000E+00  9.000E+00
#rwgt            1           9   2.0883998565675684E-004           5     1897778           0
</event>
<event>
      6   9999  3.45752E-01  3.78425E+01 -1.00000E+00  1.41597E-01
      21    -1     0     0   501   512  0.000000000E+00  0.000000000E+00  9.505198786E+01  9.505198786E+01  0.000000000E+00  0.00000E+00  9.000E+00
      21    -1     0     0   502   503  0.000000000E+00  0.000000000E+00 -1.587062279E+03  1.587062279E+03  0.000000000E+00  0.00000E+00  9.000E+00
      25     1     1     2     0     0  1.012169810E+02 -2.823942180E+02 -9.730415510E+02  1.025878410E+03  1.250011192E+02  0.00000E+00  9.000E+00
       5     1     1     2   501     0  8.807854702E-01 -9.849578050E+00  2.256329868E+01  2.508894016E+01  4.750000000E+00  0.00000E+00  9.000E+00
      -5     1     1     2     0   503 -9.927341142E+01  2.545068535E+02 -5.204976231E+02  5.878514156E+02  4.750000000E+00  0.00000E+00  9.000E+00
      21     1     1     2   502   512 -2.824355084E+00  3.773694254E+01 -2.103441608E+01  4.329550177E+01  9.233911863E-07  0.00000E+00  9.000E+00
#rwgt            1           9   7.6206834389767235E-004           5     1901421           0
</event>
<event>
      6   9999  3.45752E-01  5.76462E+00 -1.00000E+00  2.16508E-01
      21    -1     0     0   501   502  0.000000000E+00  0.000000000E+00  8.909993435E+00  8.909993435E+00  0.000000000E+00  0.00000E+00  9.000E+00
      21    -1     0     0   511   503  0.000000000E+00  0.000000000E+00 -8.524617891E+02  8.524617891E+02  0.000000000E+00  0.00000E+00  9.000E+00
      25     1     1     2     0     0  7.427648956E+00  8.941980551E-01 -7.134635305E+02  7.243706519E+02  1.250066497E+02  0.00000E+00  9.000E+00
       5     1     1     2   501     0  2.081482362E+00  1.463873546E+00  8.707913711E-01  5.458596174E+00  4.750000000E+00  0.00000E+00  9.000E+00
      -5     1     1     2     0   503 -4.190067318E+00 -1.358254235E-01 -5.463673420E+01  5.500282117E+01  4.750000000E+00  0.00000E+00  9.000E+00
      21     1     1     2   511   502 -5.319063999E+00 -2.222246177E+00 -7.632232236E+01  7.653971329E+01  0.000000000E+00  0.00000E+00  9.000E+00
#rwgt            1           9   3.5403554905993813E-004           5     1903806           0
</event>
<event>
      6   9999  3.45752E-01  6.79933E+00 -1.00000E+00  2.06762E-01
      21    -1     0     0   501   502  0.000000000E+00  0.000000000E+00  2.312017400E+01  2.312017400E+01  0.000000000E+00  0.00000E+00  9.000E+00
      21    -1     0     0   512   503  0.000000000E+00  0.000000000E+00 -1.331257145E+03  1.331257145E+03  0.000000000E+00  0.00000E+00  9.000E+00
      25     1     1     2     0     0 -1.045791993E+01  4.469316600E+00 -2.052335641E+02  2.405717819E+02  1.249984942E+02  0.00000E+00  9.000E+00
       5     1     1     2   501     0 -5.520505594E-02 -9.880845129E-01  3.428045127E+00  5.940820818E+00  4.750000000E+00  0.00000E+00  9.000E+00
      -5     1     1     2     0   503  1.149089943E+01 -1.020988907E+01 -8.491903115E+01  8.642966479E+01  4.750000000E+00  0.00000E+00  9.000E+00
      21     1     1     2   512   502 -9.777744471E-01  6.728656984E+00 -1.021412421E+03  1.021435052E+03  2.412626389E-05  0.00000E+00  9.000E+00
#rwgt            1           9   1.8514176663290438                5     1907445           0
</event>
<event>
      6   9999  3.45752E-01  1.73603E+01 -1.00000E+00  1.65049E-01
      21    -1     0     0   501   502  0.000000000E+00  0.000000000E+00  6.321770677E+01  6.321770677E+01  0.000000000E+00  0.00000E+00  9.000E+00
      21    -1     0     0   511   503  0.000000000E+00  0.000000000E+00 -2.342879173E+03  2.342879173E+03  0.000000000E+00  0.00000E+00  9.000E+00
      25     1     1     2     0     0 -7.371426695E+00  4.409072198E+00 -5.371507139E+02  5.515657102E+02  1.249802598E+02  0.00000E+00  9.000E+00
       5     1     1     2   501     0  4.586492158E+00  4.242866497E+00  5.548621926E+01  5.603856578E+01  4.750000000E+00  0.00000E+00  9.000E+00
      -5     1     1     2     0   503 -7.741674524E+00 -2.245662829E+01 -8.895233061E+02  8.898530824E+02  4.750000000E+00  0.00000E+00  9.000E+00
      21     1     1     2   511   502  1.052660906E+01  1.380468959E+01 -9.084736650E+02  9.086395209E+02  1.525878906E-05  0.00000E+00  9.000E+00
#rwgt            1           9   3.3957567903571308E-004           5     1910589           0
</event>
<event>
      6   9999  3.45752E-01  5.74454E+00 -1.00000E+00  2.16724E-01
      21    -1     0     0   512   502  0.000000000E+00  0.000000000E+00  4.712555769E+00  4.712555769E+00  0.000000000E+00  0.00000E+00  9.000E+00
      21    -1     0     0   502   503  0.000000000E+00  0.000000000E+00 -3.497075042E+03  3.497075042E+03  0.000000000E+00  0.00000E+00  9.000E+00
      25     1     1     2     0     0  1.758205889E+00 -1.210057878E+01 -2.099248425E+03  2.103002224E+03  1.249995594E+02  0.00000E+00  9.000E+00
       5     1     1     2   501     0  4.381320499E+00  1.605804030E+00 -2.605995001E+00  7.150404593E+00  4.750000000E+00  0.00000E+00  9.000E+00
      -5     1     1     2     0   503 -1.198769983E+00  1.342541214E+01 -1.375359875E+03  1.375434123E+03  4.750000000E+00  0.00000E+00  9.000E+00
      21     1     1     2   512   501 -4.940756405E+00 -2.930637398E+00 -1.514819130E+01  1.620084594E+01  4.460403188E-07  0.00000E+00  9.000E+00
#rwgt            1           9  0.24206203899298878                5     1913484           0
</event>
<event>
      6   9999 -3.45752E-01  7.68164E+00 -1.00000E+00  2.00126E-01
      21    -1     0     0   511   502  0.000000000E+00  0.000000000E+00  1.202879823E+02  1.202879823E+02  0.000000000E+00  0.00000E+00  9.000E+00
      21    -1     0     0   502   503  0.000000000E+00  0.000000000E+00 -7.613984534E+02  7.613984534E+02  0.000000000E+00  0.00000E+00  9.000E+00
      25     1     1     2     0     0  7.652218283E-01 -3.733308635E-01 -7.486793123E+02  7.590449241E+02  1.250110365E+02  0.00000E+00  9.000E+00
       5     1     1     2   501     0 -2.187668784E+00 -1.300249252E+00  1.077007176E+00  5.495360523E+00  4.750000000E+00  0.00000E+00  9.000E+00
      -5     1     1     2     0   503 -5.298630568E+00 -2.045920124E+00 -2.552243913E+00  7.831840399E+00  4.750000000E+00  0.00000E+00  9.000E+00
      21     1     1     2   511   501  6.721077523E+00  3.719500240E+00  1.090440780E+02  1.093143106E+02  4.672030912E-06  0.00000E+00  9.000E+00
#rwgt            1           9  -1.8242802564105206E-003           5     1917150           0
</event>
<event>
      6   9999  3.45752E-01  3.12641E+00 -1.00000E+00  2.72306E-01
      21    -1     0     0   501   512  0.000000000E+00  0.000000000E+00  7.521377966E+00  7.521377966E+00  0.000000000E+00  0.00000E+00  9.000E+00
      21    -1     0     0   502   503  0.000000000E+00  0.000000000E+00 -7.595860108E+02  7.595860108E+02  0.000000000E+00  0.00000E+00  9.000E+00
      25     1     1     2     0     0  2.318890857E+00  1.351137643E+01 -6.639908354E+02  6.757937292E+02  1.250016016E+02  0.00000E+00  9.000E+00
       5     1     1     2   501     0 -1.117731876E+00 -1.091592560E+01 -5.180209092E+01  5.316414092E+01  4.750000000E+00  0.00000E+00  9.000E+00
      -5     1     1     2     0   503  1.138179973E+00 -4.669564776E+00 -3.275177124E+01  3.344161043E+01  4.750000000E+00  0.00000E+00  9.000E+00
      21     1     1     2   502   512 -2.339338954E+00  2.074113945E+00 -3.519935310E+00  4.707908239E+00  1.837138534E-07  0.00000E+00  9.000E+00
#rwgt            1           9   1.4728052014118375E-002           5     1920461           0
</event>
<event>
      6   9999  3.45752E-01  2.95769E+01 -1.00000E+00  1.48238E-01
      21    -1     0     0   501   502  0.000000000E+00  0.000000000E+00  8.089688299E+02  8.089688299E+02  0.000000000E+00  0.00000E+00  9.000E+00
      21    -1     0     0   511   503  0.000000000E+00  0.000000000E+00 -1.390619862E+01  1.390619862E+01  0.000000000E+00  0.00000E+00  9.000E+00
      25     1     1     2     0     0  2.746438343E+01  2.260564131E+01  6.307092557E+02  6.439603597E+02  1.250018890E+02  0.00000E+00  9.000E+00
       5     1     1     2   501     0 -1.239293512E+00 -1.620029804E-01  5.495195115E+01  5.517102074E+01  4.750000000E+00  0.00000E+00  9.000E+00
      -5     1     1     2     0   503 -1.287616524E+00 -6.540361578E+00  8.501947286E+01  8.541257256E+01  4.750000000E+00  0.00000E+00  9.000E+00
      21     1     1     2   511   502 -2.493747339E+01 -1.590327675E+01  2.438195162E+01  3.833107558E+01  0.000000000E+00  0.00000E+00  9.000E+00
#rwgt            1           9   1.2990197015853170E-005           5     1925365           0
</event>
<event>
      6   9999  3.45752E-01  5.94298E+00 -1.00000E+00  2.14637E-01
      21    -1     0     0   501   502  0.000000000E+00  0.000000000E+00  7.017760536E+00  7.017760536E+00  0.000000000E+00  0.00000E+00  9.000E+00
      21    -1     0     0   502   512  0.000000000E+00  0.000000000E+00 -1.295614197E+03  1.295614197E+03  0.000000000E+00  0.00000E+00  9.000E+00
      25     1     1     2     0     0  4.281786599E+00  5.522576408E+00 -6.296525640E+02  6.419780120E+02  1.249983360E+02  0.00000E+00  9.000E+00
       5     1     1     2   501     0  2.727645564E+00  5.770353276E+00 -4.901999875E+01  4.966145190E+01  4.750000000E+00  0.00000E+00  9.000E+00
      -5     1     1     2     0   503 -4.771409115E+00 -5.787451994E+00 -3.745833925E+01  3.849611181E+01  4.750000000E+00  0.00000E+00  9.000E+00
      21     1     1     2   503   512 -2.238023048E+00 -5.505477690E+00 -5.724655346E+02  5.724963820E+02  0.000000000E+00  0.00000E+00  9.000E+00
#rwgt            1           9   1.0317513972810455E-003           5     1926268           0
</event>
<event>
      6   9999  3.45752E-01  2.85199E+02 -1.00000E+00  1.03815E-01
      21    -1     0     0   502   511  0.000000000E+00  0.000000000E+00  1.285129013E+02  1.285129013E+02  0.000000000E+00  0.00000E+00  9.000E+00
      21    -1     0     0   501   502  0.000000000E+00  0.000000000E+00 -1.624203211E+03  1.624203211E+03  0.000000000E+00  0.00000E+00  9.000E+00
      25     1     1     2     0     0 -7.582338047E+01 -1.530792311E+02 -5.918442794E+02  6.285587093E+02  1.249958560E+02  0.00000E+00  9.000E+00
       5     1     1     2   501     0  7.954334701E+00  2.555305457E+01 -3.511653835E+02  3.522157280E+02  4.750000000E+00  0.00000E+00  9.000E+00
      -5     1     1     2     0   503  3.750071677E+01 -1.560514737E+02 -4.345144325E+02  4.632318218E+02  4.750000000E+00  0.00000E+00  9.000E+00
      21     1     1     2   503   511  3.036832900E+01  2.835776503E+02 -1.181662142E+02  3.087098530E+02  2.336015456E-06  0.00000E+00  9.000E+00
#rwgt            1           9   3.0296419504059393E-002           5     1929521           0
</event>
<event>
      6   9999  3.45752E-01  4.56063E+00 -1.00000E+00  2.36621E-01
      21    -1     0     0   501   502  0.000000000E+00  0.000000000E+00  7.344319288E+01  7.344319288E+01  0.000000000E+00  0.00000E+00  9.000E+00
      21    -1     0     0   512   503  0.000000000E+00  0.000000000E+00 -2.126464695E+02  2.126464695E+02  0.000000000E+00  0.00000E+00  9.000E+00
      25     1     1     2     0     0  6.610869993E+00 -9.486728932E-01 -2.613484754E+01  1.278698864E+02  1.249922958E+02  0.00000E+00  9.000E+00
       5     1     1     2   501     0 -1.438409516E-01 -1.927050079E-01  1.269713856E+01  1.355867446E+01  4.750000000E+00  0.00000E+00  9.000E+00
      -5     1     1     2     0   503 -4.325421404E+00  5.167900582E+00  7.602527421E+00  1.121505194E+01  4.750000000E+00  0.00000E+00  9.000E+00
      21     1     1     2   512   502 -2.141607638E+00 -4.026522681E+00 -1.333680951E+02  1.334460496E+02  1.907348633E-06  0.00000E+00  9.000E+00
#rwgt            1           9   5.7679577690641676E-004           5     1929771           0
</event>
<event>
      6   9999  3.45752E-01  8.40214E+00 -1.00000E+00  1.95527E-01
      21    -1     0     0   501   511  0.000000000E+00  0.000000000E+00  4.751163397E+01  4.751163397E+01  0.000000000E+00  0.00000E+00  9.000E+00
      21    -1     0     0   502   503  0.000000000E+00  0.000000000E+00 -7.969859758E+02  7.969859758E+02  0.000000000E+00  0.00000E+00  9.000E+00
      25     1     1     2     0     0  3.207782611E+00  4.183116527E+00 -7.837681563E+02  7.936939150E+02  1.250188767E+02  0.00000E+00  9.000E+00
       5     1     1     2   501     0  3.272528255E+00 -1.625898383E+00  4.298050735E+00  7.374871311E+00  4.750000000E+00  0.00000E+00  9.000E+00
      -5     1     1     2     0   503  1.690762308E+00 -6.002991878E-01 -5.185902755E+00  7.257762995E+00  4.750000000E+00  0.00000E+00  9.000E+00
      21     1     1     2   502   511 -8.171073174E+00 -1.956918956E+00  3.518166642E+01  3.617106054E+01  1.261592536E-06  0.00000E+00  9.000E+00
#rwgt            1           9   5.7600287280249688E-004           5     1933721           0
</event>
<event>
      6   9999  3.45752E-01  2.06111E+01 -1.00000E+00  1.59219E-01
      21    -1     0     0   512   502  0.000000000E+00  0.000000000E+00  4.489127423E+01  4.489127423E+01  0.000000000E+00  0.00000E+00  9.000E+00
      21    -1     0     0   502   503  0.000000000E+00  0.000000000E+00 -1.318293943E+03  1.318293943E+03  0.000000000E+00  0.00000E+00  9.000E+00
      25     1     1     2     0     0 -1.202746949E+01 -4.269748065E+00 -1.159578250E+03  1.166366003E+03  1.250001751E+02  0.00000E+00  9.000E+00
       5     1     1     2   501     0  1.585767352E+01  1.211264673E+01  3.637751327E+01  4.176204008E+01  4.750000000E+00  0.00000E+00  9.000E+00
      -5     1     1     2     0   503  9.322310705E+00  8.026260425E+00 -9.881198911E+01  9.968800342E+01  4.750000000E+00  0.00000E+00  9.000E+00
      21     1     1     2   512   501 -1.315251474E+01 -1.586915909E+01 -5.138994236E+01  5.536917040E+01  0.000000000E+00  0.00000E+00  9.000E+00
#rwgt            1           9   2.1463374490730611E-006           5     1936425           0
</event>
<event>
      6   9999  3.45752E-01  6.88770E+00 -1.00000E+00  2.06038E-01
      21    -1     0     0   511   502  0.000000000E+00  0.000000000E+00  2.732603334E+01  2.732603334E+01  0.000000000E+00  0.00000E+00  9.000E+00
      21    -1     0     0   502   503  0.000000000E+00  0.000000000E+00 -9.242812102E+02  9.242812102E+02  0.000000000E+00  0.00000E+00  9.000E+00
      25     1     1     2     0     0 -6.735633897E-01 -1.138774194E+01 -6.047873398E+02  6.176751434E+02  1.249988882E+02  0.00000E+00  9.000E+00
       5     1     1     2   501     0  2.527438966E-02 -5.041086408E+00  8.432658032E+00  1.091262629E+01  4.750000000E+00  0.00000E+00  9.000E+00
      -5     1     1     2     0   503  5.286866286E+00  1.133726727E+01 -3.105941202E+02  3.108822198E+02  4.750000000E+00  0.00000E+00  9.000E+00
      21     1     1     2   511   501 -4.638577286E+00  5.091561076E+00  9.993625097E+00  1.213725406E+01  6.951036328E-07  0.00000E+00  9.000E+00
#rwgt            1           9   1.7865600999368588E-004           5     1938701           0
</event>
<event>
      6   9999  3.45752E-01  1.73358E+01 -1.00000E+00  1.65099E-01
      21    -1     0     0   501   502  0.000000000E+00  0.000000000E+00  1.315824579E+03  1.315824579E+03  0.000000000E+00  0.00000E+00  9.000E+00
      21    -1     0     0   512   503  0.000000000E+00  0.000000000E+00 -1.036219405E+02  1.036219405E+02  0.000000000E+00  0.00000E+00  9.000E+00
      25     1     1     2     0     0  1.733021258E+02 -9.731192809E+01  2.799115075E+02  3.653472892E+02  1.249998061E+02  0.00000E+00  9.000E+00
       5     1     1     2   501     0  7.779978068E+00  8.994791707E+00  8.262595491E+02  8.263587836E+02  4.750000000E+00  0.00000E+00  9.000E+00
      -5     1     1     2     0   503 -1.652927022E+02  8.116000900E+01  9.758911947E+01  2.084582049E+02  4.750000000E+00  0.00000E+00  9.000E+00
      21     1     1     2   512   502 -1.578940176E+01  7.157127385E+00  8.442462762E+00  1.928224204E+01  3.769728732E-07  0.00000E+00  9.000E+00
#rwgt            1           9   1.8534298208367714E-005           5     1942218           0
</event>
<event>
      6   9999  3.45752E-01  3.38252E+01 -1.00000E+00  1.44544E-01
      21    -1     0     0   511   502  0.000000000E+00  0.000000000E+00  1.115666828E+02  1.115666828E+02  0.000000000E+00  0.00000E+00  9.000E+00
      21    -1     0     0   502   503  0.000000000E+00  0.000000000E+00 -1.869058394E+03  1.869058394E+03  0.000000000E+00  0.00000E+00  9.000E+00
      25     1     1     2     0     0  7.542318168E+01 -8.520694000E+01 -3.841201074E+01  1.733476481E+02  1.250001823E+02  0.00000E+00  9.000E+00
       5     1     1     2   501     0  6.807618229E+00  1.265239964E+00  2.426241448E+01  2.567434040E+01  4.750000000E+00  0.00000E+00  9.000E+00
      -5     1     1     2     0   503 -5.038325171E+01  7.254522655E+01 -1.745471176E+03  1.747710923E+03  4.750000000E+00  0.00000E+00  9.000E+00
      21     1     1     2   511   501 -3.184754820E+01  1.139647349E+01  2.129061459E+00  3.389216483E+01  1.044357745E-06  0.00000E+00  9.000E+00
#rwgt            1           9   6.2773576484694319E-004           5     1945640           0
</event>
<event>
      6   9999  3.45752E-01  2.49130E+00 -1.00000E+00  2.99874E-01
      21    -1     0     0   501   502  0.000000000E+00  0.000000000E+00  9.601635435E+01  9.601635435E+01  0.000000000E+00  0.00000E+00  9.000E+00
       2    -1     0     0   502     0  0.000000000E+00  0.000000000E+00 -1.910315301E+03  1.910315301E+03  0.000000000E+00  0.00000E+00  9.000E+00
      25     1     1     2     0     0  7.320279214E+01 -4.443986003E+01 -9.477808966E+00  1.518108438E+02  1.249926138E+02  0.00000E+00  9.000E+00
       5     1     1     2   501     0  3.143272292E-01  6.156294230E-02  2.196089785E+01  2.247100634E+01  4.750000000E+00  0.00000E+00  9.000E+00
      -5     1     1     2     0   503 -7.103540145E+01  4.416000534E+01 -6.638975670E+02  6.691626680E+02  4.750000000E+00  0.00000E+00  9.000E+00
       2     1     1     2   503     0 -2.481717919E+00  2.182917493E-01 -1.162884469E+03  1.162887137E+03  1.525878906E-05  0.00000E+00  9.000E+00
#rwgt            1           9   2.4910075612648514E-003           5     1947948           0
</event>
<event>
      6   9999  3.45752E-01  9.06290E+00 -1.00000E+00  1.91810E-01
      21    -1     0     0   501   502  0.000000000E+00  0.000000000E+00  1.515095780E+02  1.515095780E+02  0.000000000E+00  0.00000E+00  9.000E+00
      21    -1     0     0   502   511  0.000000000E+00  0.000000000E+00 -2.021594338E+02  2.021594338E+02  0.000000000E+00  0.00000E+00  9.000E+00
      25     1     1     2     0     0 -3.336114283E-01  5.637527006E+00  1.064644627E+02  1.642863533E+02  1.249937240E+02  0.00000E+00  9.000E+00
       5     1     1     2   501     0 -3.933517072E-01 -4.290862632E-01  1.255667679E+01  1.343768851E+01  4.750000000E+00  0.00000E+00  9.000E+00
      -5     1     1     2     0   503 -6.354569195E+00 -1.086423281E+01 -1.204013969E+01  1.805379650E+01  4.750000000E+00  0.00000E+00  9.000E+00
      21     1     1     2   503   511  7.081532330E+00  5.655792066E+00 -1.576308555E+02  1.578911736E+02  1.907348633E-06  0.00000E+00  9.000E+00
#rwgt            1           9   11.155121303338483                5     1958782           0
</event>
<event>
      6   9999  3.45752E-01  1.71696E+01 -1.00000E+00  1.65439E-01
      21    -1     0     0   501   502  0.000000000E+00  0.000000000E+00  7.677530627E+01  7.677530627E+01  0.000000000E+00  0.00000E+00  9.000E+00
      21    -1     0     0   512   503  0.000000000E+00  0.000000000E+00 -1.992549072E+02  1.992549072E+02  0.000000000E+00  0.00000E+00  9.000E+00
      25     1     1     2     0     0  3.009636298E+00 -3.962021105E+00 -1.489934092E+02  1.945404498E+02  1.249887800E+02  0.00000E+00  9.000E+00
       5     1     1     2   501     0 -4.801327576E+00 -6.130719192E+00  4.653129875E+01  4.741690339E+01  4.750000000E+00  0.00000E+00  9.000E+00
      -5     1     1     2     0   503 -7.740165614E-01 -6.884109503E+00 -1.012056893E+00  8.460308768E+00  4.750000000E+00  0.00000E+00  9.000E+00
      21     1     1     2   512   502  2.565707839E+00  1.697684980E+01 -1.900543363E+01  2.561255148E+01  2.384185791E-07  0.00000E+00  9.000E+00
#rwgt            1           9   8.2011462210891022E-004           5     1960876           0
</event>
<event>
      6   9999  3.45752E-01  6.11430E+01 -1.00000E+00  1.30273E-01
      21    -1     0     0   511   502  0.000000000E+00  0.000000000E+00  3.694126130E+02  3.694126130E+02  0.000000000E+00  0.00000E+00  9.000E+00
      21    -1     0     0   502   503  0.000000000E+00  0.000000000E+00 -5.302812489E+02  5.302812489E+02  0.000000000E+00  0.00000E+00  9.000E+00
      25     1     1     2     0     0  5.517280286E+01  1.049560955E+01 -4.673554305E+02  4.870314148E+02  1.249972185E+02  0.00000E+00  9.000E+00
       5     1     1     2   501     0  6.512021997E+00  1.684331484E+00 -2.584916516E+01  2.712904794E+01  4.750000000E+00  0.00000E+00  9.000E+00
      -5     1     1     2     0   503 -2.066088378E+00  1.387386477E+00 -2.369304816E+01  2.429231552E+01  4.750000000E+00  0.00000E+00  9.000E+00
      21     1     1     2   511   501 -5.961873648E+01 -1.356732751E+01  3.560290078E+02  3.612410837E+02  5.394796609E-06  0.00000E+00  9.000E+00
#rwgt            1           9   3.8911070338446194E-002           5     1963394           0
</event>
<event>
      6   9999  3.45752E-01  4.07930E+01 -1.00000E+00  1.39693E-01
      21    -1     0     0   501   502  0.000000000E+00  0.000000000E+00  1.227325702E+01  1.227325702E+01  0.000000000E+00  0.00000E+00  9.000E+00
      21    -1     0     0   512   503  0.000000000E+00  0.000000000E+00 -1.366421443E+03  1.366421443E+03  0.000000000E+00  0.00000E+00  9.000E+00
      25     1     1     2     0     0  2.694324066E+01  1.904662044E+01 -5.810433335E+02  5.952516363E+02  1.249977725E+02  0.00000E+00  9.000E+00
       5     1     1     2   501     0  4.884331245E+00  7.004300755E+00 -1.194024873E+00  9.844039627E+00  4.750000000E+00  0.00000E+00  9.000E+00
      -5     1     1     2     0   503 -1.923641900E+00  1.694812201E+00 -2.631661130E+02  2.632214625E+02  4.750000000E+00  0.00000E+00  9.000E+00
      21     1     1     2   512   502 -2.990393000E+01 -2.774573339E+01 -5.087447149E+02  5.103775619E+02  7.629394531E-06  0.00000E+00  9.000E+00
#rwgt            1           9   1.4797555045683130E-002           5     1964881           0
</event>
<event>
      6   9999  3.45752E-01  2.70095E+01 -1.00000E+00  1.50850E-01
      21    -1     0     0   501   511  0.000000000E+00  0.000000000E+00  2.614246443E+01  2.614246443E+01  0.000000000E+00  0.00000E+00  9.000E+00
      21    -1     0     0   502   503  0.000000000E+00  0.000000000E+00 -8.144820616E+02  8.144820616E+02  0.000000000E+00  0.00000E+00  9.000E+00
      25     1     1     2     0     0  6.985634630E-01  9.268231875E+00 -5.760841913E+02  5.895523254E+02  1.249502336E+02  0.00000E+00  9.000E+00
       5     1     1     2   501     0 -4.515614446E+00  3.807832951E+00 -8.140406787E-01  7.623354107E+00  4.750000000E+00  0.00000E+00  9.000E+00
      -5     1     1     2     0   503 -1.368447946E+01  7.495951966E+00 -2.155172877E+02  2.161335653E+02  4.750000000E+00  0.00000E+00  9.000E+00
      21     1     1     2   502   511  1.750153044E+01 -2.057201679E+01  4.075922449E+00  2.731528119E+01  1.015030525E-06  0.00000E+00  9.000E+00
#rwgt            1           9   2.1506023113954794E-003           5     1965859           0
</event>
<event>
      6   9999  3.45752E-01  6.88155E+00 -1.00000E+00  2.06088E-01
      21    -1     0     0   501   502  0.000000000E+00  0.000000000E+00  1.825987522E+01  1.825987522E+01  0.000000000E+00  0.00000E+00  9.000E+00
      21    -1     0     0   502   512  0.000000000E+00  0.000000000E+00 -5.883273722E+02  5.883273722E+02  0.000000000E+00  0.00000E+00  9.000E+00
      25     1     1     2     0     0  2.179900987E+00 -8.473433871E+00 -5.419992727E+02  5.562952974E+02  1.249987809E+02  0.00000E+00  9.000E+00
       5     1     1     2   501     0 -3.431865064E-01  1.059997627E+00  9.472158157E+00  1.065484172E+01  4.750000000E+00  0.00000E+00  9.000E+00
      -5     1     1     2     0   503 -3.091716943E+00  6.472921088E-01 -1.418544982E+01  1.528944693E+01  4.750000000E+00  0.00000E+00  9.000E+00
      21     1     1     2   503   512  1.255002462E+00  6.766144136E+00 -2.335493258E+01  2.434766135E+01  0.000000000E+00  0.00000E+00  9.000E+00
#rwgt            1           9   3.1139734667839382E-004           5     1967160           0
</event>
<event>
      6   9999  3.45752E-01  4.35930E+00 -1.00000E+00  2.40364E-01
      21    -1     0     0   501   502  0.000000000E+00  0.000000000E+00  8.458154487E+00  8.458154487E+00  0.000000000E+00  0.00000E+00  9.000E+00
      21    -1     0     0   511   503  0.000000000E+00  0.000000000E+00 -7.400277622E+02  7.400277622E+02  0.000000000E+00  0.00000E+00  9.000E+00
      25     1     1     2     0     0  7.640314266E+00  4.068982834E+00 -6.468507869E+02  6.588569380E+02  1.249063373E+02  0.00000E+00  9.000E+00
       5     1     1     2   501     0 -3.945241603E-01  1.329541410E-01 -1.691098313E+00  5.059213340E+00  4.750000000E+00  0.00000E+00  9.000E+00
      -5     1     1     2     0   503 -4.242931000E+00 -1.041822637E+00 -1.412771293E+01  1.553198733E+01  4.750000000E+00  0.00000E+00  9.000E+00
      21     1     1     2   511   502 -3.002859106E+00 -3.160114338E+00 -6.890000957E+01  6.903777809E+01  1.348699152E-06  0.00000E+00  9.000E+00
#rwgt            1           9   5.2511602085262525E-006           5     1970490           0
</event>
<event>
      6   9999  3.45752E-01  9.07516E+00 -1.00000E+00  1.91745E-01
      21    -1     0     0   501   502  0.000000000E+00  0.000000000E+00  1.098440510E+01  1.098440510E+01  0.000000000E+00  0.00000E+00  9.000E+00
      21    -1     0     0   512   503  0.000000000E+00  0.000000000E+00 -2.016439086E+03  2.016439086E+03  0.000000000E+00  0.00000E+00  9.000E+00
      25     1     1     2     0     0  2.405334801E+01 -8.868148406E-02 -1.200729564E+03  1.207458146E+03  1.250004682E+02  0.00000E+00  9.000E+00
       5     1     1     2   501     0  2.047400585E+00  2.775518612E+00  6.019614060E+00  8.407948986E+00  4.750000000E+00  0.00000E+00  9.000E+00
      -5     1     1     2     0   503 -1.704432833E+01 -2.103871835E+00 -2.130662300E+02  2.138100004E+02  4.750000000E+00  0.00000E+00  9.000E+00
      21     1     1     2   512   502 -9.056420264E+00 -5.829652929E-01 -5.976785002E+02  5.977473950E+02  7.629394531E-06  0.00000E+00  9.000E+00
#rwgt            1           9   1.1742068591959784E-003           5     1974278           0
</event>
<event>
      6   9999  3.45752E-01  5.72307E+00 -1.00000E+00  2.16957E-01
      21    -1     0     0   501   511  0.000000000E+00  0.000000000E+00  3.007403030E+02  3.007403030E+02  0.000000000E+00  0.00000E+00  9.000E+00
      21    -1     0     0   502   503  0.000000000E+00  0.000000000E+00 -9.058348561E+02  9.058348561E+02  0.000000000E+00  0.00000E+00  9.000E+00
      25     1     1     2     0     0 -5.867039538E+01  1.100830361E+00 -4.451061316E+02  4.660342745E+02  1.250001977E+02  0.00000E+00  9.000E+00
       5     1     1     2   501     0  7.503593979E-01  9.113479089E-01  4.518149996E-01  4.915305792E+00  4.750000000E+00  0.00000E+00  9.000E+00
      -5     1     1     2     0   503  6.342894431E+01 -4.612087937E-01 -4.457464155E+02  4.502620049E+02  4.750000000E+00  0.00000E+00  9.000E+00
      21     1     1     2   502   511 -5.508908327E+00 -1.550969476E+00  2.853061790E+02  2.853635740E+02  3.814697266E-06  0.00000E+00  9.000E+00
#rwgt            1           9   3.8810480114128158E-005           5     1977276           0
</event>
<event>
      6   9999  3.45752E-01  7.62152E+00 -1.00000E+00  2.00540E-01
      21    -1     0     0   501   502  0.000000000E+00  0.000000000E+00  2.291600022E+01  2.291600022E+01  0.000000000E+00  0.00000E+00  9.000E+00
      21    -1     0     0   502   512  0.000000000E+00  0.000000000E+00 -1.076252903E+03  1.076252903E+03  0.000000000E+00  0.00000E+00  9.000E+00
      25     1     1     2     0     0  4.836885025E+01 -4.150702303E+00 -5.730907443E+02  5.885705924E+02  1.250022682E+02  0.00000E+00  9.000E+00
       5     1     1     2   501     0 -1.059584711E+00 -9.448551772E-01  1.290292814E+01  1.382257305E+01  4.750000000E+00  0.00000E+00  9.000E+00
      -5     1     1     2     0   503 -5.004750867E+01 -2.017078396E+00 -3.719755063E+02  3.753627066E+02  4.750000000E+00  0.00000E+00  9.000E+00
      21     1     1     2   503   512  2.738243129E+00  7.112635876E+00 -1.211735800E+02  1.214130308E+02  1.348699152E-06  0.00000E+00  9.000E+00
#rwgt            1           9   2.7907714725474691E-003           5     1981558           0
</event>
<event>
      6   9999  3.45752E-01  3.24753E+01 -1.00000E+00  1.45645E-01
      21    -1     0     0   502   511  0.000000000E+00  0.000000000E+00  5.007787520E+01  5.007787520E+01  0.000000000E+00  0.00000E+00  9.000E+00
      21    -1     0     0   501   502  0.000000000E+00  0.000000000E+00 -7.503816718E+02  7.503816718E+02  0.000000000E+00  0.00000E+00  9.000E+00
      25     1     1     2     0     0 -1.825275740E+01  1.453718932E+01 -7.084817716E+02  7.197713459E+02  1.248193760E+02  0.00000E+00  9.000E+00
       5     1     1     2   501     0  9.284629667E-01  1.866624234E+00 -1.947252578E+00  5.540814210E+00  4.750000000E+00  0.00000E+00  9.000E+00
      -5     1     1     2     0   503  3.157579003E+01  1.277729442E+01 -1.134619080E+01  3.621585722E+01  4.750000000E+00  0.00000E+00  9.000E+00
      21     1     1     2   503   511 -1.425149560E+01 -2.918110797E+01  2.147141844E+01  3.893152963E+01  1.011524364E-06  0.00000E+00  9.000E+00
#rwgt            1           9   2.0202474863064942E-004           5     1985202           0
</event>
<event>
      6   9999  3.45752E-01  1.32144E+01 -1.00000E+00  1.75284E-01
      21    -1     0     0   512   502  0.000000000E+00  0.000000000E+00  1.436152759E+02  1.436152759E+02  0.000000000E+00  0.00000E+00  9.000E+00
      21    -1     0     0   502   503  0.000000000E+00  0.000000000E+00 -2.305145521E+02  2.305145521E+02  0.000000000E+00  0.00000E+00  9.000E+00
      25     1     1     2     0     0 -3.467504218E+01 -2.323747432E+00 -1.974752849E+02  2.362859870E+02  1.250072843E+02  0.00000E+00  9.000E+00
       5     1     1     2   501     0  1.533576731E+00 -2.235475186E+00  8.667411596E+01  8.684649725E+01  4.750000000E+00  0.00000E+00  9.000E+00
      -5     1     1     2     0   503  2.443210069E+01 -5.379009409E+00  2.161269932E+00  2.555572097E+01  4.750000000E+00  0.00000E+00  9.000E+00
      21     1     1     2   512   501  8.709364761E+00  9.938232028E+00  2.174062284E+01  2.544162282E+01  2.384185791E-07  0.00000E+00  9.000E+00
#rwgt            1           9   7.6369333710200557E-004           5     1986160           0
</event>
<event>
      6   9999  3.45752E-01  1.75427E+01 -1.00000E+00  1.64681E-01
      21    -1     0     0   501   511  0.000000000E+00  0.000000000E+00  8.827279442E+02  8.827279442E+02  0.000000000E+00  0.00000E+00  9.000E+00
      21    -1     0     0   502   503  0.000000000E+00  0.000000000E+00 -1.323089994E+01  1.323089994E+01  0.000000000E+00  0.00000E+00  9.000E+00
      25     1     1     2     0     0 -1.735985376E+01  2.193309656E+01  3.756623608E+02  3.968996544E+02  1.249988045E+02  0.00000E+00  9.000E+00
       5     1     1     2   501     0 -1.889130373E+00  2.381641816E+00  3.286802777E+02  3.287286547E+02  4.750000000E+00  0.00000E+00  9.000E+00
      -5     1     1     2     0   503  1.296648508E+01 -7.935542576E+00  2.930721007E+01  3.335532392E+01  4.750000000E+00  0.00000E+00  9.000E+00
      21     1     1     2   502   511  6.282499046E+00 -1.637919580E+01  1.358471957E+02  1.369752110E+02  0.000000000E+00  0.00000E+00  9.000E+00
#rwgt            1           9   5.6646313914969861E-004           5     1988906           0
</event>
<event>
      6   9999  3.45752E-01  1.12898E+01 -1.00000E+00  1.81809E-01
      21    -1     0     0   501   512  0.000000000E+00  0.000000000E+00  3.965648673E+02  3.965648673E+02  0.000000000E+00  0.00000E+00  9.000E+00
      21    -1     0     0   502   503  0.000000000E+00  0.000000000E+00 -7.553677557E+02  7.553677557E+02  0.000000000E+00  0.00000E+00  9.000E+00
      25     1     1     2     0     0 -6.054073202E+00  1.187891235E+01 -7.285036830E+02  7.392703370E+02  1.250010190E+02  0.00000E+00  9.000E+00
       5     1     1     2   501     0 -1.063032367E+00  2.589174963E+00 -3.705983427E-01  5.525731439E+00  4.750000000E+00  0.00000E+00  9.000E+00
      -5     1     1     2     0   503  4.838281844E+00 -3.410618408E+00 -1.766989518E+01  1.923093822E+01  4.750000000E+00  0.00000E+00  9.000E+00
      21     1     1     2   502   512  2.278823725E+00 -1.105746890E+01  3.877412881E+02  3.879056163E+02  0.000000000E+00  0.00000E+00  9.000E+00
#rwgt            1           9   1.1112133646467418E-004           5     1990394           0
</event>
<event>
      6   9999  3.45752E-01  2.40165E+00 -1.00000E+00  3.04891E-01
      21    -1     0     0   501   502  0.000000000E+00  0.000000000E+00  3.305054821E+01  3.305054821E+01  0.000000000E+00  0.00000E+00  9.000E+00
       1    -1     0     0   502     0  0.000000000E+00  0.000000000E+00 -2.434804006E+03  2.434804006E+03  0.000000000E+00  0.00000E+00  9.000E+00
      25     1     1     2     0     0 -3.075599384E+00  2.792071432E+00 -9.832311367E+02  9.911539648E+02  1.250018355E+02  0.00000E+00  9.000E+00
       5     1     1     2   501     0 -3.856891454E+00  4.372624034E+00  2.837707591E+01  2.935670945E+01  4.750000000E+00  0.00000E+00  9.000E+00
      -5     1     1     2     0   503  9.303935100E+00 -6.785015499E+00 -1.752162989E+02  1.756585140E+02  4.750000000E+00  0.00000E+00  9.000E+00
       1     1     1     2   503     0 -2.371444262E+00 -3.796799671E-01 -1.271683098E+03  1.271685366E+03  0.000000000E+00  0.00000E+00  9.000E+00
#rwgt            1           9   2.6452641773262123E-004           5     1992682           0
</event>
<event>
      6   9999  3.45752E-01  6.70919E+00 -1.00000E+00  2.07515E-01
      21    -1     0     0   501   502  0.000000000E+00  0.000000000E+00  1.038980289E+01  1.038980289E+01  0.000000000E+00  0.00000E+00  9.000E+00
      21    -1     0     0   511   503  0.000000000E+00  0.000000000E+00 -9.118871665E+02  9.118871665E+02  0.000000000E+00  0.00000E+00  9.000E+00
      25     1     1     2     0     0 -1.901515979E+00 -1.854443594E+01 -6.863486761E+02  6.978876807E+02  1.250007916E+02  0.00000E+00  9.000E+00
       5     1     1     2   501     0  1.329613330E+00 -6.364550015E-01  2.587194965E+00  5.606159502E+00  4.750000000E+00  0.00000E+00  9.000E+00
      -5     1     1     2     0   503 -1.708585294E+00  1.287117266E+01 -1.149389477E+02  1.157674849E+02  4.750000000E+00  0.00000E+00  9.000E+00
      21     1     1     2   511   502  2.280487943E+00  6.309718282E+00 -1.027969348E+02  1.030156443E+02  1.907348633E-06  0.00000E+00  9.000E+00
#rwgt            1           9   6.2029021341412360E-005           5     2001975           0
</event>
<event>
      6   9999 -3.45752E-01  2.28854E+01 -1.00000E+00  1.55868E-01
      21    -1     0     0   501   502  0.000000000E+00  0.000000000E+00  8.692980821E+01  8.692980821E+01  0.000000000E+00  0.00000E+00  9.000E+00
      21    -1     0     0   502   512  0.000000000E+00  0.000000000E+00 -3.085281371E+03  3.085281371E+03  0.000000000E+00  0.00000E+00  9.000E+00
      25     1     1     2     0     0 -8.592942247E+01  6.625836090E+01 -5.459135273E+02  5.704566392E+02  1.250006474E+02  0.00000E+00  9.000E+00
       5     1     1     2   501     0 -1.628162999E+01  1.258997258E+01  6.979689492E+01  7.292302740E+01  4.750000000E+00  0.00000E+00  9.000E+00
      -5     1     1     2     0   503  1.004314479E+02 -5.603221869E+01 -1.028408161E+03  1.034829451E+03  4.750000000E+00  0.00000E+00  9.000E+00
      21     1     1     2   503   512  1.779604544E+00 -2.281611479E+01 -1.493826769E+03  1.494002061E+03  0.000000000E+00  0.00000E+00  9.000E+00
#rwgt            1           9  -5.5872335239605908E-005           5     2005406           0
</event>
<event>
      6   9999  3.45752E-01  7.62254E+00 -1.00000E+00  2.00533E-01
      21    -1     0     0   511   502  0.000000000E+00  0.000000000E+00  3.566546867E+03  3.566546867E+03  0.000000000E+00  0.00000E+00  9.000E+00
      21    -1     0     0   502   503  0.000000000E+00  0.000000000E+00 -7.732777386E+00  7.732777386E+00  0.000000000E+00  0.00000E+00  9.000E+00
      25     1     1     2     0     0  1.035687521E+01  1.054007010E+01  1.148001787E+03  1.154881841E+03  1.250024276E+02  0.00000E+00  9.000E+00
       5     1     1     2   501     0 -6.766525992E+00  6.564920175E-01  2.309568736E+03  2.309583626E+03  4.750000000E+00  0.00000E+00  9.000E+00
      -5     1     1     2     0   503 -8.824621570E+00 -1.673781689E+01  1.904718097E+01  2.726510706E+01  4.750000000E+00  0.00000E+00  9.000E+00
      21     1     1     2   511   501  5.234272351E+00  5.541254776E+00  8.219638574E+01  8.254906989E+01  1.651812370E-06  0.00000E+00  9.000E+00
#rwgt            1           9   5.1519891591674666E-004           5     2007983           0
</event>
<event>
      6   9999  3.45752E-01  1.09115E+01 -1.00000E+00  1.83289E-01
      21    -1     0     0   501   502  0.000000000E+00  0.000000000E+00  1.127293970E+01  1.127293970E+01  0.000000000E+00  0.00000E+00  9.000E+00
      21    -1     0     0   512   503  0.000000000E+00  0.000000000E+00 -1.418927149E+03  1.418927149E+03  0.000000000E+00  0.00000E+00  9.000E+00
      25     1     1     2     0     0  9.269243164E+00 -9.455823262E-01 -1.085109790E+03  1.092325328E+03  1.249982136E+02  0.00000E+00  9.000E+00
       5     1     1     2   501     0 -1.137529428E+00  9.238673767E-01  5.607748368E+00  7.493787153E+00  4.750000000E+00  0.00000E+00  9.000E+00
      -5     1     1     2     0   503 -3.426660600E+00  9.866713276E+00 -3.144177807E+01  3.347001556E+01  4.750000000E+00  0.00000E+00  9.000E+00
      21     1     1     2   512   502 -4.705053135E+00 -9.844998326E+00 -2.967103902E+02  2.969109583E+02  0.000000000E+00  0.00000E+00  9.000E+00
#rwgt            1           9   7.2742649184418147E-004           5     2011606           0
</event>
<event>
      6   9999  3.45752E-01  8.92392E+00 -1.00000E+00  1.92557E-01
      21    -1     0     0   501   511  0.000000000E+00  0.000000000E+00  1.291156978E+02  1.291156978E+02  0.000000000E+00  0.00000E+00  9.000E+00
      21    -1     0     0   502   503  0.000000000E+00  0.000000000E+00 -1.606106352E+03  1.606106352E+03  0.000000000E+00  0.00000E+00  9.000E+00
      25     1     1     2     0     0  5.273043258E+00  1.017486275E+01 -1.550415920E+03  1.555488993E+03  1.250005982E+02  0.00000E+00  9.000E+00
       5     1     1     2   501     0 -1.139747403E+01  1.301031691E+00  2.808196002E+01  3.070430061E+01  4.750000000E+00  0.00000E+00  9.000E+00
      -5     1     1     2     0   503 -2.323584060E+00 -8.600573242E+00 -5.114332334E+01  5.213032635E+01  4.750000000E+00  0.00000E+00  9.000E+00
      21     1     1     2   502   511  8.448014836E+00 -2.875321200E+00  9.648662834E+01  9.689843071E+01  3.303624740E-06  0.00000E+00  9.000E+00
#rwgt            1           9   4.5738685116051444E-005           5     2014167           0
</event>
<event>
      6   9999 -3.45752E-01  1.49055E+01 -1.00000E+00  1.70610E-01
      21    -1     0     0   501   512  0.000000000E+00  0.000000000E+00  1.833169038E+01  1.833169038E+01  0.000000000E+00  0.00000E+00  9.000E+00
      21    -1     0     0   502   503  0.000000000E+00  0.000000000E+00 -9.717322876E+02  9.717322876E+02  0.000000000E+00  0.00000E+00  9.000E+00
      25     1     1     2     0     0  1.365453369E+01  1.668601431E+01 -4.278952329E+02  4.463060048E+02  1.250193994E+02  0.00000E+00  9.000E+00
       5     1     1     2   501     0  3.123578020E-01  2.410261413E+00  5.773552065E+00  7.861509456E+00  4.750000000E+00  0.00000E+00  9.000E+00
      -5     1     1     2     0   503 -1.301577443E+00 -1.123733854E+01 -5.086599018E+02  5.088078519E+02  4.750000000E+00  0.00000E+00  9.000E+00
      21     1     1     2   502   512 -1.266531405E+01 -7.858937179E+00 -2.261901456E+01  2.708861187E+01  6.743495762E-07  0.00000E+00  9.000E+00
#rwgt            1           9  -1.3680745453511990E-004           5     2018005           0
</event>
<event>
      6   9999  3.45752E-01  1.50018E+01 -1.00000E+00  1.70367E-01
      21    -1     0     0   501   502  0.000000000E+00  0.000000000E+00  3.011009521E+01  3.011009521E+01  0.000000000E+00  0.00000E+00  9.000E+00
      21    -1     0     0   502   511  0.000000000E+00  0.000000000E+00 -1.259392316E+03  1.259392316E+03  0.000000000E+00  0.00000E+00  9.000E+00
      25     1     1     2     0     0  3.326920361E+01  2.801469187E+01 -2.585328735E+02  2.904408591E+02  1.249999324E+02  0.00000E+00  9.000E+00
       5     1     1     2   501     0 -1.156495223E+00  3.051150440E-01  1.229489171E+01  1.323470584E+01  4.750000000E+00  0.00000E+00  9.000E+00
      -5     1     1     2     0   503 -4.544703884E+01 -3.519361518E+01 -8.460457015E+02  8.480093841E+02  4.750000000E+00  0.00000E+00  9.000E+00
      21     1     1     2   503   511  1.333433045E+01  6.873808268E+00 -1.369985379E+02  1.378174626E+02  1.907348633E-06  0.00000E+00  9.000E+00
#rwgt            1           9   1.6838282936013015E-003           5     2020136           0
</event>
<event>
      6   9999  3.45752E-01  5.48633E+01 -1.00000E+00  1.32665E-01
      21    -1     0     0   512   503  0.000000000E+00  0.000000000E+00  1.278547383E+02  1.278547383E+02  0.000000000E+00  0.00000E+00  9.000E+00
      21    -1     0     0   501   502  0.000000000E+00  0.000000000E+00 -1.279103523E+03  1.279103523E+03  0.000000000E+00  0.00000E+00  9.000E+00
      25     1     1     2     0     0  1.735907714E+02 -1.283389999E+02 -7.920607895E+02  8.304156380E+02  1.250007313E+02  0.00000E+00  9.000E+00
       5     1     1     2   501     0 -4.420892980E+01 -1.445142188E+01 -8.757976111E+01  9.927764162E+01  4.750000000E+00  0.00000E+00  9.000E+00
      -5     1     1     2     0   503 -1.336014709E+02  8.808959562E+01 -3.480886255E+02  3.831414668E+02  4.750000000E+00  0.00000E+00  9.000E+00
      21     1     1     2   512   502  4.219629313E+00  5.470082621E+01  7.648039178E+01  9.412351452E+01  3.814697266E-06  0.00000E+00  9.000E+00
#rwgt            1           9   1.5840455264056286E-003           5     2023104           0
</event>
<event>
      6   9999  3.45752E-01  8.18128E+00 -1.00000E+00  1.96870E-01
      21    -1     0     0   501   511  0.000000000E+00  0.000000000E+00  7.239724784E+01  7.239724784E+01  0.000000000E+00  0.00000E+00  9.000E+00
      21    -1     0     0   502   503  0.000000000E+00  0.000000000E+00 -7.891916391E+02  7.891916391E+02  0.000000000E+00  0.00000E+00  9.000E+00
      25     1     1     2     0     0 -1.117998029E+01 -2.031461875E+01 -7.099327210E+02  7.212263768E+02  1.250013702E+02  0.00000E+00  9.000E+00
       5     1     1     2   501     0  4.643477664E+00  1.231087664E+01 -1.378451818E+01  1.963911938E+01  4.750000000E+00  0.00000E+00  9.000E+00
      -5     1     1     2     0   503  1.406942795E+01  1.119565563E+01 -5.510489345E+01  5.815843267E+01  4.750000000E+00  0.00000E+00  9.000E+00
      21     1     1     2   502   511 -7.532925324E+00 -3.191913521E+00  6.202774140E+01  6.256495807E+01  1.168007728E-06  0.00000E+00  9.000E+00
#rwgt            1           9   2.7912215898544913E-004           5     2024197           0
</event>
<event>
      6   9999  3.45752E-01  1.36768E+01 -1.00000E+00  1.73922E-01
      21    -1     0     0   502   512  0.000000000E+00  0.000000000E+00  8.813264183E+02  8.813264183E+02  0.000000000E+00  0.00000E+00  9.000E+00
      21    -1     0     0   501   502  0.000000000E+00  0.000000000E+00 -1.655586372E+01  1.655586372E+01  0.000000000E+00  0.00000E+00  9.000E+00
      25     1     1     2     0     0 -3.931758665E+01 -4.137522797E+01  7.160040422E+02  7.290584643E+02  1.249266738E+02  0.00000E+00  9.000E+00
       5     1     1     2   501     0 -1.905671520E+00  5.892945843E+00  2.558495384E+00  8.213817217E+00  4.750000000E+00  0.00000E+00  9.000E+00
      -5     1     1     2     0   503  2.771453599E+01  3.334469927E+01  6.512984940E+01  7.838637801E+01  4.750000000E+00  0.00000E+00  9.000E+00
      21     1     1     2   503   512  1.350872218E+01  2.137582859E+00  8.107816752E+01  8.222362242E+01  9.536743164E-07  0.00000E+00  9.000E+00
#rwgt            1           9   75.666866866797093                5     2026992           0
</event>
<event>
      6   9999  3.45752E-01  2.16263E+01 -1.00000E+00  1.57661E-01
      21    -1     0     0   501   502  0.000000000E+00  0.000000000E+00  7.987899567E+02  7.987899567E+02  0.000000000E+00  0.00000E+00  9.000E+00
      21    -1     0     0   511   503  0.000000000E+00  0.000000000E+00 -2.010475277E+01  2.010475277E+01  0.000000000E+00  0.00000E+00  9.000E+00
      25     1     1     2     0     0  7.771163718E+00  1.457823104E+01  3.332508257E+02  3.563019088E+02  1.249880856E+02  0.00000E+00  9.000E+00
       5     1     1     2   501     0 -4.910310861E-01  3.834484288E+00  2.828599245E+02  2.829262161E+02  4.750000000E+00  0.00000E+00  9.000E+00
      -5     1     1     2     0   503 -2.341727355E-01  2.033595686E+00  1.573279878E+02  1.574129874E+02  4.750000000E+00  0.00000E+00  9.000E+00
      21     1     1     2   511   502 -7.045959897E+00 -2.044631102E+01  5.246465939E+00  2.225359724E+01  2.980232239E-07  0.00000E+00  9.000E+00
#rwgt            1           9   1.1034497158509411E-002           5     2029955           0
</event>
<event>
      6   9999  3.45752E-01  4.89649E+00 -1.00000E+00  2.30972E-01
      21    -1     0     0   512   502  0.000000000E+00  0.000000000E+00  3.155251928E+01  3.155251928E+01  0.000000000E+00  0.00000E+00  9.000E+00
      21    -1     0     0   502   503  0.000000000E+00  0.000000000E+00 -4.519043382E+02  4.519043382E+02  0.000000000E+00  0.00000E+00  9.000E+00
      25     1     1     2     0     0 -9.020233198E+00  4.198392939E+00 -3.608987758E+02  3.820619290E+02  1.249976004E+02  0.00000E+00  9.000E+00
       5     1     1     2   501     0  3.955492895E-01 -2.844731644E+00  1.486747765E+01  1.586988812E+01  4.750000000E+00  0.00000E+00  9.000E+00
      -5     1     1     2     0   503  1.135731920E+01 -5.416705654E+00 -7.815624031E+01  7.930504271E+01  4.750000000E+00  0.00000E+00  9.000E+00
      21     1     1     2   512   501 -2.732635287E+00  4.063044359E+00  3.835719603E+00  6.219997585E+00  3.397987560E-07  0.00000E+00  9.000E+00
#rwgt            1           9   45.350387100538768                5     2031599           0
</event>
<event>
      6   9999 -3.45752E-01  3.55396E+00 -1.00000E+00  2.58981E-01
      21    -1     0     0   501   502  0.000000000E+00  0.000000000E+00  5.131467598E+02  5.131467598E+02  0.000000000E+00  0.00000E+00  9.000E+00
      21    -1     0     0   511   503  0.000000000E+00  0.000000000E+00 -3.043429048E+01  3.043429048E+01  0.000000000E+00  0.00000E+00  9.000E+00
      25     1     1     2     0     0  1.493451856E+00 -2.667335888E+01  1.217079437E+02  1.764991521E+02  1.250017146E+02  0.00000E+00  9.000E+00
       5     1     1     2   501     0  2.790279586E+00  7.580284602E-01  2.657991205E+02  2.658572835E+02  4.750000000E+00  0.00000E+00  9.000E+00
      -5     1     1     2     0   503 -4.340220785E+00  2.236182199E+01  9.483894580E+01  9.765181380E+01  4.750000000E+00  0.00000E+00  9.000E+00
      21     1     1     2   511   502  5.648934282E-02  3.553508434E+00  3.664593278E-01  3.572800816E+00  8.127623882E-08  0.00000E+00  9.000E+00
#rwgt            1           9  -2.1280216750972635E-005           5     2036631           0
</event>
<event>
      6   9999  3.45752E-01  3.09292E+01 -1.00000E+00  1.46986E-01
      21    -1     0     0   501   502  0.000000000E+00  0.000000000E+00  4.094588739E+01  4.094588739E+01  0.000000000E+00  0.00000E+00  9.000E+00
      21    -1     0     0   502   512  0.000000000E+00  0.000000000E+00 -1.663433213E+03  1.663433213E+03  0.000000000E+00  0.00000E+00  9.000E+00
      25     1     1     2     0     0 -5.697771339E+01  2.128445952E+01 -8.899149306E+02  9.007079855E+02  1.250072138E+02  0.00000E+00  9.000E+00
       5     1     1     2   501     0 -1.327312977E+01 -8.468949579E+00  3.185785839E+01  3.585226244E+01  4.750000000E+00  0.00000E+00  9.000E+00
      -5     1     1     2     0   503  3.950196050E+01 -9.480339422E+00 -4.047748311E+02  4.068359719E+02  4.750000000E+00  0.00000E+00  9.000E+00
      21     1     1     2   503   512  3.074888265E+01 -3.335170523E+00 -3.596554228E+02  3.609828809E+02  6.607249480E-06  0.00000E+00  9.000E+00
#rwgt            1           9   1.8178730574677210E-004           5     2042490           0
</event>
<event>
      6   9999  3.45752E-01  6.04279E+00 -1.00000E+00  2.13629E-01
      21    -1     0     0   511   502  0.000000000E+00  0.000000000E+00  3.963434972E+00  3.963434972E+00  0.000000000E+00  0.00000E+00  9.000E+00
      21    -1     0     0   502   503  0.000000000E+00  0.000000000E+00 -2.092365258E+03  2.092365258E+03  0.000000000E+00  0.00000E+00  9.000E+00
      25     1     1     2     0     0 -2.146344110E+01  2.216938135E+01 -1.665504233E+03  1.670473203E+03  1.249968353E+02  0.00000E+00  9.000E+00
       5     1     1     2   501     0 -2.875978822E+00 -3.562016602E+00 -1.180889038E+01  1.352669984E+01  4.750000000E+00  0.00000E+00  9.000E+00
      -5     1     1     2     0   503  1.839392263E+01 -1.752737456E+01 -3.429378318E+02  3.439105469E+02  4.750000000E+00  0.00000E+00  9.000E+00
      21     1     1     2   511   501  5.945497290E+00 -1.079990190E+00 -6.815086771E+01  6.841824381E+01  0.000000000E+00  0.00000E+00  9.000E+00
#rwgt            1           9   13.204354372686739                5     2044245           0
</event>
<event>
      6   9999  3.45752E-01  1.34114E+01 -1.00000E+00  1.74695E-01
      21    -1     0     0   501   512  0.000000000E+00  0.000000000E+00  4.267541169E+02  4.267541169E+02  0.000000000E+00  0.00000E+00  9.000E+00
      21    -1     0     0   502   503  0.000000000E+00  0.000000000E+00 -7.085179858E+01  7.085179858E+01  0.000000000E+00  0.00000E+00  9.000E+00
      25     1     1     2     0     0  6.698968912E-01 -8.475723862E+00 -9.532497594E+00  1.256714768E+02  1.250206579E+02  0.00000E+00  9.000E+00
       5     1     1     2   501     0  3.801311836E+00 -4.560079217E+00  6.451642175E+01  6.496287763E+01  4.750000000E+00  0.00000E+00  9.000E+00
      -5     1     1     2     0   503  1.504104540E+00  1.029069713E+00 -6.287563260E-01  5.126319290E+00  4.750000000E+00  0.00000E+00  9.000E+00
      21     1     1     2   502   512 -5.975313267E+00  1.200673337E+01  3.015471505E+02  3.018452418E+02  5.394796609E-06  0.00000E+00  9.000E+00
#rwgt            1           9   7.6878928726831237E-003           5     2049417           0
</event>
<event>
      6   9999  3.45752E-01  4.94306E+00 -1.00000E+00  2.30240E-01
      21    -1     0     0   511   502  0.000000000E+00  0.000000000E+00  1.130493819E+02  1.130493819E+02  0.000000000E+00  0.00000E+00  9.000E+00
      21    -1     0     0   502   503  0.000000000E+00  0.000000000E+00 -1.569627987E+03  1.569627987E+03  0.000000000E+00  0.00000E+00  9.000E+00
      25     1     1     2     0     0 -7.471777581E+00 -1.538295209E+01 -8.765540852E+02  8.855925676E+02  1.250386697E+02  0.00000E+00  9.000E+00
       5     1     1     2   501     0  9.411811199E+00  4.017348183E+00  1.024125681E+02  1.030321207E+02  4.750000000E+00  0.00000E+00  9.000E+00
      -5     1     1     2     0   503 -6.653849221E+00  1.285349930E+01 -6.870931785E+02  6.872620203E+02  4.750000000E+00  0.00000E+00  9.000E+00
      21     1     1     2   511   501  4.713815604E+00 -1.487895399E+00  4.656090318E+00  6.790660300E+00  1.032382731E-07  0.00000E+00  9.000E+00
#rwgt            1           9   1.1293401716926199E-003           5     2051617           0
</event>
<event>
      6   9999  3.45752E-01  3.66031E+01 -1.00000E+00  1.42458E-01
      21    -1     0     0   502   512  0.000000000E+00  0.000000000E+00  1.309154853E+02  1.309154853E+02  0.000000000E+00  0.00000E+00  9.000E+00
      21    -1     0     0   501   502  0.000000000E+00  0.000000000E+00 -1.608516824E+03  1.608516824E+03  0.000000000E+00  0.00000E+00  9.000E+00
      25     1     1     2     0     0  1.801421218E+02  2.293414094E+02 -9.858660760E+02  1.035666114E+03  1.249948571E+02  0.00000E+00  9.000E+00
       5     1     1     2   501     0 -1.090386377E+02 -3.679443503E+01 -4.513296875E+02  4.657942725E+02  4.750000000E+00  0.00000E+00  9.000E+00
      -5     1     1     2     0   503 -4.843782455E+01 -1.638058279E+02 -7.590374321E+01  1.869826538E+02  4.750000000E+00  0.00000E+00  9.000E+00
      21     1     1     2   503   512 -2.266565953E+01 -2.874114651E+01  3.549816778E+01  5.098926888E+01  1.348699152E-06  0.00000E+00  9.000E+00
#rwgt            1           9   4.9222448508883729E-003           5     2060040           0
</event>
<event>
      6   9999 -3.45752E-01  1.24315E+01 -1.00000E+00  1.77758E-01
      21    -1     0     0   501   511  0.000000000E+00  0.000000000E+00  2.248893150E+02  2.248893150E+02  0.000000000E+00  0.00000E+00  9.000E+00
      21    -1     0     0   502   503  0.000000000E+00  0.000000000E+00 -8.385410437E+02  8.385410437E+02  0.000000000E+00  0.00000E+00  9.000E+00
      25     1     1     2     0     0  2.020179764E+00  1.193169755E+00 -8.240134326E+02  8.334437133E+02  1.249991254E+02  0.00000E+00  9.000E+00
       5     1     1     2   501     0  8.383013590E+00 -3.470098347E+00  2.424272936E+00  1.052407234E+01  4.750000000E+00  0.00000E+00  9.000E+00
      -5     1     1     2     0   503  1.761957238E+00 -2.824639507E-01 -4.427432835E+00  6.734162212E+00  4.750000000E+00  0.00000E+00  9.000E+00
      21     1     1     2   502   511 -1.216515059E+01  2.559392542E+00  2.123648638E+02  2.127284108E+02  4.672030912E-06  0.00000E+00  9.000E+00
#rwgt            1           9  -1.3275246870739503E-004           5     2061926           0
</event>
<event>
      6   9999 -3.45752E-01  3.65756E+01 -1.00000E+00  1.42478E-01
      21    -1     0     0   501   512  0.000000000E+00  0.000000000E+00  1.781606717E+02  1.781606717E+02  0.000000000E+00  0.00000E+00  9.000E+00
      21    -1     0     0   502   503  0.000000000E+00  0.000000000E+00 -6.811830811E+02  6.811830811E+02  0.000000000E+00  0.00000E+00  9.000E+00
      25     1     1     2     0     0 -6.438342783E+01  2.903573259E+01 -4.242028495E+02  4.478428243E+02  1.250073524E+02  0.00000E+00  9.000E+00
       5     1     1     2   501     0  1.038445789E+01 -1.874396838E+01  7.387949796E+01  7.707085075E+01  4.750000000E+00  0.00000E+00  9.000E+00
      -5     1     1     2     0   503  8.350062486E+01 -3.191190429E+01 -2.311465339E+02  2.478749819E+02  4.750000000E+00  0.00000E+00  9.000E+00
      21     1     1     2   502   512 -2.950165492E+01  2.162014008E+01  7.844747621E+01  8.655509589E+01  1.348699152E-06  0.00000E+00  9.000E+00
#rwgt            1           9  -5.6572486839363277E-005           5     2064235           0
</event>
<event>
      6   9999  3.45752E-01  1.24007E+01 -1.00000E+00  1.77860E-01
      21    -1     0     0   501   502  0.000000000E+00  0.000000000E+00  2.028332546E+01  2.028332546E+01  0.000000000E+00  0.00000E+00  9.000E+00
      21    -1     0     0   502   511  0.000000000E+00  0.000000000E+00 -4.110868118E+02  4.110868118E+02  0.000000000E+00  0.00000E+00  9.000E+00
      25     1     1     2     0     0 -3.343151781E+00 -1.183435837E+01 -2.522022058E+02  2.817483907E+02  1.249998974E+02  0.00000E+00  9.000E+00
       5     1     1     2   501     0 -1.761146430E+00 -7.812910703E-01  3.582223529E+00  6.253549224E+00  4.750000000E+00  0.00000E+00  9.000E+00
      -5     1     1     2     0   503 -2.035486401E+00  2.476596049E+00 -5.690076593E+01  5.718860373E+01  4.750000000E+00  0.00000E+00  9.000E+00
      21     1     1     2   503   511  7.139784612E+00  1.013905339E+01 -8.528273814E+01  8.617959360E+01  9.536743164E-07  0.00000E+00  9.000E+00
#rwgt            1           9   98.730894441879755                5     2065986           0
</event>
<event>
      6   9999 -3.45752E-01  1.72146E+01 -1.00000E+00  1.65346E-01
      21    -1     0     0   502   503  0.000000000E+00  0.000000000E+00  9.452907344E+00  9.452907344E+00  0.000000000E+00  0.00000E+00  9.000E+00
      21    -1     0     0   501   512  0.000000000E+00  0.000000000E+00 -1.593106123E+03  1.593106123E+03  0.000000000E+00  0.00000E+00  9.000E+00
      25     1     1     2     0     0 -1.501674013E+01 -6.900265182E+00 -1.013664228E+03  1.021476921E+03  1.250072676E+02  0.00000E+00  9.000E+00
       5     1     1     2   501     0 -1.115681416E+00 -1.371439935E+00 -8.597246258E-01  5.140741089E+00  4.750000000E+00  0.00000E+00  9.000E+00
      -5     1     1     2     0   503  9.149081871E-01  2.237785661E-01  1.486881454E+00  5.065614503E+00  4.750000000E+00  0.00000E+00  9.000E+00
      21     1     1     2   502   512  1.521751336E+01  8.047926550E+00 -5.706161441E+02  5.708757533E+02  7.629394531E-06  0.00000E+00  9.000E+00
#rwgt            1           9  -2.8604577354541796E-005           5     2067756           0
</event>
<event>
      6   9999  3.45752E-01  3.36727E+00 -1.00000E+00  2.64419E-01
      21    -1     0     0   501   511  0.000000000E+00  0.000000000E+00  1.807008097E+01  1.807008097E+01  0.000000000E+00  0.00000E+00  9.000E+00
      21    -1     0     0   502   503  0.000000000E+00  0.000000000E+00 -9.008260021E+02  9.008260021E+02  0.000000000E+00  0.00000E+00  9.000E+00
      25     1     1     2     0     0  7.011040380E-01 -4.846277411E+00 -8.422708376E+02  8.515095000E+02  1.249971471E+02  0.00000E+00  9.000E+00
       5     1     1     2   501     0 -5.282228759E+00  1.918479779E+00  1.085706495E+01  1.311567248E+01  4.750000000E+00  0.00000E+00  9.000E+00
      -5     1     1     2     0   503  1.249497172E+00  2.439149538E+00 -5.050404798E+01  5.080090606E+01  4.750000000E+00  0.00000E+00  9.000E+00
      21     1     1     2   502   511  3.331627549E+00  4.886480934E-01 -8.381005216E-01  3.470004549E+00  1.608359303E-07  0.00000E+00  9.000E+00
#rwgt            1           9   8.5149604960300371E-006           5     2069557           0
</event>
<event>
      6   9999  3.45752E-01  9.47552E+00 -1.00000E+00  1.89692E-01
      21    -1     0     0   501   512  0.000000000E+00  0.000000000E+00  2.573165917E+02  2.573165917E+02  0.000000000E+00  0.00000E+00  9.000E+00
      21    -1     0     0   502   503  0.000000000E+00  0.000000000E+00 -2.209745251E+01  2.209745251E+01  0.000000000E+00  0.00000E+00  9.000E+00
      25     1     1     2     0     0  1.861977124E+00  1.236573025E+01  1.846869528E+02  2.233617138E+02  1.249992257E+02  0.00000E+00  9.000E+00
       5     1     1     2   501     0 -1.824795759E-01  3.363960361E-01  2.744961775E+01  2.786019519E+01  4.750000000E+00  0.00000E+00  9.000E+00
      -5     1     1     2     0   503  9.462071161E-02 -3.394169173E+00  4.640778552E+00  7.458462511E+00  4.750000000E+00  0.00000E+00  9.000E+00
      21     1     1     2   502   512 -1.774118259E+00 -9.307957117E+00  1.844179009E+01  2.073367268E+01  0.000000000E+00  0.00000E+00  9.000E+00
#rwgt            1           9   1.1143666789470571E-002           5     2075559           0
</event>
<event>
      6   9999  3.45752E-01  1.99042E+01 -1.00000E+00  1.60370E-01
      21    -1     0     0   502   503  0.000000000E+00  0.000000000E+00  8.803575599E+00  8.803575599E+00  0.000000000E+00  0.00000E+00  9.000E+00
      21    -1     0     0   511   502  0.000000000E+00  0.000000000E+00 -9.312864924E+02  9.312864924E+02  0.000000000E+00  0.00000E+00  9.000E+00
      25     1     1     2     0     0  1.825540287E+01 -1.554873372E+01 -5.741376358E+02  5.880834941E+02  1.250325891E+02  0.00000E+00  9.000E+00
       5     1     1     2   501     0 -5.911399700E+00  1.190280324E+01 -1.099150698E+02  1.108174465E+02  4.750000000E+00  0.00000E+00  9.000E+00
      -5     1     1     2     0   503 -9.043148282E-01 -1.264248286E+01 -5.329407763E+01  5.498610159E+01  4.750000000E+00  0.00000E+00  9.000E+00
      21     1     1     2   511   501 -1.143968835E+01  1.628841335E+01 -1.851361335E+02  1.862030258E+02  2.697398305E-06  0.00000E+00  9.000E+00
#rwgt            1           9   8.5179631473933847E-004           5     2078001           0
</event>
<event>
      6   9999  3.45752E-01  5.19819E+00 -1.00000E+00  2.23120E-01
      21    -1     0     0   501   502  0.000000000E+00  0.000000000E+00  5.871710087E+01  5.871710087E+01  0.000000000E+00  0.00000E+00  9.000E+00
       2    -1     0     0   502     0  0.000000000E+00  0.000000000E+00 -1.940238668E+02  1.940238668E+02  0.000000000E+00  0.00000E+00  9.000E+00
      25     1     1     2     0     0  2.330154581E+00 -6.178274233E+00 -3.838536851E+01  1.309276375E+02  1.250000362E+02  0.00000E+00  9.000E+00
       5     1     1     2   501     0  6.797860355E-01 -2.256340505E-01  9.780057609E+00  1.089610236E+01  4.750000000E+00  0.00000E+00  9.000E+00
      -5     1     1     2     0   503 -1.961278251E-01  2.033136309E+00 -1.226203356E+00  5.313961239E+00  4.750000000E+00  0.00000E+00  9.000E+00
       2     1     1     2   503     0 -2.813812791E+00  4.370771975E+00 -1.054752517E+02  1.056032666E+02  1.907348633E-06  0.00000E+00  9.000E+00
#rwgt            1           9   3.1722945207615340E-004           5     2079341           0
</event>
<event>
      6   9999  3.45752E-01  6.96021E+00 -1.00000E+00  2.05454E-01
      21    -1     0     0   511   502  0.000000000E+00  0.000000000E+00  1.902257427E+02  1.902257427E+02  0.000000000E+00  0.00000E+00  9.000E+00
      21    -1     0     0   502   503  0.000000000E+00  0.000000000E+00 -1.068867785E+03  1.068867785E+03  0.000000000E+00  0.00000E+00  9.000E+00
      25     1     1     2     0     0 -3.926033929E+01  2.177676298E+01 -7.048785828E+02  7.172827906E+02  1.250007346E+02  0.00000E+00  9.000E+00
       5     1     1     2   501     0 -6.121177058E-03 -3.569768413E-01  1.901504892E+01  1.960260328E+01  4.750000000E+00  0.00000E+00  9.000E+00
      -5     1     1     2     0   503  4.177356857E+01 -1.492679159E+01 -3.560269621E+02  3.588113716E+02  4.750000000E+00  0.00000E+00  9.000E+00
      21     1     1     2   511   501 -2.507108108E+00 -6.492994545E+00  1.632484532E+02  1.633967626E+02  3.814697266E-06  0.00000E+00  9.000E+00
#rwgt            1           9  0.12472306287712201                5     2082947           0
</event>
<event>
      6   9999  3.45752E-01  8.17886E+01 -1.00000E+00  1.24266E-01
      21    -1     0     0   501   512  0.000000000E+00  0.000000000E+00  2.332077899E+03  2.332077899E+03  0.000000000E+00  0.00000E+00  9.000E+00
      21    -1     0     0   502   503  0.000000000E+00  0.000000000E+00 -1.185661531E+01  1.185661531E+01  0.000000000E+00  0.00000E+00  9.000E+00
      25     1     1     2     0     0  7.316347502E+01  8.642416538E+00  8.731999639E+02  8.851729063E+02  1.250012467E+02  0.00000E+00  9.000E+00
       5     1     1     2   501     0 -3.069580462E+00  2.214045639E+01  4.034601829E+02  4.041067976E+02  4.750000000E+00  0.00000E+00  9.000E+00
      -5     1     1     2     0   503  1.146404260E+01 -3.692154749E+01  9.644206043E+01  1.040108574E+02  4.750000000E+00  0.00000E+00  9.000E+00
      21     1     1     2   502   512 -8.155793716E+01  6.138674568E+00  9.471190763E+02  9.506439529E+02  1.868812365E-05  0.00000E+00  9.000E+00
#rwgt            1           9  0.26652925311963876                5     2087809           0
</event>
<event>
      6   9999  3.45752E-01  1.65255E+01 -1.00000E+00  1.66805E-01
      21    -1     0     0   502   503  0.000000000E+00  0.000000000E+00  1.783234901E+01  1.783234901E+01  0.000000000E+00  0.00000E+00  9.000E+00
      21    -1     0     0   501   511  0.000000000E+00  0.000000000E+00 -1.082915390E+03  1.082915390E+03  0.000000000E+00  0.00000E+00  9.000E+00
      25     1     1     2     0     0 -4.539962021E+01 -3.717835769E+01 -2.806902743E+02  3.128190372E+02  1.250014566E+02  0.00000E+00  9.000E+00
       5     1     1     2   501     0  4.058336418E+01  1.306833365E+01 -5.712484549E+02  5.728570070E+02  4.750000000E+00  0.00000E+00  9.000E+00
      -5     1     1     2     0   503 -3.998213332E+00  1.013156180E+01 -7.373262334E+01  7.468397752E+01  4.750000000E+00  0.00000E+00  9.000E+00
      21     1     1     2   502   511  8.814469355E+00  1.397846225E+01 -1.394116888E+02  1.403877176E+02  1.907348633E-06  0.00000E+00  9.000E+00
#rwgt            1           9   3.6589436164364387E-004           5     2088211           0
</event>
<event>
      6   9999  3.45752E-01  1.95736E+01 -1.00000E+00  1.60928E-01
      21    -1     0     0   501   502  0.000000000E+00  0.000000000E+00  1.578023815E+03  1.578023815E+03  0.000000000E+00  0.00000E+00  9.000E+00
      21    -1     0     0   512   503  0.000000000E+00  0.000000000E+00 -5.423197731E+01  5.423197731E+01  0.000000000E+00  0.00000E+00  9.000E+00
      25     1     1     2     0     0 -5.964087965E+01 -2.065570539E+01  2.085901476E+02  2.512335574E+02  1.249990320E+02  0.00000E+00  9.000E+00
       5     1     1     2   501     0 -3.431853435E+00 -8.996564834E+00  1.296688872E+03  1.296733322E+03  4.750000000E+00  0.00000E+00  9.000E+00
      -5     1     1     2     0   503  4.612379316E+01  1.986157568E+01  3.270013762E+01  6.011445736E+01  4.750000000E+00  0.00000E+00  9.000E+00
      21     1     1     2   512   502  1.694893993E+01  9.790694549E+00 -1.418731938E+01  2.417445543E+01  4.460403188E-07  0.00000E+00  9.000E+00
#rwgt            1           9   7.8614953130561917E-003           5     2090089           0
</event>
<event>
      6   9999 -3.45752E-01  1.46916E+01 -1.00000E+00  1.71157E-01
       1    -1     0     0   501     0  0.000000000E+00  0.000000000E+00  2.835306294E+02  2.835306294E+02  0.000000000E+00  0.00000E+00  9.000E+00
      21    -1     0     0   502   503  0.000000000E+00  0.000000000E+00 -9.459862686E+02  9.459862686E+02  0.000000000E+00  0.00000E+00  9.000E+00
      25     1     1     2     0     0  4.688483075E+01  2.986545106E+01 -8.599339103E+02  8.707462239E+02  1.249900952E+02  0.00000E+00  9.000E+00
       5     1     1     2   501     0 -1.872181606E+00 -8.019656097E+00  2.903021419E+01  3.054727130E+01  4.750000000E+00  0.00000E+00  9.000E+00
      -5     1     1     2     0   503 -5.512596665E+01 -3.250240262E+01 -6.673502866E+01  9.258188228E+01  4.750000000E+00  0.00000E+00  9.000E+00
       1     1     1     2   502     0  1.011331751E+01  1.065660766E+01  2.351830855E+02  2.356415205E+02  3.814697266E-06  0.00000E+00  9.000E+00
#rwgt            1           9  -6.7182091899022469E-004           5     2092351           0
</event>
<event>
      6   9999  3.45752E-01  1.32444E+01 -1.00000E+00  1.75194E-01
      21    -1     0     0   501   511  0.000000000E+00  0.000000000E+00  4.693508777E+03  4.693508777E+03  0.000000000E+00  0.00000E+00  9.000E+00
      21    -1     0     0   502   503  0.000000000E+00  0.000000000E+00 -1.534603485E+01  1.534603485E+01  0.000000000E+00  0.00000E+00  9.000E+00
      25     1     1     2     0     0 -1.366696493E+01 -3.662279512E+00  2.911288878E+02  3.171454950E+02  1.250001499E+02  0.00000E+00  9.000E+00
       5     1     1     2   501     0  2.068902312E+00 -2.880010887E+00  4.046351823E+03  4.046356165E+03  4.750000001E+00  0.00000E+00  9.000E+00
      -5     1     1     2     0   503 -1.046150729E+00  2.600452247E+00  1.240268192E+00  5.653100780E+00  4.750000000E+00  0.00000E+00  9.000E+00
      21     1     1     2   502   511  1.264421335E+01  3.941838152E+00  3.394417635E+02  3.397000515E+02  0.000000000E+00  0.00000E+00  9.000E+00
#rwgt            1           9   1.9510248415554313E-004           5     2094799           0
</event>
<event>
      6   9999 -3.45752E-01  1.87596E+01 -1.00000E+00  1.62362E-01
      21    -1     0     0   502   503  0.000000000E+00  0.000000000E+00  4.760222720E+01  4.760222720E+01  0.000000000E+00  0.00000E+00  9.000E+00
      21    -1     0     0   512   502  0.000000000E+00  0.000000000E+00 -4.356705942E+02  4.356705942E+02  0.000000000E+00  0.00000E+00  9.000E+00
      25     1     1     2     0     0  3.393916187E+01 -6.552619823E+00 -3.729103375E+02  3.948172868E+02  1.249950665E+02  0.00000E+00  9.000E+00
       5     1     1     2   501     0 -1.000796094E+00 -9.496592758E-01  8.660908674E+00  9.973829988E+00  4.750000000E+00  0.00000E+00  9.000E+00
      -5     1     1     2     0   503 -3.802723116E+01 -1.055386705E+01  8.930111809E+00  4.074019903E+01  4.750000000E+00  0.00000E+00  9.000E+00
      21     1     1     2   512   501  5.088865392E+00  1.805614615E+01 -3.274905001E+01  3.774150556E+01  4.768371582E-07  0.00000E+00  9.000E+00
#rwgt            1           9  -6.8693638528020051E-005           5     2098163           0
</event>
<event>
      6   9999 -3.45752E-01  1.03519E+01 -1.00000E+00  1.85625E-01
      21    -1     0     0   511   502  0.000000000E+00  0.000000000E+00  2.312388128E+01  2.312388128E+01  0.000000000E+00  0.00000E+00  9.000E+00
      21    -1     0     0   502   503  0.000000000E+00  0.000000000E+00 -9.904330105E+02  9.904330105E+02  0.000000000E+00  0.00000E+00  9.000E+00
      25     1     1     2     0     0  1.964692370E+01 -1.307129964E+01 -9.606492989E+02  9.690318964E+02  1.249755186E+02  0.00000E+00  9.000E+00
       5     1     1     2   501     0 -1.163883942E+00 -3.385677243E+00  1.136657222E+01  1.282883082E+01  4.750000000E+00  0.00000E+00  9.000E+00
      -5     1     1     2     0   503 -9.278790019E+00  1.171947917E+01 -1.165244933E+01  1.953929916E+01  4.750000000E+00  0.00000E+00  9.000E+00
      21     1     1     2   511   501 -9.204249735E+00  4.737497714E+00 -6.373953224E+00  1.215686545E+01  4.460403188E-07  0.00000E+00  9.000E+00
#rwgt            1           9  -1.5314946106802013E-004           5     2099955           0
</event>
<event>
      6   9999  3.45752E-01  6.30591E+00 -1.00000E+00  2.11093E-01
      21    -1     0     0   502   503  0.000000000E+00  0.000000000E+00  1.042315489E+01  1.042315489E+01  0.000000000E+00  0.00000E+00  9.000E+00
      21    -1     0     0   501   512  0.000000000E+00  0.000000000E+00 -9.981335149E+02  9.981335149E+02  0.000000000E+00  0.00000E+00  9.000E+00
      25     1     1     2     0     0  5.469106696E+00  3.574649444E+01 -5.352332625E+02  5.508248551E+02  1.250026112E+02  0.00000E+00  9.000E+00
       5     1     1     2   501     0 -4.356766730E+00  4.334355980E+00 -9.351975118E+01  9.384175200E+01  4.750000000E+00  0.00000E+00  9.000E+00
      -5     1     1     2     0   503  5.086446437E+00 -3.892347405E+01 -1.593281274E+02  1.641612727E+02  4.750000000E+00  0.00000E+00  9.000E+00
      21     1     1     2   502   512 -6.198786403E+00 -1.157376372E+00 -1.996292190E+02  1.997287900E+02  2.697398305E-06  0.00000E+00  9.000E+00
#rwgt            1           9   3.7550646135431416E-002           5     2102815           0
</event>
<event>
      6   9999  3.45752E-01  2.94976E+01 -1.00000E+00  1.48314E-01
      21    -1     0     0   501   511  0.000000000E+00  0.000000000E+00  1.094411176E+01  1.094411176E+01  0.000000000E+00  0.00000E+00  9.000E+00
      21    -1     0     0   502   503  0.000000000E+00  0.000000000E+00 -7.264090042E+02  7.264090042E+02  0.000000000E+00  0.00000E+00  9.000E+00
      25     1     1     2     0     0 -6.248538237E+00  2.376484059E+01 -6.255304604E+02  6.383698587E+02  1.249956309E+02  0.00000E+00  9.000E+00
       5     1     1     2   501     0 -1.952821936E-01  1.303983633E+00 -7.948845287E+00  9.353349660E+00  4.750000000E+00  0.00000E+00  9.000E+00
      -5     1     1     2     0   503 -6.717612149E-01  3.557696898E+00 -2.181644483E+01  2.261920059E+01  4.750000000E+00  0.00000E+00  9.000E+00
      21     1     1     2   502   511  7.115581646E+00 -2.862652112E+01 -6.016914198E+01  6.701070705E+01  6.743495762E-07  0.00000E+00  9.000E+00
#rwgt            1           9   5.7871831676284084E-005           5     2106465           0
</event>
<event>
      6   9999  3.45752E-01  2.57664E+01 -1.00000E+00  1.52243E-01
      21    -1     0     0   501   502  0.000000000E+00  0.000000000E+00  2.544917870E+02  2.544917870E+02  0.000000000E+00  0.00000E+00  9.000E+00
      21    -1     0     0   512   503  0.000000000E+00  0.000000000E+00 -4.337794337E+01  4.337794337E+01  0.000000000E+00  0.00000E+00  9.000E+00
      25     1     1     2     0     0 -1.652852572E+01 -1.835270907E+01  2.180129676E+02  2.525157288E+02  1.249981005E+02  0.00000E+00  9.000E+00
       5     1     1     2   501     0  1.255128116E-01  4.270549284E-01  1.915952501E+00  5.141157784E+00  4.750000000E+00  0.00000E+00  9.000E+00
      -5     1     1     2     0   503 -7.386776959E+00  8.028417966E+00  2.354566447E+00  1.212956933E+01  4.750000000E+00  0.00000E+00  9.000E+00
      21     1     1     2   512   502  2.378978986E+01  9.897236171E+00 -1.116964291E+01  2.808327453E+01  3.576278687E-07  0.00000E+00  9.000E+00
#rwgt            1           9   4.8560925226840403E-005           5     2107288           0
</event>
<event>
      6   9999  3.45752E-01  1.12126E+01 -1.00000E+00  1.82106E-01
      21    -1     0     0   502   511  0.000000000E+00  0.000000000E+00  4.128425681E+01  4.128425681E+01  0.000000000E+00  0.00000E+00  9.000E+00
      21    -1     0     0   501   502  0.000000000E+00  0.000000000E+00 -9.247201260E+02  9.247201260E+02  0.000000000E+00  0.00000E+00  9.000E+00
      25     1     1     2     0     0 -2.408698946E+01 -1.286873878E+01 -5.728735106E+02  5.869879026E+02  1.249998047E+02  0.00000E+00  9.000E+00
       5     1     1     2   501     0  3.831327197E+00 -1.405692899E+01 -1.943924252E+02  1.949955225E+02  4.750000000E+00  0.00000E+00  9.000E+00
      -5     1     1     2     0   503  3.026511110E+01  2.187258475E+01 -1.467233669E+02  1.514750667E+02  4.750000000E+00  0.00000E+00  9.000E+00
      21     1     1     2   503   511 -1.000944884E+01  5.053083019E+00  3.055343361E+01  3.254589097E+01  2.211002945E-06  0.00000E+00  9.000E+00
#rwgt            1           9  0.85030433375435921                5     2108425           0
</event>
<event>
      6   9999  3.45752E-01  1.35709E+01 -1.00000E+00  1.74228E-01
      21    -1     0     0   501   512  0.000000000E+00  0.000000000E+00  1.576320008E+01  1.576320008E+01  0.000000000E+00  0.00000E+00  9.000E+00
      21    -1     0     0   502   503  0.000000000E+00  0.000000000E+00 -9.102431668E+02  9.102431668E+02  0.000000000E+00  0.00000E+00  9.000E+00
      25     1     1     2     0     0  1.638786666E+00  7.773622585E+00 -8.393837697E+02  8.486826396E+02  1.250359753E+02  0.00000E+00  9.000E+00
       5     1     1     2   501     0 -6.244683280E+00  3.511089231E+00  6.582958886E+00  1.082689543E+01  4.750000000E+00  0.00000E+00  9.000E+00
      -5     1     1     2     0   503 -3.583343502E+00 -4.632119328E-01 -4.297870873E+01  4.339109148E+01  4.750000000E+00  0.00000E+00  9.000E+00
      21     1     1     2   502   512  8.189240116E+00 -1.082149988E+01 -1.870044727E+01  2.310574044E+01  3.371747881E-07  0.00000E+00  9.000E+00
#rwgt            1           9   8.1090332256843721E-004           5     2110529           0
</event>
<event>
      6   9999  3.45752E-01  1.88340E+01 -1.00000E+00  1.62227E-01
      21    -1     0     0   501   511  0.000000000E+00  0.000000000E+00  9.778332747E+01  9.778332747E+01  0.000000000E+00  0.00000E+00  9.000E+00
      21    -1     0     0   502   503  0.000000000E+00  0.000000000E+00 -4.561343258E+02  4.561343258E+02  0.000000000E+00  0.00000E+00  9.000E+00
      25     1     1     2     0     0  6.950160966E-01 -6.537685221E+01 -1.243519761E+02  1.880548388E+02  1.250063702E+02  0.00000E+00  9.000E+00
       5     1     1     2   501     0  3.367068921E+00 -2.051418682E+00  1.091518264E+01  1.253990366E+01  4.750000000E+00  0.00000E+00  9.000E+00
      -5     1     1     2     0   503  1.433343457E+01  6.338780792E+01 -2.937975053E+02  3.009368674E+02  4.750000000E+00  0.00000E+00  9.000E+00
      21     1     1     2   502   511 -1.839551959E+01  4.040462972E+00  4.888330042E+01  5.238604339E+01  1.348699152E-06  0.00000E+00  9.000E+00
#rwgt            1           9   1.2264826646194402                5     2112564           0
</event>
<event>
      6   9999  3.45752E-01  4.16003E+00 -1.00000E+00  2.44376E-01
       1    -1     0     0   501     0  0.000000000E+00  0.000000000E+00  9.838620194E+02  9.838620194E+02  0.000000000E+00  0.00000E+00  9.000E+00
      21    -1     0     0   502   503  0.000000000E+00  0.000000000E+00 -1.095279012E+03  1.095279012E+03  0.000000000E+00  0.00000E+00  9.000E+00
      25     1     1     2     0     0  6.214859994E+01 -3.048906426E+01 -2.500040545E+02  2.879577670E+02  1.250024672E+02  0.00000E+00  9.000E+00
       5     1     1     2   501     0 -4.280920901E-01 -7.643593168E-01  6.328307677E+00  7.960997806E+00  4.750000000E+00  0.00000E+00  9.000E+00
      -5     1     1     2     0   503 -5.836910483E+01  3.371796854E+01 -8.240942697E+02  8.268601947E+02  4.750000000E+00  0.00000E+00  9.000E+00
       1     1     1     2   502     0 -3.351403023E+00 -2.464544960E+00  9.563530240E+02  9.563620718E+02  1.525878906E-05  0.00000E+00  9.000E+00
#rwgt            1           9   1.9109001679699835E-004           5     2114629           0
</event>
<event>
      6   9999  3.45752E-01  1.75574E+01 -1.00000E+00  1.64652E-01
      21    -1     0     0   501   502  0.000000000E+00  0.000000000E+00  4.806839604E+01  4.806839604E+01  0.000000000E+00  0.00000E+00  9.000E+00
      21    -1     0     0   511   503  0.000000000E+00  0.000000000E+00 -1.440122443E+03  1.440122443E+03  0.000000000E+00  0.00000E+00  9.000E+00
      25     1     1     2     0     0  7.246905823E+01 -5.212041694E+00 -8.054076430E+02  8.182816928E+02  1.249981101E+02  0.00000E+00  9.000E+00
       5     1     1     2   501     0  5.737776341E-01 -3.464838001E+00  3.817974428E+01  3.863404841E+01  4.750000000E+00  0.00000E+00  9.000E+00
      -5     1     1     2     0   503 -6.361231013E+01  2.348661677E+01 -3.973583269E+02  4.031306855E+02  4.750000000E+00  0.00000E+00  9.000E+00
      21     1     1     2   511   502 -9.430525732E+00 -1.480973707E+01 -2.274678217E+02  2.281444127E+02  3.814697266E-06  0.00000E+00  9.000E+00
#rwgt            1           9   4.6225332586839959E-003           5     2120609           0
</event>
<event>
      6   9999  3.45752E-01  7.60950E+00 -1.00000E+00  2.00624E-01
      21    -1     0     0   501   502  0.000000000E+00  0.000000000E+00  8.715656003E+00  8.715656003E+00  0.000000000E+00  0.00000E+00  9.000E+00
      21    -1     0     0   502   512  0.000000000E+00  0.000000000E+00 -2.180576001E+03  2.180576001E+03  0.000000000E+00  0.00000E+00  9.000E+00
      25     1     1     2     0     0  1.850558461E+01  2.027853493E+00 -6.648223673E+02  6.767280724E+02  1.250021403E+02  0.00000E+00  9.000E+00
       5     1     1     2   501     0 -4.114117805E-01  2.029441376E-01 -1.501950723E+00  5.002879366E+00  4.750000000E+00  0.00000E+00  9.000E+00
      -5     1     1     2     0   503 -1.632194000E+01  5.169452898E+00 -7.774739020E+01  7.975179090E+01  4.750000000E+00  0.00000E+00  9.000E+00
      21     1     1     2   503   512 -1.772232827E+00 -7.400250529E+00 -1.427788637E+03  1.427808915E+03  1.525878906E-05  0.00000E+00  9.000E+00
#rwgt            1           9   9.9239699435885876E-007           5     2123453           0
</event>
<event>
      6   9999  3.45752E-01  5.26551E+01 -1.00000E+00  1.33596E-01
      21    -1     0     0   511   502  0.000000000E+00  0.000000000E+00  7.131752068E+01  7.131752068E+01  0.000000000E+00  0.00000E+00  9.000E+00
      21    -1     0     0   502   503  0.000000000E+00  0.000000000E+00 -1.074129688E+03  1.074129688E+03  0.000000000E+00  0.00000E+00  9.000E+00
      25     1     1     2     0     0 -1.449974583E+01 -4.405601159E+01 -6.252822185E+02  6.393376268E+02  1.249942942E+02  0.00000E+00  9.000E+00
       5     1     1     2   501     0 -1.945992874E+01 -8.664093088E+00  9.203378478E+00  2.368586099E+01  4.750000000E+00  0.00000E+00  9.000E+00
      -5     1     1     2     0   503 -1.280470719E+01  2.851981090E+01 -4.193135415E+02  4.205041601E+02  4.750000000E+00  0.00000E+00  9.000E+00
      21     1     1     2   511   501  4.676438176E+01  2.420029377E+01  3.258021427E+01  6.191956057E+01  1.348699152E-06  0.00000E+00  9.000E+00
#rwgt            1           9   3.9091021947132059E-003           5     2126282           0
</event>
<event>
      6   9999  3.45752E-01  3.39450E+00 -1.00000E+00  2.63592E-01
      21    -1     0     0   512   502  0.000000000E+00  0.000000000E+00  4.442259183E+01  4.442259183E+01  0.000000000E+00  0.00000E+00  9.000E+00
      21    -1     0     0   502   503  0.000000000E+00  0.000000000E+00 -8.669624206E+02  8.669624206E+02  0.000000000E+00  0.00000E+00  9.000E+00
      25     1     1     2     0     0  1.969892924E+01 -3.615757995E+01 -6.231020539E+02  6.368484308E+02  1.249973433E+02  0.00000E+00  9.000E+00
       5     1     1     2   501     0  5.730010314E-01  1.672654222E+00  3.295033125E+00  6.045316007E+00  4.750000000E+00  0.00000E+00  9.000E+00
      -5     1     1     2     0   503 -2.349720903E+01  3.554333914E+01 -2.335678743E+02  2.374699185E+02  4.750000000E+00  0.00000E+00  9.000E+00
      21     1     1     2   512   501  3.225278757E+00 -1.058413413E+00  3.083506632E+01  3.102134712E+01  1.752011592E-06  0.00000E+00  9.000E+00
#rwgt            1           9   6.0505480878825036E-003           5     2127234           0
</event>
<event>
      6   9999  3.45752E-01  1.50260E+01 -1.00000E+00  1.70306E-01
      21    -1     0     0   501   502  0.000000000E+00  0.000000000E+00  1.415643663E+03  1.415643663E+03  0.000000000E+00  0.00000E+00  9.000E+00
       1    -1     0     0   502     0  0.000000000E+00  0.000000000E+00 -1.874315402E+02  1.874315402E+02  0.000000000E+00  0.00000E+00  9.000E+00
      25     1     1     2     0     0 -8.870148804E+00 -1.171042353E+01  2.647893851E+02  2.931795080E+02  1.249999675E+02  0.00000E+00  9.000E+00
       5     1     1     2   501     0 -1.096758312E+00  7.918295636E-01  1.115953796E+03  1.115964725E+03  4.750000000E+00  0.00000E+00  9.000E+00
      -5     1     1     2     0   503 -8.643612887E-01  5.039190065E-01  2.008442812E+01  2.066271540E+01  4.750000000E+00  0.00000E+00  9.000E+00
       1     1     1     2   503     0  1.083126840E+01  1.041467496E+01 -1.726154867E+02  1.732682546E+02  6.325959759E-06  0.00000E+00  9.000E+00
#rwgt            1           9   5.6200828114784683E-005           5     2133481           0
</event>
<event>
      6   9999  3.45752E-01  6.13209E+00 -1.00000E+00  2.12749E-01
      21    -1     0     0   502   511  0.000000000E+00  0.000000000E+00  1.056751466E+03  1.056751466E+03  0.000000000E+00  0.00000E+00  9.000E+00
      21    -1     0     0   501   502  0.000000000E+00  0.000000000E+00 -1.569869437E+03  1.569869437E+03  0.000000000E+00  0.00000E+00  9.000E+00
      25     1     1     2     0     0 -5.428516163E+01  4.667321799E+01  4.104101716E+00  1.441120858E+02  1.250047262E+02  0.00000E+00  9.000E+00
       5     1     1     2   501     0  3.922777262E+01 -4.873740981E+01 -1.495744217E+03  1.497059610E+03  4.750000000E+00  0.00000E+00  9.000E+00
      -5     1     1     2     0   503  9.590000210E+00 -7.125242171E-01  4.872875793E+00  1.178062873E+01  4.750000000E+00  0.00000E+00  9.000E+00
      21     1     1     2   503   511  5.467388799E+00  2.776716031E+00  9.736492676E+02  9.736685775E+02  1.078959322E-05  0.00000E+00  9.000E+00
#rwgt            1           9   4.4298205610839147E-003           5     2135944           0
</event>
<event>
      6   9999  3.45752E-01  2.36948E+01 -1.00000E+00  1.54787E-01
      21    -1     0     0   502   503  0.000000000E+00  0.000000000E+00  1.421330377E+01  1.421330377E+01  0.000000000E+00  0.00000E+00  9.000E+00
       1    -1     0     0   501     0  0.000000000E+00  0.000000000E+00 -1.143222582E+03  1.143222582E+03  0.000000000E+00  0.00000E+00  9.000E+00
      25     1     1     2     0     0  5.711858075E+01 -7.725470195E+00 -4.151336867E+02  4.373589652E+02  1.249986858E+02  0.00000E+00  9.000E+00
       5     1     1     2   501     0 -5.001750181E+01  2.639655364E+01 -3.830718087E+02  3.872532784E+02  4.750000000E+00  0.00000E+00  9.000E+00
      -5     1     1     2     0   503  6.222688398E+00  9.227654769E-01 -2.783263740E+01  2.892734954E+01  4.750000000E+00  0.00000E+00  9.000E+00
       1     1     1     2   502     0 -1.332376734E+01 -1.959384892E+01 -3.029711453E+02  3.038962925E+02  3.814697266E-06  0.00000E+00  9.000E+00
#rwgt            1           9   5.6090383033673426E-002           5     2142153           0
</event>
<event>
      6   9999 -3.45752E-01  1.32524E+01 -1.00000E+00  1.75169E-01
      21    -1     0     0   511   503  0.000000000E+00  0.000000000E+00  1.344608039E+01  1.344608039E+01  0.000000000E+00  0.00000E+00  9.000E+00
      21    -1     0     0   501   502  0.000000000E+00  0.000000000E+00 -8.241970207E+02  8.241970207E+02  0.000000000E+00  0.00000E+00  9.000E+00
      25     1     1     2     0     0  1.236519796E+01  2.576324822E+00 -7.696705797E+02  7.798578542E+02  1.250037436E+02  0.00000E+00  9.000E+00
       5     1     1     2   501     0  1.216510025E+00 -1.183819243E+00  1.758372740E+00  5.341881628E+00  4.750000000E+00  0.00000E+00  9.000E+00
      -5     1     1     2     0   503 -7.838230784E+00 -1.333566661E+01 -2.946360640E+01  3.361464662E+01  4.750000000E+00  0.00000E+00  9.000E+00
      21     1     1     2   511   502 -5.743477196E+00  1.194316103E+01 -1.337512702E+01  1.882871871E+01  4.768371582E-07  0.00000E+00  9.000E+00
#rwgt            1           9  -7.3511790483013072E-004           5     2144394           0
</event>
<event>
      6   9999  3.45752E-01  3.90895E+01 -1.00000E+00  1.40768E-01
      21    -1     0     0   501   502  0.000000000E+00  0.000000000E+00  1.726112882E+01  1.726112882E+01  0.000000000E+00  0.00000E+00  9.000E+00
      21    -1     0     0   502   512  0.000000000E+00  0.000000000E+00 -1.174910888E+03  1.174910888E+03  0.000000000E+00  0.00000E+00  9.000E+00
      25     1     1     2     0     0  4.879979329E+01 -7.672962897E+01 -7.454281795E+02  7.612870046E+02  1.250035076E+02  0.00000E+00  9.000E+00
       5     1     1     2   501     0  3.660948060E+00 -3.538180033E+00  1.404243686E-01  6.964443815E+00  4.750000000E+00  0.00000E+00  9.000E+00
      -5     1     1     2     0   503 -2.339609222E+01  5.412898763E+01 -2.405490044E+02  2.477169967E+02  4.750000000E+00  0.00000E+00  9.000E+00
      21     1     1     2   503   512 -2.906464913E+01  2.613882137E+01 -1.718130001E+02  1.762035720E+02  0.000000000E+00  0.00000E+00  9.000E+00
#rwgt            1           9  0.36525245646989163                5     2146443           0
</event>
<event>
      6   9999  3.45752E-01  7.48059E+00 -1.00000E+00  2.01531E-01
      21    -1     0     0   502   511  0.000000000E+00  0.000000000E+00  7.444155722E+00  7.444155722E+00  0.000000000E+00  0.00000E+00  9.000E+00
      21    -1     0     0   501   502  0.000000000E+00  0.000000000E+00 -1.073535311E+03  1.073535311E+03  0.000000000E+00  0.00000E+00  9.000E+00
      25     1     1     2     0     0 -2.931979732E-01  8.975019933E+00 -6.218004874E+02  6.343034610E+02  1.249975901E+02  0.00000E+00  9.000E+00
       5     1     1     2   501     0  3.257532362E+00 -4.894243091E+00 -3.814962442E+02  3.815711100E+02  4.750000000E+00  0.00000E+00  9.000E+00
      -5     1     1     2     0   503  1.747568709E+00  1.729316808E+00 -4.999103777E+01  5.027634524E+01  4.750000000E+00  0.00000E+00  9.000E+00
      21     1     1     2   503   511 -4.711903098E+00 -5.810093650E+00 -1.280338559E+01  1.482855022E+01  2.384185791E-07  0.00000E+00  9.000E+00
#rwgt            1           9  0.11077207441614088                5     2147707           0
</event>
<event>
      6   9999  3.45752E-01  2.21426E+01 -1.00000E+00  1.56908E-01
      21    -1     0     0   501   502  0.000000000E+00  0.000000000E+00  5.417719064E+01  5.417719064E+01  0.000000000E+00  0.00000E+00  9.000E+00
      21    -1     0     0   512   503  0.000000000E+00  0.000000000E+00 -1.523270521E+03  1.523270521E+03  0.000000000E+00  0.00000E+00  9.000E+00
      25     1     1     2     0     0  3.633590813E+01 -6.957038018E+01 -5.902424793E+02  6.084169260E+02  1.249985418E+02  0.00000E+00  9.000E+00
       5     1     1     2   501     0  2.502477249E+00 -3.473729866E+00  4.190758229E+01  4.239265438E+01  4.750000000E+00  0.00000E+00  9.000E+00
      -5     1     1     2     0   503 -4.441776619E+01  5.161593505E+01 -8.438259501E+02  8.465825059E+02  4.750000000E+00  0.00000E+00  9.000E+00
      21     1     1     2   512   502  5.579380812E+00  2.142817500E+01 -7.693248301E+01  8.005562513E+01  1.348699152E-06  0.00000E+00  9.000E+00
#rwgt            1           9   2.4564250538571172E-005           5     2150429           0
</event>
<event>
      6   9999  3.45752E-01  2.99308E+00 -1.00000E+00  2.77174E-01
      21    -1     0     0   501   502  0.000000000E+00  0.000000000E+00  2.694964817E+00  2.694964817E+00  0.000000000E+00  0.00000E+00  9.000E+00
      21    -1     0     0   502   511  0.000000000E+00  0.000000000E+00 -2.495325857E+03  2.495325857E+03  0.000000000E+00  0.00000E+00  9.000E+00
      25     1     1     2     0     0 -4.758618393E+00 -3.087631245E-01 -1.733483509E+03  1.737990741E+03  1.249960017E+02  0.00000E+00  9.000E+00
       5     1     1     2   501     0  6.282901351E+00 -2.387939326E-01 -4.554975707E+01  4.622634250E+01  4.750000000E+00  0.00000E+00  9.000E+00
      -5     1     1     2     0   503  1.468574179E+00  5.109468204E-01 -6.259194068E+01  6.279117227E+01  4.750000000E+00  0.00000E+00  9.000E+00
      21     1     1     2   503   511 -2.992857137E+00  3.661023676E-02 -6.510056854E+02  6.510125659E+02  7.629394531E-06  0.00000E+00  9.000E+00
#rwgt            1           9   2.7187343267019062E-002           5     2152856           0
</event>
<event>
      6   9999  3.45752E-01  2.75612E+01 -1.00000E+00  1.50260E-01
      21    -1     0     0   501   502  0.000000000E+00  0.000000000E+00  1.261237892E+02  1.261237892E+02  0.000000000E+00  0.00000E+00  9.000E+00
      21    -1     0     0   512   503  0.000000000E+00  0.000000000E+00 -1.547945385E+03  1.547945385E+03  0.000000000E+00  0.00000E+00  9.000E+00
      25     1     1     2     0     0 -1.084807500E+01  2.134059413E+01 -1.072427323E+03  1.079951858E+03  1.249902022E+02  0.00000E+00  9.000E+00
       5     1     1     2   501     0  1.703846199E+01 -7.994361626E+00  1.201881081E+02  1.217454839E+02  4.750000000E+00  0.00000E+00  9.000E+00
      -5     1     1     2     0   503  9.725852900E+00  9.154785023E+00 -3.172267290E+02  3.175433237E+02  4.750000000E+00  0.00000E+00  9.000E+00
      21     1     1     2   512   502 -1.591623989E+01 -2.250101753E+01 -1.523556521E+02  1.548285090E+02  1.907348633E-06  0.00000E+00  9.000E+00
#rwgt            1           9   6.0093624234699246E-004           5     2157601           0
</event>
<event>
      6   9999  3.45752E-01  3.37282E+00 -1.00000E+00  2.64249E-01
      21    -1     0     0   511   502  0.000000000E+00  0.000000000E+00  2.051650553E+01  2.051650553E+01  0.000000000E+00  0.00000E+00  9.000E+00
      21    -1     0     0   502   503  0.000000000E+00  0.000000000E+00 -2.818265090E+02  2.818265090E+02  0.000000000E+00  0.00000E+00  9.000E+00
      25     1     1     2     0     0 -4.820189609E+00 -4.969978237E+00 -2.470794330E+02  2.769879243E+02  1.250045162E+02  0.00000E+00  9.000E+00
       5     1     1     2   501     0  1.804333037E-01  6.532109289E-02  2.541585562E+00  5.390638199E+00  4.750000000E+00  0.00000E+00  9.000E+00
      -5     1     1     2     0   503  1.333662399E+00  5.572250948E+00 -1.106377360E+01  1.333409998E+01  4.750000000E+00  0.00000E+00  9.000E+00
      21     1     1     2   511   501  3.306093906E+00 -6.675938042E-01 -5.708382416E+00  6.630352042E+00  8.429369702E-08  0.00000E+00  9.000E+00
#rwgt            1           9   8.4440792203756634E-004           5     2160428           0
</event>
<event>
      6   9999  3.45752E-01  9.64883E+00 -1.00000E+00  1.88844E-01
      21    -1     0     0   501   502  0.000000000E+00  0.000000000E+00  1.305634354E+01  1.305634354E+01  0.000000000E+00  0.00000E+00  9.000E+00
      21    -1     0     0   512   503  0.000000000E+00  0.000000000E+00 -7.356574115E+02  7.356574115E+02  0.000000000E+00  0.00000E+00  9.000E+00
      25     1     1     2     0     0 -1.516665216E+01  1.345803843E+01 -5.540075696E+02  5.682968987E+02  1.250033268E+02  0.00000E+00  9.000E+00
       5     1     1     2   501     0 -1.181877324E+00 -4.919416085E-01  1.741093245E+00  5.218500383E+00  4.750000000E+00  0.00000E+00  9.000E+00
      -5     1     1     2     0   503  8.138269849E+00 -7.897408965E+00 -1.427104663E+01  1.883681970E+01  4.750000000E+00  0.00000E+00  9.000E+00
      21     1     1     2   512   502  8.210259640E+00 -5.068687856E+00 -1.560635449E+02  1.563615362E+02  1.907348633E-06  0.00000E+00  9.000E+00
#rwgt            1           9   1.1384905781584555E-002           5     2165576           0
</event>
<event>
      6   9999 -3.45752E-01  1.06834E+01 -1.00000E+00  1.84219E-01
      21    -1     0     0   501   502  0.000000000E+00  0.000000000E+00  1.032141280E+01  1.032141280E+01  0.000000000E+00  0.00000E+00  9.000E+00
      21    -1     0     0   502   511  0.000000000E+00  0.000000000E+00 -9.133272342E+02  9.133272342E+02  0.000000000E+00  0.00000E+00  9.000E+00
      25     1     1     2     0     0 -1.089508734E+01 -9.496736048E+00 -7.551441512E+02  7.655569215E+02  1.250032801E+02  0.00000E+00  9.000E+00
       5     1     1     2   501     0 -3.043318183E+00  2.940000685E-01  1.429832948E+00  5.827104243E+00  4.750000000E+00  0.00000E+00  9.000E+00
      -5     1     1     2     0   503  3.354179102E+00  1.065516746E+01 -2.818458476E+01  3.068739855E+01  4.750000000E+00  0.00000E+00  9.000E+00
      21     1     1     2   503   511  1.058422642E+01 -1.452431482E+00 -1.211069184E+02  1.215772227E+02  0.000000000E+00  0.00000E+00  9.000E+00
#rwgt            1           9  -5.4165401920505403E-004           5     2168168           0
</event>
<event>
      6   9999 -3.45752E-01  8.50850E+00 -1.00000E+00  1.94899E-01
      21    -1     0     0   501   512  0.000000000E+00  0.000000000E+00  9.846100384E+01  9.846100384E+01  0.000000000E+00  0.00000E+00  9.000E+00
      21    -1     0     0   502   503  0.000000000E+00  0.000000000E+00 -1.032145114E+03  1.032145114E+03  0.000000000E+00  0.00000E+00  9.000E+00
      25     1     1     2     0     0 -3.910515589E-01  1.694297731E+00 -9.865094334E+02  9.943987254E+02  1.249997571E+02  0.00000E+00  9.000E+00
       5     1     1     2   501     0  1.215401619E+00  3.969756019E+00  1.826383091E+01  1.932268572E+01  4.750000000E+00  0.00000E+00  9.000E+00
      -5     1     1     2     0   503  4.942482554E+00  5.919963583E-01 -4.063246198E+01  4.121089734E+01  4.750000000E+00  0.00000E+00  9.000E+00
      21     1     1     2   502   512 -5.766832614E+00 -6.256050108E+00  7.519395479E+01  7.567380893E+01  9.536743164E-07  0.00000E+00  9.000E+00
#rwgt            1           9  -3.3367842553408476E-003           5     2170801           0
</event>
<event>
      6   9999  3.45752E-01  2.48256E+02 -1.00000E+00  1.05742E-01
      -2    -1     0     0     0   502  0.000000000E+00  0.000000000E+00  2.317602331E+02  2.317602331E+02  0.000000000E+00  0.00000E+00  9.000E+00
      21    -1     0     0   501   511  0.000000000E+00  0.000000000E+00 -1.461393847E+03  1.461393847E+03  0.000000000E+00  0.00000E+00  9.000E+00
      25     1     1     2     0     0 -6.949136580E+01  1.200997950E+02 -1.260209447E+03  1.273973141E+03  1.250068097E+02  0.00000E+00  9.000E+00
       5     1     1     2   501     0 -5.013912407E+01  9.328176395E+01 -5.313666208E+01  1.185811393E+02  4.750000000E+00  0.00000E+00  9.000E+00
      -5     1     1     2     0   502 -4.771609480E+00  1.456391685E+00 -2.766078927E+01  2.850563272E+01  4.750000000E+00  0.00000E+00  9.000E+00
      -2     1     1     2     0   511  1.244020993E+02 -2.148379506E+02  1.113732844E+02  2.720941672E+02  3.568322551E-06  0.00000E+00  9.000E+00
#rwgt            1           3   9.4554069858694526E-006           5     2174318           0
</event>
<event>
      6   9999  3.45752E-01  8.71285E+00 -1.00000E+00  1.93725E-01
      21    -1     0     0   512   502  0.000000000E+00  0.000000000E+00  4.170394683E+01  4.170394683E+01  0.000000000E+00  0.00000E+00  9.000E+00
      21    -1     0     0   502   503  0.000000000E+00  0.000000000E+00 -1.141916346E+03  1.141916346E+03  0.000000000E+00  0.00000E+00  9.000E+00
      25     1     1     2     0     0 -1.062943914E+01 -4.065024415E-01 -1.020077266E+03  1.027762456E+03  1.249995487E+02  0.00000E+00  9.000E+00
       5     1     1     2   501     0  1.045664265E+01 -3.728300868E+00  2.571873692E+01  2.841227783E+01  4.750000000E+00  0.00000E+00  9.000E+00
      -5     1     1     2     0   503  8.490442485E+00  6.729136132E+00 -1.145361108E+02  1.151453519E+02  4.750000000E+00  0.00000E+00  9.000E+00
      21     1     1     2   512   501 -8.317645997E+00 -2.594332823E+00  8.682240535E+00  1.230020725E+01  6.194296387E-07  0.00000E+00  9.000E+00
#rwgt            1           9   7.0350238497647808E-005           5     2174959           0
</event>
<event>
      6   9999  3.45752E-01  7.22201E+00 -1.00000E+00  2.03425E-01
      21    -1     0     0   511   502  0.000000000E+00  0.000000000E+00  2.030767081E+02  2.030767081E+02  0.000000000E+00  0.00000E+00  9.000E+00
      21    -1     0     0   502   503  0.000000000E+00  0.000000000E+00 -7.960583068E+02  7.960583068E+02  0.000000000E+00  0.00000E+00  9.000E+00
      25     1     1     2     0     0  4.063863342E-02 -2.557691093E+01 -3.657256271E+02  3.873431983E+02  1.250013557E+02  0.00000E+00  9.000E+00
       5     1     1     2   501     0 -1.753466830E-01 -4.064448868E-01 -4.393598398E+00  6.485533963E+00  4.750000000E+00  0.00000E+00  9.000E+00
      -5     1     1     2     0   503  4.562666699E+00  2.027804707E+01 -4.137415464E+02  4.142905343E+02  4.750000000E+00  0.00000E+00  9.000E+00
      21     1     1     2   511   501 -4.427958650E+00  5.705308746E+00  1.908791732E+02  1.910157484E+02  2.697398305E-06  0.00000E+00  9.000E+00
#rwgt            1           9   7.2808510795989703E-003           5     2178606           0
</event>
<event>
      6   9999  3.45752E-01  6.76191E+00 -1.00000E+00  2.07073E-01
      21    -1     0     0   501   512  0.000000000E+00  0.000000000E+00  2.083387863E+02  2.083387863E+02  0.000000000E+00  0.00000E+00  9.000E+00
      21    -1     0     0   502   503  0.000000000E+00  0.000000000E+00 -6.357428343E+02  6.357428343E+02  0.000000000E+00  0.00000E+00  9.000E+00
      25     1     1     2     0     0 -4.140833341E+00  7.059651800E+00 -5.949373333E+02  6.079828276E+02  1.250028116E+02  0.00000E+00  9.000E+00
       5     1     1     2   501     0 -3.094608839E-02  1.834925936E-01 -1.248477501E+01  1.335914421E+01  4.750000000E+00  0.00000E+00  9.000E+00
      -5     1     1     2     0   503  2.324270941E-01 -1.747239041E+00 -2.100271841E+01  2.160517409E+01  4.750000000E+00  0.00000E+00  9.000E+00
      21     1     1     2   502   512  3.939352336E+00 -5.495905352E+00  2.010207787E+02  2.011344748E+02  3.814697266E-06  0.00000E+00  9.000E+00
#rwgt            1           9   4.4162363574017880E-004           5     2181837           0
</event>
<event>
      6   9999  3.45752E-01  3.91862E+00 -1.00000E+00  2.49712E-01
      21    -1     0     0   501   502  0.000000000E+00  0.000000000E+00  5.538869379E+01  5.538869379E+01  0.000000000E+00  0.00000E+00  9.000E+00
      21    -1     0     0   511   503  0.000000000E+00  0.000000000E+00 -4.913151323E+02  4.913151323E+02  0.000000000E+00  0.00000E+00  9.000E+00
      25     1     1     2     0     0  4.897148422E+00 -5.802015722E-02 -3.718971088E+02  3.923710268E+02  1.249943107E+02  0.00000E+00  9.000E+00
       5     1     1     2   501     0 -3.846882303E+00 -2.328797463E-01  4.450750619E+01  4.492586497E+01  4.750000000E+00  0.00000E+00  9.000E+00
      -5     1     1     2     0   503 -2.161182347E+00 -3.466956758E+00 -2.482361491E+01  2.560204787E+01  4.750000000E+00  0.00000E+00  9.000E+00
      21     1     1     2   511   502  1.110916227E+00  3.757856662E+00 -8.371322100E+01  8.380488644E+01  0.000000000E+00  0.00000E+00  9.000E+00
#rwgt            1           9  0.36751354100859185                5     2184200           0
</event>
<event>
      6   9999  3.45752E-01  2.58504E+01 -1.00000E+00  1.52146E-01
      21    -1     0     0   501   502  0.000000000E+00  0.000000000E+00  2.083334721E+01  2.083334721E+01  0.000000000E+00  0.00000E+00  9.000E+00
      21    -1     0     0   502   512  0.000000000E+00  0.000000000E+00 -5.464771623E+03  5.464771623E+03  0.000000000E+00  0.00000E+00  9.000E+00
      25     1     1     2     0     0 -7.440264904E+00 -3.257420139E+01 -4.332686735E+03  4.334618507E+03  1.250073158E+02  0.00000E+00  9.000E+00
       5     1     1     2   501     0  7.803820382E-01  3.760960752E+00  1.872285507E+01  1.969420280E+01  4.750000000E+00  0.00000E+00  9.000E+00
      -5     1     1     2     0   503  3.887093888E+00  3.111964088E+00 -8.717514263E+02  8.717785875E+02  4.750000000E+00  0.00000E+00  9.000E+00
      21     1     1     2   503   512  2.772788978E+00  2.570127655E+01 -2.582229701E+02  2.595136726E+02  5.394796609E-06  0.00000E+00  9.000E+00
#rwgt            1           9   1.2666801702825088E-004           5     2190952           0
</event>
<event>
      6   9999  3.45752E-01  5.48246E+00 -1.00000E+00  2.19664E-01
      21    -1     0     0   511   502  0.000000000E+00  0.000000000E+00  1.019621463E+01  1.019621463E+01  0.000000000E+00  0.00000E+00  9.000E+00
      21    -1     0     0   502   503  0.000000000E+00  0.000000000E+00 -7.709928020E+02  7.709928020E+02  0.000000000E+00  0.00000E+00  9.000E+00
      25     1     1     2     0     0  1.327159572E+01  4.916604984E+00 -6.646034769E+02  6.764045918E+02  1.250003282E+02  0.00000E+00  9.000E+00
       5     1     1     2   501     0  9.386163966E-01 -2.313845318E-01 -2.146949623E-01  4.852126695E+00  4.750000000E+00  0.00000E+00  9.000E+00
      -5     1     1     2     0   503 -1.388642257E+01 -1.015811416E+01 -9.026941554E+01  9.201711741E+01  4.750000000E+00  0.00000E+00  9.000E+00
      21     1     1     2   511   501 -3.237895497E-01  5.472893705E+00 -5.709000013E+00  7.915180751E+00  2.230201594E-07  0.00000E+00  9.000E+00
#rwgt            1           9   5.1006903854888896E-005           5     2193188           0
</event>
<event>
      6   9999  3.45752E-01  4.30605E+00 -1.00000E+00  2.41404E-01
      21    -1     0     0   512   502  0.000000000E+00  0.000000000E+00  1.748716805E+02  1.748716805E+02  0.000000000E+00  0.00000E+00  9.000E+00
      21    -1     0     0   502   503  0.000000000E+00  0.000000000E+00 -1.219858125E+03  1.219858125E+03  0.000000000E+00  0.00000E+00  9.000E+00
      25     1     1     2     0     0 -5.761703448E+01  5.394557987E+01 -9.518012207E+02  9.632135600E+02  1.249998005E+02  0.00000E+00  9.000E+00
       5     1     1     2   501     0 -2.183389558E+00  4.936738638E+00  2.605716632E+01  2.703103762E+01  4.750000000E+00  0.00000E+00  9.000E+00
      -5     1     1     2     0   503  5.965995810E+01 -5.457856121E+01 -2.555655311E+02  2.680940752E+02  4.750000000E+00  0.00000E+00  9.000E+00
      21     1     1     2   512   501  1.404659291E-01 -4.303757298E+00  1.363231415E+02  1.363911323E+02  5.046370146E-06  0.00000E+00  9.000E+00
#rwgt            1           9   1.1261895821189737E-004           5     2196985           0
</event>
<event>
      6   9999  3.45752E-01  1.15333E+01 -1.00000E+00  1.80895E-01
      21    -1     0     0   501   502  0.000000000E+00  0.000000000E+00  1.144000811E+01  1.144000811E+01  0.000000000E+00  0.00000E+00  9.000E+00
      21    -1     0     0   511   503  0.000000000E+00  0.000000000E+00 -1.097554352E+03  1.097554352E+03  0.000000000E+00  0.00000E+00  9.000E+00
      25     1     1     2     0     0  4.654992833E-01 -9.240763993E+00 -7.977776468E+02  8.075642265E+02  1.250007906E+02  0.00000E+00  9.000E+00
       5     1     1     2   501     0 -5.213931982E-01 -4.456475943E-01  5.327519309E+00  7.170454283E+00  4.750000000E+00  0.00000E+00  9.000E+00
      -5     1     1     2     0   503 -7.047908397E-01 -1.821824856E+00 -3.930745874E+01  3.964157651E+01  4.750000000E+00  0.00000E+00  9.000E+00
      21     1     1     2   511   502  7.606847547E-01  1.150823644E+01 -2.543567573E+02  2.546181025E+02  0.000000000E+00  0.00000E+00  9.000E+00
#rwgt            1           9   7.4230022246554614E-005           5     2203528           0
</event>
<event>
      6   9999  3.45752E-01  6.66422E+00 -1.00000E+00  2.07897E-01
      21    -1     0     0   501   512  0.000000000E+00  0.000000000E+00  2.071789649E+00  2.071789649E+00  0.000000000E+00  0.00000E+00  9.000E+00
      21    -1     0     0   502   503  0.000000000E+00  0.000000000E+00 -4.807575433E+03  4.807575433E+03  0.000000000E+00  0.00000E+00  9.000E+00
      25     1     1     2     0     0  2.706097517E+00  5.515365306E+00 -3.979444257E+03  3.981411695E+03  1.249989893E+02  0.00000E+00  9.000E+00
       5     1     1     2   501     0 -2.405086086E+00  1.310895139E+00 -8.361947401E+00  9.999377455E+00  4.750000000E+00  0.00000E+00  9.000E+00
      -5     1     1     2     0   503 -6.586350393E+00 -4.611243726E+00 -7.718897063E+02  7.719461929E+02  4.750000000E+00  0.00000E+00  9.000E+00
      21     1     1     2   502   512  6.285338963E+00 -2.215016719E+00 -4.580773302E+01  4.628995776E+01  1.651812370E-06  0.00000E+00  9.000E+00
#rwgt            1           9   6.0424767448737247E-005           5     2205989           0
</event>
<event>
      6   9999  3.45752E-01  3.16329E+01 -1.00000E+00  1.46364E-01
      21    -1     0     0   501   502  0.000000000E+00  0.000000000E+00  4.964014622E+02  4.964014622E+02  0.000000000E+00  0.00000E+00  9.000E+00
       1    -1     0     0   502     0  0.000000000E+00  0.000000000E+00 -1.017243896E+03  1.017243896E+03  0.000000000E+00  0.00000E+00  9.000E+00
      25     1     1     2     0     0 -1.958365988E+01 -2.034560140E+01 -2.633397991E+02  2.928675380E+02  1.250043272E+02  0.00000E+00  9.000E+00
       5     1     1     2   501     0  4.390730457E-01  5.203752659E+00  4.771075958E+02  4.771598184E+02  4.750000000E+00  0.00000E+00  9.000E+00
      -5     1     1     2     0   503  2.518743864E+01 -1.590852425E+01 -5.084007715E+01  5.911653029E+01  4.750000000E+00  0.00000E+00  9.000E+00
       1     1     1     2   503     0 -6.042851799E+00  3.105037299E+01 -6.837701535E+02  6.845014715E+02  7.629394531E-06  0.00000E+00  9.000E+00
#rwgt            1           9   9.7448412322124076E-002           5     2209004           0
</event>
<event>
      6   9999 -3.45752E-01  7.65873E+00 -1.00000E+00  2.00284E-01
      21    -1     0     0   502   511  0.000000000E+00  0.000000000E+00  2.468196876E+01  2.468196876E+01  0.000000000E+00  0.00000E+00  9.000E+00
      21    -1     0     0   501   502  0.000000000E+00  0.000000000E+00 -7.876585927E+02  7.876585927E+02  0.000000000E+00  0.00000E+00  9.000E+00
      25     1     1     2     0     0  3.687936491E+01  1.612047553E+01 -3.552197563E+02  3.787122663E+02  1.249877917E+02  0.00000E+00  9.000E+00
       5     1     1     2   501     0 -2.886695682E+01 -1.276013743E+01 -4.033600015E+02  4.046207800E+02  4.750000000E+00  0.00000E+00  9.000E+00
      -5     1     1     2     0   503 -2.285857227E+00  1.725213350E+00 -1.496283324E+01  1.595776873E+01  4.750000000E+00  0.00000E+00  9.000E+00
      21     1     1     2   503   511 -5.726550862E+00 -5.085551457E+00  1.056596716E+01  1.304974638E+01  5.462855929E-07  0.00000E+00  9.000E+00
#rwgt            1           9  -4.3372199026097000                5     2211465           0
</event>
<event>
      6   9999  3.45752E-01  9.21532E+00 -1.00000E+00  1.91011E-01
      21    -1     0     0   501   502  0.000000000E+00  0.000000000E+00  4.781713279E+01  4.781713279E+01  0.000000000E+00  0.00000E+00  9.000E+00
      21    -1     0     0   512   503  0.000000000E+00  0.000000000E+00 -6.720194065E+02  6.720194065E+02  0.000000000E+00  0.00000E+00  9.000E+00
      25     1     1     2     0     0 -4.113669204E+00 -2.346008351E+00 -3.306531080E+02  3.535237206E+02  1.250004687E+02  0.00000E+00  9.000E+00
       5     1     1     2   501     0  4.708161353E+00 -6.363382475E+00  3.510964916E+01  3.630302169E+01  4.750000000E+00  0.00000E+00  9.000E+00
      -5     1     1     2     0   503  1.088556451E+00 -3.509330300E-01 -9.189257998E+00  1.040735661E+01  4.750000000E+00  0.00000E+00  9.000E+00
      21     1     1     2   512   502 -1.683048600E+00  9.060323856E+00 -3.194695568E+02  3.196024403E+02  3.814697266E-06  0.00000E+00  9.000E+00
#rwgt            1           9   8.8264052129011591E-005           5     2215003           0
</event>
<event>
      6   9999  3.45752E-01  8.51595E+00 -1.00000E+00  1.94855E-01
      21    -1     0     0   501   502  0.000000000E+00  0.000000000E+00  7.916832123E+02  7.916832123E+02  0.000000000E+00  0.00000E+00  9.000E+00
      21    -1     0     0   511   503  0.000000000E+00  0.000000000E+00 -1.284091367E+01  1.284091367E+01  0.000000000E+00  0.00000E+00  9.000E+00
      25     1     1     2     0     0  2.418897632E+00  6.091680187E+00  4.008797605E+02  4.199680523E+02  1.250024919E+02  0.00000E+00  9.000E+00
       5     1     1     2   501     0  1.750565816E+00 -2.017991745E-01  3.551447614E+02  3.551808965E+02  4.750000000E+00  0.00000E+00  9.000E+00
      -5     1     1     2     0   503  1.797322029E+00  1.862148053E-01  1.963800471E+01  2.028493952E+01  4.750000000E+00  0.00000E+00  9.000E+00
      21     1     1     2   511   502 -5.966785477E+00 -6.076095818E+00  3.179772029E+00  9.090237592E+00  0.000000000E+00  0.00000E+00  9.000E+00
#rwgt            1           9   3.8835698029409370E-005           5     2218135           0
</event>
<event>
      6   9999  3.45752E-01  2.29797E+01 -1.00000E+00  1.55739E-01
      21    -1     0     0   501   512  0.000000000E+00  0.000000000E+00  1.712538308E+02  1.712538308E+02  0.000000000E+00  0.00000E+00  9.000E+00
      21    -1     0     0   502   503  0.000000000E+00  0.000000000E+00 -1.055262278E+03  1.055262278E+03  0.000000000E+00  0.00000E+00  9.000E+00
      25     1     1     2     0     0  2.429404485E+01  9.302027386E+01 -2.739017489E+02  3.160545160E+02  1.250012682E+02  0.00000E+00  9.000E+00
       5     1     1     2   501     0 -3.970565786E+01 -6.700875569E+01 -4.710549222E+02  4.774746222E+02  4.750000000E+00  0.00000E+00  9.000E+00
      -5     1     1     2     0   503  7.328531014E+00 -4.500307312E+00 -2.850359491E+02  2.852052154E+02  4.750000000E+00  0.00000E+00  9.000E+00
      21     1     1     2   502   512  8.083082004E+00 -2.151121086E+01  1.459841730E+02  1.477817552E+02  2.697398305E-06  0.00000E+00  9.000E+00
#rwgt            1           9   2.1440506210914241E-004           5     2220768           0
</event>
<event>
      6   9999  3.45752E-01  5.25417E+00 -1.00000E+00  2.22416E-01
      21    -1     0     0   511   502  0.000000000E+00  0.000000000E+00  8.866483411E+00  8.866483411E+00  0.000000000E+00  0.00000E+00  9.000E+00
      21    -1     0     0   502   503  0.000000000E+00  0.000000000E+00 -7.600964036E+02  7.600964036E+02  0.000000000E+00  0.00000E+00  9.000E+00
      25     1     1     2     0     0 -6.831999052E+00 -1.111771396E+01 -6.723967437E+02  6.840409382E+02  1.249973774E+02  0.00000E+00  9.000E+00
       5     1     1     2   501     0  1.191888516E-01  1.083327014E+00 -2.472495910E+00  5.464754288E+00  4.750000000E+00  0.00000E+00  9.000E+00
      -5     1     1     2     0   503  5.080289666E+00  1.502850609E+01 -5.369951174E+01  5.619488766E+01  4.750000000E+00  0.00000E+00  9.000E+00
      21     1     1     2   511   501  1.632520534E+00 -4.994119145E+00 -2.266116887E+01  2.326230693E+01  0.000000000E+00  0.00000E+00  9.000E+00
#rwgt            1           9   9.8758375539124478E-004           5     2222602           0
</event>
<event>
      6   9999  3.45752E-01  8.03686E+00 -1.00000E+00  1.97779E-01
      21    -1     0     0   512   502  0.000000000E+00  0.000000000E+00  3.886132423E+02  3.886132423E+02  0.000000000E+00  0.00000E+00  9.000E+00
      21    -1     0     0   502   503  0.000000000E+00  0.000000000E+00 -4.707673105E+03  4.707673105E+03  0.000000000E+00  0.00000E+00  9.000E+00
      25     1     1     2     0     0 -8.407067409E+00  1.117888492E+01 -4.590678962E+03  4.592401828E+03  1.250022992E+02  0.00000E+00  9.000E+00
       5     1     1     2   501     0  1.361989735E+01 -4.133548574E+00  1.224557843E+01  1.936761520E+01  4.750000000E+00  0.00000E+00  9.000E+00
      -5     1     1     2     0   503  2.821443262E+00 -7.249183212E+00 -1.123436942E+02  1.127128179E+02  4.750000000E+00  0.00000E+00  9.000E+00
      21     1     1     2   512   501 -8.034273200E+00  2.038468622E-01  3.717172144E+02  3.718040863E+02  1.321449896E-05  0.00000E+00  9.000E+00
#rwgt            1           9   1.5723736675884290E-004           5     2226097           0
</event>
<event>
      6   9999  3.45752E-01  1.55216E+01 -1.00000E+00  1.69095E-01
      21    -1     0     0   502   503  0.000000000E+00  0.000000000E+00  5.536959498E+00  5.536959498E+00  0.000000000E+00  0.00000E+00  9.000E+00
      21    -1     0     0   501   511  0.000000000E+00  0.000000000E+00 -1.219662923E+03  1.219662923E+03  0.000000000E+00  0.00000E+00  9.000E+00
      25     1     1     2     0     0 -6.750832647E+00 -4.313048953E+00 -9.730432407E+02  9.810725477E+02  1.250040783E+02  0.00000E+00  9.000E+00
       5     1     1     2   501     0 -5.265822978E-01 -2.019235246E-01 -2.116360604E+01  2.169743724E+01  4.750000000E+00  0.00000E+00  9.000E+00
      -5     1     1     2     0   503 -7.780275010E+00  7.484794860E-01 -2.099041946E+01  2.289657419E+01  4.750000000E+00  0.00000E+00  9.000E+00
      21     1     1     2   502   511  1.505768995E+01  3.766492991E+00 -1.989286976E+02  1.995333235E+02  0.000000000E+00  0.00000E+00  9.000E+00
#rwgt            1           9   1.7186461714792957E-003           5     2230348           0
</event>
<event>
      6   9999  3.45752E-01  1.60335E+01 -1.00000E+00  1.67901E-01
      21    -1     0     0   501   502  0.000000000E+00  0.000000000E+00  2.035135086E+01  2.035135086E+01  0.000000000E+00  0.00000E+00  9.000E+00
      21    -1     0     0   502   512  0.000000000E+00  0.000000000E+00 -1.198784781E+03  1.198784781E+03  0.000000000E+00  0.00000E+00  9.000E+00
      25     1     1     2     0     0 -1.030104577E+00  4.446281253E+01 -1.015257409E+03  1.023890044E+03  1.250008585E+02  0.00000E+00  9.000E+00
       5     1     1     2   501     0  1.188763541E+00  1.761512624E+00  1.102280970E+01  1.218937731E+01  4.750000000E+00  0.00000E+00  9.000E+00
      -5     1     1     2     0   503  1.202588177E+01 -3.580270704E+01 -9.682150894E+01  1.040356802E+02  4.750000000E+00  0.00000E+00  9.000E+00
      21     1     1     2   503   512 -1.218454073E+01 -1.042161812E+01 -7.737732201E+01  7.902102960E+01  0.000000000E+00  0.00000E+00  9.000E+00
#rwgt            1           9   3.4855105528113438E-004           5     2232474           0
</event>
<event>
      6   9999  3.45752E-01  1.68438E+01 -1.00000E+00  1.66120E-01
      21    -1     0     0   501   511  0.000000000E+00  0.000000000E+00  3.140508580E+01  3.140508580E+01  0.000000000E+00  0.00000E+00  9.000E+00
      21    -1     0     0   502   503  0.000000000E+00  0.000000000E+00 -1.048836340E+03  1.048836340E+03  0.000000000E+00  0.00000E+00  9.000E+00
      25     1     1     2     0     0 -5.709638928E+01  3.870731693E+01 -9.204610788E+02  9.314677331E+02  1.250011443E+02  0.00000E+00  9.000E+00
       5     1     1     2   501     0  5.003589967E+01 -2.963465741E+01 -3.081980199E+01  6.598656583E+01  4.750000000E+00  0.00000E+00  9.000E+00
      -5     1     1     2     0   503 -8.165840017E+00 -1.870333604E+00 -6.520978885E+01  6.591705510E+01  4.750000000E+00  0.00000E+00  9.000E+00
      21     1     1     2   502   511  1.522632963E+01 -7.202325906E+00 -9.405842022E-01  1.687007146E+01  2.717164536E-07  0.00000E+00  9.000E+00
#rwgt            1           9   3.0636293107330414E-002           5     2234394           0
</event>
<event>
      6   9999 -3.45752E-01  3.26171E+00 -1.00000E+00  2.67744E-01
      21    -1     0     0   501   502  0.000000000E+00  0.000000000E+00  8.166250881E+00  8.166250881E+00  0.000000000E+00  0.00000E+00  9.000E+00
       1    -1     0     0   502     0  0.000000000E+00  0.000000000E+00 -1.317698341E+03  1.317698341E+03  0.000000000E+00  0.00000E+00  9.000E+00
      25     1     1     2     0     0  3.997242431E+00  4.070801734E+00 -6.393926204E+02  6.515212668E+02  1.249979545E+02  0.00000E+00  9.000E+00
       5     1     1     2   501     0 -7.726963090E-02  3.642185793E-01 -2.507762530E+00  5.384236127E+00  4.750000000E+00  0.00000E+00  9.000E+00
      -5     1     1     2     0   503 -3.471527089E+00 -1.204282901E+00 -1.300879492E+01  1.432805091E+01  4.750000000E+00  0.00000E+00  9.000E+00
       1     1     1     2   503     0 -4.484457110E-01 -3.230737413E+00 -6.546229127E+02  6.546310385E+02  7.629394531E-06  0.00000E+00  9.000E+00
#rwgt            1           9  -1.7033673032047407E-003           5     2236387           0
</event>
<event>
      6   9999 -3.45752E-01  6.77539E+00 -1.00000E+00  2.06960E-01
      21    -1     0     0   501   502  0.000000000E+00  0.000000000E+00  1.133629784E+01  1.133629784E+01  0.000000000E+00  0.00000E+00  9.000E+00
      21    -1     0     0   502   511  0.000000000E+00  0.000000000E+00 -1.103334094E+03  1.103334094E+03  0.000000000E+00  0.00000E+00  9.000E+00
      25     1     1     2     0     0 -5.680235627E+00 -8.759092463E+00 -7.177855420E+02  7.286832945E+02  1.251170359E+02  0.00000E+00  9.000E+00
       5     1     1     2   501     0  1.855853853E-01  7.416640039E-01  4.630311133E+00  6.677333945E+00  4.750000000E+00  0.00000E+00  9.000E+00
      -5     1     1     2     0   503  4.994170450E+00  1.260552350E+00 -6.198252461E+01  6.237729225E+01  4.750000000E+00  0.00000E+00  9.000E+00
      21     1     1     2   503   511  5.004797909E-01  6.756876110E+00 -3.168600407E+02  3.169324711E+02  3.814697266E-06  0.00000E+00  9.000E+00
#rwgt            1           9  -1.3390101134657015E-003           5     2242213           0
</event>
<event>
      6   9999 -3.45752E-01  3.63388E+00 -1.00000E+00  2.56807E-01
      21    -1     0     0   512   502  0.000000000E+00  0.000000000E+00  2.498793185E+01  2.498793185E+01  0.000000000E+00  0.00000E+00  9.000E+00
      21    -1     0     0   502   503  0.000000000E+00  0.000000000E+00 -9.648112681E+02  9.648112681E+02  0.000000000E+00  0.00000E+00  9.000E+00
      25     1     1     2     0     0 -7.390582606E+00 -4.054152182E+01 -6.866440144E+02  6.991441875E+02  1.249974267E+02  0.00000E+00  9.000E+00
       5     1     1     2   501     0 -2.183579734E+00 -3.604834594E+00  8.834276156E+00  1.087978805E+01  4.750000000E+00  0.00000E+00  9.000E+00
      -5     1     1     2     0   503  1.098356092E+01  4.079692577E+01 -2.687655326E+02  2.721075187E+02  4.750000000E+00  0.00000E+00  9.000E+00
      21     1     1     2   512   501 -1.409398576E+00  3.349430650E+00  6.751934554E+00  7.667705671E+00  4.842304232E-07  0.00000E+00  9.000E+00
#rwgt            1           9  -1.5023553085626905E-002           5     2245361           0
</event>
<event>
      6   9999  3.45752E-01  3.01897E+01 -1.00000E+00  1.47661E-01
      21    -1     0     0   501   511  0.000000000E+00  0.000000000E+00  1.269752493E+01  1.269752493E+01  0.000000000E+00  0.00000E+00  9.000E+00
      21    -1     0     0   502   503  0.000000000E+00  0.000000000E+00 -7.430678167E+02  7.430678167E+02  0.000000000E+00  0.00000E+00  9.000E+00
      25     1     1     2     0     0  2.622705164E+01 -8.270906434E+00 -5.325461974E+02  5.477086726E+02  1.249922856E+02  0.00000E+00  9.000E+00
       5     1     1     2   501     0  1.388843148E+00  1.553277126E-01 -8.181674851E+00  9.563227246E+00  4.750000000E+00  0.00000E+00  9.000E+00
      -5     1     1     2     0   503  2.548433612E+00  6.876977358E+00 -1.408206133E+02  1.410914419E+02  4.750000000E+00  0.00000E+00  9.000E+00
      21     1     1     2   502   511 -3.016432839E+01  1.238601364E+00 -4.882180613E+01  5.740199992E+01  6.743495762E-07  0.00000E+00  9.000E+00
#rwgt            1           9   1.7147446790514897E-004           5     2252013           0
</event>
<event>
      6   9999  3.45752E-01  1.93803E+01 -1.00000E+00  1.61261E-01
      21    -1     0     0   501   502  0.000000000E+00  0.000000000E+00  1.404191735E+02  1.404191735E+02  0.000000000E+00  0.00000E+00  9.000E+00
       1    -1     0     0   502     0  0.000000000E+00  0.000000000E+00 -3.997368463E+02  3.997368463E+02  0.000000000E+00  0.00000E+00  9.000E+00
      25     1     1     2     0     0  2.542110290E+01 -2.829457463E+01 -6.064864481E+01  1.440483030E+02  1.249993602E+02  0.00000E+00  9.000E+00
       5     1     1     2   501     0 -1.454766410E+00 -1.009691018E+00  9.227755149E+01  9.241669129E+01  4.750000000E+00  0.00000E+00  9.000E+00
      -5     1     1     2     0   503 -3.223211492E+01  1.177506686E+01 -4.407571044E+01  5.606061169E+01  4.750000000E+00  0.00000E+00  9.000E+00
       1     1     1     2   503     0  8.265778428E+00  1.752919878E+01 -2.468708690E+02  2.476304138E+02  0.000000000E+00  0.00000E+00  9.000E+00
#rwgt            1           9   1.7450402481526724E-004           5     2252760           0
</event>
<event>
      6   9999  3.45752E-01  1.96079E+01 -1.00000E+00  1.60870E-01
      21    -1     0     0   511   502  0.000000000E+00  0.000000000E+00  1.018945324E+02  1.018945324E+02  0.000000000E+00  0.00000E+00  9.000E+00
      21    -1     0     0   502   503  0.000000000E+00  0.000000000E+00 -8.588769332E+02  8.588769332E+02  0.000000000E+00  0.00000E+00  9.000E+00
      25     1     1     2     0     0 -7.269345623E+00  4.081344613E+00 -8.161133893E+02  8.256732976E+02  1.250033172E+02  0.00000E+00  9.000E+00
       5     1     1     2   501     0 -2.354563715E+00 -1.251024341E+01 -1.172011458E+00  1.363767837E+01  4.750000000E+00  0.00000E+00  9.000E+00
      -5     1     1     2     0   503  1.795424213E+00 -9.548411464E+00 -2.851862661E+01  3.050033235E+01  4.750000000E+00  0.00000E+00  9.000E+00
      21     1     1     2   511   501  7.828485124E+00  1.797731026E+01  8.882162658E+01  9.096015728E+01  3.162979880E-06  0.00000E+00  9.000E+00
#rwgt            1           9   4.1109921750486049E-003           5     2255060           0
</event>
<event>
      6   9999  3.45752E-01  8.91667E+00 -1.00000E+00  1.92596E-01
       2    -1     0     0   501     0  0.000000000E+00  0.000000000E+00  9.701177989E+02  9.701177989E+02  0.000000000E+00  0.00000E+00  9.000E+00
      -2    -1     0     0     0   512  0.000000000E+00  0.000000000E+00 -1.601293506E+02  1.601293506E+02  0.000000000E+00  0.00000E+00  9.000E+00
      25     1     1     2     0     0  2.429616471E+02 -2.583356563E+01  3.259596691E+02  4.261133658E+02  1.250006384E+02  0.00000E+00  9.000E+00
       5     1     1     2   501     0  8.420680698E+01  1.345659050E+02  1.034818054E+02  1.895516175E+02  4.750000000E+00  0.00000E+00  9.000E+00
      -5     1     1     2     0   502 -3.184425169E+02 -1.105667339E+02  3.740213892E+02  5.035327212E+02  4.750000000E+00  0.00000E+00  9.000E+00
      21     1     1     2   502   512 -8.725937123E+00  1.834394492E+00  6.525584689E+00  1.104944512E+01  2.064765462E-07  0.00000E+00  9.000E+00
#rwgt            1           4   3.1804434304164182E-004           5     2256731           0
</event>
<event>
      6   9999  3.45752E-01  8.89980E+00 -1.00000E+00  1.92688E-01
      21    -1     0     0   501   511  0.000000000E+00  0.000000000E+00  3.149924933E+02  3.149924933E+02  0.000000000E+00  0.00000E+00  9.000E+00
      21    -1     0     0   502   503  0.000000000E+00  0.000000000E+00 -9.123619990E+02  9.123619990E+02  0.000000000E+00  0.00000E+00  9.000E+00
      25     1     1     2     0     0  4.978446754E+01  2.617182503E+01 -7.473976977E+02  7.598627416E+02  1.249984395E+02  0.00000E+00  9.000E+00
       5     1     1     2   501     0 -4.956787191E+01 -3.405796761E+01 -9.858177654E+01  1.155761578E+02  4.750000000E+00  0.00000E+00  9.000E+00
      -5     1     1     2     0   503  5.133884301E+00  7.742587046E-01 -5.134683407E+01  5.182678954E+01  4.750000000E+00  0.00000E+00  9.000E+00
      21     1     1     2   502   511 -5.350479936E+00  7.111883881E+00  2.999568025E+02  3.000888034E+02  0.000000000E+00  0.00000E+00  9.000E+00
#rwgt            1           9   7.8161160453256006E-004           5     2257545           0
</event>
<event>
      6   9999  3.45752E-01  1.84493E+01 -1.00000E+00  1.62933E-01
      21    -1     0     0   501   502  0.000000000E+00  0.000000000E+00  4.698295403E+03  4.698295403E+03  0.000000000E+00  0.00000E+00  9.000E+00
      21    -1     0     0   502   512  0.000000000E+00  0.000000000E+00 -3.702571914E+01  3.702571914E+01  0.000000000E+00  0.00000E+00  9.000E+00
      25     1     1     2     0     0 -2.462234395E+01 -9.367747954E-01  3.770259573E+03  3.772411441E+03  1.249947687E+02  0.00000E+00  9.000E+00
       5     1     1     2   501     0  4.914166627E+00 -3.046147296E+00  6.991872416E+02  6.992272802E+02  4.750000000E+00  0.00000E+00  9.000E+00
      -5     1     1     2     0   503  1.559346763E+00  6.665809005E-01  2.253541991E+02  2.254106330E+02  4.750000000E+00  0.00000E+00  9.000E+00
      21     1     1     2   503   512  1.814883056E+01  3.316341191E+00 -3.353132987E+01  3.827176835E+01  5.702143070E-06  0.00000E+00  9.000E+00
#rwgt            1           9   1.8134406503041154E-003           5     2260905           0
</event>
<event>
      6   9999  3.45752E-01  9.41128E+00 -1.00000E+00  1.90013E-01
      21    -1     0     0   511   502  0.000000000E+00  0.000000000E+00  4.965621040E+00  4.965621040E+00  0.000000000E+00  0.00000E+00  9.000E+00
      21    -1     0     0   502   503  0.000000000E+00  0.000000000E+00 -1.522664601E+03  1.522664601E+03  0.000000000E+00  0.00000E+00  9.000E+00
      25     1     1     2     0     0 -2.323906039E+01  3.898896851E+00 -1.317265056E+03  1.323391699E+03  1.249924247E+02  0.00000E+00  9.000E+00
       5     1     1     2   501     0  1.143616220E+01 -1.075791690E+01 -1.038713968E+02  1.051586808E+02  4.750000000E+00  0.00000E+00  9.000E+00
      -5     1     1     2     0   503  3.069066781E+00  3.352964057E+00 -7.791595550E+01  7.819283958E+01  4.750000000E+00  0.00000E+00  9.000E+00
      21     1     1     2   511   501  8.733831413E+00  3.506055987E+00 -1.864657180E+01  2.088700265E+01  1.039242493E-06  0.00000E+00  9.000E+00
#rwgt            1           9  0.16665414243256571                5     2261918           0
</event>
<event>
      6   9999  3.45752E-01  1.37352E+01 -1.00000E+00  1.73755E-01
      21    -1     0     0   512   502  0.000000000E+00  0.000000000E+00  1.858867808E+02  1.858867808E+02  0.000000000E+00  0.00000E+00  9.000E+00
      21    -1     0     0   502   503  0.000000000E+00  0.000000000E+00 -9.984123945E+02  9.984123945E+02  0.000000000E+00  0.00000E+00  9.000E+00
      25     1     1     2     0     0  4.890194341E+00  1.909670509E+00 -8.453502737E+02  8.545578002E+02  1.249975508E+02  0.00000E+00  9.000E+00
       5     1     1     2   501     0 -8.270331340E+00 -3.519632386E+00  1.532721389E+01  1.839217709E+01  4.750000000E+00  0.00000E+00  9.000E+00
      -5     1     1     2     0   503 -2.949076729E+00 -1.058005831E+01 -1.463944723E+02  1.468827380E+02  4.750000000E+00  0.00000E+00  9.000E+00
      21     1     1     2   512   501  6.329213728E+00  1.219002019E+01  1.638919185E+02  1.644664601E+02  2.697398305E-06  0.00000E+00  9.000E+00
#rwgt            1           9   1.3163998476678942                5     2264212           0
</event>
<event>
      6   9999 -3.45752E-01  3.26022E+01 -1.00000E+00  1.45539E-01
      21    -1     0     0   501   502  0.000000000E+00  0.000000000E+00  3.412799047E+03  3.412799047E+03  0.000000000E+00  0.00000E+00  9.000E+00
      21    -1     0     0   502   511  0.000000000E+00  0.000000000E+00 -6.753639978E+01  6.753639978E+01  0.000000000E+00  0.00000E+00  9.000E+00
      25     1     1     2     0     0  5.527946607E+01  2.249572292E+01  1.722616827E+03  1.728179494E+03  1.250350187E+02  0.00000E+00  9.000E+00
       5     1     1     2   501     0 -4.562285186E+00  5.470031566E+00  1.064996815E+03  1.065031227E+03  4.750000000E+00  0.00000E+00  9.000E+00
      -5     1     1     2     0   503 -7.435609439E+01 -5.513424291E+00  6.158763906E+02  6.203914229E+02  4.750000000E+00  0.00000E+00  9.000E+00
      21     1     1     2   503   511  2.363891351E+01 -2.245233020E+01 -5.822738491E+01  6.673330291E+01  4.156969970E-06  0.00000E+00  9.000E+00
#rwgt            1           9  -1.0097617646840574E-004           5     2266822           0
</event>
<event>
      6   9999  3.45752E-01  8.87145E+00 -1.00000E+00  1.92843E-01
      21    -1     0     0   502   503  0.000000000E+00  0.000000000E+00  1.251424275E+01  1.251424275E+01  0.000000000E+00  0.00000E+00  9.000E+00
      21    -1     0     0   512   502  0.000000000E+00  0.000000000E+00 -5.874251421E+02  5.874251421E+02  0.000000000E+00  0.00000E+00  9.000E+00
      25     1     1     2     0     0  4.684099970E+00 -2.404612417E+00 -5.175748347E+02  5.324811052E+02  1.249987794E+02  0.00000E+00  9.000E+00
       5     1     1     2   501     0  2.747679571E-01 -1.105732824E+00 -1.013657006E+00  4.988801763E+00  4.750000000E+00  0.00000E+00  9.000E+00
      -5     1     1     2     0   503  1.508195419E+00 -2.562520076E+00 -1.552723523E-01  5.606047812E+00  4.750000000E+00  0.00000E+00  9.000E+00
      21     1     1     2   512   501 -6.467063346E+00  6.072865317E+00 -5.616713530E+01  5.686343016E+01  9.536743164E-07  0.00000E+00  9.000E+00
#rwgt            1           9   1.0799922561716533E-002           5     2267955           0
</event>
<event>
      6   9999  3.45752E-01  5.48599E+00 -1.00000E+00  2.19623E-01
      21    -1     0     0   511   502  0.000000000E+00  0.000000000E+00  3.599044290E+01  3.599044290E+01  0.000000000E+00  0.00000E+00  9.000E+00
      21    -1     0     0   502   503  0.000000000E+00  0.000000000E+00 -8.426914038E+02  8.426914038E+02  0.000000000E+00  0.00000E+00  9.000E+00
      25     1     1     2     0     0  7.441423017E+00  1.063992311E+01 -7.485289946E+02  7.590052175E+02  1.249987265E+02  0.00000E+00  9.000E+00
       5     1     1     2   501     0  3.548900882E+00  9.440647906E-01  5.336470406E+00  8.032830895E+00  4.750000000E+00  0.00000E+00  9.000E+00
      -5     1     1     2     0   503 -8.396324058E+00 -6.750015646E+00 -8.686108804E+01  8.765541674E+01  4.750000000E+00  0.00000E+00  9.000E+00
      21     1     1     2   511   501 -2.593999840E+00 -4.833972259E+00  2.335265138E+01  2.398838155E+01  1.348699152E-06  0.00000E+00  9.000E+00
#rwgt            1           9   1.2626077184108562E-004           5     2270178           0
</event>
<event>
      6   9999  3.45752E-01  3.35864E+00 -1.00000E+00  2.64684E-01
      -1    -1     0     0     0   502  0.000000000E+00  0.000000000E+00  1.706143682E+02  1.706143682E+02  0.000000000E+00  0.00000E+00  9.000E+00
      21    -1     0     0   502   503  0.000000000E+00  0.000000000E+00 -8.974324225E+02  8.974324225E+02  0.000000000E+00  0.00000E+00  9.000E+00
      25     1     1     2     0     0  1.123526574E+00  3.861728708E+00 -8.694441570E+02  8.783918172E+02  1.249914681E+02  0.00000E+00  9.000E+00
       5     1     1     2   501     0 -2.320025361E+00  8.508282959E-01  3.414012452E+00  6.350150194E+00  4.750000000E+00  0.00000E+00  9.000E+00
      -5     1     1     2     0   503 -8.598582915E-01 -2.057022090E+00 -2.171637680E+01  2.234131190E+01  4.750000000E+00  0.00000E+00  9.000E+00
      -1     1     1     2     0   501  2.056357079E+00 -2.655534914E+00  1.609284671E+02  1.609635114E+02  6.031565972E-06  0.00000E+00  9.000E+00
#rwgt            1           9   2.6147952695558044E-003           5     2274644           0
</event>
<event>
      6   9999  3.45752E-01  4.21343E+00 -1.00000E+00  2.43268E-01
      21    -1     0     0   501   502  0.000000000E+00  0.000000000E+00  1.328567489E+02  1.328567489E+02  0.000000000E+00  0.00000E+00  9.000E+00
      21    -1     0     0   511   503  0.000000000E+00  0.000000000E+00 -1.329596873E+03  1.329596873E+03  0.000000000E+00  0.00000E+00  9.000E+00
      25     1     1     2     0     0 -4.082225149E+01  7.240634998E+01 -6.004888197E+00  1.502327002E+02  1.249986792E+02  0.00000E+00  9.000E+00
       5     1     1     2   501     0 -1.517734196E+00  2.283041234E+00  4.255596495E+01  4.290790659E+01  4.750000000E+00  0.00000E+00  9.000E+00
      -5     1     1     2     0   503  4.454872846E+01 -7.110129352E+01 -8.004540195E+01  1.160595193E+02  4.750000000E+00  0.00000E+00  9.000E+00
      21     1     1     2   511   502 -2.208742771E+00 -3.588097691E+00 -1.153245798E+03  1.153253495E+03  1.525878906E-05  0.00000E+00  9.000E+00
#rwgt            1           9   4.2972266077084909                5     2279932           0
</event>
<event>
      6   9999 -3.45752E-01  2.73368E+00 -1.00000E+00  2.87916E-01
      21    -1     0     0   501   502  0.000000000E+00  0.000000000E+00  7.075515379E+00  7.075515379E+00  0.000000000E+00  0.00000E+00  9.000E+00
      21    -1     0     0   502   512  0.000000000E+00  0.000000000E+00 -1.691502181E+03  1.691502181E+03  0.000000000E+00  0.00000E+00  9.000E+00
      25     1     1     2     0     0 -4.430413661E+00  1.345288798E+01 -1.609460517E+03  1.614369560E+03  1.250012525E+02  0.00000E+00  9.000E+00
       5     1     1     2   501     0 -1.059465630E+00 -3.930756525E-01  1.947625798E+00  5.256683569E+00  4.750000000E+00  0.00000E+00  9.000E+00
      -5     1     1     2     0   503  2.780927974E+00 -1.342665975E+01 -5.557323762E+01  5.743653882E+01  4.750000000E+00  0.00000E+00  9.000E+00
      21     1     1     2   503   512  2.708951317E+00  3.668474298E-01 -2.134053689E+01  2.151491364E+01  3.371747881E-07  0.00000E+00  9.000E+00
#rwgt            1           9  -7.5042324634235771E-004           5     2286493           0
</event>
<event>
      6   9999  3.45752E-01  8.65407E+00 -1.00000E+00  1.94059E-01
      21    -1     0     0   501   502  0.000000000E+00  0.000000000E+00  5.085272286E+02  5.085272286E+02  0.000000000E+00  0.00000E+00  9.000E+00
      21    -1     0     0   502   511  0.000000000E+00  0.000000000E+00 -8.600611263E+02  8.600611263E+02  0.000000000E+00  0.00000E+00  9.000E+00
      25     1     1     2     0     0 -4.821917337E+00  1.088681478E+01  1.556004411E+02  1.999452622E+02  1.249993479E+02  0.00000E+00  9.000E+00
       5     1     1     2   501     0  9.906771688E-01  2.902486697E+00  3.115808695E+02  3.116321656E+02  4.750000000E+00  0.00000E+00  9.000E+00
      -5     1     1     2     0   503 -3.315857112E+00 -8.909549666E+00  1.764920316E+01  2.060174400E+01  4.750000000E+00  0.00000E+00  9.000E+00
      21     1     1     2   503   511  7.147097280E+00 -4.879751814E+00 -8.363644115E+02  8.364091832E+02  1.078959322E-05  0.00000E+00  9.000E+00
#rwgt            1           9   2.1212556607065403                5     2293164           0
</event>
<event>
      6   9999  3.45752E-01  5.86885E+00 -1.00000E+00  2.15404E-01
      21    -1     0     0   501   502  0.000000000E+00  0.000000000E+00  1.134678419E+03  1.134678419E+03  0.000000000E+00  0.00000E+00  9.000E+00
      21    -1     0     0   512   503  0.000000000E+00  0.000000000E+00 -3.162810345E+01  3.162810345E+01  0.000000000E+00  0.00000E+00  9.000E+00
      25     1     1     2     0     0 -3.006390648E+01  9.213036106E-01  2.681902759E+02  2.974133050E+02  1.249958504E+02  0.00000E+00  9.000E+00
       5     1     1     2   501     0  1.366208387E+00  2.394078595E+00  8.377585796E+02  8.377765802E+02  4.750000000E+00  0.00000E+00  9.000E+00
      -5     1     1     2     0   503  2.306625013E+01 -1.663060016E+00  1.686542242E+00  2.366906396E+01  4.750000000E+00  0.00000E+00  9.000E+00
      21     1     1     2   512   502  5.631447958E+00 -1.652322189E+00 -4.585081986E+00  7.447573534E+00  3.998401125E-07  0.00000E+00  9.000E+00
#rwgt            1           9   857.47960346623063                5     2296217           0
</event>
<event>
      6   9999 -3.45752E-01  9.15166E+00 -1.00000E+00  1.91342E-01
      21    -1     0     0   501   502  0.000000000E+00  0.000000000E+00  4.420757995E+02  4.420757995E+02  0.000000000E+00  0.00000E+00  9.000E+00
      21    -1     0     0   511   503  0.000000000E+00  0.000000000E+00 -1.240947796E+01  1.240947796E+01  0.000000000E+00  0.00000E+00  9.000E+00
      25     1     1     2     0     0 -2.561758075E+00 -8.775706709E+00  3.723992833E+02  3.929247324E+02  1.250001738E+02  0.00000E+00  9.000E+00
       5     1     1     2   501     0  1.089804413E-02 -4.715686110E-01  2.993316971E+01  3.031137814E+01  4.750000000E+00  0.00000E+00  9.000E+00
      -5     1     1     2     0   503  8.251501146E-01  2.597905070E-01  1.582530259E+01  1.654542432E+01  4.750000000E+00  0.00000E+00  9.000E+00
      21     1     1     2   511   502  1.725709916E+00  8.987484813E+00  1.150856591E+01  1.470374263E+01  2.384185791E-07  0.00000E+00  9.000E+00
#rwgt            1           9  -7.9510529108666242E-004           5     2300959           0
</event>
<event>
      6   9999 -3.45752E-01  3.56304E+01 -1.00000E+00  1.43163E-01
      21    -1     0     0   501   502  0.000000000E+00  0.000000000E+00  1.758576438E+01  1.758576438E+01  0.000000000E+00  0.00000E+00  9.000E+00
      21    -1     0     0   512   503  0.000000000E+00  0.000000000E+00 -1.015932847E+03  1.015932847E+03  0.000000000E+00  0.00000E+00  9.000E+00
      25     1     1     2     0     0  9.191998206E+01  5.014266404E+00 -6.432601090E+02  6.617268395E+02  1.249976648E+02  0.00000E+00  9.000E+00
       5     1     1     2   501     0  2.859648770E+00 -3.984356044E-01 -1.767543037E+00  5.832928116E+00  4.750000000E+00  0.00000E+00  9.000E+00
      -5     1     1     2     0   503 -5.931034019E+01 -1.231853797E+00 -2.092117193E+02  2.175117006E+02  4.750000000E+00  0.00000E+00  9.000E+00
      21     1     1     2   512   502 -3.546929064E+01 -3.383977002E+00 -1.441077114E+02  1.484471433E+02  1.907348633E-06  0.00000E+00  9.000E+00
#rwgt            1           9  -4.5066535842190836E-004           5     2303099           0
</event>
<event>
      6   9999  3.45752E-01  6.29131E+00 -1.00000E+00  2.11230E-01
      21    -1     0     0   511   502  0.000000000E+00  0.000000000E+00  9.433298492E+01  9.433298492E+01  0.000000000E+00  0.00000E+00  9.000E+00
      21    -1     0     0   502   503  0.000000000E+00  0.000000000E+00 -8.117029325E+01  8.117029325E+01  0.000000000E+00  0.00000E+00  9.000E+00
      25     1     1     2     0     0  1.843615768E+00 -6.382576791E+00 -1.935169666E+01  1.266677602E+02  1.250043883E+02  0.00000E+00  9.000E+00
       5     1     1     2   501     0 -1.345301311E-01 -7.400964812E-02 -6.958701212E-01  4.803156359E+00  4.750000000E+00  0.00000E+00  9.000E+00
      -5     1     1     2     0   503 -7.792764261E+00  4.853638536E+00  1.077082038E-01  1.033726670E+01  4.750000000E+00  0.00000E+00  9.000E+00
      21     1     1     2   511   501  6.083678624E+00  1.602947903E+00  3.310255025E+01  3.369509490E+01  6.743495762E-07  0.00000E+00  9.000E+00
#rwgt            1           9   7.8766364726818392E-003           5     2304200           0
</event>
<event>
      6   9999  3.45752E-01  4.31320E+00 -1.00000E+00  2.41263E-01
      21    -1     0     0   512   502  0.000000000E+00  0.000000000E+00  3.561918036E+01  3.561918036E+01  0.000000000E+00  0.00000E+00  9.000E+00
      21    -1     0     0   502   503  0.000000000E+00  0.000000000E+00 -1.243840998E+03  1.243840998E+03  0.000000000E+00  0.00000E+00  9.000E+00
      25     1     1     2     0     0 -4.655503185E+00 -4.975711566E+00 -1.159706027E+03  1.166443040E+03  1.249994593E+02  0.00000E+00  9.000E+00
       5     1     1     2   501     0 -4.926028813E+00  8.971519239E+00  3.056803187E+01  3.258406037E+01  4.750000000E+00  0.00000E+00  9.000E+00
      -5     1     1     2     0   503  5.314621810E+00 -4.626024014E+00 -6.817467080E+01  6.870220915E+01  4.750000000E+00  0.00000E+00  9.000E+00
      21     1     1     2   512   501  4.266910188E+00  6.302163419E-01 -1.090915173E+01  1.173086897E+01  1.685873940E-07  0.00000E+00  9.000E+00
#rwgt            1           9   1.8394178854869835E-002           5     2307280           0
</event>
<event>
      6   9999  3.45752E-01  1.19674E+01 -1.00000E+00  1.79335E-01
      21    -1     0     0   502   511  0.000000000E+00  0.000000000E+00  8.377125001E+00  8.377125001E+00  0.000000000E+00  0.00000E+00  9.000E+00
      21    -1     0     0   501   502  0.000000000E+00  0.000000000E+00 -7.625845066E+02  7.625845066E+02  0.000000000E+00  0.00000E+00  9.000E+00
      25     1     1     2     0     0 -4.111105726E+00 -1.923216018E+01 -5.798545407E+02  5.934998506E+02  1.249960285E+02  0.00000E+00  9.000E+00
       5     1     1     2   501     0 -4.025058504E+00  6.104641628E+00 -2.971296306E+01  3.096595580E+01  4.750000000E+00  0.00000E+00  9.000E+00
      -5     1     1     2     0   503 -1.888488297E-01  4.530196746E+00 -1.019204049E+02  1.021317276E+02  4.750000000E+00  0.00000E+00  9.000E+00
      21     1     1     2   503   511  8.325013060E+00  8.597321809E+00 -4.271947290E+01  4.436409753E+01  6.743495762E-07  0.00000E+00  9.000E+00
#rwgt            1           9  0.13673387146521859                5     2313826           0
</event>
<event>
      6   9999 -3.45752E-01  7.06260E+00 -1.00000E+00  2.04647E-01
      21    -1     0     0   512   502  0.000000000E+00  0.000000000E+00  1.687702699E+01  1.687702699E+01  0.000000000E+00  0.00000E+00  9.000E+00
      21    -1     0     0   502   503  0.000000000E+00  0.000000000E+00 -9.199339779E+02  9.199339779E+02  0.000000000E+00  0.00000E+00  9.000E+00
      25     1     1     2     0     0  1.041288288E+00  2.422828279E+01 -8.097186363E+02  8.196686480E+02  1.249973144E+02  0.00000E+00  9.000E+00
       5     1     1     2   501     0 -2.758690152E+00 -2.846272277E+00  6.205458083E+00  8.762525164E+00  4.750000000E+00  0.00000E+00  9.000E+00
      -5     1     1     2     0   503  2.151452666E+00 -2.843125995E+01 -9.641584873E+01  1.006555695E+02  4.750000000E+00  0.00000E+00  9.000E+00
      21     1     1     2   512   501 -4.340508016E-01  7.049249434E+00 -3.127923925E+00  7.724262150E+00  3.424026159E-07  0.00000E+00  9.000E+00
#rwgt            1           9  -2.2134858882596156E-005           5     2315660           0
</event>
<event>
      6   9999 -3.45752E-01  3.00225E+01 -1.00000E+00  1.47817E-01
       2    -1     0     0   502     0  0.000000000E+00  0.000000000E+00  8.566083902E+01  8.566083902E+01  0.000000000E+00  0.00000E+00  9.000E+00
      21    -1     0     0   501   502  0.000000000E+00  0.000000000E+00 -1.355832629E+03  1.355832629E+03  0.000000000E+00  0.00000E+00  9.000E+00
      25     1     1     2     0     0  1.221543869E+02  1.926538215E+02 -3.919556186E+02  4.704155640E+02  1.249976266E+02  0.00000E+00  9.000E+00
       5     1     1     2   501     0 -2.645219328E+01 -2.558634577E+01 -2.326176171E+02  2.355586932E+02  4.750000000E+00  0.00000E+00  9.000E+00
      -5     1     1     2     0   503 -6.607023440E+01 -1.622408924E+02 -6.726526667E+02  6.951054276E+02  4.750000000E+00  0.00000E+00  9.000E+00
       2     1     1     2   503     0 -2.963195926E+01 -4.826583355E+00  2.705411217E+01  4.041378356E+01  1.305872339E-06  0.00000E+00  9.000E+00
#rwgt            1           9  -1.5456763405762406E-002           5     2319294           0
</event>
<event>
      6   9999  3.45752E-01  1.67466E+01 -1.00000E+00  1.66327E-01
      21    -1     0     0   502   511  0.000000000E+00  0.000000000E+00  2.837997648E+01  2.837997648E+01  0.000000000E+00  0.00000E+00  9.000E+00
      21    -1     0     0   501   502  0.000000000E+00  0.000000000E+00 -7.162421206E+02  7.162421206E+02  0.000000000E+00  0.00000E+00  9.000E+00
      25     1     1     2     0     0 -2.000925135E+01 -1.726750380E+01 -3.964747155E+02  4.165495444E+02  1.249911441E+02  0.00000E+00  9.000E+00
       5     1     1     2   501     0 -2.149167761E+00 -9.605777468E-02 -1.585715979E+02  1.586573109E+02  4.750000000E+00  0.00000E+00  9.000E+00
      -5     1     1     2     0   503  7.206022100E+00  9.821996495E+00 -1.469321276E+02  1.475127485E+02  4.750000000E+00  0.00000E+00  9.000E+00
      21     1     1     2   503   511  1.495239701E+01  7.541565081E+00  1.411629673E+01  2.190249332E+01  1.052827938E-06  0.00000E+00  9.000E+00
#rwgt            1           9   6.4649085408974944E-004           5     2321432           0
</event>
<event>
      6   9999  3.45752E-01  7.02450E+00 -1.00000E+00  2.04945E-01
      21    -1     0     0   501   502  0.000000000E+00  0.000000000E+00  1.927700713E+02  1.927700713E+02  0.000000000E+00  0.00000E+00  9.000E+00
      21    -1     0     0   502   512  0.000000000E+00  0.000000000E+00 -2.025795174E+02  2.025795174E+02  0.000000000E+00  0.00000E+00  9.000E+00
      25     1     1     2     0     0 -2.053458724E-01  3.880610816E+00 -1.414003176E+02  1.887672279E+02  1.249956607E+02  0.00000E+00  9.000E+00
       5     1     1     2   501     0  8.831221984E-01 -8.321757373E+00  1.642206850E+02  1.645023630E+02  4.750000000E+00  0.00000E+00  9.000E+00
      -5     1     1     2     0   503 -6.667779619E+00  7.718792735E-01  4.763768396E-01  8.236778348E+00  4.750000000E+00  0.00000E+00  9.000E+00
      21     1     1     2   503   512  5.990003293E+00  3.669267284E+00 -3.310619031E+01  3.384321939E+01  4.768371582E-07  0.00000E+00  9.000E+00
#rwgt            1           9   3.8277904097280325E-004           5     2322817           0
</event>
<event>
      6   9999  3.45752E-01  1.66699E+01 -1.00000E+00  1.66492E-01
      21    -1     0     0   511   502  0.000000000E+00  0.000000000E+00  1.592128059E+01  1.592128059E+01  0.000000000E+00  0.00000E+00  9.000E+00
      21    -1     0     0   502   503  0.000000000E+00  0.000000000E+00 -7.001828861E+02  7.001828861E+02  0.000000000E+00  0.00000E+00  9.000E+00
      25     1     1     2     0     0  1.908694414E+01  1.460096782E+01 -5.555864772E+02  5.699814712E+02  1.250001765E+02  0.00000E+00  9.000E+00
       5     1     1     2   501     0 -8.819517191E-01 -6.418627589E+00 -6.475942147E+01  6.525581804E+01  4.750000000E+00  0.00000E+00  9.000E+00
      -5     1     1     2     0   503 -2.904749581E+00 -1.565058001E+00 -6.393590349E+01  6.419695656E+01  4.750000000E+00  0.00000E+00  9.000E+00
      21     1     1     2   511   501 -1.530024284E+01 -6.617282232E+00  2.019668085E-02  1.666992090E+01  8.627824369E-07  0.00000E+00  9.000E+00
#rwgt            1           9   4.6026167075405462E-004           5     2327232           0
</event>
<event>
      6   9999  3.45752E-01  8.92815E+00 -1.00000E+00  1.92534E-01
      21    -1     0     0   512   502  0.000000000E+00  0.000000000E+00  1.139058207E+01  1.139058207E+01  0.000000000E+00  0.00000E+00  9.000E+00
      21    -1     0     0   502   503  0.000000000E+00  0.000000000E+00 -8.211466172E+02  8.211466172E+02  0.000000000E+00  0.00000E+00  9.000E+00
      25     1     1     2     0     0 -5.702503062E+00  1.248046208E+01 -7.972798321E+02  8.071372360E+02  1.250084259E+02  0.00000E+00  9.000E+00
       5     1     1     2   501     0 -7.182141365E-01  2.177302924E-01 -4.512703931E+00  6.594712640E+00  4.750000000E+00  0.00000E+00  9.000E+00
      -5     1     1     2     0   503 -4.556035834E-02 -6.541967818E+00 -3.296751556E+00  8.731007359E+00  4.750000000E+00  0.00000E+00  9.000E+00
      21     1     1     2   512   501  6.466277557E+00 -6.156224550E+00 -4.666747598E+00  1.007424336E+01  5.092623082E-07  0.00000E+00  9.000E+00
#rwgt            1           9   2.7611203245789821E-005           5     2328656           0
</event>
<event>
      6   9999  3.45752E-01  1.35100E+01 -1.00000E+00  1.74405E-01
      21    -1     0     0   502   503  0.000000000E+00  0.000000000E+00  1.078517806E+02  1.078517806E+02  0.000000000E+00  0.00000E+00  9.000E+00
      21    -1     0     0   501   511  0.000000000E+00  0.000000000E+00 -8.590771396E+01  8.590771396E+01  0.000000000E+00  0.00000E+00  9.000E+00
      25     1     1     2     0     0 -2.778737620E+01  2.099267717E+00  3.474965328E+01  1.326956602E+02  1.249962185E+02  0.00000E+00  9.000E+00
       5     1     1     2   501     0  5.884443477E+00 -5.971486475E+00 -3.096827633E+00  1.012117420E+01  4.750000000E+00  0.00000E+00  9.000E+00
      -5     1     1     2     0   503  3.249289066E+01  1.226107854E+01 -1.396671598E+00  3.508041023E+01  4.750000000E+00  0.00000E+00  9.000E+00
      21     1     1     2   502   511 -1.058995794E+01 -8.388859778E+00 -8.312087373E+00  1.586224997E+01  1.192092896E-07  0.00000E+00  9.000E+00
#rwgt            1           9   23112.106415511043                5     2331494           0
</event>
<event>
      6   9999  3.45752E-01  7.34122E+00 -1.00000E+00  2.02539E-01
      21    -1     0     0   501   502  0.000000000E+00  0.000000000E+00  3.166534094E+01  3.166534094E+01  0.000000000E+00  0.00000E+00  9.000E+00
      21    -1     0     0   502   512  0.000000000E+00  0.000000000E+00 -1.143416250E+03  1.143416250E+03  0.000000000E+00  0.00000E+00  9.000E+00
      25     1     1     2     0     0 -9.246270062E+01 -5.575975858E+01 -9.164080921E+02  9.311750520E+02  1.249987381E+02  0.00000E+00  9.000E+00
       5     1     1     2   501     0  1.353107974E+00 -2.154132510E+00  8.584646502E+00  1.013557318E+01  4.750000000E+00  0.00000E+00  9.000E+00
      -5     1     1     2     0   503  9.287116791E+01  5.078715752E+01 -1.814096441E+02  2.100866742E+02  4.750000000E+00  0.00000E+00  9.000E+00
      21     1     1     2   503   512 -1.761575272E+00  7.126733573E+00 -2.251781938E+01  2.368429160E+01  2.384185791E-07  0.00000E+00  9.000E+00
#rwgt            1           9   3.9854558277983773E-005           5     2333295           0
</event>
<event>
      6   9999  3.45752E-01  3.63057E+00 -1.00000E+00  2.56895E-01
      21    -1     0     0   501   511  0.000000000E+00  0.000000000E+00  2.406666424E+01  2.406666424E+01  0.000000000E+00  0.00000E+00  9.000E+00
      21    -1     0     0   502   503  0.000000000E+00  0.000000000E+00 -1.023864533E+03  1.023864533E+03  0.000000000E+00  0.00000E+00  9.000E+00
      25     1     1     2     0     0 -7.147919019E+01 -2.538213443E+01 -4.355519509E+02  4.594379901E+02  1.249969499E+02  0.00000E+00  9.000E+00
       5     1     1     2   501     0  2.382954429E+00 -3.243482417E+00  8.124031626E+00  1.023528406E+01  4.750000000E+00  0.00000E+00  9.000E+00
      -5     1     1     2     0   503  7.200606649E+01  2.645445726E+01 -5.627744655E+02  5.679985682E+02  4.750000000E+00  0.00000E+00  9.000E+00
      21     1     1     2   502   511 -2.909830731E+00  2.171159587E+00 -9.595483663E+00  1.025935454E+01  2.384185791E-07  0.00000E+00  9.000E+00
#rwgt            1           9   3.1500498172461140E-004           5     2337723           0
</event>
<event>
      6   9999  3.45752E-01  5.71514E+00 -1.00000E+00  2.17043E-01
      21    -1     0     0   501   502  0.000000000E+00  0.000000000E+00  8.744945019E+01  8.744945019E+01  0.000000000E+00  0.00000E+00  9.000E+00
      21    -1     0     0   502   512  0.000000000E+00  0.000000000E+00 -2.436617730E+02  2.436617730E+02  0.000000000E+00  0.00000E+00  9.000E+00
      25     1     1     2     0     0 -5.344567408E+01 -1.690799853E+01 -1.834682807E+02  2.289713222E+02  1.249997435E+02  0.00000E+00  9.000E+00
       5     1     1     2   501     0 -1.522499315E-01  3.145786234E+00  3.485495718E+01  3.531783814E+01  4.750000000E+00  0.00000E+00  9.000E+00
      -5     1     1     2     0   503  4.820088594E+01  1.564232736E+01  6.781576211E+00  5.134744479E+01  4.750000000E+00  0.00000E+00  9.000E+00
      21     1     1     2   503   512  5.397038069E+00 -1.880115066E+00 -1.438057546E+01  1.547461803E+01  0.000000000E+00  0.00000E+00  9.000E+00
#rwgt            1           9   3.9557002845282986E-004           5     2344521           0
</event>
<event>
      6   9999  3.45752E-01  3.88761E+01 -1.00000E+00  1.40908E-01
      21    -1     0     0   501   502  0.000000000E+00  0.000000000E+00  1.216053348E+02  1.216053348E+02  0.000000000E+00  0.00000E+00  9.000E+00
      21    -1     0     0   502   511  0.000000000E+00  0.000000000E+00 -2.778582305E+03  2.778582305E+03  0.000000000E+00  0.00000E+00  9.000E+00
      25     1     1     2     0     0  2.122415614E+02 -1.549500523E+02 -1.732091173E+03  1.756365753E+03  1.249993166E+02  0.00000E+00  9.000E+00
       5     1     1     2   501     0 -3.099907998E+02  1.198880225E+02 -1.556868976E+02  3.670536834E+02  4.750000000E+00  0.00000E+00  9.000E+00
      -5     1     1     2     0   503  6.612052313E+01  1.245732071E+01 -5.534014211E+02  5.574969092E+02  4.750000000E+00  0.00000E+00  9.000E+00
      21     1     1     2   503   511  3.162871527E+01  2.260470907E+01 -2.157974792E+02  2.192712943E+02  0.000000000E+00  0.00000E+00  9.000E+00
#rwgt            1           9   127.51061023411809                5     2349083           0
</event>
<event>
      6   9999  3.45752E-01  6.13184E+00 -1.00000E+00  2.12751E-01
      -2    -1     0     0     0   502  0.000000000E+00  0.000000000E+00  2.902958721E+01  2.902958721E+01  0.000000000E+00  0.00000E+00  9.000E+00
      21    -1     0     0   502   503  0.000000000E+00  0.000000000E+00 -9.202749601E+02  9.202749601E+02  0.000000000E+00  0.00000E+00  9.000E+00
      25     1     1     2     0     0  3.091446188E+01  6.504261888E+00 -5.538698097E+02  5.686771564E+02  1.249957309E+02  0.00000E+00  9.000E+00
       5     1     1     2   501     0 -3.487817123E+00 -9.987768942E-01  6.846860244E+00  9.088697308E+00  4.750000000E+00  0.00000E+00  9.000E+00
      -5     1     1     2     0   503 -2.914861143E+01 -1.139057589E+01 -3.564537403E+02  3.578564213E+02  4.750000000E+00  0.00000E+00  9.000E+00
      -2     1     1     2     0   501  1.721966669E+00  5.885090895E+00  1.223131686E+01  1.368227233E+01  6.951036328E-07  0.00000E+00  9.000E+00
#rwgt            1           9   5.2404267413953376E-004           5     2351357           0
</event>
<event>
      6   9999  3.45752E-01  1.92426E+01 -1.00000E+00  1.61501E-01
      21    -1     0     0   511   502  0.000000000E+00  0.000000000E+00  1.830594345E+01  1.830594345E+01  0.000000000E+00  0.00000E+00  9.000E+00
      21    -1     0     0   502   503  0.000000000E+00  0.000000000E+00 -1.047247058E+03  1.047247058E+03  0.000000000E+00  0.00000E+00  9.000E+00
      25     1     1     2     0     0 -1.518185803E+01 -2.481227776E+00 -9.017394274E+02  9.104922083E+02  1.250016845E+02  0.00000E+00  9.000E+00
       5     1     1     2   501     0 -2.779362226E+00 -1.012396079E+01  6.046062279E+00  1.301294761E+01  4.750000000E+00  0.00000E+00  9.000E+00
      -5     1     1     2     0   503  1.128900141E+01 -5.443595111E+00 -1.141596571E+02  1.149437431E+02  4.750000000E+00  0.00000E+00  9.000E+00
      21     1     1     2   511   501  6.672218847E+00  1.804878367E+01 -1.908809222E+01  2.710410229E+01  6.743495762E-07  0.00000E+00  9.000E+00
#rwgt            1           9   5.8000417130896057E-004           5     2355100           0
</event>
<event>
      6   9999  3.45752E-01  5.95985E+00 -1.00000E+00  2.14465E-01
      21    -1     0     0   501   502  0.000000000E+00  0.000000000E+00  8.225991553E+00  8.225991553E+00  0.000000000E+00  0.00000E+00  9.000E+00
      21    -1     0     0   502   512  0.000000000E+00  0.000000000E+00 -1.493772016E+03  1.493772016E+03  0.000000000E+00  0.00000E+00  9.000E+00
      25     1     1     2     0     0  4.537055121E+01 -3.479264186E+00 -1.101726068E+03  1.109727594E+03  1.249976466E+02  0.00000E+00  9.000E+00
       5     1     1     2   501     0 -6.967324832E-02  1.215748211E+00  7.182613992E-01  4.955935584E+00  4.750000000E+00  0.00000E+00  9.000E+00
      -5     1     1     2     0   503 -3.998102700E+01 -4.233028408E-01 -3.415298056E+02  3.438950891E+02  4.750000000E+00  0.00000E+00  9.000E+00
      21     1     1     2   503   512 -5.319850955E+00  2.686818816E+00 -4.300841221E+01  4.341938887E+01  6.743495762E-07  0.00000E+00  9.000E+00
#rwgt            1           9   7.7711888997236384E-002           5     2356738           0
</event>
<event>
      6   9999  3.45752E-01  1.20051E+01 -1.00000E+00  1.79204E-01
      21    -1     0     0   511   502  0.000000000E+00  0.000000000E+00  6.804945794E+01  6.804945794E+01  0.000000000E+00  0.00000E+00  9.000E+00
      21    -1     0     0   502   503  0.000000000E+00  0.000000000E+00 -1.271628134E+03  1.271628134E+03  0.000000000E+00  0.00000E+00  9.000E+00
      25     1     1     2     0     0 -5.445309554E-01  1.193577675E+01 -1.213995792E+03  1.220472639E+03  1.249996781E+02  0.00000E+00  9.000E+00
       5     1     1     2   501     0  2.154204585E-02  6.085859648E-01 -2.423871775E+01  2.470726167E+01  4.750000000E+00  0.00000E+00  9.000E+00
      -5     1     1     2     0   503  1.665552863E+00 -5.937364188E-01 -2.914234697E+01  2.957981535E+01  4.750000000E+00  0.00000E+00  9.000E+00
      21     1     1     2   511   501 -1.142563953E+00 -1.195062629E+01  6.379818018E+01  6.491787671E+01  1.651812370E-06  0.00000E+00  9.000E+00
#rwgt            1           9   1.2601556154626670E-004           5     2361052           0
</event>
<event>
      6   9999  3.45752E-01  1.68801E+01 -1.00000E+00  1.66044E-01
      21    -1     0     0   501   502  0.000000000E+00  0.000000000E+00  3.698853580E+02  3.698853580E+02  0.000000000E+00  0.00000E+00  9.000E+00
      21    -1     0     0   512   503  0.000000000E+00  0.000000000E+00 -5.952252434E+01  5.952252434E+01  0.000000000E+00  0.00000E+00  9.000E+00
      25     1     1     2     0     0 -4.645259789E+01 -4.627140161E+01  2.130016679E+02  2.555259058E+02  1.249995662E+02  0.00000E+00  9.000E+00
       5     1     1     2   501     0 -4.324985642E-01 -2.052022563E+00  1.034647563E+02  1.035949620E+02  4.750000000E+00  0.00000E+00  9.000E+00
      -5     1     1     2     0   503  3.167135451E+01  4.101045743E+01 -9.944757697E+00  5.297540014E+01  4.750000000E+00  0.00000E+00  9.000E+00
      21     1     1     2   512   502  1.521374194E+01  7.312966746E+00  3.841167085E+00  1.731161434E+01  1.032382731E-07  0.00000E+00  9.000E+00
#rwgt            1           9   1.2806636445953997E-004           5     2362634           0
</event>
<event>
      6   9999  3.45752E-01  1.48444E+01 -1.00000E+00  1.70765E-01
      21    -1     0     0   501   502  0.000000000E+00  0.000000000E+00  1.204838047E+01  1.204838047E+01  0.000000000E+00  0.00000E+00  9.000E+00
      21    -1     0     0   502   511  0.000000000E+00  0.000000000E+00 -9.411988355E+02  9.411988355E+02  0.000000000E+00  0.00000E+00  9.000E+00
      25     1     1     2     0     0 -2.727254703E+01  2.752411741E+01 -5.518866521E+02  5.671993423E+02  1.250393869E+02  0.00000E+00  9.000E+00
       5     1     1     2   501     0 -6.808472975E-01 -2.048343143E+01 -4.137260284E+01  4.641432195E+01  4.750000000E+00  0.00000E+00  9.000E+00
      -5     1     1     2     0   503  3.437776291E+01  6.341526018E+00 -2.237636900E+02  2.265276959E+02  4.750000000E+00  0.00000E+00  9.000E+00
      21     1     1     2   503   511 -6.424368580E+00 -1.338221200E+01 -1.121275100E+02  1.131058558E+02  1.348699152E-06  0.00000E+00  9.000E+00
#rwgt            1           9   2.5528061549035376E-005           5     2364923           0
</event>
<event>
      6   9999  3.45752E-01  1.72360E+01 -1.00000E+00  1.65302E-01
      21    -1     0     0   502   512  0.000000000E+00  0.000000000E+00  1.798475052E+02  1.798475052E+02  0.000000000E+00  0.00000E+00  9.000E+00
      21    -1     0     0   501   502  0.000000000E+00  0.000000000E+00 -2.030296410E+02  2.030296410E+02  0.000000000E+00  0.00000E+00  9.000E+00
      25     1     1     2     0     0 -1.852150106E+00 -8.273000317E+01  1.178932248E+02  1.907144306E+02  1.250019909E+02  0.00000E+00  9.000E+00
       5     1     1     2   501     0  4.066936834E+01  4.666483370E+01 -1.148184332E+02  1.305275424E+02  4.750000000E+00  0.00000E+00  9.000E+00
      -5     1     1     2     0   503 -2.767341887E+01  2.291618136E+01 -2.562676260E+01  4.438764401E+01  4.750000000E+00  0.00000E+00  9.000E+00
      21     1     1     2   503   512 -1.114379936E+01  1.314898811E+01 -6.301647803E-01  1.724752910E+01  2.313282296E-07  0.00000E+00  9.000E+00
#rwgt            1           9   2.1760627649087134E-004           5     2366922           0
</event>
<event>
      6   9999  3.45752E-01  5.09727E+00 -1.00000E+00  2.24422E-01
      21    -1     0     0   501   511  0.000000000E+00  0.000000000E+00  8.456038726E+02  8.456038726E+02  0.000000000E+00  0.00000E+00  9.000E+00
      21    -1     0     0   502   503  0.000000000E+00  0.000000000E+00 -4.057964878E+03  4.057964878E+03  0.000000000E+00  0.00000E+00  9.000E+00
      25     1     1     2     0     0 -1.300014508E+01  4.339893338E+00 -2.840689371E+03  2.843471257E+03  1.249993845E+02  0.00000E+00  9.000E+00
       5     1     1     2   501     0  7.036390590E-01 -9.287335178E-01 -1.680660902E+01  1.750377847E+01  4.750000000E+00  0.00000E+00  9.000E+00
      -5     1     1     2     0   503  1.203604250E+01 -8.501772253E+00 -1.198671680E+03  1.198771665E+03  4.750000000E+00  0.00000E+00  9.000E+00
      21     1     1     2   502   511  2.604635209E-01  5.090612434E+00  8.438066547E+02  8.438220503E+02  1.525878906E-05  0.00000E+00  9.000E+00
#rwgt            1           9   8.0022144006838152E-004           5     2369045           0
</event>
<event>
      6   9999  3.45752E-01  1.34871E+01 -1.00000E+00  1.74473E-01
      21    -1     0     0   502   512  0.000000000E+00  0.000000000E+00  5.679466680E+01  5.679466680E+01  0.000000000E+00  0.00000E+00  9.000E+00
      21    -1     0     0   501   502  0.000000000E+00  0.000000000E+00 -1.950753011E+02  1.950753011E+02  0.000000000E+00  0.00000E+00  9.000E+00
      25     1     1     2     0     0  1.189290949E+01  7.335913250E+00 -1.527433342E+02  1.978615370E+02  1.249936188E+02  0.00000E+00  9.000E+00
       5     1     1     2   501     0  1.788732939E+00 -2.766679798E+00 -7.871576076E+00  9.766181063E+00  4.750000000E+00  0.00000E+00  9.000E+00
      -5     1     1     2     0   503 -2.508283995E-01 -5.800167421E+00 -8.047531190E+00  1.100136879E+01  4.750000000E+00  0.00000E+00  9.000E+00
      21     1     1     2   503   512 -1.343081403E+01  1.230933969E+00  3.038180722E+01  3.324088106E+01  9.536743164E-07  0.00000E+00  9.000E+00
#rwgt            1           9   5.5952485824164414E-002           5     2373096           0
</event>
<event>
      6   9999 -3.45752E-01  3.40165E+01 -1.00000E+00  1.44393E-01
      21    -1     0     0   501   511  0.000000000E+00  0.000000000E+00  2.374654676E+01  2.374654676E+01  0.000000000E+00  0.00000E+00  9.000E+00
      21    -1     0     0   502   503  0.000000000E+00  0.000000000E+00 -8.258479107E+02  8.258479107E+02  0.000000000E+00  0.00000E+00  9.000E+00
      25     1     1     2     0     0  2.740632896E+01  3.795554022E+01 -5.494799356E+02  5.654601816E+02  1.250011499E+02  0.00000E+00  9.000E+00
       5     1     1     2   501     0 -1.743581103E+01  1.175902234E+01 -1.517574776E+02  1.532813642E+02  4.750000000E+00  0.00000E+00  9.000E+00
      -5     1     1     2     0   503  9.405594082E+00 -2.175590575E+01 -9.279583818E+01  9.589272506E+01  4.750000000E+00  0.00000E+00  9.000E+00
      21     1     1     2   502   511 -1.937611201E+01 -2.795865680E+01 -8.068112641E+00  3.496018662E+01  8.596304120E-07  0.00000E+00  9.000E+00
#rwgt            1           9 -0.30449245233356070                5     2375538           0
</event>
<event>
      6   9999  3.45752E-01  5.69056E+00 -1.00000E+00  2.17312E-01
      21    -1     0     0   501   502  0.000000000E+00  0.000000000E+00  9.317290917E+00  9.317290917E+00  0.000000000E+00  0.00000E+00  9.000E+00
      21    -1     0     0   502   512  0.000000000E+00  0.000000000E+00 -9.246956197E+02  9.246956197E+02  0.000000000E+00  0.00000E+00  9.000E+00
      25     1     1     2     0     0  2.500648117E+00  2.804758986E+00 -6.052356489E+02  6.180215868E+02  1.250054843E+02  0.00000E+00  9.000E+00
       5     1     1     2   501     0 -1.232695920E+00  3.769611501E-01  2.732533596E-01  4.929381943E+00  4.750000000E+00  0.00000E+00  9.000E+00
      -5     1     1     2     0   503 -5.315336232E+00 -7.181865902E+00 -8.908376087E+01  8.965662801E+01  4.750000000E+00  0.00000E+00  9.000E+00
      21     1     1     2   503   512  4.047384035E+00  4.000145766E+00 -2.213321724E+02  2.214053139E+02  2.697398305E-06  0.00000E+00  9.000E+00
#rwgt            1           9   1.8191392062577482E-004           5     2376614           0
</event>
<event>
      6   9999  3.45752E-01  1.70061E+01 -1.00000E+00  1.65779E-01
      21    -1     0     0   502   503  0.000000000E+00  0.000000000E+00  9.333487804E+02  9.333487804E+02  0.000000000E+00  0.00000E+00  9.000E+00
      21    -1     0     0   511   502  0.000000000E+00  0.000000000E+00 -2.084614542E+01  2.084614542E+01  0.000000000E+00  0.00000E+00  9.000E+00
      25     1     1     2     0     0  3.306775609E+01  1.131283574E+01  2.551288698E+02  2.862478848E+02  1.250026182E+02  0.00000E+00  9.000E+00
       5     1     1     2   501     0 -7.794072012E-03  8.566577762E-01  1.799362883E+02  1.800010118E+02  4.750000000E+00  0.00000E+00  9.000E+00
      -5     1     1     2     0   503 -4.674759803E+01 -2.077047635E+00  4.637141669E+02  4.660933846E+02  4.750000000E+00  0.00000E+00  9.000E+00
      21     1     1     2   511   501  1.368763602E+01 -1.009244589E+01  1.372331001E+01  2.185264472E+01  0.000000000E+00  0.00000E+00  9.000E+00
#rwgt            1           9  0.26686207834366421                5     2380165           0
</event>
<event>
      6   9999  3.45752E-01  9.31148E+01 -1.00000E+00  1.21767E-01
      21    -1     0     0   512   502  0.000000000E+00  0.000000000E+00  1.047166277E+03  1.047166277E+03  0.000000000E+00  0.00000E+00  9.000E+00
      21    -1     0     0   502   503  0.000000000E+00  0.000000000E+00 -3.440155673E+03  3.440155673E+03  0.000000000E+00  0.00000E+00  9.000E+00
      25     1     1     2     0     0  1.099558611E+03 -2.811741847E+02 -2.364456410E+03  2.625712734E+03  1.250007346E+02  0.00000E+00  9.000E+00
       5     1     1     2   501     0 -1.152444380E+03  2.133544464E+02  4.373347965E+02  1.250972604E+03  4.750000000E+00  0.00000E+00  9.000E+00
      -5     1     1     2     0   503  1.440949430E+02  4.907824358E+01 -4.910924194E+02  5.141656868E+02  4.750000000E+00  0.00000E+00  9.000E+00
      21     1     1     2   512   501 -9.120917419E+01  1.874149476E+01  2.522463645E+01  9.647092498E+01  1.507891493E-06  0.00000E+00  9.000E+00
#rwgt            1           9   1.2511370873719100E-004           5     2381941           0
</event>
<event>
      6   9999 -3.45752E-01  1.61431E+01 -1.00000E+00  1.67653E-01
      21    -1     0     0   511   502  0.000000000E+00  0.000000000E+00  7.395636301E+01  7.395636301E+01  0.000000000E+00  0.00000E+00  9.000E+00
      21    -1     0     0   502   503  0.000000000E+00  0.000000000E+00 -1.012128653E+03  1.012128653E+03  0.000000000E+00  0.00000E+00  9.000E+00
      25     1     1     2     0     0 -7.529349256E+01 -6.579042403E+00 -9.438177259E+02  9.550553479E+02  1.250056961E+02  0.00000E+00  9.000E+00
       5     1     1     2   501     0  3.433183125E+01 -8.755720067E-01 -2.463724049E+01  4.253230986E+01  4.750000000E+00  0.00000E+00  9.000E+00
      -5     1     1     2     0   503  2.729347789E+01 -1.135007137E+00 -2.096911380E+01  3.476331990E+01  4.750000000E+00  0.00000E+00  9.000E+00
      21     1     1     2   511   501  1.366818342E+01  8.589621547E+00  5.125179039E+01  5.373403814E+01  1.348699152E-06  0.00000E+00  9.000E+00
#rwgt            1           9  -1.1385894506924083E-002           5     2384501           0
</event>
<event>
      6   9999 -3.45752E-01  1.50314E+01 -1.00000E+00  1.70293E-01
      21    -1     0     0   501   502  0.000000000E+00  0.000000000E+00  7.071314731E+01  7.071314731E+01  0.000000000E+00  0.00000E+00  9.000E+00
      21    -1     0     0   502   512  0.000000000E+00  0.000000000E+00 -1.239957951E+03  1.239957951E+03  0.000000000E+00  0.00000E+00  9.000E+00
      25     1     1     2     0     0 -2.074197812E+01 -1.085149938E+01 -9.516123465E+02  9.600721476E+02  1.249979437E+02  0.00000E+00  9.000E+00
       5     1     1     2   501     0  1.713580901E+00  2.536665857E+00  6.483218278E+01  6.507799518E+01  4.750000000E+00  0.00000E+00  9.000E+00
      -5     1     1     2     0   503  7.757316399E+00  1.825997076E+01 -2.311942213E+02  2.320925095E+02  4.750000000E+00  0.00000E+00  9.000E+00
      21     1     1     2   503   512  1.127108082E+01 -9.945137239E+00 -5.127041903E+01  5.342844641E+01  9.536743164E-07  0.00000E+00  9.000E+00
#rwgt            1           9  -2.6290601319144871E-003           5     2386706           0
</event>
<event>
      6   9999  3.45752E-01  1.04055E+01 -1.00000E+00  1.85394E-01
      21    -1     0     0   501   502  0.000000000E+00  0.000000000E+00  8.196637975E+02  8.196637975E+02  0.000000000E+00  0.00000E+00  9.000E+00
      21    -1     0     0   511   503  0.000000000E+00  0.000000000E+00 -1.207258683E+02  1.207258683E+02  0.000000000E+00  0.00000E+00  9.000E+00
      25     1     1     2     0     0  4.936872884E+01 -1.949897744E+01  3.173681832E+02  3.452028479E+02  1.249998440E+02  0.00000E+00  9.000E+00
       5     1     1     2   501     0 -3.020768041E+01  2.999265085E+01  4.386925504E+02  4.407786058E+02  4.750000000E+00  0.00000E+00  9.000E+00
      -5     1     1     2     0   503 -1.408350846E+01 -1.957618298E+01  4.525710666E+01  5.150087721E+01  4.750000000E+00  0.00000E+00  9.000E+00
      21     1     1     2   511   502 -5.077539971E+00  9.082509583E+00 -1.023799110E+02  1.029073349E+02  3.015782986E-06  0.00000E+00  9.000E+00
#rwgt            1           9   6.3227521516355116                5     2390856           0
</event>
<event>
      6   9999  3.45752E-01  5.85586E+00 -1.00000E+00  2.15540E-01
      21    -1     0     0   512   502  0.000000000E+00  0.000000000E+00  1.426917834E+01  1.426917834E+01  0.000000000E+00  0.00000E+00  9.000E+00
      21    -1     0     0   502   503  0.000000000E+00  0.000000000E+00 -7.173252416E+02  7.173252416E+02  0.000000000E+00  0.00000E+00  9.000E+00
      25     1     1     2     0     0  4.870190126E+00 -9.266204663E+00 -6.633660046E+02  6.751218034E+02  1.250016480E+02  0.00000E+00  9.000E+00
       5     1     1     2   501     0 -7.467273672E+00  4.808482836E+00 -1.639604799E+01  1.924251993E+01  4.750000000E+00  0.00000E+00  9.000E+00
      -5     1     1     2     0   503 -1.217901459E+00  1.509478164E-02 -2.878669042E+01  2.920136225E+01  4.750000000E+00  0.00000E+00  9.000E+00
      21     1     1     2   512   501  3.814985005E+00  4.442627045E+00  5.492679745E+00  8.028734422E+00  5.127385418E-07  0.00000E+00  9.000E+00
#rwgt            1           9   2.7591466174564754E-003           5     2393793           0
</event>
<event>
      6   9999  3.45752E-01  3.23242E+01 -1.00000E+00  1.45772E-01
      21    -1     0     0   501   502  0.000000000E+00  0.000000000E+00  3.260441254E+01  3.260441254E+01  0.000000000E+00  0.00000E+00  9.000E+00
      21    -1     0     0   511   503  0.000000000E+00  0.000000000E+00 -1.865049469E+03  1.865049469E+03  0.000000000E+00  0.00000E+00  9.000E+00
      25     1     1     2     0     0 -1.162402632E+02  1.261727057E+02 -7.719847492E+02  8.006364251E+02  1.250075268E+02  0.00000E+00  9.000E+00
       5     1     1     2   501     0  1.339409553E+01 -5.164440428E+01 -6.293029437E+01  8.263976487E+01  4.750000000E+00  0.00000E+00  9.000E+00
      -5     1     1     2     0   503  7.145740214E+01 -6.680826596E+01 -2.896494737E+02  3.057595212E+02  4.750000000E+00  0.00000E+00  9.000E+00
      21     1     1     2   511   502  3.138876552E+01 -7.720035411E+00 -7.078805391E+02  7.086181702E+02  7.629394531E-06  0.00000E+00  9.000E+00
#rwgt            1           9   2.0810944854446883E-003           5     2396871           0
</event>
<event>
      6   9999  3.45752E-01  6.88325E+00 -1.00000E+00  2.06074E-01
      21    -1     0     0   512   502  0.000000000E+00  0.000000000E+00  5.443608559E+01  5.443608559E+01  0.000000000E+00  0.00000E+00  9.000E+00
      21    -1     0     0   502   503  0.000000000E+00  0.000000000E+00 -7.201506237E+02  7.201506237E+02  0.000000000E+00  0.00000E+00  9.000E+00
      25     1     1     2     0     0 -7.723099442E+00  4.640740519E+00 -6.937993957E+02  7.050297414E+02  1.250126072E+02  0.00000E+00  9.000E+00
       5     1     1     2   501     0  2.869135138E-01 -3.396145846E+00 -4.208933161E+00  7.203731278E+00  4.750000000E+00  0.00000E+00  9.000E+00
      -5     1     1     2     0   503  1.093076130E+00  1.428245461E+00 -1.434066051E+01  1.521353819E+01  4.750000000E+00  0.00000E+00  9.000E+00
      21     1     1     2   512   501  6.343109798E+00 -2.672840134E+00  4.663445133E+01  4.713969842E+01  2.023048729E-06  0.00000E+00  9.000E+00
#rwgt            1           9   1.1818807879462973E-004           5     2398403           0
</event>
<event>
      6   9999  3.45752E-01  1.89052E+01 -1.00000E+00  1.62099E-01
      21    -1     0     0   511   502  0.000000000E+00  0.000000000E+00  1.640023304E+01  1.640023304E+01  0.000000000E+00  0.00000E+00  9.000E+00
      21    -1     0     0   502   503  0.000000000E+00  0.000000000E+00 -4.714319679E+02  4.714319679E+02  0.000000000E+00  0.00000E+00  9.000E+00
      25     1     1     2     0     0 -6.306760961E+00  1.529512184E+01 -3.447073447E+02  3.670451813E+02  1.250011826E+02  0.00000E+00  9.000E+00
       5     1     1     2   501     0  1.706364216E+01 -7.664939015E+00 -5.235056397E+01  5.579483150E+01  4.750000000E+00  0.00000E+00  9.000E+00
      -5     1     1     2     0   503  7.661093162E+00 -3.365727799E+00 -1.272937071E+01  1.595681205E+01  4.750000000E+00  0.00000E+00  9.000E+00
      21     1     1     2   511   501 -1.841797436E+01 -4.264455026E+00 -4.524445545E+01  4.903537606E+01  6.743495762E-07  0.00000E+00  9.000E+00
#rwgt            1           9  0.89895052867785574                5     2401549           0
</event>
<event>
      6   9999  3.45752E-01  9.09281E+00 -1.00000E+00  1.91652E-01
      21    -1     0     0   512   502  0.000000000E+00  0.000000000E+00  3.757762939E+01  3.757762939E+01  0.000000000E+00  0.00000E+00  9.000E+00
      21    -1     0     0   502   503  0.000000000E+00  0.000000000E+00 -8.325602203E+02  8.325602203E+02  0.000000000E+00  0.00000E+00  9.000E+00
      25     1     1     2     0     0  1.329320387E+01  1.396902490E+00 -6.922358991E+02  7.035584358E+02  1.250010876E+02  0.00000E+00  9.000E+00
       5     1     1     2   501     0  4.031459752E+00 -1.804940495E+00  4.225169462E+00  7.741126204E+00  4.750000000E+00  0.00000E+00  9.000E+00
      -5     1     1     2     0   503 -8.248847006E+00  9.636556588E-01 -1.319294492E+02  1.322759017E+02  4.750000000E+00  0.00000E+00  9.000E+00
      21     1     1     2   512   501 -9.075816612E+00 -5.556176545E-01  2.495758790E+01  2.656238604E+01  1.617033478E-06  0.00000E+00  9.000E+00
#rwgt            1           9   3.3742882892160065E-004           5     2403761           0
</event>
<event>
      6   9999  3.45752E-01  3.51404E+01 -1.00000E+00  1.43528E-01
      -1    -1     0     0     0   502  0.000000000E+00  0.000000000E+00  6.986998678E+01  6.986998678E+01  0.000000000E+00  0.00000E+00  9.000E+00
       1    -1     0     0   511     0  0.000000000E+00  0.000000000E+00 -1.587505155E+03  1.587505155E+03  0.000000000E+00  0.00000E+00  9.000E+00
      25     1     1     2     0     0 -1.247866144E+02  2.724245126E+02 -5.495988941E+02  6.383348877E+02  1.250026809E+02  0.00000E+00  9.000E+00
       5     1     1     2   501     0 -8.834806918E+00 -7.253032383E+01 -1.631668681E+02  1.788426432E+02  4.750000000E+00  0.00000E+00  9.000E+00
      -5     1     1     2     0   502  1.096652894E+02 -1.741852433E+02 -6.933079007E+02  7.232325922E+02  4.750000000E+00  0.00000E+00  9.000E+00
      21     1     1     2   511   501  2.395613197E+01 -2.570894546E+01 -1.115615059E+02  1.169650192E+02  0.000000000E+00  0.00000E+00  9.000E+00
#rwgt            1           1   1.4013962757053645E-004           5     2406594           0
</event>
<event>
      6   9999  3.45752E-01  1.26795E+01 -1.00000E+00  1.76950E-01
      21    -1     0     0   501   502  0.000000000E+00  0.000000000E+00  1.740359628E+01  1.740359628E+01  0.000000000E+00  0.00000E+00  9.000E+00
      21    -1     0     0   502   512  0.000000000E+00  0.000000000E+00 -1.050709572E+03  1.050709572E+03  0.000000000E+00  0.00000E+00  9.000E+00
      25     1     1     2     0     0  3.071161663E+01  4.340014530E+00 -2.778753443E+02  3.062777052E+02  1.250171455E+02  0.00000E+00  9.000E+00
       5     1     1     2   501     0  1.050164552E-02 -6.750414219E-02 -7.383580674E-01  4.807529483E+00  4.750000000E+00  0.00000E+00  9.000E+00
      -5     1     1     2     0   503 -4.270300761E+01 -8.423077699E+00 -6.655205726E+02  6.669592868E+02  4.750000000E+00  0.00000E+00  9.000E+00
      21     1     1     2   503   512  1.198088934E+01  4.150567311E+00 -8.917170079E+01  9.006864682E+01  9.536743164E-07  0.00000E+00  9.000E+00
#rwgt            1           9   1.8126949406499799E-004           5     2407321           0
</event>
<event>
      6   9999  3.45752E-01  1.48255E+01 -1.00000E+00  1.70813E-01
      21    -1     0     0   501   502  0.000000000E+00  0.000000000E+00  4.888572302E+02  4.888572302E+02  0.000000000E+00  0.00000E+00  9.000E+00
      21    -1     0     0   502   511  0.000000000E+00  0.000000000E+00 -3.803983977E+02  3.803983977E+02  0.000000000E+00  0.00000E+00  9.000E+00
      25     1     1     2     0     0  2.292724223E+00 -5.475975767E+00  3.434079061E+02  3.654992727E+02  1.250019419E+02  0.00000E+00  9.000E+00
       5     1     1     2   501     0  2.261062465E+00  1.625329372E+01  1.155832059E+02  1.168388717E+02  4.750000000E+00  0.00000E+00  9.000E+00
      -5     1     1     2     0   503  4.393039081E-02  3.317279541E+00  1.757827710E+01  1.850850073E+01  4.750000000E+00  0.00000E+00  9.000E+00
      21     1     1     2   503   511 -4.597717078E+00 -1.409459749E+01 -3.681105566E+02  3.684089827E+02  0.000000000E+00  0.00000E+00  9.000E+00
#rwgt            1           9  0.54377099953790897                5     2409913           0
</event>
<event>
      6   9999  3.45752E-01  3.54812E+00 -1.00000E+00  2.59143E-01
      21    -1     0     0   512   502  0.000000000E+00  0.000000000E+00  2.254759143E+01  2.254759143E+01  0.000000000E+00  0.00000E+00  9.000E+00
      21    -1     0     0   502   503  0.000000000E+00  0.000000000E+00 -1.287037053E+03  1.287037053E+03  0.000000000E+00  0.00000E+00  9.000E+00
      25     1     1     2     0     0  4.774489526E+00  1.737695503E-02 -1.261605474E+03  1.267792530E+03  1.250069236E+02  0.00000E+00  9.000E+00
       5     1     1     2   501     0 -7.215160666E-01  1.393001463E+00  6.780214282E-01  5.048093855E+00  4.750000000E+00  0.00000E+00  9.000E+00
      -5     1     1     2     0   503 -5.342018410E-01 -1.865767753E+00 -1.962968912E+01  2.028924976E+01  4.750000000E+00  0.00000E+00  9.000E+00
      21     1     1     2   512   501 -3.518771618E+00  4.553893354E-01  1.606768022E+01  1.645477076E+01  5.331201500E-07  0.00000E+00  9.000E+00
#rwgt            1           9   4.5514309856488105E-002           5     2411261           0
</event>
<event>
      6   9999  3.45752E-01  1.99280E+01 -1.00000E+00  1.60330E-01
      21    -1     0     0   501   502  0.000000000E+00  0.000000000E+00  7.538056960E+01  7.538056960E+01  0.000000000E+00  0.00000E+00  9.000E+00
      21    -1     0     0   502   511  0.000000000E+00  0.000000000E+00 -4.820098948E+02  4.820098948E+02  0.000000000E+00  0.00000E+00  9.000E+00
      25     1     1     2     0     0  1.090060892E+02  2.136035725E+01 -2.157366390E+02  2.729583854E+02  1.250015618E+02  0.00000E+00  9.000E+00
       5     1     1     2   501     0  3.578867805E-01  1.455429955E+00  3.320960342E+01  3.358104553E+01  4.750000000E+00  0.00000E+00  9.000E+00
      -5     1     1     2     0   503 -8.967863881E+01 -1.971508906E+01 -1.713298996E+02  1.944413536E+02  4.750000000E+00  0.00000E+00  9.000E+00
      21     1     1     2   503   511 -1.968533713E+01 -3.100698141E+00 -5.277239009E+01  5.640967986E+01  6.743495762E-07  0.00000E+00  9.000E+00
#rwgt            1           9  0.73338057459672990                5     2416649           0
</event>
<event>
      6   9999  3.45752E-01  1.71469E+01 -1.00000E+00  1.65486E-01
      21    -1     0     0   502   512  0.000000000E+00  0.000000000E+00  1.597185493E+01  1.597185493E+01  0.000000000E+00  0.00000E+00  9.000E+00
      21    -1     0     0   501   502  0.000000000E+00  0.000000000E+00 -3.245320684E+03  3.245320684E+03  0.000000000E+00  0.00000E+00  9.000E+00
      25     1     1     2     0     0  4.962040504E+01 -7.435738542E+01 -8.570479459E+02  8.707161282E+02  1.249967564E+02  0.00000E+00  9.000E+00
       5     1     1     2   501     0  7.228764928E+01  7.693798879E+01 -1.769151423E+03  1.772304793E+03  4.750000000E+00  0.00000E+00  9.000E+00
      -5     1     1     2     0   503 -1.085240644E+02 -1.329908220E+01 -5.749128649E+02  5.852364504E+02  4.750000000E+00  0.00000E+00  9.000E+00
      21     1     1     2   503   512 -1.338398989E+01  1.071847884E+01 -2.823659469E+01  3.303516693E+01  1.011524364E-06  0.00000E+00  9.000E+00
#rwgt            1           9   1.4109341559888620E-003           5     2418850           0
</event>
<event>
      6   9999  3.45752E-01  8.63211E+01 -1.00000E+00  1.23214E-01
      21    -1     0     0   501   511  0.000000000E+00  0.000000000E+00  4.288617951E+01  4.288617951E+01  0.000000000E+00  0.00000E+00  9.000E+00
      -1    -1     0     0     0   502  0.000000000E+00  0.000000000E+00 -6.088607539E+02  6.088607539E+02  0.000000000E+00  0.00000E+00  9.000E+00
      25     1     1     2     0     0 -6.273414700E+01  4.493800710E+01 -1.675594625E+02  2.228431754E+02  1.250116381E+02  0.00000E+00  9.000E+00
       5     1     1     2   501     0 -9.175681858E+00  4.085790090E+00  3.531968968E+00  1.165865014E+01  4.750000000E+00  0.00000E+00  9.000E+00
      -5     1     1     2     0   502 -5.361459918E+00 -1.054677152E+01 -1.086828430E+01  1.675296230E+01  4.750000000E+00  0.00000E+00  9.000E+00
      -1     1     1     2     0   511  7.727128878E+01 -3.847702566E+01 -3.910787965E+02  4.004921456E+02  5.394796609E-06  0.00000E+00  9.000E+00
#rwgt            1           2   1.1984991667264640E-004           5     2421208           0
</event>
<event>
      6   9999  3.45752E-01  6.75676E+00 -1.00000E+00  2.07116E-01
      21    -1     0     0   501   502  0.000000000E+00  0.000000000E+00  6.857683417E+00  6.857683417E+00  0.000000000E+00  0.00000E+00  9.000E+00
      21    -1     0     0   502   512  0.000000000E+00  0.000000000E+00 -8.544195949E+02  8.544195949E+02  0.000000000E+00  0.00000E+00  9.000E+00
      25     1     1     2     0     0 -2.542229086E-01  6.495754795E+00 -6.934362571E+02  7.046418777E+02  1.249962946E+02  0.00000E+00  9.000E+00
       5     1     1     2   501     0  8.628778443E-02  6.399620009E-01 -6.458316335E+00  8.042968782E+00  4.750000000E+00  0.00000E+00  9.000E+00
      -5     1     1     2     0   503 -1.476951156E+00 -5.822301539E-01 -1.631448446E+01  1.706590988E+01  4.750000000E+00  0.00000E+00  9.000E+00
      21     1     1     2   503   512  1.644886280E+00 -6.553486642E+00 -1.313528536E+02  1.315265220E+02  0.000000000E+00  0.00000E+00  9.000E+00
#rwgt            1           9   7.7449911860623000E-002           5     2421605           0
</event>
<event>
      6   9999  3.45752E-01  4.72312E+00 -1.00000E+00  2.33802E-01
      21    -1     0     0   501   502  0.000000000E+00  0.000000000E+00  9.824025544E+00  9.824025544E+00  0.000000000E+00  0.00000E+00  9.000E+00
      21    -1     0     0   511   503  0.000000000E+00  0.000000000E+00 -1.523248227E+03  1.523248227E+03  0.000000000E+00  0.00000E+00  9.000E+00
      25     1     1     2     0     0 -3.503543769E+00 -8.743749312E+00 -9.442870908E+02  9.525718867E+02  1.250054458E+02  0.00000E+00  9.000E+00
       5     1     1     2   501     0  3.480870475E+00 -1.501910511E+00  3.941241998E+00  7.243485551E+00  4.750000000E+00  0.00000E+00  9.000E+00
      -5     1     1     2     0   503  1.216293294E+00  5.675850978E+00 -1.879961537E+02  1.881457174E+02  4.750000000E+00  0.00000E+00  9.000E+00
      21     1     1     2   511   502 -1.193620001E+00  4.569808845E+00 -3.850821989E+02  3.851111629E+02  5.394796609E-06  0.00000E+00  9.000E+00
#rwgt            1           9   2.7639866861442751E-004           5     2424393           0
</event>
<event>
      6   9999  3.45752E-01  1.30750E+01 -1.00000E+00  1.75708E-01
      21    -1     0     0   501   512  0.000000000E+00  0.000000000E+00  4.802748278E+01  4.802748278E+01  0.000000000E+00  0.00000E+00  9.000E+00
      21    -1     0     0   502   503  0.000000000E+00  0.000000000E+00 -1.975160205E+03  1.975160205E+03  0.000000000E+00  0.00000E+00  9.000E+00
      25     1     1     2     0     0 -6.048202030E+00 -3.135485347E+01 -1.752292590E+03  1.757035664E+03  1.250011856E+02  0.00000E+00  9.000E+00
       5     1     1     2   501     0  4.147550901E+00 -3.049025660E+00  1.183105162E+01  1.374900063E+01  4.750000000E+00  0.00000E+00  9.000E+00
      -5     1     1     2     0   503 -5.152926728E-01  2.155397112E+01 -2.176558169E+02  2.187726133E+02  4.750000000E+00  0.00000E+00  9.000E+00
      21     1     1     2   502   512  2.415943802E+00  1.284990801E+01  3.098463347E+01  3.363040933E+01  2.311553887E-06  0.00000E+00  9.000E+00
#rwgt            1           9   3.0945430487433687                5     2429004           0
</event>
<event>
      6   9999 -3.45752E-01  1.32425E+01 -1.00000E+00  1.75199E-01
      21    -1     0     0   501   502  0.000000000E+00  0.000000000E+00  1.521622958E+01  1.521622958E+01  0.000000000E+00  0.00000E+00  9.000E+00
       2    -1     0     0   502     0  0.000000000E+00  0.000000000E+00 -1.520763870E+03  1.520763870E+03  0.000000000E+00  0.00000E+00  9.000E+00
      25     1     1     2     0     0 -4.268811037E+01 -1.167182297E+01 -1.071591811E+03  1.079765140E+03  1.250009682E+02  0.00000E+00  9.000E+00
       5     1     1     2   501     0  2.072955263E+00 -2.529810448E+00  4.158245858E+00  7.109894025E+00  4.750000000E+00  0.00000E+00  9.000E+00
      -5     1     1     2     0   503  3.974137385E+01  9.880084524E-01 -6.915377587E+01  7.990719726E+01  4.750000000E+00  0.00000E+00  9.000E+00
       2     1     1     2   503     0  8.737812565E-01  1.321362497E+01 -3.689602996E+02  3.691978684E+02  0.000000000E+00  0.00000E+00  9.000E+00
#rwgt            1           9  -6.3841913756296697E-004           5     2431786           0
</event>
<event>
      6   9999  3.45752E-01  1.65869E+01 -1.00000E+00  1.66671E-01
      21    -1     0     0   501   502  0.000000000E+00  0.000000000E+00  1.566100468E+01  1.566100468E+01  0.000000000E+00  0.00000E+00  9.000E+00
      21    -1     0     0   502   511  0.000000000E+00  0.000000000E+00 -9.821473976E+02  9.821473976E+02  0.000000000E+00  0.00000E+00  9.000E+00
      25     1     1     2     0     0  2.779522301E+01  4.102403523E+00 -8.529042769E+02  8.624732575E+02  1.250000409E+02  0.00000E+00  9.000E+00
       5     1     1     2   501     0  3.779870414E+00  6.939204492E-01  6.763873147E+00  9.114901310E+00  4.750000000E+00  0.00000E+00  9.000E+00
      -5     1     1     2     0   503 -1.499010556E+01 -4.542884855E+00 -2.830605737E+01  3.269765208E+01  4.750000000E+00  0.00000E+00  9.000E+00
      21     1     1     2   503   511 -1.658498787E+01 -2.534391171E-01 -9.203993181E+01  9.352259140E+01  1.907348633E-06  0.00000E+00  9.000E+00
#rwgt            1           9   1.0113848832931147E-005           5     2434169           0
</event>
<event>
      6   9999 -3.45752E-01  2.88217E+01 -1.00000E+00  1.48973E-01
      21    -1     0     0   501   502  0.000000000E+00  0.000000000E+00  1.087427053E+01  1.087427053E+01  0.000000000E+00  0.00000E+00  9.000E+00
      21    -1     0     0   512   503  0.000000000E+00  0.000000000E+00 -2.930982408E+03  2.930982408E+03  0.000000000E+00  0.00000E+00  9.000E+00
      25     1     1     2     0     0  1.066623530E+02 -3.712912518E+01 -2.216851414E+03  2.223243374E+03  1.250019128E+02  0.00000E+00  9.000E+00
       5     1     1     2   501     0  3.632807418E+00 -2.608566830E+00 -2.970542917E+00  7.168579766E+00  4.750000000E+00  0.00000E+00  9.000E+00
      -5     1     1     2     0   503 -9.217184067E+01  1.732711646E+01 -4.640026836E+02  4.734098964E+02  4.750000000E+00  0.00000E+00  9.000E+00
      21     1     1     2   512   502 -1.812331977E+01  2.241057555E+01 -2.362834971E+02  2.380348286E+02  2.697398305E-06  0.00000E+00  9.000E+00
#rwgt            1           9  -2.6693016589830775E-003           5     2436162           0
</event>
<event>
      6   9999  3.45752E-01  3.70389E+00 -1.00000E+00  2.54972E-01
      21    -1     0     0   501   502  0.000000000E+00  0.000000000E+00  1.321912578E+02  1.321912578E+02  0.000000000E+00  0.00000E+00  9.000E+00
      21    -1     0     0   511   503  0.000000000E+00  0.000000000E+00 -2.098338787E+02  2.098338787E+02  0.000000000E+00  0.00000E+00  9.000E+00
      25     1     1     2     0     0 -7.736810833E+00 -7.881779871E+00 -1.683284725E+02  2.099582787E+02  1.250040937E+02  0.00000E+00  9.000E+00
       5     1     1     2   501     0  6.106424356E+00  1.324130386E-01  1.098122478E+02  1.100845049E+02  4.750000000E+00  0.00000E+00  9.000E+00
      -5     1     1     2     0   503 -1.793370435E-01  4.517691210E+00 -8.544228893E+00  1.077070300E+01  4.750000000E+00  0.00000E+00  9.000E+00
      21     1     1     2   511   502  1.809723520E+00  3.231675623E+00 -1.058216742E+01  1.121164991E+01  1.192092896E-07  0.00000E+00  9.000E+00
#rwgt            1           9   3.9419898987692214E-005           5     2437603           0
</event>
<event>
      6   9999  3.45752E-01  6.44002E+00 -1.00000E+00  2.09864E-01
      21    -1     0     0   501   502  0.000000000E+00  0.000000000E+00  2.701742985E+01  2.701742985E+01  0.000000000E+00  0.00000E+00  9.000E+00
      21    -1     0     0   512   503  0.000000000E+00  0.000000000E+00 -1.150340476E+03  1.150340476E+03  0.000000000E+00  0.00000E+00  9.000E+00
      25     1     1     2     0     0  6.487551895E+01  5.552900310E+01 -8.153387289E+02  8.292749465E+02  1.250095631E+02  0.00000E+00  9.000E+00
       5     1     1     2   501     0  4.084888571E+00 -1.539815457E+00  1.243034216E+01  1.400475821E+01  4.750000000E+00  0.00000E+00  9.000E+00
      -5     1     1     2     0   503 -6.533190184E+01 -4.866868490E+01 -2.417823404E+02  2.551826031E+02  4.750000000E+00  0.00000E+00  9.000E+00
      21     1     1     2   512   502 -3.628505682E+00 -5.320502739E+00 -7.863231882E+01  7.889559789E+01  1.348699152E-06  0.00000E+00  9.000E+00
#rwgt            1           9   3.3601631492781725E-003           5     2443621           0
</event>
<event>
      6   9999 -3.45752E-01  3.65341E+00 -1.00000E+00  2.56289E-01
      21    -1     0     0   501   511  0.000000000E+00  0.000000000E+00  1.460057223E+01  1.460057223E+01  0.000000000E+00  0.00000E+00  9.000E+00
      21    -1     0     0   502   503  0.000000000E+00  0.000000000E+00 -1.263969271E+03  1.263969271E+03  0.000000000E+00  0.00000E+00  9.000E+00
      25     1     1     2     0     0  1.449354844E-01  1.946240803E+00 -1.228415123E+03  1.234760419E+03  1.250030772E+02  0.00000E+00  9.000E+00
       5     1     1     2   501     0  3.474332300E+00  8.586703122E-01  3.285616113E+00  6.794562008E+00  4.750000000E+00  0.00000E+00  9.000E+00
      -5     1     1     2     0   503 -8.375695973E-02 -1.884257313E+00 -2.986923505E+01  3.030331901E+01  4.750000000E+00  0.00000E+00  9.000E+00
      21     1     1     2   502   511 -3.535510824E+00 -9.206538029E-01  5.630042541E+00  6.711543729E+00  5.092623082E-07  0.00000E+00  9.000E+00
#rwgt            1           9 -0.46258178878915379                5     2448156           0
</event>
<event>
      6   9999  3.45752E-01  4.18411E+00 -1.00000E+00  2.43873E-01
      21    -1     0     0   501   502  0.000000000E+00  0.000000000E+00  3.717344170E+03  3.717344170E+03  0.000000000E+00  0.00000E+00  9.000E+00
      21    -1     0     0   512   503  0.000000000E+00  0.000000000E+00 -2.218628227E+00  2.218628227E+00  0.000000000E+00  0.00000E+00  9.000E+00
      25     1     1     2     0     0  2.576938165E+00  2.919056372E+01  2.574109908E+03  2.577309788E+03  1.250007807E+02  0.00000E+00  9.000E+00
       5     1     1     2   501     0 -3.444111126E-01 -3.270441446E-01  5.084862828E+02  5.085086901E+02  4.750000000E+00  0.00000E+00  9.000E+00
      -5     1     1     2     0   503  1.005616380E+00 -3.151327572E+01  6.098020608E+02  6.106350904E+02  4.750000000E+00  0.00000E+00  9.000E+00
      21     1     1     2   512   502 -3.238143432E+00  2.649756142E+00  2.272729010E+01  2.310922967E+01  8.920806376E-07  0.00000E+00  9.000E+00
#rwgt            1           9   1.6424962016345478E-005           5     2454029           0
</event>
<event>
      6   9999  3.45752E-01  5.53438E+00 -1.00000E+00  2.19064E-01
      21    -1     0     0   501   502  0.000000000E+00  0.000000000E+00  2.341207511E+00  2.341207511E+00  0.000000000E+00  0.00000E+00  9.000E+00
      21    -1     0     0   502   511  0.000000000E+00  0.000000000E+00 -2.788654453E+03  2.788654453E+03  0.000000000E+00  0.00000E+00  9.000E+00
      25     1     1     2     0     0  2.987533014E+00 -4.361750354E+00 -2.501033865E+03  2.504161622E+03  1.250083424E+02  0.00000E+00  9.000E+00
       5     1     1     2   501     0  1.744355326E+00  3.802931795E-02 -8.900919588E+00  1.023880321E+01  4.750000000E+00  0.00000E+00  9.000E+00
      -5     1     1     2     0   503 -8.372184972E-02  1.319747511E+00 -9.032223869E+01  9.045671918E+01  4.750000000E+00  0.00000E+00  9.000E+00
      21     1     1     2   503   511 -4.648166490E+00  3.003973525E+00 -1.860562226E+02  1.861385164E+02  0.000000000E+00  0.00000E+00  9.000E+00
#rwgt            1           9   1.1644522728652562E-004           5     2458804           0
</event>
<event>
      6   9999  3.45752E-01  1.22251E+01 -1.00000E+00  1.78448E-01
      21    -1     0     0   512   502  0.000000000E+00  0.000000000E+00  6.892275306E+00  6.892275306E+00  0.000000000E+00  0.00000E+00  9.000E+00
      21    -1     0     0   502   503  0.000000000E+00  0.000000000E+00 -4.540537879E+03  4.540537879E+03  0.000000000E+00  0.00000E+00  9.000E+00
      25     1     1     2     0     0  1.862365750E+01 -2.974095430E+01 -2.494949710E+03  2.498325215E+03  1.249938291E+02  0.00000E+00  9.000E+00
       5     1     1     2   501     0  1.683488538E+00 -4.606350497E-01 -4.039562566E+00  6.475097222E+00  4.750000000E+00  0.00000E+00  9.000E+00
      -5     1     1     2     0   503 -8.249679921E+00  2.818398983E+01 -2.028898664E+03  2.029116741E+03  4.750000000E+00  0.00000E+00  9.000E+00
      21     1     1     2   512   501 -1.205746612E+01  2.017599516E+00 -5.757666881E+00  1.351310197E+01  8.920806376E-07  0.00000E+00  9.000E+00
#rwgt            1           9   3.1923388771932043E-002           5     2462251           0
</event>
<event>
      6   9999  3.45752E-01  1.85157E+01 -1.00000E+00  1.62809E-01
      21    -1     0     0   501   502  0.000000000E+00  0.000000000E+00  1.109914486E+01  1.109914486E+01  0.000000000E+00  0.00000E+00  9.000E+00
      21    -1     0     0   511   503  0.000000000E+00  0.000000000E+00 -9.233895204E+02  9.233895204E+02  0.000000000E+00  0.00000E+00  9.000E+00
      25     1     1     2     0     0  2.703705150E+01  3.925038959E+01 -4.994974319E+02  5.171011437E+02  1.249972526E+02  0.00000E+00  9.000E+00
       5     1     1     2   501     0  4.887677481E-01  4.522180208E-01 -9.278626600E+00  1.044503742E+01  4.750000000E+00  0.00000E+00  9.000E+00
      -5     1     1     2     0   503 -1.073878711E+01 -3.189072576E+01 -2.781071425E+02  2.801758111E+02  4.750000000E+00  0.00000E+00  9.000E+00
      21     1     1     2   511   502 -1.678703214E+01 -7.811881843E+00 -1.254071746E+02  1.267666730E+02  1.348699152E-06  0.00000E+00  9.000E+00
#rwgt            1           9   1.2261679443099920E-003           5     2464278           0
</event>
<event>
      6   9999  3.45752E-01  9.36214E+00 -1.00000E+00  1.90260E-01
      21    -1     0     0   502   512  0.000000000E+00  0.000000000E+00  5.954709534E+02  5.954709534E+02  0.000000000E+00  0.00000E+00  9.000E+00
      21    -1     0     0   501   502  0.000000000E+00  0.000000000E+00 -9.953972098E+00  9.953972098E+00  0.000000000E+00  0.00000E+00  9.000E+00
      25     1     1     2     0     0 -2.927784888E+00  7.291536363E+00  4.461956805E+02  4.634371061E+02  1.249865095E+02  0.00000E+00  9.000E+00
       5     1     1     2   501     0  5.275196446E-01  2.291675820E-01  8.054440003E+00  9.368420278E+00  4.750000000E+00  0.00000E+00  9.000E+00
      -5     1     1     2     0   503  2.208359984E-02  1.534349537E+00  1.215344159E+01  1.313862088E+01  4.750000000E+00  0.00000E+00  9.000E+00
      21     1     1     2   503   512  2.378181644E+00 -9.055053482E+00  1.191134192E+02  1.194807783E+02  0.000000000E+00  0.00000E+00  9.000E+00
#rwgt            1           9   4.4389575846163322E-003           5     2465954           0
</event>
<event>
      6   9999  3.45752E-01  4.60275E+00 -1.00000E+00  2.35874E-01
      21    -1     0     0   501   502  0.000000000E+00  0.000000000E+00  7.704808583E+00  7.704808583E+00  0.000000000E+00  0.00000E+00  9.000E+00
      21    -1     0     0   511   503  0.000000000E+00  0.000000000E+00 -9.732300077E+02  9.732300077E+02  0.000000000E+00  0.00000E+00  9.000E+00
      25     1     1     2     0     0 -3.836736380E+00  7.905287497E+00 -6.496490821E+02  6.616240865E+02  1.250011515E+02  0.00000E+00  9.000E+00
       5     1     1     2   501     0 -5.983169882E-01 -1.273145222E-01 -2.432092262E+00  5.371383898E+00  4.750000000E+00  0.00000E+00  9.000E+00
      -5     1     1     2     0   503  1.932906673E-01 -5.991137307E+00 -6.436494438E+01  6.481774181E+01  4.750000000E+00  0.00000E+00  9.000E+00
      21     1     1     2   511   502  4.241762701E+00 -1.786835668E+00 -2.490790804E+02  2.491216041E+02  2.697398305E-06  0.00000E+00  9.000E+00
#rwgt            1           9   4.4926954796853780E-005           5     2468118           0
</event>
<event>
      6   9999  3.45752E-01  1.26807E+02 -1.00000E+00  1.16209E-01
      21    -1     0     0   512   502  0.000000000E+00  0.000000000E+00  1.285851288E+02  1.285851288E+02  0.000000000E+00  0.00000E+00  9.000E+00
       2    -1     0     0   501     0  0.000000000E+00  0.000000000E+00 -1.463839444E+03  1.463839444E+03  0.000000000E+00  0.00000E+00  9.000E+00
      25     1     1     2     0     0 -3.479980442E+01 -1.051777094E+02 -1.316094387E+03  1.326650823E+03  1.249983759E+02  0.00000E+00  9.000E+00
       5     1     1     2   501     0  2.163860267E+01  1.190176006E+01  3.640697298E+01  4.424829035E+01  4.750000000E+00  0.00000E+00  9.000E+00
      -5     1     1     2     0   502  3.900853146E+01 -3.086881971E+01 -7.811328519E+01  9.272970063E+01  4.750000000E+00  0.00000E+00  9.000E+00
       2     1     1     2   512     0 -2.584732971E+01  1.241447691E+02  2.254638360E+01  1.287957591E+02  2.939421655E-06  0.00000E+00  9.000E+00
#rwgt            1           3   6.6866515439054225E-002           5     2471937           0
</event>
<event>
      6   9999  3.45752E-01  2.43660E+01 -1.00000E+00  1.53929E-01
      21    -1     0     0   511   502  0.000000000E+00  0.000000000E+00  4.971905127E+01  4.971905127E+01  0.000000000E+00  0.00000E+00  9.000E+00
      21    -1     0     0   502   503  0.000000000E+00  0.000000000E+00 -2.922512895E+03  2.922512895E+03  0.000000000E+00  0.00000E+00  9.000E+00
      25     1     1     2     0     0 -2.977570862E+01  8.894018577E+01 -2.667452290E+02  3.091526259E+02  1.250015176E+02  0.00000E+00  9.000E+00
       5     1     1     2   501     0  1.382799502E+01 -4.290576378E+00  1.816323973E+01  2.370840082E+01  4.750000000E+00  0.00000E+00  9.000E+00
      -5     1     1     2     0   503  4.026286682E+01 -8.622262645E+01 -2.608801340E+03  2.610540640E+03  4.750000000E+00  0.00000E+00  9.000E+00
      21     1     1     2   511   501 -2.431515322E+01  1.573017060E+00 -1.541051445E+01  2.883027947E+01  8.920806376E-07  0.00000E+00  9.000E+00
#rwgt            1           9   5.2581359059844903E-004           5     2472993           0
</event>
<event>
      6   9999  3.45752E-01  9.16094E+00 -1.00000E+00  1.91294E-01
      21    -1     0     0   501   512  0.000000000E+00  0.000000000E+00  3.579237676E+02  3.579237676E+02  0.000000000E+00  0.00000E+00  9.000E+00
      21    -1     0     0   502   503  0.000000000E+00  0.000000000E+00 -9.795855002E+02  9.795855002E+02  0.000000000E+00  0.00000E+00  9.000E+00
      25     1     1     2     0     0 -1.884375509E+01 -4.913591078E+01 -7.912484338E+02  8.027879501E+02  1.249999357E+02  0.00000E+00  9.000E+00
       5     1     1     2   501     0  2.091078996E+00 -2.497514104E+00  8.716296966E+00  1.044732123E+01  4.750000000E+00  0.00000E+00  9.000E+00
      -5     1     1     2     0   503  1.694297431E+01  4.247446454E+01 -1.787308293E+02  1.845492247E+02  4.750000000E+00  0.00000E+00  9.000E+00
      21     1     1     2   502   512 -1.902982138E-01  9.158960342E+00  3.396012335E+02  3.397247718E+02  5.394796609E-06  0.00000E+00  9.000E+00
#rwgt            1           9   1.1892495264083367E-002           5     2476000           0
</event>
<event>
      6   9999  3.45752E-01  3.91449E+00 -1.00000E+00  2.49809E-01
      21    -1     0     0   501   511  0.000000000E+00  0.000000000E+00  4.355557409E+01  4.355557409E+01  0.000000000E+00  0.00000E+00  9.000E+00
      21    -1     0     0   502   503  0.000000000E+00  0.000000000E+00 -1.264200109E+03  1.264200109E+03  0.000000000E+00  0.00000E+00  9.000E+00
      25     1     1     2     0     0 -1.094617624E+01  1.511550970E+01 -1.065786041E+03  1.073253922E+03  1.250031938E+02  0.00000E+00  9.000E+00
       5     1     1     2   501     0  5.626232284E+00 -7.226595870E+00  3.780242276E+01  3.918499514E+01  4.750000000E+00  0.00000E+00  9.000E+00
      -5     1     1     2     0   503  4.644706951E+00 -4.033105349E+00 -1.908422429E+02  1.910004278E+02  4.750000000E+00  0.00000E+00  9.000E+00
      21     1     1     2   502   511  6.752370019E-01 -3.855808480E+00 -1.818674405E+00  4.316338799E+00  7.598131170E-08  0.00000E+00  9.000E+00
#rwgt            1           9   2.1071334324247038E-004           5     2479082           0
</event>
<event>
      6   9999  3.45752E-01  1.05648E+01 -1.00000E+00  1.84715E-01
      21    -1     0     0   501   512  0.000000000E+00  0.000000000E+00  7.413837380E+01  7.413837380E+01  0.000000000E+00  0.00000E+00  9.000E+00
      21    -1     0     0   502   503  0.000000000E+00  0.000000000E+00 -1.255677895E+03  1.255677895E+03  0.000000000E+00  0.00000E+00  9.000E+00
      25     1     1     2     0     0  3.063878027E+01  1.446022457E+02 -3.888602511E+02  4.343794336E+02  1.249986127E+02  0.00000E+00  9.000E+00
       5     1     1     2   501     0  2.303305330E+00 -4.075641518E-01  1.190551908E+01  1.302978160E+01  4.750000000E+00  0.00000E+00  9.000E+00
      -5     1     1     2     0   503 -2.249706428E+01 -1.457812877E+02 -8.361738675E+02  8.490981103E+02  4.750000000E+00  0.00000E+00  9.000E+00
      21     1     1     2   502   512 -1.044502132E+01  1.586606186E+00  3.158907863E+01  3.330894292E+01  1.118282261E-06  0.00000E+00  9.000E+00
#rwgt            1           9   8.6646314310211015E-003           5     2485886           0
</event>
<event>
      6   9999  3.45752E-01  2.81990E+00 -1.00000E+00  2.84138E-01
      21    -1     0     0   511   502  0.000000000E+00  0.000000000E+00  1.970393421E+02  1.970393421E+02  0.000000000E+00  0.00000E+00  9.000E+00
      21    -1     0     0   502   503  0.000000000E+00  0.000000000E+00 -8.014727050E+02  8.014727050E+02  0.000000000E+00  0.00000E+00  9.000E+00
      25     1     1     2     0     0 -3.864226093E+01  3.332890027E+00 -3.368703749E+02  3.614016760E+02  1.250007577E+02  0.00000E+00  9.000E+00
       5     1     1     2   501     0 -1.403009644E-01 -3.444268646E-01 -2.733851361E+00  5.493155513E+00  4.750000000E+00  0.00000E+00  9.000E+00
      -5     1     1     2     0   503  4.068581460E+01 -9.077302302E-01 -4.472759375E+02  4.491486238E+02  4.750000000E+00  0.00000E+00  9.000E+00
      21     1     1     2   511   501 -1.903252708E+00 -2.080732933E+00  1.824468009E+02  1.824685917E+02  2.697398305E-06  0.00000E+00  9.000E+00
#rwgt            1           9   7.0998860823278406E-004           5     2490032           0
</event>
<event>
      6   9999  3.45752E-01  1.82641E+01 -1.00000E+00  1.63280E-01
      21    -1     0     0   501   502  0.000000000E+00  0.000000000E+00  5.973202547E+00  5.973202547E+00  0.000000000E+00  0.00000E+00  9.000E+00
      21    -1     0     0   512   503  0.000000000E+00  0.000000000E+00 -1.943704106E+03  1.943704106E+03  0.000000000E+00  0.00000E+00  9.000E+00
      25     1     1     2     0     0 -4.765160963E-01  1.917698798E+01 -1.376096192E+03  1.381894925E+03  1.249994745E+02  0.00000E+00  9.000E+00
       5     1     1     2   501     0 -2.602278912E+00  3.471009028E+00 -1.423051566E+00  6.588424316E+00  4.750000000E+00  0.00000E+00  9.000E+00
      -5     1     1     2     0   503  1.419038745E+00 -4.459494413E+00 -3.801317551E+02  3.801902346E+02  4.750000000E+00  0.00000E+00  9.000E+00
      21     1     1     2   512   502  1.659756263E+00 -1.818850259E+01 -1.800799047E+02  1.810037250E+02  3.814697266E-06  0.00000E+00  9.000E+00
#rwgt            1           9   5.4540588093463724E-003           5     2496586           0
</event>
<event>
      6   9999  3.45752E-01  6.19200E+00 -1.00000E+00  2.12170E-01
      21    -1     0     0   501   511  0.000000000E+00  0.000000000E+00  7.718397448E+01  7.718397448E+01  0.000000000E+00  0.00000E+00  9.000E+00
      21    -1     0     0   502   503  0.000000000E+00  0.000000000E+00 -1.113819976E+03  1.113819976E+03  0.000000000E+00  0.00000E+00  9.000E+00
      25     1     1     2     0     0 -1.205872751E+01 -5.914229602E-01 -7.676735456E+02  7.778767287E+02  1.249950785E+02  0.00000E+00  9.000E+00
       5     1     1     2   501     0  3.599420385E+00  8.515170036E+00  2.285644545E+01  2.510863490E+01  4.750000000E+00  0.00000E+00  9.000E+00
      -5     1     1     2     0   503  5.905477936E+00 -2.282927845E+00 -3.396731718E+02  3.397653787E+02  4.750000000E+00  0.00000E+00  9.000E+00
      21     1     1     2   502   511  2.553829188E+00 -5.640819231E+00  4.785427054E+01  4.825320812E+01  6.743495762E-07  0.00000E+00  9.000E+00
#rwgt            1           9   5.3329439824343584E-003           5     2498072           0
</event>
<event>
      6   9999  3.45752E-01  1.22865E+01 -1.00000E+00  1.78241E-01
      21    -1     0     0   501   512  0.000000000E+00  0.000000000E+00  4.925553352E+02  4.925553352E+02  0.000000000E+00  0.00000E+00  9.000E+00
      21    -1     0     0   502   503  0.000000000E+00  0.000000000E+00 -9.898551379E+02  9.898551379E+02  0.000000000E+00  0.00000E+00  9.000E+00
      25     1     1     2     0     0  1.782006850E+00  1.656488099E+01 -6.177743740E+02  6.305136073E+02  1.249986438E+02  0.00000E+00  9.000E+00
       5     1     1     2   501     0 -3.641644738E+00  3.251084680E+00  6.156192092E+00  9.181085397E+00  4.750000000E+00  0.00000E+00  9.000E+00
      -5     1     1     2     0   503 -2.956350330E+00 -8.512635509E+00 -3.640485753E+02  3.641910662E+02  4.750000000E+00  0.00000E+00  9.000E+00
      21     1     1     2   502   512  4.815988218E+00 -1.130333016E+01  4.783669545E+02  4.785247143E+02  0.000000000E+00  0.00000E+00  9.000E+00
#rwgt            1           9   8.4183058037748154E-004           5     2502832           0
</event>
<event>
      6   9999  3.45752E-01  2.73894E+00 -1.00000E+00  2.87679E-01
      21    -1     0     0   501   502  0.000000000E+00  0.000000000E+00  2.063856517E+03  2.063856517E+03  0.000000000E+00  0.00000E+00  9.000E+00
      21    -1     0     0   502   511  0.000000000E+00  0.000000000E+00 -5.745702612E+02  5.745702612E+02  0.000000000E+00  0.00000E+00  9.000E+00
      25     1     1     2     0     0 -7.150663517E+00  2.413208207E+00  8.143505743E+02  8.239159048E+02  1.249544108E+02  0.00000E+00  9.000E+00
       5     1     1     2   501     0  2.278571553E+00  1.971889979E+00  1.212692139E+03  1.212705186E+03  4.750000000E+00  0.00000E+00  9.000E+00
      -5     1     1     2     0   503  2.481363144E+00 -3.048616792E+00  3.172453704E+01  3.231810604E+01  4.750000000E+00  0.00000E+00  9.000E+00
      21     1     1     2   503   511  2.390728820E+00 -1.336481394E+00 -5.694809950E+02  5.694875814E+02  1.321449896E-05  0.00000E+00  9.000E+00
#rwgt            1           9  0.48988920788526941                5     2504934           0
</event>
<event>
      6   9999  3.45752E-01  9.23116E+00 -1.00000E+00  1.90929E-01
      21    -1     0     0   512   502  0.000000000E+00  0.000000000E+00  1.314425734E+01  1.314425734E+01  0.000000000E+00  0.00000E+00  9.000E+00
      21    -1     0     0   502   503  0.000000000E+00  0.000000000E+00 -7.903355154E+02  7.903355154E+02  0.000000000E+00  0.00000E+00  9.000E+00
      25     1     1     2     0     0 -6.296145938E+00  2.774342259E-01 -4.050097084E+02  4.239078136E+02  1.250010086E+02  0.00000E+00  9.000E+00
       5     1     1     2   501     0  2.121651291E+00  1.149626895E+00 -3.886764360E+01  3.923110074E+01  4.750000000E+00  0.00000E+00  9.000E+00
      -5     1     1     2     0   503  1.082742228E+01 -7.826502173E+00 -3.303375730E+02  3.306417424E+02  4.750000000E+00  0.00000E+00  9.000E+00
      21     1     1     2   512   501 -6.652927629E+00  6.399441052E+00 -2.976333132E+00  9.699115977E+00  5.430241572E-07  0.00000E+00  9.000E+00
#rwgt            1           9   1.6299225226947694E-004           5     2511059           0
</event>
<event>
      6   9999  3.45752E-01  4.15911E+00 -1.00000E+00  2.44395E-01
      21    -1     0     0   502   511  0.000000000E+00  0.000000000E+00  7.550987491E+00  7.550987491E+00  0.000000000E+00  0.00000E+00  9.000E+00
      21    -1     0     0   501   502  0.000000000E+00  0.000000000E+00 -8.149639427E+02  8.149639427E+02  0.000000000E+00  0.00000E+00  9.000E+00
      25     1     1     2     0     0 -4.524228552E+00  4.017249708E+00 -7.838711779E+02  7.938046219E+02  1.250405825E+02  0.00000E+00  9.000E+00
       5     1     1     2   501     0 -9.842196655E-02  1.121121397E+00 -3.509460513E+00  6.012105552E+00  4.750000000E+00  0.00000E+00  9.000E+00
      -5     1     1     2     0   503  2.431683722E+00 -1.603143921E+00 -1.584600684E+01  1.679707084E+01  4.750000000E+00  0.00000E+00  9.000E+00
      21     1     1     2   503   511  2.190966797E+00 -3.535227184E+00 -4.186309976E+00  5.901131922E+00  2.980232239E-07  0.00000E+00  9.000E+00
#rwgt            1           9   5.9174982863466922E-003           5     2513779           0
</event>
<event>
      6   9999 -3.45752E-01  7.50945E+00 -1.00000E+00  2.01326E-01
      21    -1     0     0   512   502  0.000000000E+00  0.000000000E+00  1.518836144E+01  1.518836144E+01  0.000000000E+00  0.00000E+00  9.000E+00
      21    -1     0     0   502   503  0.000000000E+00  0.000000000E+00 -9.086315254E+02  9.086315254E+02  0.000000000E+00  0.00000E+00  9.000E+00
      25     1     1     2     0     0 -2.213859950E+01  5.633601581E+00 -8.390656025E+02  8.486327655E+02  1.249985210E+02  0.00000E+00  9.000E+00
       5     1     1     2   501     0 -2.423287315E+00 -6.708938720E-01  4.862589235E+00  7.247737168E+00  4.750000000E+00  0.00000E+00  9.000E+00
      -5     1     1     2     0   503  2.153533227E+01 -1.183524949E+01 -3.888666918E+01  4.624477491E+01  4.750000000E+00  0.00000E+00  9.000E+00
      21     1     1     2   512   501  3.026554539E+00  6.872541784E+00 -2.035348146E+01  2.169460925E+01  3.371747881E-07  0.00000E+00  9.000E+00
#rwgt            1           9  -6.8430257394572116E-004           5     2518226           0
</event>
<event>
      6   9999  3.45752E-01  6.90956E+00 -1.00000E+00  2.05861E-01
      21    -1     0     0   501   511  0.000000000E+00  0.000000000E+00  8.972689304E+02  8.972689304E+02  0.000000000E+00  0.00000E+00  9.000E+00
      21    -1     0     0   502   503  0.000000000E+00  0.000000000E+00 -2.131142582E+02  2.131142582E+02  0.000000000E+00  0.00000E+00  9.000E+00
      25     1     1     2     0     0 -2.083664194E+00 -1.949528409E+01 -1.323284053E+02  1.830855739E+02  1.250004512E+02  0.00000E+00  9.000E+00
       5     1     1     2   501     0  8.974370073E+00  2.863789533E+00  2.381440821E+02  2.383776561E+02  4.750000000E+00  0.00000E+00  9.000E+00
      -5     1     1     2     0   503 -6.827425884E+00  9.722223004E+00 -5.453119821E+01  5.601204730E+01  4.750000000E+00  0.00000E+00  9.000E+00
      21     1     1     2   502   511 -6.327999509E-02  6.909271549E+00  6.328701937E+02  6.329079112E+02  1.078959322E-05  0.00000E+00  9.000E+00
#rwgt            1           9   1.7523838557749138E-002           5     2521866           0
</event>
<event>
      6   9999 -3.45752E-01  1.57402E+01 -1.00000E+00  1.68578E-01
      21    -1     0     0   501   502  0.000000000E+00  0.000000000E+00  1.765297283E+01  1.765297283E+01  0.000000000E+00  0.00000E+00  9.000E+00
      21    -1     0     0   502   512  0.000000000E+00  0.000000000E+00 -2.385358140E+03  2.385358140E+03  0.000000000E+00  0.00000E+00  9.000E+00
      25     1     1     2     0     0  6.727628870E+00 -6.763611903E+00 -8.741595552E+02  8.831024393E+02  1.249959316E+02  0.00000E+00  9.000E+00
       5     1     1     2   501     0  8.111504845E+00 -3.761284749E-01  1.135553186E+01  1.474613805E+01  4.750000000E+00  0.00000E+00  9.000E+00
      -5     1     1     2     0   503 -9.766141632E-01 -3.157327795E-01 -6.729986440E+01  6.747508956E+01  4.750000000E+00  0.00000E+00  9.000E+00
      21     1     1     2   503   512 -1.386251955E+01  7.455473158E+00 -1.437601279E+03  1.437687446E+03  0.000000000E+00  0.00000E+00  9.000E+00
#rwgt            1           9  -1.6860508221979513E-004           5     2526533           0
</event>
<event>
      6   9999  3.45752E-01  2.46364E+01 -1.00000E+00  1.53593E-01
      21    -1     0     0   501   502  0.000000000E+00  0.000000000E+00  1.174727877E+01  1.174727877E+01  0.000000000E+00  0.00000E+00  9.000E+00
      21    -1     0     0   502   511  0.000000000E+00  0.000000000E+00 -9.508270235E+02  9.508270235E+02  0.000000000E+00  0.00000E+00  9.000E+00
      25     1     1     2     0     0  2.518376592E-01 -2.531064720E+01 -6.946871656E+02  7.062992151E+02  1.250105232E+02  0.00000E+00  9.000E+00
       5     1     1     2   501     0 -1.972813225E+00 -4.936266539E+00  2.060985063E+00  7.420840842E+00  4.750000000E+00  0.00000E+00  9.000E+00
      -5     1     1     2     0   503 -8.282209914E-01  5.742721119E+00 -1.053149865E+02  1.055815973E+02  4.750000000E+00  0.00000E+00  9.000E+00
      21     1     1     2   503   511  2.549196557E+00  2.450419262E+01 -1.411385777E+02  1.432726490E+02  1.907348633E-06  0.00000E+00  9.000E+00
#rwgt            1           9   4.8366514894928589E-004           5     2528843           0
</event>
<event>
      6   9999  3.45752E-01  2.02218E+01 -1.00000E+00  1.59846E-01
      21    -1     0     0   501   502  0.000000000E+00  0.000000000E+00  8.586439430E+02  8.586439430E+02  0.000000000E+00  0.00000E+00  9.000E+00
       2    -1     0     0   502     0  0.000000000E+00  0.000000000E+00 -3.622981368E+02  3.622981368E+02  0.000000000E+00  0.00000E+00  9.000E+00
      25     1     1     2     0     0  2.975739373E+01 -8.854324261E+00  5.727821447E+02  5.870849829E+02  1.250019614E+02  0.00000E+00  9.000E+00
       5     1     1     2   501     0 -1.413147595E-01  3.930947710E+00  2.189302823E+02  2.190171302E+02  4.750000000E+00  0.00000E+00  9.000E+00
      -5     1     1     2     0   503 -3.436430191E+01  2.457985189E+01  5.184002300E+01  6.704494649E+01  4.750000000E+00  0.00000E+00  9.000E+00
       2     1     1     2   503     0  4.748222941E+00 -1.965647533E+01 -3.472066438E+02  3.477950203E+02  3.814697266E-06  0.00000E+00  9.000E+00
#rwgt            1           9   1.7963141761687260E-002           5     2530115           0
</event>
<event>
      6   9999  3.45752E-01  1.53196E+01 -1.00000E+00  1.69582E-01
      21    -1     0     0   502   503  0.000000000E+00  0.000000000E+00  2.091148731E+02  2.091148731E+02  0.000000000E+00  0.00000E+00  9.000E+00
      21    -1     0     0   511   502  0.000000000E+00  0.000000000E+00 -4.857937014E+01  4.857937014E+01  0.000000000E+00  0.00000E+00  9.000E+00
      25     1     1     2     0     0 -1.313958760E+01  8.835194155E+00  1.656282060E+02  2.081070467E+02  1.250005234E+02  0.00000E+00  9.000E+00
       5     1     1     2   501     0  1.681851546E+01  4.907106057E+00 -1.269625468E+00  1.819660960E+01  4.750000000E+00  0.00000E+00  9.000E+00
      -5     1     1     2     0   503 -2.203717969E+00  1.506128117E+00  9.589392598E+00  1.102922233E+01  4.750000000E+00  0.00000E+00  9.000E+00
      21     1     1     2   511   501 -1.475209890E+00 -1.524842833E+01 -1.341247018E+01  2.036136457E+01  1.685873940E-07  0.00000E+00  9.000E+00
#rwgt            1           9  0.52877903309514263                5     2531675           0
</event>
<event>
      6   9999  3.45752E-01  8.97391E+00 -1.00000E+00  1.92286E-01
      21    -1     0     0   501   502  0.000000000E+00  0.000000000E+00  3.206156516E+01  3.206156516E+01  0.000000000E+00  0.00000E+00  9.000E+00
      21    -1     0     0   512   503  0.000000000E+00  0.000000000E+00 -1.858897637E+03  1.858897637E+03  0.000000000E+00  0.00000E+00  9.000E+00
      25     1     1     2     0     0 -2.599825881E+01 -1.345707732E+01 -4.810610297E+02  4.978981765E+02  1.250035097E+02  0.00000E+00  9.000E+00
       5     1     1     2   501     0 -1.001422573E+01 -2.880700510E+00  2.183720942E+01  2.465784597E+01  4.750000000E+00  0.00000E+00  9.000E+00
      -5     1     1     2     0   503  2.735305945E+01  1.398289794E+01 -6.576655971E+02  6.583998112E+02  4.750000000E+00  0.00000E+00  9.000E+00
      21     1     1     2   512   502  8.659425089E+00  2.354879896E+00 -7.099466543E+02  7.100033684E+02  0.000000000E+00  0.00000E+00  9.000E+00
#rwgt            1           9   8.6544595025569442E-005           5     2533185           0
</event>
<event>
      6   9999  3.45752E-01  3.48581E+01 -1.00000E+00  1.43742E-01
       4    -1     0     0   502     0  0.000000000E+00  0.000000000E+00  2.791461294E+02  2.791461294E+02  0.000000000E+00  0.00000E+00  9.000E+00
      21    -1     0     0   501   502  0.000000000E+00  0.000000000E+00 -7.564795096E+02  7.564795096E+02  0.000000000E+00  0.00000E+00  9.000E+00
      25     1     1     2     0     0  2.923438043E+01  2.043480217E+01 -6.830924631E+02  6.953500461E+02  1.249965731E+02  0.00000E+00  9.000E+00
       5     1     1     2   501     0  3.808480961E-01  1.152266328E+00 -1.440955036E+01  1.522072286E+01  4.750000000E+00  0.00000E+00  9.000E+00
      -5     1     1     2     0   503 -1.800152285E+01  1.127944438E+01 -4.901099307E+01  5.362761072E+01  4.750000000E+00  0.00000E+00  9.000E+00
       4     1     1     2   503     0 -1.161370568E+01 -3.286651288E+01  2.691796264E+02  2.714272593E+02  5.394796609E-06  0.00000E+00  9.000E+00
#rwgt            1           9   5.9009209979589797E-005           5     2536719           0
</event>
<event>
      6   9999  3.45752E-01  3.03603E+00 -1.00000E+00  2.75563E-01
      -3    -1     0     0     0   502  0.000000000E+00  0.000000000E+00  2.640339827E+01  2.640339827E+01  0.000000000E+00  0.00000E+00  9.000E+00
      21    -1     0     0   502   503  0.000000000E+00  0.000000000E+00 -9.157213326E+02  9.157213326E+02  0.000000000E+00  0.00000E+00  9.000E+00
      25     1     1     2     0     0 -1.511490901E+01 -7.759426887E+00 -7.439703874E+02  7.545899529E+02  1.250015618E+02  0.00000E+00  9.000E+00
       5     1     1     2   501     0  3.022528344E+00 -2.293331210E+00  1.378730396E+01  1.506808867E+01  4.750000000E+00  0.00000E+00  9.000E+00
      -5     1     1     2     0   503  1.500847774E+01  9.207874246E+00 -1.649242424E+02  1.659295259E+02  4.750000000E+00  0.00000E+00  9.000E+00
      -3     1     1     2     0   501 -2.916097073E+00  8.448838503E-01  5.789391522E+00  6.537163380E+00  3.674277069E-07  0.00000E+00  9.000E+00
#rwgt            1           9   7.9339411908171747E-004           5     2537599           0
</event>
<event>
      6   9999  3.45752E-01  4.91238E+00 -1.00000E+00  2.30721E-01
      21    -1     0     0   501   502  0.000000000E+00  0.000000000E+00  5.166396758E+02  5.166396758E+02  0.000000000E+00  0.00000E+00  9.000E+00
      21    -1     0     0   502   511  0.000000000E+00  0.000000000E+00 -1.475449442E+01  1.475449442E+01  0.000000000E+00  0.00000E+00  9.000E+00
      25     1     1     2     0     0 -5.244634034E+00 -1.730500647E+00  3.340650816E+02  3.567281799E+02  1.250000591E+02  0.00000E+00  9.000E+00
       5     1     1     2   501     0  3.836114682E-01 -4.650663008E-01  1.494757699E+02  1.495524381E+02  4.750000000E+00  0.00000E+00  9.000E+00
      -5     1     1     2     0   503  3.936845205E-02  1.255832470E+00  1.946451673E+01  2.007507352E+01  4.750000000E+00  0.00000E+00  9.000E+00
      21     1     1     2   503   511  4.821654114E+00  9.397344779E-01 -1.120186867E+00  5.038478729E+00  0.000000000E+00  0.00000E+00  9.000E+00
#rwgt            1           9   1.3930122400148516E-003           5     2544584           0
</event>
<event>
      6   9999 -3.45752E-01  5.41760E+00 -1.00000E+00  2.20427E-01
      21    -1     0     0   501   502  0.000000000E+00  0.000000000E+00  2.960005011E+01  2.960005011E+01  0.000000000E+00  0.00000E+00  9.000E+00
      21    -1     0     0   502   512  0.000000000E+00  0.000000000E+00 -1.393268704E+03  1.393268704E+03  0.000000000E+00  0.00000E+00  9.000E+00
      25     1     1     2     0     0  2.430876775E+00 -1.417845227E+01 -1.117587524E+03  1.124648102E+03  1.249981672E+02  0.00000E+00  9.000E+00
       5     1     1     2   501     0 -3.040166999E+00  3.944997708E-01  1.791799029E+01  1.878869664E+01  4.750000000E+00  0.00000E+00  9.000E+00
      -5     1     1     2     0   503  5.944558540E+00  1.472488081E+01 -1.244410459E+00  1.662140031E+01  4.750000000E+00  0.00000E+00  9.000E+00
      21     1     1     2   503   512 -5.335268316E+00 -9.409283037E-01 -2.627547102E+02  2.628105556E+02  5.394796609E-06  0.00000E+00  9.000E+00
#rwgt            1           9 -0.16826256839557832                5     2548588           0
</event>
<event>
      6   9999  3.45752E-01  1.03271E+01 -1.00000E+00  1.85733E-01
      21    -1     0     0   502   503  0.000000000E+00  0.000000000E+00  9.926262348E+01  9.926262348E+01  0.000000000E+00  0.00000E+00  9.000E+00
      21    -1     0     0   511   502  0.000000000E+00  0.000000000E+00 -8.360704708E+01  8.360704708E+01  0.000000000E+00  0.00000E+00  9.000E+00
      25     1     1     2     0     0 -3.857811267E+00  2.131876676E+01 -1.261215083E+00  1.268863205E+02  1.250166994E+02  0.00000E+00  9.000E+00
       5     1     1     2   501     0  5.973612865E-01  4.886255877E-01  1.481330405E+01  1.557536749E+01  4.750000000E+00  0.00000E+00  9.000E+00
      -5     1     1     2     0   503  4.271085365E+00 -1.152982248E+01  1.747548056E+01  2.188912738E+01  4.750000000E+00  0.00000E+00  9.000E+00
      21     1     1     2   511   501 -1.010635384E+00 -1.027756987E+01 -1.537199314E+01  1.851885524E+01  2.384185791E-07  0.00000E+00  9.000E+00
#rwgt            1           9   1.7902562140153454E-003           5     2553895           0
</event>
<event>
      6   9999  3.45752E-01  1.51414E+01 -1.00000E+00  1.70019E-01
      21    -1     0     0   501   502  0.000000000E+00  0.000000000E+00  1.161655638E+02  1.161655638E+02  0.000000000E+00  0.00000E+00  9.000E+00
      21    -1     0     0   502   512  0.000000000E+00  0.000000000E+00 -2.098816716E+03  2.098816716E+03  0.000000000E+00  0.00000E+00  9.000E+00
      25     1     1     2     0     0 -9.631772596E+01 -3.845523281E+01 -3.296809634E+02  3.675148985E+02  1.249870142E+02  0.00000E+00  9.000E+00
       5     1     1     2   501     0 -1.156607622E+01  1.464848617E+01  9.445501243E+01  9.639846544E+01  4.750000000E+00  0.00000E+00  9.000E+00
      -5     1     1     2     0   503  9.495800236E+01  1.592097495E+01 -1.400778973E+03  1.404092160E+03  4.750000000E+00  0.00000E+00  9.000E+00
      21     1     1     2   503   512  1.292579982E+01  7.885771694E+00 -3.466462280E+02  3.469767558E+02  7.629394531E-06  0.00000E+00  9.000E+00
#rwgt            1           9   2.1073009363660990E-004           5     2556029           0
</event>
<event>
      6   9999  3.45752E-01  6.93225E+00 -1.00000E+00  2.05678E-01
      21    -1     0     0   502   503  0.000000000E+00  0.000000000E+00  3.228167866E+01  3.228167866E+01  0.000000000E+00  0.00000E+00  9.000E+00
      21    -1     0     0   511   502  0.000000000E+00  0.000000000E+00 -1.812248727E+03  1.812248727E+03  0.000000000E+00  0.00000E+00  9.000E+00
      25     1     1     2     0     0 -1.059343154E+02  1.230244313E+01 -1.431781537E+03  1.441179029E+03  1.250007755E+02  0.00000E+00  9.000E+00
       5     1     1     2   501     0  1.085241595E-02  1.085381016E+00  4.848942659E+00  6.874075548E+00  4.750000000E+00  0.00000E+00  9.000E+00
      -5     1     1     2     0   503  1.043444000E+02 -2.013783846E+01 -1.088617354E+02  1.522061966E+02  4.750000000E+00  0.00000E+00  9.000E+00
      21     1     1     2   511   501  1.579062991E+00  6.750014314E+00 -2.441727180E+02  2.442711042E+02  2.697398305E-06  0.00000E+00  9.000E+00
#rwgt            1           9   1.3346042876716438E-002           5     2560100           0
</event>
<event>
      6   9999  3.45752E-01  1.37054E+01 -1.00000E+00  1.73840E-01
      21    -1     0     0   512   502  0.000000000E+00  0.000000000E+00  3.556908392E+01  3.556908392E+01  0.000000000E+00  0.00000E+00  9.000E+00
      21    -1     0     0   502   503  0.000000000E+00  0.000000000E+00 -7.363508517E+02  7.363508517E+02  0.000000000E+00  0.00000E+00  9.000E+00
      25     1     1     2     0     0  3.129985803E+00  3.628922828E+01 -6.893300405E+02  7.015184425E+02  1.250020620E+02  0.00000E+00  9.000E+00
       5     1     1     2   501     0  1.149817513E+00  5.047706426E+00  9.237350892E+00  1.160571290E+01  4.750000000E+00  0.00000E+00  9.000E+00
      -5     1     1     2     0   503  3.348996961E+00 -2.995103860E+01 -2.955112530E+01  4.247483962E+01  4.750000000E+00  0.00000E+00  9.000E+00
      21     1     1     2   512   501 -7.628800277E+00 -1.138589611E+01  8.862047118E+00  1.632094063E+01  2.665600750E-07  0.00000E+00  9.000E+00
#rwgt            1           9  0.93699932063053282                5     2564787           0
</event>
<event>
      6   9999  3.45752E-01  7.39927E+00 -1.00000E+00  2.02116E-01
      21    -1     0     0   511   502  0.000000000E+00  0.000000000E+00  1.206398602E+02  1.206398602E+02  0.000000000E+00  0.00000E+00  9.000E+00
      21    -1     0     0   502   503  0.000000000E+00  0.000000000E+00 -2.385453867E+02  2.385453867E+02  0.000000000E+00  0.00000E+00  9.000E+00
      25     1     1     2     0     0 -8.741053979E+00 -1.398504230E+01 -1.406264614E+02  1.888721182E+02  1.249995518E+02  0.00000E+00  9.000E+00
       5     1     1     2   501     0  5.449315788E+00  1.770267995E+00  5.282519495E+01  5.334690818E+01  4.750000000E+00  0.00000E+00  9.000E+00
      -5     1     1     2     0   503  5.580247409E+00  1.925124048E+01 -7.176024255E+01  7.465818329E+01  4.750000000E+00  0.00000E+00  9.000E+00
      21     1     1     2   511   501 -2.288509218E+00 -7.036466174E+00  4.165598255E+01  4.230803721E+01  9.536743164E-07  0.00000E+00  9.000E+00
#rwgt            1           9   4.9375260161978510E-004           5     2566831           0
</event>
<event>
      6   9999  3.45752E-01  1.44654E+01 -1.00000E+00  1.71749E-01
      21    -1     0     0   502   503  0.000000000E+00  0.000000000E+00  2.514447700E+02  2.514447700E+02  0.000000000E+00  0.00000E+00  9.000E+00
      21    -1     0     0   501   512  0.000000000E+00  0.000000000E+00 -4.258599500E+02  4.258599500E+02  0.000000000E+00  0.00000E+00  9.000E+00
      25     1     1     2     0     0 -3.930939760E+00  3.373807629E+01  1.278891270E+02  1.820353623E+02  1.250101366E+02  0.00000E+00  9.000E+00
       5     1     1     2   501     0  1.122641891E-01  4.050880985E-01  6.937947638E+00  8.418688559E+00  4.750000000E+00  0.00000E+00  9.000E+00
      -5     1     1     2     0   503  7.109271619E+00 -2.005705914E+01  8.733204329E+01  9.001264161E+01  4.750000000E+00  0.00000E+00  9.000E+00
      21     1     1     2   502   512 -3.290596048E+00 -1.408610525E+01 -3.965742979E+02  3.968380276E+02  7.629394531E-06  0.00000E+00  9.000E+00
#rwgt            1           9   6.3961125509923048E-004           5     2570978           0
</event>
<event>
      6   9999  3.45752E-01  3.07058E+01 -1.00000E+00  1.47188E-01
      21    -1     0     0   511   502  0.000000000E+00  0.000000000E+00  3.504657529E+01  3.504657529E+01  0.000000000E+00  0.00000E+00  9.000E+00
      21    -1     0     0   502   503  0.000000000E+00  0.000000000E+00 -7.223145558E+02  7.223145558E+02  0.000000000E+00  0.00000E+00  9.000E+00
      25     1     1     2     0     0  2.752160846E+01 -7.038710431E+00 -6.389721802E+02  6.517037209E+02  1.250012412E+02  0.00000E+00  9.000E+00
       5     1     1     2   501     0  1.316397118E+00 -9.887324238E-02 -1.107541338E+01  1.212311671E+01  4.750000000E+00  0.00000E+00  9.000E+00
      -5     1     1     2     0   503  1.418477725E+00  1.903712499E+00 -5.684527913E+01  5.709277064E+01  4.750000000E+00  0.00000E+00  9.000E+00
      21     1     1     2   511   501 -3.025648331E+01  5.233871174E+00  1.962489227E+01  3.644152283E+01  4.768371582E-07  0.00000E+00  9.000E+00
#rwgt            1           9   5.9914455230085588E-007           5     2573221           0
</event>
<event>
      6   9999 -3.45752E-01  1.13331E+01 -1.00000E+00  1.81645E-01
      21    -1     0     0   501   502  0.000000000E+00  0.000000000E+00  2.052222010E+01  2.052222010E+01  0.000000000E+00  0.00000E+00  9.000E+00
      21    -1     0     0   512   503  0.000000000E+00  0.000000000E+00 -1.772869327E+03  1.772869327E+03  0.000000000E+00  0.00000E+00  9.000E+00
      25     1     1     2     0     0  1.407697262E+01 -4.223922228E+00 -9.922628031E+02  1.000214442E+03  1.250098271E+02  0.00000E+00  9.000E+00
       5     1     1     2   501     0 -2.492116152E+00 -4.895365358E+00  1.345929633E+01  1.529347582E+01  4.750000000E+00  0.00000E+00  9.000E+00
      -5     1     1     2     0   503 -2.288982694E+01  9.916749925E+00 -7.377141710E+01  7.801968077E+01  4.750000000E+00  0.00000E+00  9.000E+00
      21     1     1     2   512   502  1.130497047E+01 -7.974623389E-01 -6.997721831E+02  6.998639486E+02  1.078959322E-05  0.00000E+00  9.000E+00
#rwgt            1           9  -2.4188913389547725E-003           5     2573938           0
</event>
<event>
      6   9999  3.45752E-01  1.44280E+01 -1.00000E+00  1.71848E-01
      21    -1     0     0   501   502  0.000000000E+00  0.000000000E+00  1.450542359E+03  1.450542359E+03  0.000000000E+00  0.00000E+00  9.000E+00
      21    -1     0     0   511   503  0.000000000E+00  0.000000000E+00 -9.793636367E+02  9.793636367E+02  0.000000000E+00  0.00000E+00  9.000E+00
      25     1     1     2     0     0 -2.258740673E+01  7.067758150E+01 -2.801847851E+01  1.480445221E+02  1.250065354E+02  0.00000E+00  9.000E+00
       5     1     1     2   501     0 -9.974123912E-02 -2.282052061E+00  1.259762192E+03  1.259773218E+03  4.750000000E+00  0.00000E+00  9.000E+00
      -5     1     1     2     0   503  9.616775679E+00 -6.228539041E+01  1.230622834E+02  1.383431977E+02  4.750000000E+00  0.00000E+00  9.000E+00
      21     1     1     2   511   502  1.307037228E+01 -6.110139026E+00 -8.836272743E+02  8.837450584E+02  1.078959322E-05  0.00000E+00  9.000E+00
#rwgt            1           9   1.7960093313541881E-003           5     2576665           0
</event>
<event>
      6   9999  3.45752E-01  2.48464E+01 -1.00000E+00  1.53336E-01
      21    -1     0     0   512   502  0.000000000E+00  0.000000000E+00  2.467817567E+01  2.467817567E+01  0.000000000E+00  0.00000E+00  9.000E+00
      21    -1     0     0   502   503  0.000000000E+00  0.000000000E+00 -1.809813090E+03  1.809813090E+03  0.000000000E+00  0.00000E+00  9.000E+00
      25     1     1     2     0     0  4.232032235E+01 -7.900363175E+01 -6.325557337E+02  6.509901980E+02  1.250155914E+02  0.00000E+00  9.000E+00
       5     1     1     2   501     0 -3.369631220E+00  4.525182249E+00  9.918986948E+00  1.236044057E+01  4.750000000E+00  0.00000E+00  9.000E+00
      -5     1     1     2     0   503 -6.377921502E+01  7.542184055E+01 -1.090526475E+03  1.095000821E+03  4.750000000E+00  0.00000E+00  9.000E+00
      21     1     1     2   512   501  2.482852389E+01 -9.433910529E-01 -7.197169288E+01  7.613980668E+01  0.000000000E+00  0.00000E+00  9.000E+00
#rwgt            1           9   2.5227828658000072E-002           5     2580101           0
</event>
<event>
      6   9999 -3.45752E-01  2.93280E+00 -1.00000E+00  2.79510E-01
      21    -1     0     0   501   511  0.000000000E+00  0.000000000E+00  1.765352639E+02  1.765352639E+02  0.000000000E+00  0.00000E+00  9.000E+00
      21    -1     0     0   502   503  0.000000000E+00  0.000000000E+00 -8.943966876E+02  8.943966876E+02  0.000000000E+00  0.00000E+00  9.000E+00
      25     1     1     2     0     0 -2.499547188E+01  6.106379134E+00 -6.362229675E+02  6.488968103E+02  1.250013783E+02  0.00000E+00  9.000E+00
       5     1     1     2   501     0 -2.181463235E+00  3.235318214E-01  6.782309297E+00  8.568878228E+00  4.750000000E+00  0.00000E+00  9.000E+00
      -5     1     1     2     0   503  2.544638622E+01 -4.062098692E+00 -2.502461909E+02  2.516142638E+02  4.750000000E+00  0.00000E+00  9.000E+00
      21     1     1     2   502   511  1.730548898E+00 -2.367812264E+00  1.618254254E+02  1.618519992E+02  3.814697266E-06  0.00000E+00  9.000E+00
#rwgt            1           9  -2.8440554845562405E-002           5     2581909           0
</event>
<event>
      6   9999  3.45752E-01  6.45130E+00 -1.00000E+00  2.09763E-01
      21    -1     0     0   501   502  0.000000000E+00  0.000000000E+00  4.897042722E+03  4.897042722E+03  0.000000000E+00  0.00000E+00  9.000E+00
      21    -1     0     0   502   512  0.000000000E+00  0.000000000E+00 -3.571585126E+01  3.571585126E+01  0.000000000E+00  0.00000E+00  9.000E+00
      25     1     1     2     0     0 -2.517485737E+02 -7.502938690E+01  3.677855870E+03  3.689343561E+03  1.250014293E+02  0.00000E+00  9.000E+00
       5     1     1     2   501     0 -6.150273868E-01 -1.137205032E+00  5.588408742E+02  5.588625562E+02  4.750000000E+00  0.00000E+00  9.000E+00
      -5     1     1     2     0   503  2.485069389E+02  8.133819335E+01  6.255678069E+02  6.780333649E+02  4.750000000E+00  0.00000E+00  9.000E+00
      21     1     1     2   503   512  3.856662142E+00 -5.171601421E+00 -9.376804752E-01  6.519091103E+00  4.999111950E-07  0.00000E+00  9.000E+00
#rwgt            1           9   9.3463141846662091E-003           5     2588890           0
</event>
<event>
      6   9999  3.45752E-01  1.66807E+01 -1.00000E+00  1.66469E-01
      21    -1     0     0   511   502  0.000000000E+00  0.000000000E+00  1.162589499E+02  1.162589499E+02  0.000000000E+00  0.00000E+00  9.000E+00
      21    -1     0     0   502   503  0.000000000E+00  0.000000000E+00 -1.968598639E+02  1.968598639E+02  0.000000000E+00  0.00000E+00  9.000E+00
      25     1     1     2     0     0  6.860416456E+00 -1.589246146E+01 -1.629931175E+02  2.061342441E+02  1.249997384E+02  0.00000E+00  9.000E+00
       5     1     1     2   501     0  9.860739540E-01 -5.166801868E-01  8.438894686E+01  8.452985362E+01  4.750000000E+00  0.00000E+00  9.000E+00
      -5     1     1     2     0   503 -2.976143917E+00  4.553259551E-01 -1.228161568E+00  5.756356068E+00  4.750000000E+00  0.00000E+00  9.000E+00
      21     1     1     2   511   501 -4.870346493E+00  1.595381569E+01 -7.685817894E-01  1.669836004E+01  1.573466665E-07  0.00000E+00  9.000E+00
#rwgt            1           9  0.36220496725966245                5     2594294           0
</event>
<event>
      6   9999  3.45752E-01  1.70010E+01 -1.00000E+00  1.65789E-01
      21    -1     0     0   512   502  0.000000000E+00  0.000000000E+00  1.037789751E+01  1.037789751E+01  0.000000000E+00  0.00000E+00  9.000E+00
      21    -1     0     0   502   503  0.000000000E+00  0.000000000E+00 -8.226590092E+02  8.226590092E+02  0.000000000E+00  0.00000E+00  9.000E+00
      25     1     1     2     0     0 -3.190259132E+01  7.702592440E+00 -6.807190694E+02  6.928781696E+02  1.249984046E+02  0.00000E+00  9.000E+00
       5     1     1     2   501     0  9.789879094E+00  9.395021171E-01 -8.772455286E+00  1.400867120E+01  4.750000000E+00  0.00000E+00  9.000E+00
      -5     1     1     2     0   503  5.128773567E+00 -7.880174475E+00 -6.714455959E+01  6.796584326E+01  4.750000000E+00  0.00000E+00  9.000E+00
      21     1     1     2   512   501  1.698393866E+01 -7.619200815E-01 -5.564502739E+01  5.818422267E+01  6.743495762E-07  0.00000E+00  9.000E+00
#rwgt            1           9  0.21842561144505057                5     2596367           0
</event>
<event>
      6   9999  3.45752E-01  3.11378E+00 -1.00000E+00  2.72750E-01
      21    -1     0     0   501   502  0.000000000E+00  0.000000000E+00  1.715350034E+01  1.715350034E+01  0.000000000E+00  0.00000E+00  9.000E+00
      21    -1     0     0   502   511  0.000000000E+00  0.000000000E+00 -1.002970724E+03  1.002970724E+03  0.000000000E+00  0.00000E+00  9.000E+00
      25     1     1     2     0     0  1.525224030E+00  1.196754390E+00 -7.394647503E+02  7.499576235E+02  1.249982465E+02  0.00000E+00  9.000E+00
       5     1     1     2   501     0 -1.497570297E+00 -2.053458256E+00  1.120671931E+01  1.243432609E+01  4.750000000E+00  0.00000E+00  9.000E+00
      -5     1     1     2     0   503 -7.481078022E-01  3.885994220E+00 -1.914376413E+02  1.915374471E+02  4.750000000E+00  0.00000E+00  9.000E+00
      21     1     1     2   503   511  7.204540697E-01 -3.029290354E+00 -6.612155135E+01  6.619482765E+01  0.000000000E+00  0.00000E+00  9.000E+00
#rwgt            1           9   2.0472357193504181E-002           5     2598065           0
</event>
<event>
      6   9999  3.45752E-01  9.52374E+00 -1.00000E+00  1.89454E-01
      21    -1     0     0   501   502  0.000000000E+00  0.000000000E+00  1.743276621E+01  1.743276621E+01  0.000000000E+00  0.00000E+00  9.000E+00
      21    -1     0     0   512   503  0.000000000E+00  0.000000000E+00 -1.061629294E+03  1.061629294E+03  0.000000000E+00  0.00000E+00  9.000E+00
      25     1     1     2     0     0  3.708669696E+00  4.179133719E+00 -8.930069019E+02  9.017315321E+02  1.250088389E+02  0.00000E+00  9.000E+00
       5     1     1     2   501     0 -4.428980627E+00  2.122658203E+00  1.174750378E+01  1.358999236E+01  4.750000000E+00  0.00000E+00  9.000E+00
      -5     1     1     2     0   503 -2.785143597E+00  2.553347285E+00 -4.305562596E+01  4.348132971E+01  4.750000000E+00  0.00000E+00  9.000E+00
      21     1     1     2   512   502  3.505454528E+00 -8.855139207E+00 -1.198815036E+02  1.202592060E+02  1.348699152E-06  0.00000E+00  9.000E+00
#rwgt            1           9   1.7843147670353556E-004           5     2604813           0
</event>
<event>
      6   9999  3.45752E-01  1.99924E+01 -1.00000E+00  1.60223E-01
      21    -1     0     0   502   511  0.000000000E+00  0.000000000E+00  4.640040172E+01  4.640040172E+01  0.000000000E+00  0.00000E+00  9.000E+00
      21    -1     0     0   501   502  0.000000000E+00  0.000000000E+00 -1.268205740E+03  1.268205740E+03  0.000000000E+00  0.00000E+00  9.000E+00
      25     1     1     2     0     0 -1.857455185E+02 -3.241938926E+01 -7.536901824E+02  7.869092609E+02  1.249995175E+02  0.00000E+00  9.000E+00
       5     1     1     2   501     0 -2.289778712E+00  2.116049798E+00 -1.759588035E+02  1.760505149E+02  4.750000000E+00  0.00000E+00  9.000E+00
      -5     1     1     2     0   503  1.714849169E+02  1.908804384E+01 -2.777073420E+02  3.269791438E+02  4.750000000E+00  0.00000E+00  9.000E+00
      21     1     1     2   503   511  1.655038030E+01  1.121529562E+01 -1.444901006E+01  2.466722189E+01  7.348554138E-07  0.00000E+00  9.000E+00
#rwgt            1           9   4.2229330266314410E-002           5     2608029           0
</event>
<event>
      6   9999  3.45752E-01  2.47529E+01 -1.00000E+00  1.53450E-01
      21    -1     0     0   501   502  0.000000000E+00  0.000000000E+00  1.654714382E+02  1.654714382E+02  0.000000000E+00  0.00000E+00  9.000E+00
      21    -1     0     0   502   512  0.000000000E+00  0.000000000E+00 -1.041966971E+03  1.041966971E+03  0.000000000E+00  0.00000E+00  9.000E+00
      25     1     1     2     0     0 -4.271704359E+01 -1.875791962E+01 -8.642831657E+02  8.745208644E+02  1.249989856E+02  0.00000E+00  9.000E+00
       5     1     1     2   501     0  6.336940736E+00  4.561966036E+00  1.566722713E+02  1.569386231E+02  4.750000000E+00  0.00000E+00  9.000E+00
      -5     1     1     2     0   503  2.278763133E+01 -6.490992305E+00 -7.043368039E+01  7.446391714E+01  4.750000000E+00  0.00000E+00  9.000E+00
      21     1     1     2   503   512  1.359247153E+01  2.068694589E+01 -9.845095782E+01  1.015150043E+02  2.336015456E-06  0.00000E+00  9.000E+00
#rwgt            1           9  0.20600322864217371                5     2610428           0
</event>
<event>
      6   9999  3.45752E-01  1.45928E+01 -1.00000E+00  1.71414E-01
      21    -1     0     0   511   502  0.000000000E+00  0.000000000E+00  7.703909572E+01  7.703909572E+01  0.000000000E+00  0.00000E+00  9.000E+00
      21    -1     0     0   502   503  0.000000000E+00  0.000000000E+00 -1.367237528E+03  1.367237528E+03  0.000000000E+00  0.00000E+00  9.000E+00
      25     1     1     2     0     0 -1.340517255E+01  2.687092024E-02 -5.548459858E+02  5.689121233E+02  1.250089464E+02  0.00000E+00  9.000E+00
       5     1     1     2   501     0  9.253613743E+00  1.694724877E+01  5.229622882E+01  5.594905412E+01  4.750000000E+00  0.00000E+00  9.000E+00
      -5     1     1     2     0   503  7.209625699E+00 -2.705313634E+00 -8.001492967E+02  8.002004480E+02  4.750000000E+00  0.00000E+00  9.000E+00
      21     1     1     2   511   501 -3.058066890E+00 -1.426880606E+01  1.250062182E+01  1.921499792E+01  7.907449699E-07  0.00000E+00  9.000E+00
#rwgt            1           9  0.32476435267562570                5     2613558           0
</event>
<event>
      6   9999  3.45752E-01  3.40208E+00 -1.00000E+00  2.63364E-01
       1    -1     0     0   501     0  0.000000000E+00  0.000000000E+00  2.011390926E+03  2.011390926E+03  0.000000000E+00  0.00000E+00  9.000E+00
      21    -1     0     0   502   503  0.000000000E+00  0.000000000E+00 -7.918285653E+02  7.918285653E+02  0.000000000E+00  0.00000E+00  9.000E+00
      25     1     1     2     0     0  9.076264043E-01  3.160521989E+01 -5.881481109E+02  6.021137024E+02  1.249919859E+02  0.00000E+00  9.000E+00
       5     1     1     2   501     0  2.967178273E-01 -7.514650689E-01 -8.280212943E-01  4.888850630E+00  4.750000000E+00  0.00000E+00  9.000E+00
      -5     1     1     2     0   503  1.955101595E+00 -2.959198455E+01 -1.926743420E+02  1.950012116E+02  4.750000000E+00  0.00000E+00  9.000E+00
       1     1     1     2   502     0 -3.159445826E+00 -1.261770268E+00  2.001212835E+03  2.001215727E+03  0.000000000E+00  0.00000E+00  9.000E+00
#rwgt            1           9   1.8366226215941841E-004           5     2616693           0
</event>
<event>
      6   9999 -3.45752E-01  4.96505E+00 -1.00000E+00  2.29899E-01
      21    -1     0     0   511   503  0.000000000E+00  0.000000000E+00  2.048463336E+01  2.048463336E+01  0.000000000E+00  0.00000E+00  9.000E+00
      21    -1     0     0   501   502  0.000000000E+00  0.000000000E+00 -7.335439837E+02  7.335439837E+02  0.000000000E+00  0.00000E+00  9.000E+00
      25     1     1     2     0     0 -2.718768112E+01 -1.174967660E+01 -4.897958783E+02  5.063621764E+02  1.250017055E+02  0.00000E+00  9.000E+00
       5     1     1     2   501     0  2.266984243E+01  9.269412502E+00 -2.091252394E+02  2.106081005E+02  4.750000000E+00  0.00000E+00  9.000E+00
      -5     1     1     2     0   503 -3.091038775E-01  1.317355454E+00 -2.480537962E+01  2.529229782E+01  4.750000000E+00  0.00000E+00  9.000E+00
      21     1     1     2   511   502  4.826942561E+00  1.162908644E+00  1.066714688E+01  1.176604240E+01  8.596304120E-07  0.00000E+00  9.000E+00
#rwgt            1           9  -2.0415064722959506E-004           5     2621779           0
</event>
<event>
      6   9999 -3.45752E-01  7.52738E+00 -1.00000E+00  2.01199E-01
      21    -1     0     0   501   512  0.000000000E+00  0.000000000E+00  2.472483974E+01  2.472483974E+01  0.000000000E+00  0.00000E+00  9.000E+00
      21    -1     0     0   502   503  0.000000000E+00  0.000000000E+00 -2.672993284E+03  2.672993284E+03  0.000000000E+00  0.00000E+00  9.000E+00
      25     1     1     2     0     0 -7.631594172E+01  5.337749164E+01 -2.347082219E+03  2.352252831E+03  1.250006420E+02  0.00000E+00  9.000E+00
       5     1     1     2   501     0 -9.856730100E-01 -4.253646179E+00  1.237090799E+01  1.395230883E+01  4.750000000E+00  0.00000E+00  9.000E+00
      -5     1     1     2     0   503  8.393254599E+01 -5.268645421E+01 -2.781423297E+02  2.953070484E+02  4.750000000E+00  0.00000E+00  9.000E+00
      21     1     1     2   502   512 -6.630931263E+00  3.562608744E+00 -3.541480348E+01  3.620593509E+01  6.743495762E-07  0.00000E+00  9.000E+00
#rwgt            1           9  -2.4265586194874567E-003           5     2626275           0
</event>
<event>
      6   9999 -3.45752E-01  4.80333E+00 -1.00000E+00  2.32471E-01
      21    -1     0     0   501   511  0.000000000E+00  0.000000000E+00  3.033748114E+01  3.033748114E+01  0.000000000E+00  0.00000E+00  9.000E+00
      21    -1     0     0   502   503  0.000000000E+00  0.000000000E+00 -1.132858772E+03  1.132858772E+03  0.000000000E+00  0.00000E+00  9.000E+00
      25     1     1     2     0     0 -5.279059073E+01  1.425960350E+01 -8.924265822E+02  9.027955721E+02  1.249978306E+02  0.00000E+00  9.000E+00
       5     1     1     2   501     0  5.491827349E+00  6.144055322E+00  1.889114896E+01  2.115059319E+01  4.750000000E+00  0.00000E+00  9.000E+00
      -5     1     1     2     0   503  5.072427820E+01 -1.703649086E+01 -2.281320358E+02  2.343714630E+02  4.750000000E+00  0.00000E+00  9.000E+00
      21     1     1     2   502   511 -3.425514811E+00 -3.367167968E+00 -8.538222405E-01  4.878625243E+00  1.281846354E-07  0.00000E+00  9.000E+00
#rwgt            1           9  -1.5578925495194411E-004           5     2631284           0
</event>
<event>
      6   9999 -3.45752E-01  4.33032E+01 -1.00000E+00  1.38216E-01
      21    -1     0     0   502   512  0.000000000E+00  0.000000000E+00  1.546919866E+01  1.546919866E+01  0.000000000E+00  0.00000E+00  9.000E+00
      21    -1     0     0   501   502  0.000000000E+00  0.000000000E+00 -8.138499339E+02  8.138499339E+02  0.000000000E+00  0.00000E+00  9.000E+00
      25     1     1     2     0     0  8.532741418E+00 -3.828405999E+01 -5.627886504E+02  5.778371124E+02  1.250047460E+02  0.00000E+00  9.000E+00
       5     1     1     2   501     0 -6.190001959E+00 -4.686070221E+00 -1.624846083E+02  1.627393186E+02  4.750000000E+00  0.00000E+00  9.000E+00
      -5     1     1     2     0   503  1.277928165E+00 -1.814786683E-01 -1.797825297E+01  1.863990651E+01  4.750000000E+00  0.00000E+00  9.000E+00
      21     1     1     2   503   512 -3.620667623E+00  4.315160888E+01 -5.512922356E+01  7.010279504E+01  1.348699152E-06  0.00000E+00  9.000E+00
#rwgt            1           9  -3.3872423912535217E-003           5     2636447           0
</event>
<event>
      6   9999  3.45752E-01  6.27236E+00 -1.00000E+00  2.11407E-01
      21    -1     0     0   511   502  0.000000000E+00  0.000000000E+00  4.993697928E+01  4.993697928E+01  0.000000000E+00  0.00000E+00  9.000E+00
      21    -1     0     0   502   503  0.000000000E+00  0.000000000E+00 -1.271092936E+03  1.271092936E+03  0.000000000E+00  0.00000E+00  9.000E+00
      25     1     1     2     0     0 -6.425724278E+01  5.248056929E+01 -5.457593202E+02  5.660084470E+02  1.250164913E+02  0.00000E+00  9.000E+00
       5     1     1     2   501     0  4.566165651E+00 -6.729796508E+00  3.024638407E+01  3.167879857E+01  4.750000000E+00  0.00000E+00  9.000E+00
      -5     1     1     2     0   503  6.447300977E+01 -4.169175898E+01 -7.109663564E+02  7.151158607E+02  4.750000000E+00  0.00000E+00  9.000E+00
      21     1     1     2   511   501 -4.781932646E+00 -4.059013798E+00  5.323336164E+00  8.226808662E+00  4.086288572E-07  0.00000E+00  9.000E+00
#rwgt            1           9   3.0096317953681861E-005           5     2637115           0
</event>
<event>
      6   9999 -3.45752E-01  1.67453E+01 -1.00000E+00  1.66330E-01
      21    -1     0     0   501   502  0.000000000E+00  0.000000000E+00  5.428769987E+01  5.428769987E+01  0.000000000E+00  0.00000E+00  9.000E+00
      21    -1     0     0   502   512  0.000000000E+00  0.000000000E+00 -1.548874574E+03  1.548874574E+03  0.000000000E+00  0.00000E+00  9.000E+00
      25     1     1     2     0     0  1.077719118E+02 -3.642009943E+01 -2.090050536E+02  2.687848780E+02  1.249839575E+02  0.00000E+00  9.000E+00
       5     1     1     2   501     0 -1.154579322E+00 -1.760317943E+00  2.150396297E+01  2.212271900E+01  4.750000000E+00  0.00000E+00  9.000E+00
      -5     1     1     2     0   503 -9.584974207E+01  2.535603950E+01 -1.151544040E+03  1.155814146E+03  4.750000000E+00  0.00000E+00  9.000E+00
      21     1     1     2   503   512 -1.076759039E+01  1.282437788E+01 -1.555417434E+02  1.564405306E+02  1.907348633E-06  0.00000E+00  9.000E+00
#rwgt            1           9  -8.2928419414376108E-004           5     2642711           0
</event>
<event>
      6   9999  3.45752E-01  5.29550E+00 -1.00000E+00  2.21904E-01
      21    -1     0     0   501   502  0.000000000E+00  0.000000000E+00  6.655315762E+00  6.655315762E+00  0.000000000E+00  0.00000E+00  9.000E+00
       1    -1     0     0   502     0  0.000000000E+00  0.000000000E+00 -2.210073775E+03  2.210073775E+03  0.000000000E+00  0.00000E+00  9.000E+00
      25     1     1     2     0     0 -1.449654966E+01  9.066309674E+00 -1.488251358E+03  1.493589451E+03  1.249999819E+02  0.00000E+00  9.000E+00
       5     1     1     2   501     0 -1.053967349E+00  2.084878465E-01 -1.353714037E+00  5.054637084E+00  4.750000000E+00  0.00000E+00  9.000E+00
      -5     1     1     2     0   503  1.580312375E+01 -1.456427149E+01 -5.486079727E+01  5.911113518E+01  4.750000000E+00  0.00000E+00  9.000E+00
       1     1     1     2   503     0 -2.526067369E-01  5.289473967E+00 -6.589525907E+02  6.589738684E+02  0.000000000E+00  0.00000E+00  9.000E+00
#rwgt            1           9   9.0227697040215615E-003           5     2645518           0
</event>
<event>
      6   9999  3.45752E-01  7.98543E+01 -1.00000E+00  1.24738E-01
      21    -1     0     0   501   502  0.000000000E+00  0.000000000E+00  5.439208561E+01  5.439208561E+01  0.000000000E+00  0.00000E+00  9.000E+00
      21    -1     0     0   511   503  0.000000000E+00  0.000000000E+00 -7.858148799E+02  7.858148799E+02  0.000000000E+00  0.00000E+00  9.000E+00
      25     1     1     2     0     0  2.320572983E+01  4.948266952E+01 -4.280487386E+02  4.492613704E+02  1.249920628E+02  0.00000E+00  9.000E+00
       5     1     1     2   501     0  2.482174889E+01  7.413146425E+00  2.365625651E+01  3.540134080E+01  4.750000000E+00  0.00000E+00  9.000E+00
      -5     1     1     2     0   503  3.155191309E+01 -5.027527414E+01 -1.327646360E+02  1.455064861E+02  4.750000000E+00  0.00000E+00  9.000E+00
      21     1     1     2   511   502 -7.957939181E+01 -6.620541803E+00 -1.942656761E+02  2.100377683E+02  2.697398305E-06  0.00000E+00  9.000E+00
#rwgt            1           9  0.10779001381271049                5     2649674           0
</event>
<event>
      6   9999  3.45752E-01  5.71420E+01 -1.00000E+00  1.31756E-01
      21    -1     0     0   501   512  0.000000000E+00  0.000000000E+00  7.212224541E+01  7.212224541E+01  0.000000000E+00  0.00000E+00  9.000E+00
      21    -1     0     0   502   503  0.000000000E+00  0.000000000E+00 -1.545825506E+03  1.545825506E+03  0.000000000E+00  0.00000E+00  9.000E+00
      25     1     1     2     0     0 -4.618430337E+01  8.145069393E+00 -1.234515089E+03  1.241713444E+03  1.250017637E+02  0.00000E+00  9.000E+00
       5     1     1     2   501     0 -1.047759666E+01  1.581156687E+01  5.876959284E+01  6.193717157E+01  4.750000000E+00  0.00000E+00  9.000E+00
      -5     1     1     2     0   503  4.687649371E+00 -2.103692650E-01 -2.054872101E+02  2.055956574E+02  4.750000000E+00  0.00000E+00  9.000E+00
      21     1     1     2   502   512  5.197425066E+01 -2.374626699E+01 -9.247055444E+01  1.087014782E+02  1.907348633E-06  0.00000E+00  9.000E+00
#rwgt            1           9   2.0112444257460212E-005           5     2650275           0
</event>
<event>
      6   9999 -3.45752E-01  6.56464E+00 -1.00000E+00  2.08758E-01
      21    -1     0     0   501   502  0.000000000E+00  0.000000000E+00  1.865154872E+01  1.865154872E+01  0.000000000E+00  0.00000E+00  9.000E+00
      21    -1     0     0   511   503  0.000000000E+00  0.000000000E+00 -1.338539764E+03  1.338539764E+03  0.000000000E+00  0.00000E+00  9.000E+00
      25     1     1     2     0     0 -9.400917733E+00 -1.174922896E+01 -1.049347821E+03  1.056873528E+03  1.249975284E+02  0.00000E+00  9.000E+00
       5     1     1     2   501     0  1.412692757E+00  5.487102419E+00  1.284481664E+01  1.482078973E+01  4.750000000E+00  0.00000E+00  9.000E+00
      -5     1     1     2     0   503  2.515006393E+00  9.886824894E+00 -3.022908347E+01  3.225576772E+01  4.750000000E+00  0.00000E+00  9.000E+00
      21     1     1     2   511   502  5.473218583E+00 -3.624698354E+00 -2.531561265E+02  2.532412268E+02  3.814697266E-06  0.00000E+00  9.000E+00
#rwgt            1           9  -1.0940358030592916E-002           5     2651573           0
</event>
<event>
      6   9999  3.45752E-01  1.24906E+01 -1.00000E+00  1.77563E-01
      21    -1     0     0   512   502  0.000000000E+00  0.000000000E+00  8.564184502E+01  8.564184502E+01  0.000000000E+00  0.00000E+00  9.000E+00
      21    -1     0     0   502   503  0.000000000E+00  0.000000000E+00 -9.456982215E+02  9.456982215E+02  0.000000000E+00  0.00000E+00  9.000E+00
      25     1     1     2     0     0  2.327766796E+01  6.131975116E+00 -3.283769559E+02  3.521871197E+02  1.249995648E+02  0.00000E+00  9.000E+00
       5     1     1     2   501     0  5.991776578E+00 -2.941494926E+00  9.927499274E+00  1.287134495E+01  4.750000000E+00  0.00000E+00  9.000E+00
      -5     1     1     2     0   503 -1.684812343E+01 -4.504173405E+00 -6.031818302E+02  6.034525910E+02  4.750000000E+00  0.00000E+00  9.000E+00
      21     1     1     2   512   501 -1.242132110E+01  1.313693215E+00  6.157491037E+01  6.282901077E+01  2.697398305E-06  0.00000E+00  9.000E+00
#rwgt            1           9   8.0547082924165885                5     2656286           0
</event>
<event>
      6   9999  3.45752E-01  7.27180E+00 -1.00000E+00  2.03052E-01
      21    -1     0     0   511   502  0.000000000E+00  0.000000000E+00  3.969615981E+01  3.969615981E+01  0.000000000E+00  0.00000E+00  9.000E+00
      21    -1     0     0   502   503  0.000000000E+00  0.000000000E+00 -1.110821775E+03  1.110821775E+03  0.000000000E+00  0.00000E+00  9.000E+00
      25     1     1     2     0     0  8.267235066E+00  8.493215649E-01 -8.940118508E+02  9.027533555E+02  1.250494423E+02  0.00000E+00  9.000E+00
       5     1     1     2   501     0 -1.073290566E+01 -6.306644181E+00  3.108295095E+01  3.381835840E+01  4.750000000E+00  0.00000E+00  9.000E+00
      -5     1     1     2     0   503 -3.885871566E+00  1.916554250E+00 -2.063413049E+02  2.064414439E+02  4.750000000E+00  0.00000E+00  9.000E+00
      21     1     1     2   511   501  6.351542156E+00  3.540768366E+00 -1.855410420E+00  7.504776893E+00  1.618680431E-07  0.00000E+00  9.000E+00
#rwgt            1           9   3.6312393689489512E-002           5     2659020           0
</event>
<event>
      6   9999  3.45752E-01  6.08729E+00 -1.00000E+00  2.13188E-01
      21    -1     0     0   512   502  0.000000000E+00  0.000000000E+00  2.477772526E+01  2.477772526E+01  0.000000000E+00  0.00000E+00  9.000E+00
      21    -1     0     0   502   503  0.000000000E+00  0.000000000E+00 -9.097150261E+02  9.097150261E+02  0.000000000E+00  0.00000E+00  9.000E+00
      25     1     1     2     0     0  3.637641413E+01  1.876429147E+01 -4.684935955E+02  4.866073845E+02  1.250006221E+02  0.00000E+00  9.000E+00
       5     1     1     2   501     0  1.959182932E+00  2.404109206E-01  4.243049140E+00  6.667995289E+00  4.750000000E+00  0.00000E+00  9.000E+00
      -5     1     1     2     0   503 -3.851235309E+01 -1.291997985E+01 -4.289825820E+02  4.309277728E+02  4.750000000E+00  0.00000E+00  9.000E+00
      21     1     1     2   512   501  1.767560321E-01 -6.084722541E+00  8.295827426E+00  1.028959882E+01  4.298152060E-07  0.00000E+00  9.000E+00
#rwgt            1           9   1.2582831869650110E-004           5     2663798           0
</event>
<event>
      6   9999 -3.45752E-01  1.11353E+01 -1.00000E+00  1.82405E-01
      21    -1     0     0   501   502  0.000000000E+00  0.000000000E+00  1.963086730E+01  1.963086730E+01  0.000000000E+00  0.00000E+00  9.000E+00
      21    -1     0     0   511   503  0.000000000E+00  0.000000000E+00 -1.250617173E+03  1.250617173E+03  0.000000000E+00  0.00000E+00  9.000E+00
      25     1     1     2     0     0 -1.849268393E+01 -1.703088621E+01 -9.527357591E+02  9.612306472E+02  1.250075998E+02  0.00000E+00  9.000E+00
       5     1     1     2   501     0  3.079118355E+00 -1.279627129E-01  1.276055521E+01  1.396035865E+01  4.750000000E+00  0.00000E+00  9.000E+00
      -5     1     1     2     0   503  1.503965123E+01  6.029829231E+00 -3.558027802E+01  3.938360869E+01  4.750000000E+00  0.00000E+00  9.000E+00
      21     1     1     2   511   502  3.739143429E-01  1.112901969E+01 -2.554308237E+02  2.556734257E+02  5.394796609E-06  0.00000E+00  9.000E+00
#rwgt            1           9  -5.5392573266484353E-005           5     2667620           0
</event>
<event>
      6   9999  3.45752E-01  1.05339E+01 -1.00000E+00  1.84845E-01
      21    -1     0     0   501   502  0.000000000E+00  0.000000000E+00  6.022860165E+02  6.022860165E+02  0.000000000E+00  0.00000E+00  9.000E+00
      21    -1     0     0   502   512  0.000000000E+00  0.000000000E+00 -1.060614051E+01  1.060614051E+01  0.000000000E+00  0.00000E+00  9.000E+00
      25     1     1     2     0     0 -9.231009931E+00 -7.227443102E-01  4.468307006E+02  4.640776640E+02  1.249986774E+02  0.00000E+00  9.000E+00
       5     1     1     2   501     0  1.769414553E+00  3.131562738E-03  6.868012308E+01  6.886691981E+01  4.750000000E+00  0.00000E+00  9.000E+00
      -5     1     1     2     0   503  6.370953080E+00  1.119692037E+01  4.135371591E+01  4.357352853E+01  4.750000000E+00  0.00000E+00  9.000E+00
      21     1     1     2   503   512  1.090642298E+00 -1.047730762E+01  3.481533638E+01  3.637404463E+01  4.768371582E-07  0.00000E+00  9.000E+00
#rwgt            1           9  0.17290003147232977                5     2670389           0
</event>
<event>
      6   9999  3.45752E-01  5.46636E+01 -1.00000E+00  1.32748E-01
      21    -1     0     0   501   502  0.000000000E+00  0.000000000E+00  1.346966252E+03  1.346966252E+03  0.000000000E+00  0.00000E+00  9.000E+00
      -3    -1     0     0     0   503  0.000000000E+00  0.000000000E+00 -3.495590724E+02  3.495590724E+02  0.000000000E+00  0.00000E+00  9.000E+00
      25     1     1     2     0     0 -1.390835989E+02 -2.991349611E+02  6.645398486E+02  7.523718564E+02  1.249969102E+02  0.00000E+00  9.000E+00
       5     1     1     2   501     0 -5.512649762E-01 -1.092212514E+00  1.642774401E+02  1.643506515E+02  4.750000000E+00  0.00000E+00  9.000E+00
      -5     1     1     2     0   503  1.189669008E+02  2.496214083E+02  4.308124134E+02  5.119432283E+02  4.750000000E+00  0.00000E+00  9.000E+00
      -3     1     1     2     0   502  2.066796300E+01  5.060576530E+01 -2.622225220E+02  2.678595887E+02  5.394796609E-06  0.00000E+00  9.000E+00
#rwgt            1           9   2.3286306795950512E-003           5     2672240           0
</event>
<event>
      6   9999  3.45752E-01  3.79937E+00 -1.00000E+00  2.52568E-01
      21    -1     0     0   511   502  0.000000000E+00  0.000000000E+00  8.089011907E+00  8.089011907E+00  0.000000000E+00  0.00000E+00  9.000E+00
      21    -1     0     0   502   503  0.000000000E+00  0.000000000E+00 -8.699777127E+02  8.699777127E+02  0.000000000E+00  0.00000E+00  9.000E+00
      25     1     1     2     0     0 -1.585565261E+01  4.191050895E+00 -5.794069627E+02  5.929641764E+02  1.250004776E+02  0.00000E+00  9.000E+00
       5     1     1     2   501     0 -1.358558611E-02 -1.829253599E-01 -5.942765997E+00  7.610033768E+00  4.750000000E+00  0.00000E+00  9.000E+00
      -5     1     1     2     0   503  1.481846093E+01 -3.569523474E-01 -2.621083887E+02  2.625701508E+02  4.750000000E+00  0.00000E+00  9.000E+00
      21     1     1     2   511   501  1.050777274E+00 -3.651173188E+00 -1.443058344E+01  1.492236365E+01  0.000000000E+00  0.00000E+00  9.000E+00
#rwgt            1           9   1.9903798952122340E-004           5     2673565           0
</event>
<event>
      6   9999  3.45752E-01  1.60576E+02 -1.00000E+00  1.12298E-01
       2    -1     0     0   501     0  0.000000000E+00  0.000000000E+00  1.820256207E+03  1.820256207E+03  0.000000000E+00  0.00000E+00  9.000E+00
      21    -1     0     0   512   502  0.000000000E+00  0.000000000E+00 -2.670738303E+01  2.670738303E+01  0.000000000E+00  0.00000E+00  9.000E+00
      25     1     1     2     0     0 -7.103985034E+01  1.280409782E+02  4.306877845E+02  4.717607483E+02  1.250003336E+02  0.00000E+00  9.000E+00
       5     1     1     2   501     0 -4.813631542E+00  8.553183015E+00  5.039300284E+01  5.155914297E+01  4.750000000E+00  0.00000E+00  9.000E+00
      -5     1     1     2     0   502 -4.873612158E+00  2.214355093E+00  2.005929043E+01  2.129772515E+01  4.750000000E+00  0.00000E+00  9.000E+00
       2     1     1     2   512     0  8.072709404E+01 -1.388085164E+02  1.292408746E+03  1.302345974E+03  1.525878906E-05  0.00000E+00  9.000E+00
#rwgt            1           4   5.8378609369256996E-004           5     2678494           0
</event>
<event>
      6   9999  3.45752E-01  2.11464E+00 -1.00000E+00  3.23794E-01
      21    -1     0     0   501   511  0.000000000E+00  0.000000000E+00  1.419415977E+02  1.419415977E+02  0.000000000E+00  0.00000E+00  9.000E+00
      21    -1     0     0   502   503  0.000000000E+00  0.000000000E+00 -7.722047394E+02  7.722047394E+02  0.000000000E+00  0.00000E+00  9.000E+00
      25     1     1     2     0     0  1.190884431E+01  6.008138563E+00 -6.599377162E+02  6.718032905E+02  1.249958142E+02  0.00000E+00  9.000E+00
       5     1     1     2   501     0 -1.236831858E+00 -6.698256177E-01  1.293853293E+00  5.120056225E+00  4.750000000E+00  0.00000E+00  9.000E+00
      -5     1     1     2     0   503 -8.747296613E+00 -6.214207723E+00 -1.040830085E+02  1.047423827E+02  4.750000000E+00  0.00000E+00  9.000E+00
      21     1     1     2   502   511 -1.924715841E+00  8.758947775E-01  1.324637297E+02  1.324806077E+02  0.000000000E+00  0.00000E+00  9.000E+00
#rwgt            1           9   3.0696580126466266E-003           5     2678577           0
</event>
<event>
      6   9999  3.45752E-01  4.20012E+00 -1.00000E+00  2.43542E-01
      21    -1     0     0   501   502  0.000000000E+00  0.000000000E+00  1.151282254E+01  1.151282254E+01  0.000000000E+00  0.00000E+00  9.000E+00
      21    -1     0     0   502   512  0.000000000E+00  0.000000000E+00 -1.328854899E+03  1.328854899E+03  0.000000000E+00  0.00000E+00  9.000E+00
      25     1     1     2     0     0 -4.900403206E+00  3.344874166E+00 -7.925257698E+02  8.023446719E+02  1.249986982E+02  0.00000E+00  9.000E+00
       5     1     1     2   501     0  7.455014535E-01 -1.789018612E+00  4.967153608E+00  7.140831532E+00  4.750000000E+00  0.00000E+00  9.000E+00
      -5     1     1     2     0   503  2.275197644E+00 -5.311883688E+00 -2.533402536E+01  2.641529810E+01  4.750000000E+00  0.00000E+00  9.000E+00
      21     1     1     2   503   512  1.879704109E+00  3.756028134E+00 -5.044494352E+02  5.044669203E+02  0.000000000E+00  0.00000E+00  9.000E+00
#rwgt            1           9   1.8606736214560207E-003           5     2685790           0
</event>
<event>
      6   9999  3.45752E-01  2.42799E+01 -1.00000E+00  1.54037E-01
      21    -1     0     0   511   502  0.000000000E+00  0.000000000E+00  2.413839780E+01  2.413839780E+01  0.000000000E+00  0.00000E+00  9.000E+00
      21    -1     0     0   502   503  0.000000000E+00  0.000000000E+00 -1.092566813E+03  1.092566813E+03  0.000000000E+00  0.00000E+00  9.000E+00
      25     1     1     2     0     0 -7.690612279E+00  1.322295005E+01 -8.907489566E+02  8.996069170E+02  1.249996376E+02  0.00000E+00  9.000E+00
       5     1     1     2   501     0 -4.327050020E+00  2.067867860E+00  1.690596065E+01  1.820366570E+01  4.750000000E+00  0.00000E+00  9.000E+00
      -5     1     1     2     0   503 -9.713127805E-01  5.222556263E+00 -1.248519316E+02  1.250551313E+02  4.750000000E+00  0.00000E+00  9.000E+00
      21     1     1     2   511   501  1.298897508E+01 -2.051337417E+01 -6.973348738E+01  7.383949659E+01  0.000000000E+00  0.00000E+00  9.000E+00
#rwgt            1           9   1.3211135636764224E-003           5     2690260           0
</event>
<event>
      6   9999 -3.45752E-01  9.52175E+00 -1.00000E+00  1.89464E-01
       4    -1     0     0   502     0  0.000000000E+00  0.000000000E+00  9.867142530E+01  9.867142530E+01  0.000000000E+00  0.00000E+00  9.000E+00
      21    -1     0     0   501   502  0.000000000E+00  0.000000000E+00 -1.453542916E+03  1.453542916E+03  0.000000000E+00  0.00000E+00  9.000E+00
      25     1     1     2     0     0  1.066410216E+02 -4.398669470E+01 -6.173457806E+02  6.403510763E+02  1.250062049E+02  0.00000E+00  9.000E+00
       5     1     1     2   501     0 -1.032821034E+02  4.085497366E+01 -7.807970783E+02  7.886716438E+02  4.750000000E+00  0.00000E+00  9.000E+00
      -5     1     1     2     0   503 -4.808512835E-01 -5.944651155E+00 -3.932040065E+01  4.005279644E+01  4.750000000E+00  0.00000E+00  9.000E+00
       4     1     1     2   503     0 -2.878067011E+00  9.076372201E+00  8.259176915E+01  8.313882447E+01  3.932099939E-06  0.00000E+00  9.000E+00
#rwgt            1           9  -93.183278853227932                5     2692114           0
</event>
<event>
      6   9999  3.45752E-01  4.51336E+00 -1.00000E+00  2.37474E-01
      21    -1     0     0   501   502  0.000000000E+00  0.000000000E+00  4.688793668E+03  4.688793668E+03  0.000000000E+00  0.00000E+00  9.000E+00
      21    -1     0     0   502   511  0.000000000E+00  0.000000000E+00 -3.341382966E+00  3.341382966E+00  0.000000000E+00  0.00000E+00  9.000E+00
      25     1     1     2     0     0  7.365732646E+00 -1.725645945E+00  1.507578881E+03  1.512771223E+03  1.250018326E+02  0.00000E+00  9.000E+00
       5     1     1     2   501     0 -2.133040535E+00  1.669495116E+00  3.132917358E+03  3.132922130E+03  4.750000001E+00  0.00000E+00  9.000E+00
      -5     1     1     2     0   503 -2.146011837E+00 -3.236692944E+00  1.600053838E+01  1.713654798E+01  4.750000000E+00  0.00000E+00  9.000E+00
      21     1     1     2   503   511 -3.086680275E+00  3.292843773E+00  2.895550816E+01  2.930515088E+01  1.066240300E-06  0.00000E+00  9.000E+00
#rwgt            1           9   6.9946085826593239E-005           5     2696553           0
</event>
<event>
      6   9999  3.45752E-01  7.18363E+00 -1.00000E+00  2.03716E-01
      21    -1     0     0   501   512  0.000000000E+00  0.000000000E+00  8.438485164E+01  8.438485164E+01  0.000000000E+00  0.00000E+00  9.000E+00
      21    -1     0     0   502   503  0.000000000E+00  0.000000000E+00 -2.679137989E+03  2.679137989E+03  0.000000000E+00  0.00000E+00  9.000E+00
      25     1     1     2     0     0  1.066763070E+01  9.373419679E+00 -2.591523528E+03  2.594576166E+03  1.250185042E+02  0.00000E+00  9.000E+00
       5     1     1     2   501     0 -9.531225815E-01  6.215496037E-01 -1.124799322E+01  1.226273290E+01  4.750000000E+00  0.00000E+00  9.000E+00
      -5     1     1     2     0   503 -1.325328943E+01 -3.743446921E+00 -7.345945789E+01  7.489003625E+01  4.750000000E+00  0.00000E+00  9.000E+00
      21     1     1     2   502   512  3.538781311E+00 -6.251522362E+00  8.147784100E+01  8.179390612E+01  4.862803949E-06  0.00000E+00  9.000E+00
#rwgt            1           9   9.6893395979511642E-003           5     2701255           0
</event>
<event>
      6   9999  3.45752E-01  3.77127E+01 -1.00000E+00  1.41685E-01
      21    -1     0     0   501   511  0.000000000E+00  0.000000000E+00  1.881672212E+03  1.881672212E+03  0.000000000E+00  0.00000E+00  9.000E+00
      21    -1     0     0   502   503  0.000000000E+00  0.000000000E+00 -9.415462982E+01  9.415462982E+01  0.000000000E+00  0.00000E+00  9.000E+00
      25     1     1     2     0     0  1.855827472E+02 -1.942472521E+02  2.403087951E+02  3.815054388E+02  1.250005272E+02  0.00000E+00  9.000E+00
       5     1     1     2   501     0 -1.434312904E+00 -7.413406514E-01  3.094466843E+02  3.094873499E+02  4.750000000E+00  0.00000E+00  9.000E+00
      -5     1     1     2     0   503 -2.190351544E+02  2.093120994E+02  1.151302616E+03  1.190507552E+03  4.750000000E+00  0.00000E+00  9.000E+00
      21     1     1     2   502   511  3.488672013E+01 -1.432350662E+01  8.645948697E+01  9.432650195E+01  1.651812370E-06  0.00000E+00  9.000E+00
#rwgt            1           9   2.6929276217676906E-003           5     2704084           0
</event>
<event>
      6   9999  3.45752E-01  2.80876E+00 -1.00000E+00  2.84614E-01
      21    -1     0     0   501   502  0.000000000E+00  0.000000000E+00  3.779785335E+03  3.779785335E+03  0.000000000E+00  0.00000E+00  9.000E+00
      21    -1     0     0   502   512  0.000000000E+00  0.000000000E+00 -2.159562607E+00  2.159562607E+00  0.000000000E+00  0.00000E+00  9.000E+00
      25     1     1     2     0     0 -3.440959603E-01  4.959841707E+00  3.045853414E+03  3.048420646E+03  1.249828019E+02  0.00000E+00  9.000E+00
       5     1     1     2   501     0  4.287732570E-02  5.167132544E-01  5.371862815E+02  5.372075319E+02  4.750000000E+00  0.00000E+00  9.000E+00
      -5     1     1     2     0   503 -8.892547006E-01 -2.932566357E+00  1.930163165E+02  1.930990722E+02  4.750000000E+00  0.00000E+00  9.000E+00
      21     1     1     2   503   512  1.190473335E+00 -2.543988605E+00  1.569760617E+00  3.217647149E+00  2.346637211E-07  0.00000E+00  9.000E+00
#rwgt            1           9   7.5760586432620214E-004           5     2706345           0
</event>
<event>
      6   9999  3.45752E-01  5.76992E+00 -1.00000E+00  2.16451E-01
      21    -1     0     0   501   502  0.000000000E+00  0.000000000E+00  1.231643296E+01  1.231643296E+01  0.000000000E+00  0.00000E+00  9.000E+00
      21    -1     0     0   511   503  0.000000000E+00  0.000000000E+00 -9.329853526E+02  9.329853526E+02  0.000000000E+00  0.00000E+00  9.000E+00
      25     1     1     2     0     0 -9.944204813E+00 -3.031539798E+00 -6.847004032E+02  6.960946312E+02  1.250000638E+02  0.00000E+00  9.000E+00
       5     1     1     2   501     0  6.806400095E-01  1.136957278E+00  5.479246475E+00  7.371606651E+00  4.750000000E+00  0.00000E+00  9.000E+00
      -5     1     1     2     0   503  4.941059134E+00 -1.927454845E+00 -1.724646195E+02  1.726115194E+02  4.750000000E+00  0.00000E+00  9.000E+00
      21     1     1     2   511   502  4.322505670E+00  3.822037366E+00 -6.898314339E+01  6.922402832E+01  9.536743164E-07  0.00000E+00  9.000E+00
#rwgt            1           9   2.1856294103005301E-002           5     2711679           0
</event>
<event>
      6   9999  3.45752E-01  1.01407E+01 -1.00000E+00  1.86557E-01
      21    -1     0     0   501   502  0.000000000E+00  0.000000000E+00  5.390375945E+01  5.390375945E+01  0.000000000E+00  0.00000E+00  9.000E+00
       1    -1     0     0   502     0  0.000000000E+00  0.000000000E+00 -1.143465641E+03  1.143465641E+03  0.000000000E+00  0.00000E+00  9.000E+00
      25     1     1     2     0     0  3.061534553E+00 -3.469208928E+00 -7.474780294E+01  1.457200496E+02  1.250027616E+02  0.00000E+00  9.000E+00
       5     1     1     2   501     0 -1.422880099E+00  1.684040543E+00  1.479794399E+01  1.569720442E+01  4.750000000E+00  0.00000E+00  9.000E+00
      -5     1     1     2     0   503 -1.172571728E+01  2.826424352E+00 -1.021381987E+01  1.650350680E+01  4.750000000E+00  0.00000E+00  9.000E+00
       1     1     1     2   503     0  1.008706283E+01 -1.041255967E+00 -1.019398202E+03  1.019448639E+03  1.078959322E-05  0.00000E+00  9.000E+00
#rwgt            1           9   2.5208333533794378                5     2715423           0
</event>
<event>
      6   9999  3.45752E-01  2.18458E+01 -1.00000E+00  1.57338E-01
      21    -1     0     0   501   502  0.000000000E+00  0.000000000E+00  9.992779267E+01  9.992779267E+01  0.000000000E+00  0.00000E+00  9.000E+00
      21    -1     0     0   511   503  0.000000000E+00  0.000000000E+00 -1.830789916E+03  1.830789916E+03  0.000000000E+00  0.00000E+00  9.000E+00
      25     1     1     2     0     0 -7.611205351E+01  1.513337585E+02 -1.764568457E+02  2.746949535E+02  1.250013919E+02  0.00000E+00  9.000E+00
       5     1     1     2   501     0  8.886763315E+00  2.031726861E+00  4.573481935E+01  4.687577922E+01  4.750000000E+00  0.00000E+00  9.000E+00
      -5     1     1     2     0   503  6.451567910E+01 -1.316883561E+02 -1.453876379E+03  1.461260820E+03  4.750000000E+00  0.00000E+00  9.000E+00
      21     1     1     2   511   502  2.709611097E+00 -2.167712920E+01 -1.462637177E+02  1.478861557E+02  1.907348633E-06  0.00000E+00  9.000E+00
#rwgt            1           9   3.4698434723888630E-004           5     2717401           0
</event>
<event>
      6   9999  3.45752E-01  4.92478E+00 -1.00000E+00  2.30526E-01
      21    -1     0     0   512   502  0.000000000E+00  0.000000000E+00  2.415381925E+02  2.415381925E+02  0.000000000E+00  0.00000E+00  9.000E+00
      21    -1     0     0   502   503  0.000000000E+00  0.000000000E+00 -1.230147738E+03  1.230147738E+03  0.000000000E+00  0.00000E+00  9.000E+00
      25     1     1     2     0     0  1.330664669E+00 -5.977845773E+00 -1.151937558E+03  1.158712395E+03  1.249670802E+02  0.00000E+00  9.000E+00
       5     1     1     2   501     0 -1.080162273E+01 -4.187380402E+00  3.437408605E+01  3.658345938E+01  4.750000000E+00  0.00000E+00  9.000E+00
      -5     1     1     2     0   503  9.131271369E+00  5.252176201E+00 -7.323507283E+01  7.414110779E+01  4.750000000E+00  0.00000E+00  9.000E+00
      21     1     1     2   512   501  3.396866972E-01  4.913049974E+00  2.021889998E+02  2.022489680E+02  3.814697266E-06  0.00000E+00  9.000E+00
#rwgt            1           9   1.0072765903675984E-003           5     2720932           0
</event>
<event>
      6   9999  3.45752E-01  1.75054E+01 -1.00000E+00  1.64756E-01
      21    -1     0     0   501   502  0.000000000E+00  0.000000000E+00  2.529350345E+03  2.529350345E+03  0.000000000E+00  0.00000E+00  9.000E+00
      -1    -1     0     0     0   503  0.000000000E+00  0.000000000E+00 -8.121543057E+02  8.121543057E+02  0.000000000E+00  0.00000E+00  9.000E+00
      25     1     1     2     0     0 -1.764333127E+01 -2.525225261E+00  1.401926660E+03  1.407600991E+03  1.249980981E+02  0.00000E+00  9.000E+00
       5     1     1     2   501     0 -1.491116046E+00 -4.807657351E-01  8.792077005E+02  8.792219274E+02  4.750000000E+00  0.00000E+00  9.000E+00
      -5     1     1     2     0   503  3.552681179E+00 -4.972014457E+00  2.452159787E+02  2.453380956E+02  4.750000000E+00  0.00000E+00  9.000E+00
      -1     1     1     2     0   502  1.558176614E+01  7.978005453E+00 -8.091543005E+02  8.093436365E+02  1.525878906E-05  0.00000E+00  9.000E+00
#rwgt            1           9   7.0983024723815361E-004           5     2726585           0
</event>
<event>
      6   9999  3.45752E-01  6.15536E+00 -1.00000E+00  2.12523E-01
      21    -1     0     0   511   502  0.000000000E+00  0.000000000E+00  9.263712285E+01  9.263712285E+01  0.000000000E+00  0.00000E+00  9.000E+00
      21    -1     0     0   502   503  0.000000000E+00  0.000000000E+00 -8.151845989E+01  8.151845989E+01  0.000000000E+00  0.00000E+00  9.000E+00
      25     1     1     2     0     0  4.091378400E+00 -1.759592060E+00 -2.587239213E+01  1.276462031E+02  1.249173205E+02  0.00000E+00  9.000E+00
       5     1     1     2   501     0  7.190864054E-02 -1.233643349E+00  2.870642104E+01  2.912298329E+01  4.750000000E+00  0.00000E+00  9.000E+00
      -5     1     1     2     0   503  5.375964808E-01 -9.804431052E-01 -2.101637354E+00  5.313158969E+00  4.750000000E+00  0.00000E+00  9.000E+00
      21     1     1     2   511   501 -4.700883522E+00  3.973678514E+00  1.038627140E+01  1.207323736E+01  0.000000000E+00  0.00000E+00  9.000E+00
#rwgt            1           9   5.6141557287822782E-004           5     2727978           0
</event>
<event>
      6   9999  3.45752E-01  7.77987E+00 -1.00000E+00  1.99461E-01
      21    -1     0     0   501   502  0.000000000E+00  0.000000000E+00  1.062837437E+02  1.062837437E+02  0.000000000E+00  0.00000E+00  9.000E+00
      21    -1     0     0   512   503  0.000000000E+00  0.000000000E+00 -4.294311046E+02  4.294311046E+02  0.000000000E+00  0.00000E+00  9.000E+00
      25     1     1     2     0     0  1.498480394E+01  2.203940840E+01 -6.122401254E+01  1.417153200E+02  1.249982894E+02  0.00000E+00  9.000E+00
       5     1     1     2   501     0 -5.039459218E-01 -1.267592657E+00  6.101903858E+01  6.121883960E+01  4.750000000E+00  0.00000E+00  9.000E+00
      -5     1     1     2     0   503 -8.962390764E+00 -2.625568961E+01 -3.583297398E+01  4.556588865E+01  4.750000000E+00  0.00000E+00  9.000E+00
      21     1     1     2   512   502 -5.518467257E+00  5.483873867E+00 -2.871094129E+02  2.872148000E+02  3.814697266E-06  0.00000E+00  9.000E+00
#rwgt            1           9   4.9989107217022881E-004           5     2730930           0
</event>
<event>
      6   9999  3.45752E-01  1.45597E+01 -1.00000E+00  1.71501E-01
      21    -1     0     0   501   511  0.000000000E+00  0.000000000E+00  6.979181671E+01  6.979181671E+01  0.000000000E+00  0.00000E+00  9.000E+00
      21    -1     0     0   502   503  0.000000000E+00  0.000000000E+00 -9.263540605E+02  9.263540605E+02  0.000000000E+00  0.00000E+00  9.000E+00
      25     1     1     2     0     0  1.959333518E+01  1.239000048E+01 -8.343536883E+02  8.439835707E+02  1.249991182E+02  0.00000E+00  9.000E+00
       5     1     1     2   501     0  1.376765400E+01 -4.895707541E+00 -2.975081399E+00  1.565023509E+01  4.750000000E+00  0.00000E+00  9.000E+00
      -5     1     1     2     0   503 -2.298207080E+01  2.716563591E+00 -7.512669068E+01  7.875365038E+01  4.750000000E+00  0.00000E+00  9.000E+00
      21     1     1     2   502   511 -1.037891838E+01 -1.021085653E+01  5.589321660E+01  5.775842103E+01  6.743495762E-07  0.00000E+00  9.000E+00
#rwgt            1           9   176.50893438955825                5     2734414           0
</event>
<event>
      6   9999  3.45752E-01  2.33951E+01 -1.00000E+00  1.55181E-01
      21    -1     0     0   512   502  0.000000000E+00  0.000000000E+00  1.385979447E+03  1.385979447E+03  0.000000000E+00  0.00000E+00  9.000E+00
      21    -1     0     0   502   503  0.000000000E+00  0.000000000E+00 -6.108892190E+02  6.108892190E+02  0.000000000E+00  0.00000E+00  9.000E+00
      25     1     1     2     0     0  3.932275064E+01  2.160876285E+01 -5.760985401E+02  5.912083867E+02  1.249984452E+02  0.00000E+00  9.000E+00
       5     1     1     2   501     0  1.358839621E-01 -3.480673556E+00  2.245453228E+02  2.246225680E+02  4.750000000E+00  0.00000E+00  9.000E+00
      -5     1     1     2     0   503 -1.812265508E+01 -8.530957166E+00 -2.316566457E+01  3.099061749E+01  4.750000000E+00  0.00000E+00  9.000E+00
      21     1     1     2   512   501 -2.133597953E+01 -9.597132133E+00  1.149809110E+03  1.150047094E+03  0.000000000E+00  0.00000E+00  9.000E+00
#rwgt            1           9   4.5591402649318592E-003           5     2736306           0
</event>
<event>
      6   9999  3.45752E-01  9.81009E+00 -1.00000E+00  1.88075E-01
      21    -1     0     0   511   502  0.000000000E+00  0.000000000E+00  1.084979576E+01  1.084979576E+01  0.000000000E+00  0.00000E+00  9.000E+00
      21    -1     0     0   502   503  0.000000000E+00  0.000000000E+00 -8.012703613E+02  8.012703613E+02  0.000000000E+00  0.00000E+00  9.000E+00
      25     1     1     2     0     0 -1.343765136E+00  2.472580592E+00 -7.329288240E+02  7.435170780E+02  1.250002597E+02  0.00000E+00  9.000E+00
       5     1     1     2   501     0 -2.763800303E+00  1.212754194E+00  2.281066740E+00  6.072489631E+00  4.750000000E+00  0.00000E+00  9.000E+00
      -5     1     1     2     0   503 -5.589221615E+00 -2.198687972E+00 -3.614414560E+01  3.694638532E+01  4.750000000E+00  0.00000E+00  9.000E+00
      21     1     1     2   511   501  9.696787054E+00 -1.486646815E+00 -2.362866269E+01  2.558420408E+01  3.371747881E-07  0.00000E+00  9.000E+00
#rwgt            1           9   1.1706942560002248E-005           5     2738861           0
</event>
<event>
      6   9999  3.45752E-01  5.32064E+00 -1.00000E+00  2.21595E-01
      21    -1     0     0   512   502  0.000000000E+00  0.000000000E+00  1.332141263E+01  1.332141263E+01  0.000000000E+00  0.00000E+00  9.000E+00
      21    -1     0     0   502   503  0.000000000E+00  0.000000000E+00 -7.934607592E+02  7.934607592E+02  0.000000000E+00  0.00000E+00  9.000E+00
      25     1     1     2     0     0  2.239087159E+01 -1.757554062E+01 -5.528153957E+02  5.674855156E+02  1.249987915E+02  0.00000E+00  9.000E+00
       5     1     1     2   501     0 -1.113502659E+00 -2.395595639E+00  2.791824285E+00  6.110282275E+00  4.750000000E+00  0.00000E+00  9.000E+00
      -5     1     1     2     0   503 -2.166596178E+01  1.466470108E+01 -2.212831714E+02  2.228750139E+02  4.750000000E+00  0.00000E+00  9.000E+00
      21     1     1     2   512   501  3.885928546E-01  5.306435180E+00 -8.832603730E+00  1.031136011E+01  1.685873940E-07  0.00000E+00  9.000E+00
#rwgt            1           9   3.9629720687647460E-003           5     2741501           0
</event>
<event>
      6   9999  3.45752E-01  1.18598E+01 -1.00000E+00  1.79714E-01
      21    -1     0     0   501   502  0.000000000E+00  0.000000000E+00  1.382179285E+02  1.382179285E+02  0.000000000E+00  0.00000E+00  9.000E+00
      21    -1     0     0   502   511  0.000000000E+00  0.000000000E+00 -5.460593518E+02  5.460593518E+02  0.000000000E+00  0.00000E+00  9.000E+00
      25     1     1     2     0     0 -3.829051555E+00  1.615307435E+01 -3.162772025E+02  3.404863990E+02  1.249965425E+02  0.00000E+00  9.000E+00
       5     1     1     2   501     0  4.141352208E+00 -5.482597390E+00  1.253035131E+02  1.255816172E+02  4.750000000E+00  0.00000E+00  9.000E+00
      -5     1     1     2     0   503  5.260848528E+00 -2.017635262E-01 -2.530339666E+01  2.627815857E+01  4.750000000E+00  0.00000E+00  9.000E+00
      21     1     1     2   503   511 -5.573149181E+00 -1.046871344E+01 -1.915643372E+02  1.919311055E+02  0.000000000E+00  0.00000E+00  9.000E+00
#rwgt            1           9  0.36173696202099165                5     2745437           0
</event>
<event>
      6   9999  3.45752E-01  9.53206E+00 -1.00000E+00  1.89413E-01
      21    -1     0     0   501   502  0.000000000E+00  0.000000000E+00  2.345365438E+01  2.345365438E+01  0.000000000E+00  0.00000E+00  9.000E+00
      21    -1     0     0   502   512  0.000000000E+00  0.000000000E+00 -1.011822997E+03  1.011822997E+03  0.000000000E+00  0.00000E+00  9.000E+00
      25     1     1     2     0     0  5.518525985E+01 -1.360904596E+01 -8.254454517E+02  8.367886798E+02  1.249979272E+02  0.00000E+00  9.000E+00
       5     1     1     2   501     0 -1.067989690E+00  7.276140426E-02  1.077400121E+01  1.182317632E+01  4.750000000E+00  0.00000E+00  9.000E+00
      -5     1     1     2     0   503 -5.728823558E+01  4.547114475E+00 -1.347980263E+02  1.466140805E+02  4.750000000E+00  0.00000E+00  9.000E+00
      21     1     1     2   503   512  3.170965414E+00  8.989170080E+00 -3.889986616E+01  4.005071519E+01  4.768371582E-07  0.00000E+00  9.000E+00
#rwgt            1           9   1.6586358409345213E-003           5     2748789           0
</event>
<event>
      6   9999  3.45752E-01  9.95661E+00 -1.00000E+00  1.87393E-01
      21    -1     0     0   501   502  0.000000000E+00  0.000000000E+00  3.116305772E+01  3.116305772E+01  0.000000000E+00  0.00000E+00  9.000E+00
      21    -1     0     0   511   503  0.000000000E+00  0.000000000E+00 -5.509246258E+02  5.509246258E+02  0.000000000E+00  0.00000E+00  9.000E+00
      25     1     1     2     0     0 -2.092848199E+01  5.560447249E+01 -3.999891874E+02  4.232546406E+02  1.249931281E+02  0.00000E+00  9.000E+00
       5     1     1     2   501     0  4.657963898E-03 -6.124252023E-01  1.155157681E+01  1.250505950E+01  4.750000000E+00  0.00000E+00  9.000E+00
      -5     1     1     2     0   503  2.526851851E+01 -4.603338290E+01 -9.485913816E+01  1.085282865E+02  4.750000000E+00  0.00000E+00  9.000E+00
      21     1     1     2   511   502 -4.344694484E+00 -8.958664385E+00 -3.646481933E+01  3.779969691E+01  4.768371582E-07  0.00000E+00  9.000E+00
#rwgt            1           9   8.9205038494601346E-002           5     2752001           0
</event>
<event>
      6   9999  3.45752E-01  2.04334E+01 -1.00000E+00  1.59503E-01
      21    -1     0     0   501   502  0.000000000E+00  0.000000000E+00  1.977965148E+01  1.977965148E+01  0.000000000E+00  0.00000E+00  9.000E+00
      21    -1     0     0   502   512  0.000000000E+00  0.000000000E+00 -1.390297881E+03  1.390297881E+03  0.000000000E+00  0.00000E+00  9.000E+00
      25     1     1     2     0     0 -5.073252210E+01  2.854642205E+01 -6.031112560E+02  6.186733953E+02  1.249995836E+02  0.00000E+00  9.000E+00
       5     1     1     2   501     0  2.851256426E+00 -4.834942746E+00  6.385178742E+00  9.738549283E+00  4.750000000E+00  0.00000E+00  9.000E+00
      -5     1     1     2     0   503  6.345954564E+01 -3.693425178E+01 -3.638811624E+02  3.712456272E+02  4.750000000E+00  0.00000E+00  9.000E+00
      21     1     1     2   503   512 -1.557827996E+01  1.322277247E+01 -4.099109895E+02  4.104199604E+02  0.000000000E+00  0.00000E+00  9.000E+00
#rwgt            1           9   7.0052947350700290E-004           5     2754950           0
</event>
<event>
      6   9999 -3.45752E-01  3.67396E+01 -1.00000E+00  1.42362E-01
      21    -1     0     0   501   502  0.000000000E+00  0.000000000E+00  9.158275511E+01  9.158275511E+01  0.000000000E+00  0.00000E+00  9.000E+00
      21    -1     0     0   502   511  0.000000000E+00  0.000000000E+00 -2.445259161E+03  2.445259161E+03  0.000000000E+00  0.00000E+00  9.000E+00
      25     1     1     2     0     0  5.266169733E+00  2.919747721E+01 -1.524118881E+03  1.529525802E+03  1.250223628E+02  0.00000E+00  9.000E+00
       5     1     1     2   501     0 -5.962787646E+00  6.959180398E+00  8.791314399E+01  8.851705155E+01  4.750000000E+00  0.00000E+00  9.000E+00
      -5     1     1     2     0   503  5.322622278E+00  2.904969877E-01 -4.568258692E+01  4.623717059E+01  4.750000000E+00  0.00000E+00  9.000E+00
      21     1     1     2   503   511 -4.626004364E+00 -3.644715460E+01 -8.717880819E+02  8.725618916E+02  0.000000000E+00  0.00000E+00  9.000E+00
#rwgt            1           9  -3.0235181708729419E-003           5     2756494           0
</event>
<event>
      6   9999  3.45752E-01  3.51875E+00 -1.00000E+00  2.59966E-01
      -2    -1     0     0     0   502  0.000000000E+00  0.000000000E+00  4.213752069E+01  4.213752069E+01  0.000000000E+00  0.00000E+00  9.000E+00
      21    -1     0     0   502   503  0.000000000E+00  0.000000000E+00 -8.075320963E+02  8.075320963E+02  0.000000000E+00  0.00000E+00  9.000E+00
      25     1     1     2     0     0 -7.693248763E+00 -3.974089676E+01 -6.012953501E+02  6.154757085E+02  1.249628934E+02  0.00000E+00  9.000E+00
       5     1     1     2   501     0 -1.255951885E-01 -9.554177316E-02 -2.106155819E+00  5.198393474E+00  4.750000000E+00  0.00000E+00  9.000E+00
      -5     1     1     2     0   503  1.133753286E+01  3.985680625E+01 -1.931694899E+02  1.976211502E+02  4.750000000E+00  0.00000E+00  9.000E+00
      -2     1     1     2     0   501 -3.518688910E+00 -2.036772599E-02  3.117642028E+01  3.137436482E+01  1.815741803E-06  0.00000E+00  9.000E+00
#rwgt            1           9   4.1670244948670070E-004           5     2758434           0
</event>
<event>
      6   9999  3.45752E-01  1.44688E+02 -1.00000E+00  1.13990E-01
       2    -1     0     0   501     0  0.000000000E+00  0.000000000E+00  3.278752345E+03  3.278752345E+03  0.000000000E+00  0.00000E+00  9.000E+00
      21    -1     0     0   511   502  0.000000000E+00  0.000000000E+00 -1.941514610E+01  1.941514610E+01  0.000000000E+00  0.00000E+00  9.000E+00
      25     1     1     2     0     0  6.134018574E+01 -1.168132441E+02  5.604342930E+02  5.891681903E+02  1.249984293E+02  0.00000E+00  9.000E+00
       5     1     1     2   501     0 -5.623104097E+01 -1.326425714E+01  5.546656152E+02  5.576866304E+02  4.750000000E+00  0.00000E+00  9.000E+00
      -5     1     1     2     0   502 -1.060075988E+01 -1.450617670E+01  8.545455081E+01  8.745197554E+01  4.750000000E+00  0.00000E+00  9.000E+00
       2     1     1     2   511     0  5.491615105E+00  1.445836780E+02  2.058782740E+03  2.063860695E+03  0.000000000E+00  0.00000E+00  9.000E+00
#rwgt            1           4   4.3498855013622751E-004           5     2763688           0
</event>
<event>
      6   9999  3.45752E-01  3.39497E+00 -1.00000E+00  2.63578E-01
      21    -1     0     0   501   502  0.000000000E+00  0.000000000E+00  2.762704086E+01  2.762704086E+01  0.000000000E+00  0.00000E+00  9.000E+00
      21    -1     0     0   502   512  0.000000000E+00  0.000000000E+00 -1.129941550E+03  1.129941550E+03  0.000000000E+00  0.00000E+00  9.000E+00
      25     1     1     2     0     0 -1.134016479E+01  5.551581589E+00 -6.649833132E+02  6.767487988E+02  1.250068417E+02  0.00000E+00  9.000E+00
       5     1     1     2   501     0  6.942829731E+00 -7.571817869E-01  2.076694876E+01  2.241885077E+01  4.750000000E+00  0.00000E+00  9.000E+00
      -5     1     1     2     0   503  4.426740944E+00 -8.189243234E+00 -4.251334327E+02  4.252618697E+02  4.750000000E+00  0.00000E+00  9.000E+00
      21     1     1     2   503   512 -2.940588103E-02  3.394843432E+00 -3.296471201E+01  3.313907157E+01  4.768371582E-07  0.00000E+00  9.000E+00
#rwgt            1           9   4.1745094866223772E-004           5     2763767           0
</event>
<event>
      6   9999  3.45752E-01  5.49883E+01 -1.00000E+00  1.32614E-01
      -2    -1     0     0     0   503  0.000000000E+00  0.000000000E+00  7.829884467E+01  7.829884467E+01  0.000000000E+00  0.00000E+00  9.000E+00
      21    -1     0     0   501   502  0.000000000E+00  0.000000000E+00 -1.155909946E+03  1.155909946E+03  0.000000000E+00  0.00000E+00  9.000E+00
      25     1     1     2     0     0  5.861507991E+01  4.079448628E+01 -3.636862656E+02  3.911433595E+02  1.250020408E+02  0.00000E+00  9.000E+00
       5     1     1     2   501     0 -1.513033181E+02  6.499376159E+00 -6.390625849E+02  6.567788713E+02  4.750000000E+00  0.00000E+00  9.000E+00
      -5     1     1     2     0   503  6.307195166E+01 -9.625267095E-01 -1.057433926E+02  1.232202301E+02  4.750000000E+00  0.00000E+00  9.000E+00
      -2     1     1     2     0   502  2.961628658E+01 -4.633133573E+01  3.088114130E+01  6.306633008E+01  1.430511475E-06  0.00000E+00  9.000E+00
#rwgt            1           9   71.951686714103047                5     2770432           0
</event>
<event>
      6   9999  3.45752E-01  2.49347E+01 -1.00000E+00  1.53228E-01
      21    -1     0     0   501   502  0.000000000E+00  0.000000000E+00  4.835280516E+02  4.835280516E+02  0.000000000E+00  0.00000E+00  9.000E+00
      21    -1     0     0   511   503  0.000000000E+00  0.000000000E+00 -5.415220232E+02  5.415220232E+02  0.000000000E+00  0.00000E+00  9.000E+00
      25     1     1     2     0     0 -2.485202849E+01 -3.634035242E+01  4.784042126E+01  1.409045285E+02  1.250085426E+02  0.00000E+00  9.000E+00
       5     1     1     2   501     0 -3.432846287E+00 -5.761005981E+00  3.572505089E+02  3.573450184E+02  4.750000000E+00  0.00000E+00  9.000E+00
      -5     1     1     2     0   503  3.379767941E+01  1.778373917E+01  1.979478886E+01  4.327748466E+01  4.750000000E+00  0.00000E+00  9.000E+00
      21     1     1     2   511   502 -5.512804633E+00  2.431761923E+01 -4.828796906E+02  4.835230431E+02  0.000000000E+00  0.00000E+00  9.000E+00
#rwgt            1           9  0.76899748413708380                5     2771447           0
</event>
<event>
      6   9999  3.45752E-01  1.19811E+01 -1.00000E+00  1.79287E-01
      21    -1     0     0   502   503  0.000000000E+00  0.000000000E+00  3.498342789E+01  3.498342789E+01  0.000000000E+00  0.00000E+00  9.000E+00
      21    -1     0     0   512   502  0.000000000E+00  0.000000000E+00 -1.218999003E+03  1.218999003E+03  0.000000000E+00  0.00000E+00  9.000E+00
      25     1     1     2     0     0  7.872177411E+01 -2.252376711E+01 -2.346485437E+02  2.781895578E+02  1.250002128E+02  0.00000E+00  9.000E+00
       5     1     1     2   501     0 -7.741355301E+01 -7.137083079E+01 -3.601444875E+02  3.752509401E+02  4.750000000E+00  0.00000E+00  9.000E+00
      -5     1     1     2     0   503  6.741439818E+00  1.027686895E+02 -5.479791047E+02  5.575935009E+02  4.750000000E+00  0.00000E+00  9.000E+00
      21     1     1     2   512   501 -8.049660913E+00 -8.874091578E+00 -4.124343916E+01  4.294843205E+01  0.000000000E+00  0.00000E+00  9.000E+00
#rwgt            1           9   4.9697429106152777E-003           5     2773007           0
</event>
<event>
      6   9999  3.45752E-01  1.73649E+01 -1.00000E+00  1.65039E-01
      21    -1     0     0   501   502  0.000000000E+00  0.000000000E+00  2.000257179E+02  2.000257179E+02  0.000000000E+00  0.00000E+00  9.000E+00
      21    -1     0     0   511   503  0.000000000E+00  0.000000000E+00 -1.980267831E+02  1.980267831E+02  0.000000000E+00  0.00000E+00  9.000E+00
      25     1     1     2     0     0 -2.115016818E+00 -3.790545667E+01  4.820169858E+01  1.392470964E+02  1.250002127E+02  0.00000E+00  9.000E+00
       5     1     1     2   501     0  1.769682942E-01  6.056650113E-01  9.905274311E+01  9.916857650E+01  4.750000000E+00  0.00000E+00  9.000E+00
      -5     1     1     2     0   503  7.254775176E+00  2.076885328E+01 -1.395579715E+02  1.413611224E+02  4.750000000E+00  0.00000E+00  9.000E+00
      21     1     1     2   511   502 -5.316726652E+00  1.653093838E+01 -5.697535439E+00  1.827570562E+01  4.986882368E-07  0.00000E+00  9.000E+00
#rwgt            1           9   391.96114315044281                5     2776342           0
</event>
<event>
      6   9999  3.45752E-01  1.22550E+01 -1.00000E+00  1.78347E-01
      21    -1     0     0   512   503  0.000000000E+00  0.000000000E+00  8.614631135E+01  8.614631135E+01  0.000000000E+00  0.00000E+00  9.000E+00
      21    -1     0     0   501   502  0.000000000E+00  0.000000000E+00 -8.980670851E+02  8.980670851E+02  0.000000000E+00  0.00000E+00  9.000E+00
      25     1     1     2     0     0 -2.406703868E+01  2.883231490E+01 -4.570862711E+02  4.753556944E+02  1.249986092E+02  0.00000E+00  9.000E+00
       5     1     1     2   501     0  3.092115920E+01 -5.428652381E+01 -2.967338054E+02  3.032765380E+02  4.750000000E+00  0.00000E+00  9.000E+00
      -5     1     1     2     0   503 -6.997573053E-01  3.605181833E+01 -1.287953871E+02  1.338321244E+02  4.750000000E+00  0.00000E+00  9.000E+00
      21     1     1     2   512   502 -6.154363217E+00 -1.059760942E+01  7.069468985E+01  7.174903961E+01  2.861022949E-06  0.00000E+00  9.000E+00
#rwgt            1           9   2.0973105499691056E-003           5     2778878           0
</event>
<event>
      6   9999  3.45752E-01  3.70656E+00 -1.00000E+00  2.54904E-01
      21    -1     0     0   501   502  0.000000000E+00  0.000000000E+00  1.295665242E+01  1.295665242E+01  0.000000000E+00  0.00000E+00  9.000E+00
      21    -1     0     0   511   503  0.000000000E+00  0.000000000E+00 -1.027041406E+03  1.027041406E+03  0.000000000E+00  0.00000E+00  9.000E+00
      25     1     1     2     0     0 -2.043711479E+01  2.412674836E+00 -6.934065894E+02  7.048859116E+02  1.250118137E+02  0.00000E+00  9.000E+00
       5     1     1     2   501     0  2.811239906E+00 -7.010980728E-02  5.240613818E+00  7.611472813E+00  4.750000000E+00  0.00000E+00  9.000E+00
      -5     1     1     2     0   503  2.128519504E+01 -2.932432451E+00 -1.563009526E+02  1.578423548E+02  4.750000000E+00  0.00000E+00  9.000E+00
      21     1     1     2   511   502 -3.659320151E+00  5.898674225E-01 -1.696178257E+02  1.696583195E+02  3.303624740E-06  0.00000E+00  9.000E+00
#rwgt            1           9   2.0402180078148643E-004           5     2781505           0
</event>
<event>
      6   9999  3.45752E-01  2.60442E+01 -1.00000E+00  1.51923E-01
      21    -1     0     0   501   502  0.000000000E+00  0.000000000E+00  2.472641433E+01  2.472641433E+01  0.000000000E+00  0.00000E+00  9.000E+00
      21    -1     0     0   502   512  0.000000000E+00  0.000000000E+00 -1.350357685E+03  1.350357685E+03  0.000000000E+00  0.00000E+00  9.000E+00
      25     1     1     2     0     0  1.694735744E+01  9.485413982E+01 -8.918449738E+02  9.057061965E+02  1.250269424E+02  0.00000E+00  9.000E+00
       5     1     1     2   501     0 -6.013880427E+00  3.391652758E-01  7.027686288E+00  1.040349294E+01  4.750000000E+00  0.00000E+00  9.000E+00
      -5     1     1     2     0   503 -5.679453117E-01 -7.130074262E+01 -1.414189667E+02  1.584487460E+02  4.750000000E+00  0.00000E+00  9.000E+00
      21     1     1     2   503   512 -1.036553170E+01 -2.389256248E+01 -2.993950165E+02  3.005256639E+02  5.394796609E-06  0.00000E+00  9.000E+00
#rwgt            1           9   3.5614893329829751E-003           5     2786520           0
</event>
<event>
      6   9999  3.45752E-01  2.89889E+01 -1.00000E+00  1.48808E-01
      21    -1     0     0   501   502  0.000000000E+00  0.000000000E+00  5.120081894E+02  5.120081894E+02  0.000000000E+00  0.00000E+00  9.000E+00
      21    -1     0     0   511   503  0.000000000E+00  0.000000000E+00 -3.930036874E+02  3.930036874E+02  0.000000000E+00  0.00000E+00  9.000E+00
      25     1     1     2     0     0 -1.020187123E+01  5.032570503E+00 -1.137130456E+02  1.693663639E+02  1.249996141E+02  0.00000E+00  9.000E+00
       5     1     1     2   501     0 -2.530272985E+01  7.978312553E+00  4.774961987E+02  4.782562742E+02  4.750000000E+00  0.00000E+00  9.000E+00
      -5     1     1     2     0   503  6.838273702E+00 -8.698147267E+00 -1.209936311E+00  1.210149573E+01  4.750000000E+00  0.00000E+00  9.000E+00
      21     1     1     2   511   502  2.866632738E+01 -4.312735789E+00 -2.435687148E+02  2.452877430E+02  3.814697266E-06  0.00000E+00  9.000E+00
#rwgt            1           9  0.61226157565533668                5     2788312           0
</event>
<event>
      6   9999 -3.45752E-01  9.12853E+00 -1.00000E+00  1.91464E-01
      21    -1     0     0   512   502  0.000000000E+00  0.000000000E+00  2.534102748E+01  2.534102748E+01  0.000000000E+00  0.00000E+00  9.000E+00
      21    -1     0     0   502   503  0.000000000E+00  0.000000000E+00 -1.029617023E+03  1.029617023E+03  0.000000000E+00  0.00000E+00  9.000E+00
      25     1     1     2     0     0 -2.579986012E+00  5.309276833E+01 -2.999321703E+02  3.291524136E+02  1.247257241E+02  0.00000E+00  9.000E+00
       5     1     1     2   501     0  2.683840116E+00 -1.908075450E+00  5.356612884E+00  7.880326851E+00  4.750000000E+00  0.00000E+00  9.000E+00
      -5     1     1     2     0   503  8.041472260E+00 -5.530583183E+01 -7.057555804E+02  7.079808627E+02  4.750000000E+00  0.00000E+00  9.000E+00
      21     1     1     2   512   501 -8.145326364E+00  4.121138950E+00 -3.944857717E+00  9.944447205E+00  1.685873940E-07  0.00000E+00  9.000E+00
#rwgt            1           9  -2.3612824134875399E-003           5     2790451           0
</event>
<event>
      6   9999 -3.45752E-01  1.05637E+01 -1.00000E+00  1.84720E-01
      21    -1     0     0   501   502  0.000000000E+00  0.000000000E+00  1.803519621E+03  1.803519621E+03  0.000000000E+00  0.00000E+00  9.000E+00
      21    -1     0     0   511   503  0.000000000E+00  0.000000000E+00 -2.273237178E+01  2.273237178E+01  0.000000000E+00  0.00000E+00  9.000E+00
      25     1     1     2     0     0  1.230707249E+01 -1.428304258E+01  4.886810643E+02  5.047680719E+02  1.250046179E+02  0.00000E+00  9.000E+00
       5     1     1     2   501     0  3.849123622E+00  1.784882304E+00  1.288124579E+03  1.288140325E+03  4.750000000E+00  0.00000E+00  9.000E+00
      -5     1     1     2     0   503 -9.678096122E+00  4.153979493E+00  1.443016149E+01  1.848548487E+01  4.750000000E+00  0.00000E+00  9.000E+00
      21     1     1     2   511   502 -6.478099995E+00  8.344180778E+00 -1.044855630E+01  1.485811095E+01  1.198038533E-06  0.00000E+00  9.000E+00
#rwgt            1           9  -1.4013751554156201E-003           5     2793786           0
</event>
<event>
      6   9999  3.45752E-01  1.00356E+01 -1.00000E+00  1.87031E-01
      21    -1     0     0   501   502  0.000000000E+00  0.000000000E+00  1.767740516E+03  1.767740516E+03  0.000000000E+00  0.00000E+00  9.000E+00
      21    -1     0     0   512   503  0.000000000E+00  0.000000000E+00 -4.706107964E+01  4.706107964E+01  0.000000000E+00  0.00000E+00  9.000E+00
      25     1     1     2     0     0  1.946601524E+01  8.797784015E+00  1.358010992E+03  1.363918795E+03  1.249971920E+02  0.00000E+00  9.000E+00
       5     1     1     2   501     0  1.888380547E-01  7.847274423E-01  3.940185205E+02  3.940479774E+02  4.750000000E+00  0.00000E+00  9.000E+00
      -5     1     1     2     0   503 -9.875866446E+00 -1.183737993E+01  6.711995571E+00  1.747196858E+01  4.750000000E+00  0.00000E+00  9.000E+00
      21     1     1     2   512   502 -9.778986848E+00  2.254868471E+00 -3.806207183E+01  3.936285467E+01  4.768371582E-07  0.00000E+00  9.000E+00
#rwgt            1           9  0.14244457138784611                5     2796381           0
</event>
<event>
      6   9999  3.45752E-01  7.59157E+00 -1.00000E+00  2.00748E-01
      21    -1     0     0   501   502  0.000000000E+00  0.000000000E+00  7.622748723E+02  7.622748723E+02  0.000000000E+00  0.00000E+00  9.000E+00
      21    -1     0     0   502   511  0.000000000E+00  0.000000000E+00 -1.220477297E+01  1.220477297E+01  0.000000000E+00  0.00000E+00  9.000E+00
      25     1     1     2     0     0 -7.701644464E+00 -1.948122664E+00  7.128199768E+02  7.237411226E+02  1.250031310E+02  0.00000E+00  9.000E+00
       5     1     1     2   501     0  1.408482258E-02 -1.786159585E-01  2.058852880E+01  2.113012352E+01  4.750000000E+00  0.00000E+00  9.000E+00
      -5     1     1     2     0   503  2.135090695E-01  7.961357849E-01  2.052971189E+01  2.108817177E+01  4.750000000E+00  0.00000E+00  9.000E+00
      21     1     1     2   503   511  7.474050572E+00  1.330602838E+00 -3.868118162E+00  8.520227343E+00  1.332800375E-07  0.00000E+00  9.000E+00
#rwgt            1           9   3.7968265540533532E-003           5     2799520           0
</event>
<event>
      6   9999  3.45752E-01  3.27946E+01 -1.00000E+00  1.45379E-01
      21    -1     0     0   501   502  0.000000000E+00  0.000000000E+00  4.869753582E+01  4.869753582E+01  0.000000000E+00  0.00000E+00  9.000E+00
      21    -1     0     0   502   512  0.000000000E+00  0.000000000E+00 -1.499512470E+03  1.499512470E+03  0.000000000E+00  0.00000E+00  9.000E+00
      25     1     1     2     0     0 -6.015962400E+01  9.811277667E+01 -1.689842239E+02  2.396332607E+02  1.249925375E+02  0.00000E+00  9.000E+00
       5     1     1     2   501     0 -1.018175448E+00 -2.115429978E+00  8.083917269E+00  9.665606223E+00  4.750000000E+00  0.00000E+00  9.000E+00
      -5     1     1     2     0   503  3.264969496E+01 -1.121723396E+02 -1.098772209E+03  1.104975821E+03  4.750000000E+00  0.00000E+00  9.000E+00
      21     1     1     2   503   512  2.852810449E+01  1.617499288E+01 -1.911424191E+02  1.939353179E+02  3.814697266E-06  0.00000E+00  9.000E+00
#rwgt            1           9   1.3747050217188144E-003           5     2802113           0
</event>
<event>
      6   9999  3.45752E-01  5.35348E+00 -1.00000E+00  2.21196E-01
      21    -1     0     0   501   511  0.000000000E+00  0.000000000E+00  3.078782285E+03  3.078782285E+03  0.000000000E+00  0.00000E+00  9.000E+00
      21    -1     0     0   502   503  0.000000000E+00  0.000000000E+00 -2.862401905E+00  2.862401905E+00  0.000000000E+00  0.00000E+00  9.000E+00
      25     1     1     2     0     0  3.249924170E+01 -1.564509978E+01  2.583361711E+03  2.586630095E+03  1.248861537E+02  0.00000E+00  9.000E+00
       5     1     1     2   501     0  7.885246651E-02 -3.324075507E-02  1.506983683E+02  1.507732338E+02  4.750000000E+00  0.00000E+00  9.000E+00
      -5     1     1     2     0   503 -3.070117210E+01  1.066466918E+01  2.395215030E+02  2.417631279E+02  4.750000000E+00  0.00000E+00  9.000E+00
      21     1     1     2   502   511 -1.876922065E+00  5.013671358E+00  1.023383007E+02  1.024782295E+02  2.336015456E-06  0.00000E+00  9.000E+00
#rwgt            1           9   6.8925743057385216E-004           5     2804237           0
</event>
<event>
      6   9999  3.45752E-01  2.63068E+01 -1.00000E+00  1.51626E-01
      21    -1     0     0   501   502  0.000000000E+00  0.000000000E+00  7.663201233E+00  7.663201233E+00  0.000000000E+00  0.00000E+00  9.000E+00
      21    -1     0     0   512   503  0.000000000E+00  0.000000000E+00 -1.115680525E+03  1.115680525E+03  0.000000000E+00  0.00000E+00  9.000E+00
      25     1     1     2     0     0 -3.390849125E+01  7.301199924E+00 -6.330301690E+02  6.461849743E+02  1.249989315E+02  0.00000E+00  9.000E+00
       5     1     1     2   501     0  6.898343434E+00 -1.367848579E+00 -3.732762472E+01  3.828018050E+01  4.750000000E+00  0.00000E+00  9.000E+00
      -5     1     1     2     0   503  1.804933081E+00  1.599678705E+00 -4.051770090E+01  4.086640848E+01  4.750000000E+00  0.00000E+00  9.000E+00
      21     1     1     2   512   502  2.520521474E+01 -7.533030050E+00 -3.971418294E+02  3.980121632E+02  5.394796609E-06  0.00000E+00  9.000E+00
#rwgt            1           9   1.8077925675738286E-003           5     2807816           0
</event>
<event>
      6   9999  3.45752E-01  2.39316E+00 -1.00000E+00  3.05385E-01
      21    -1     0     0   501   511  0.000000000E+00  0.000000000E+00  4.444460759E+02  4.444460759E+02  0.000000000E+00  0.00000E+00  9.000E+00
      21    -1     0     0   502   503  0.000000000E+00  0.000000000E+00 -9.902601309E+01  9.902601309E+01  0.000000000E+00  0.00000E+00  9.000E+00
      25     1     1     2     0     0  1.238703439E+00  1.209689401E+00 -5.112814523E+01  1.350682389E+02  1.250053767E+02  0.00000E+00  9.000E+00
       5     1     1     2   501     0 -1.058381059E+00 -3.056541596E+00  9.648650179E+01  9.665748882E+01  4.750000000E+00  0.00000E+00  9.000E+00
      -5     1     1     2     0   503 -2.192197139E+00  5.508722415E-01 -4.652571867E+00  7.022685633E+00  4.750000000E+00  0.00000E+00  9.000E+00
      21     1     1     2   502   511  2.011874759E+00  1.295979953E+00  3.047142781E+02  3.047236756E+02  0.000000000E+00  0.00000E+00  9.000E+00
#rwgt            1           9   3.2696594881883057                5     2808724           0
</event>
<event>
      6   9999  3.45752E-01  1.33055E+02 -1.00000E+00  1.15390E-01
      21    -1     0     0   501   502  0.000000000E+00  0.000000000E+00  3.355479474E+03  3.355479474E+03  0.000000000E+00  0.00000E+00  9.000E+00
      21    -1     0     0   502   512  0.000000000E+00  0.000000000E+00 -7.050291414E+01  7.050291414E+01  0.000000000E+00  0.00000E+00  9.000E+00
      25     1     1     2     0     0 -3.754663118E+02 -2.179165777E+02  2.074625530E+03  2.123242518E+03  1.250004577E+02  0.00000E+00  9.000E+00
       5     1     1     2   501     0  7.826295743E+00 -1.857050888E+01  1.949425062E+02  1.960389194E+02  4.750000000E+00  0.00000E+00  9.000E+00
      -5     1     1     2     0   503  2.492536886E+02  1.757548921E+02  7.544882796E+02  8.138134369E+02  4.750000000E+00  0.00000E+00  9.000E+00
      21     1     1     2   503   512  1.183863275E+02  6.073219453E+01  2.609202432E+02  2.928875130E+02  3.814697266E-06  0.00000E+00  9.000E+00
#rwgt            1           9   9.6864116430058704E-004           5     2816474           0
</event>
<event>
      6   9999  3.45752E-01  2.22490E+01 -1.00000E+00  1.56756E-01
      21    -1     0     0   502   503  0.000000000E+00  0.000000000E+00  1.742842942E+01  1.742842942E+01  0.000000000E+00  0.00000E+00  9.000E+00
      21    -1     0     0   501   511  0.000000000E+00  0.000000000E+00 -6.824953423E+02  6.824953423E+02  0.000000000E+00  0.00000E+00  9.000E+00
      25     1     1     2     0     0 -1.301963986E+01 -1.264826767E+01 -4.472602514E+02  4.647532618E+02  1.249974885E+02  0.00000E+00  9.000E+00
       5     1     1     2   501     0 -9.389904908E-01 -3.706561548E-01 -1.089526458E+00  4.976811934E+00  4.750000000E+00  0.00000E+00  9.000E+00
      -5     1     1     2     0   503 -3.338548426E+00 -9.749233447E-01  4.779120530E+00  7.582801208E+00  4.750000000E+00  0.00000E+00  9.000E+00
      21     1     1     2   502   511  1.729717877E+01  1.399384717E+01 -2.214962555E+02  2.226108968E+02  0.000000000E+00  0.00000E+00  9.000E+00
#rwgt            1           9   6.6415743827670012E-003           5     2817118           0
</event>
<event>
      6   9999  3.45752E-01  3.71778E+01 -1.00000E+00  1.42054E-01
      21    -1     0     0   502   512  0.000000000E+00  0.000000000E+00  1.990596309E+02  1.990596309E+02  0.000000000E+00  0.00000E+00  9.000E+00
      21    -1     0     0   501   502  0.000000000E+00  0.000000000E+00 -1.433167592E+03  1.433167592E+03  0.000000000E+00  0.00000E+00  9.000E+00
      25     1     1     2     0     0  1.486988578E+02  1.112457726E+02 -1.006438196E+03  1.031033485E+03  1.250009226E+02  0.00000E+00  9.000E+00
       5     1     1     2   501     0  5.237164329E+01 -1.907213857E+01 -2.130218717E+02  2.202439916E+02  4.750000000E+00  0.00000E+00  9.000E+00
      -5     1     1     2     0   503 -1.892042176E+02 -5.694038640E+01 -1.451744345E+02  2.452317730E+02  4.750000000E+00  0.00000E+00  9.000E+00
      21     1     1     2   503   512 -1.186628346E+01 -3.523324764E+01  1.305265414E+02  1.357179739E+02  3.303624740E-06  0.00000E+00  9.000E+00
#rwgt            1           9   1.3174366458392912E-002           5     2818369           0
</event>
<event>
      6   9999  3.45752E-01  1.12424E+01 -1.00000E+00  1.81991E-01
      21    -1     0     0   502   511  0.000000000E+00  0.000000000E+00  2.810008380E+01  2.810008380E+01  0.000000000E+00  0.00000E+00  9.000E+00
      21    -1     0     0   501   502  0.000000000E+00  0.000000000E+00 -9.732713203E+02  9.732713203E+02  0.000000000E+00  0.00000E+00  9.000E+00
      25     1     1     2     0     0  7.507231387E+01  5.326159235E+01 -4.810729602E+02  5.054977340E+02  1.249964658E+02  0.00000E+00  9.000E+00
       5     1     1     2   501     0 -7.022869670E+01 -7.128147214E+01 -4.505852726E+02  4.615872274E+02  4.750000000E+00  0.00000E+00  9.000E+00
      -5     1     1     2     0   503  8.123296332E-01  8.303849600E+00 -1.936341465E+01  2.161291569E+01  4.750000000E+00  0.00000E+00  9.000E+00
      21     1     1     2   503   511 -5.655946808E+00  9.716030186E+00  5.850411038E+00  1.267352698E+01  5.127385418E-07  0.00000E+00  9.000E+00
#rwgt            1           9   7.1893097598728448E-004           5     2820743           0
</event>
<event>
      6   9999  3.45752E-01  3.10358E+00 -1.00000E+00  2.73112E-01
      -2    -1     0     0     0   502  0.000000000E+00  0.000000000E+00  2.343855131E+01  2.343855131E+01  0.000000000E+00  0.00000E+00  9.000E+00
      21    -1     0     0   502   503  0.000000000E+00  0.000000000E+00 -6.957868231E+02  6.957868231E+02  0.000000000E+00  0.00000E+00  9.000E+00
      25     1     1     2     0     0  7.957433239E+00  2.334231451E-01 -6.337213775E+02  6.459868131E+02  1.250312085E+02  0.00000E+00  9.000E+00
       5     1     1     2   501     0 -4.786549494E+00 -9.237040540E-01 -2.424258019E+01  2.517994201E+01  4.750000000E+00  0.00000E+00  9.000E+00
      -5     1     1     2     0   503 -1.315295229E+00 -1.797488112E+00 -3.085512403E+01  3.129795750E+01  4.750000000E+00  0.00000E+00  9.000E+00
      -2     1     1     2     0   501 -1.855588516E+00  2.487769021E+00  1.647080997E+01  1.676066181E+01  2.384185791E-07  0.00000E+00  9.000E+00
#rwgt            1           9   8.7629204955903955E-003           5     2823636           0
</event>
<event>
      6   9999 -3.45752E-01  2.02344E+01 -1.00000E+00  1.59825E-01
      21    -1     0     0   501   511  0.000000000E+00  0.000000000E+00  1.187381045E+01  1.187381045E+01  0.000000000E+00  0.00000E+00  9.000E+00
      21    -1     0     0   502   503  0.000000000E+00  0.000000000E+00 -8.699003947E+02  8.699003947E+02  0.000000000E+00  0.00000E+00  9.000E+00
      25     1     1     2     0     0 -2.748960350E+01 -2.433681087E+01 -7.471837993E+02  7.584571491E+02  1.250026342E+02  0.00000E+00  9.000E+00
       5     1     1     2   501     0 -1.535170741E+00 -1.015886072E+00 -2.837839499E-01  5.102137498E+00  4.750000000E+00  0.00000E+00  9.000E+00
      -5     1     1     2     0   503  1.066362910E+01  1.684986610E+01 -4.205087612E+01  4.678108224E+01  4.750000000E+00  0.00000E+00  9.000E+00
      21     1     1     2   502   511  1.836114514E+01  8.502830839E+00 -6.850812495E+01  7.143383629E+01  0.000000000E+00  0.00000E+00  9.000E+00
#rwgt            1           9  -7.2664212880098973E-005           5     2828763           0
</event>
<event>
      6   9999 -3.45752E-01  6.78545E+00 -1.00000E+00  2.06877E-01
      21    -1     0     0   512   502  0.000000000E+00  0.000000000E+00  9.893782161E+01  9.893782161E+01  0.000000000E+00  0.00000E+00  9.000E+00
      21    -1     0     0   502   503  0.000000000E+00  0.000000000E+00 -9.015336169E+02  9.015336169E+02  0.000000000E+00  0.00000E+00  9.000E+00
      25     1     1     2     0     0  1.399043988E+00  8.330885122E+00 -8.558769555E+02  8.649973795E+02  1.249949705E+02  0.00000E+00  9.000E+00
       5     1     1     2   501     0  2.425063866E+00 -1.769772828E-01  3.729706305E+00  6.510412032E+00  4.750000000E+00  0.00000E+00  9.000E+00
      -5     1     1     2     0   503 -1.213958319E+00 -1.890568255E+00 -3.940247479E+01  3.975129511E+01  4.750000000E+00  0.00000E+00  9.000E+00
      21     1     1     2   512   501 -2.610149535E+00 -6.263339584E+00  8.895392867E+01  8.921235189E+01  1.907348633E-06  0.00000E+00  9.000E+00
#rwgt            1           9  -1.8855428454355914E-002           5     2830343           0
</event>
<event>
      6   9999  3.45752E-01  4.55756E+00 -1.00000E+00  2.36676E-01
      21    -1     0     0   501   502  0.000000000E+00  0.000000000E+00  7.760331091E+01  7.760331091E+01  0.000000000E+00  0.00000E+00  9.000E+00
      21    -1     0     0   511   503  0.000000000E+00  0.000000000E+00 -1.238126694E+02  1.238126694E+02  0.000000000E+00  0.00000E+00  9.000E+00
      25     1     1     2     0     0 -2.263130955E+01 -1.662476751E+01 -2.222429676E+01  1.300232914E+02  1.249943113E+02  0.00000E+00  9.000E+00
       5     1     1     2   501     0  1.001141170E-01  3.497039009E-02  5.421101932E+00  7.208473620E+00  4.750000000E+00  0.00000E+00  9.000E+00
      -5     1     1     2     0   503  1.816218709E+01  1.788713415E+01  7.503633223E+00  2.699410342E+01  4.750000000E+00  0.00000E+00  9.000E+00
      21     1     1     2   511   502  4.369008339E+00 -1.297337026E+00 -3.690979689E+01  3.719011191E+01  6.743495762E-07  0.00000E+00  9.000E+00
#rwgt            1           9   3.7024191687648903E-003           5     2834459           0
</event>
<event>
      6   9999  3.45752E-01  5.23213E+00 -1.00000E+00  2.22692E-01
      21    -1     0     0   501   502  0.000000000E+00  0.000000000E+00  1.226247800E+02  1.226247800E+02  0.000000000E+00  0.00000E+00  9.000E+00
      21    -1     0     0   512   503  0.000000000E+00  0.000000000E+00 -8.823322934E+01  8.823322934E+01  0.000000000E+00  0.00000E+00  9.000E+00
      25     1     1     2     0     0  6.557654152E+00 -9.345251673E-01 -3.118413711E+01  1.289980294E+02  1.249966601E+02  0.00000E+00  9.000E+00
       5     1     1     2   501     0 -1.440332091E+00  4.869995651E-01  7.050695490E+01  7.068313034E+01  4.750000000E+00  0.00000E+00  9.000E+00
      -5     1     1     2     0   503  6.998183723E-03 -6.091244282E-01 -2.118326585E+00  5.236495877E+00  4.750000000E+00  0.00000E+00  9.000E+00
      21     1     1     2   512   502 -5.124320245E+00  1.056650030E+00 -2.812940551E+00  5.940353676E+00  1.115100797E-07  0.00000E+00  9.000E+00
#rwgt            1           9   4.5864318063317941E-003           5     2838966           0
</event>
<event>
      6   9999  3.45752E-01  1.99910E+01 -1.00000E+00  1.60225E-01
      21    -1     0     0   501   502  0.000000000E+00  0.000000000E+00  1.507939983E+01  1.507939983E+01  0.000000000E+00  0.00000E+00  9.000E+00
      21    -1     0     0   511   503  0.000000000E+00  0.000000000E+00 -9.976496863E+02  9.976496863E+02  0.000000000E+00  0.00000E+00  9.000E+00
      25     1     1     2     0     0  2.074915023E+01  3.536910255E+01 -7.156864091E+02  7.276757511E+02  1.249938478E+02  0.00000E+00  9.000E+00
       5     1     1     2   501     0 -1.182561928E+00  1.196439119E+00  4.366641935E+00  6.667831812E+00  4.750000000E+00  0.00000E+00  9.000E+00
      -5     1     1     2     0   503 -3.441892596E+01 -2.318468736E+01 -1.605683415E+02  1.659124678E+02  4.750000000E+00  0.00000E+00  9.000E+00
      21     1     1     2   511   502  1.485233766E+01 -1.338085430E+01 -1.106821778E+02  1.124730354E+02  1.348699152E-06  0.00000E+00  9.000E+00
#rwgt            1           9   2.2844260762537061E-006           5     2843200           0
</event>
<event>
      6   9999  3.45752E-01  4.09323E+00 -1.00000E+00  2.45797E-01
      21    -1     0     0   512   502  0.000000000E+00  0.000000000E+00  4.734510803E+01  4.734510803E+01  0.000000000E+00  0.00000E+00  9.000E+00
      21    -1     0     0   502   503  0.000000000E+00  0.000000000E+00 -1.306283297E+03  1.306283297E+03  0.000000000E+00  0.00000E+00  9.000E+00
      25     1     1     2     0     0 -4.690347817E+01  3.427013173E+01 -2.876958457E+02  3.190110976E+02  1.249992104E+02  0.00000E+00  9.000E+00
       5     1     1     2   501     0 -2.372578897E+00  5.829391698E+00  2.952836551E+01  3.056301372E+01  4.750000000E+00  0.00000E+00  9.000E+00
      -5     1     1     2     0   503  4.773493058E+01 -3.630749213E+01 -9.957976417E+02  9.976133335E+02  4.750000000E+00  0.00000E+00  9.000E+00
      21     1     1     2   512   501  1.541126488E+00 -3.792031296E+00 -4.973067498E+00  6.440960530E+00  0.000000000E+00  0.00000E+00  9.000E+00
#rwgt            1           9   4.1677522652628388E-004           5     2844669           0
</event>
<event>
      6   9999  3.45752E-01  1.22986E+01 -1.00000E+00  1.78200E-01
      21    -1     0     0   501   502  0.000000000E+00  0.000000000E+00  1.636180825E+01  1.636180825E+01  0.000000000E+00  0.00000E+00  9.000E+00
      21    -1     0     0   502   511  0.000000000E+00  0.000000000E+00 -6.561600956E+02  6.561600956E+02  0.000000000E+00  0.00000E+00  9.000E+00
      25     1     1     2     0     0  1.622625354E+01 -1.552661660E+01 -3.096363832E+02  3.346716741E+02  1.250042900E+02  0.00000E+00  9.000E+00
       5     1     1     2   501     0  5.084953472E-01 -3.771348946E-01  1.179257200E+00  4.934971711E+00  4.750000000E+00  0.00000E+00  9.000E+00
      -5     1     1     2     0   503 -1.302204650E+01  4.178962072E+00 -8.180565072E+01  8.307685844E+01  4.750000000E+00  0.00000E+00  9.000E+00
      21     1     1     2   503   511 -3.712702381E+00  1.172478942E+01 -2.495355106E+02  2.498383996E+02  2.697398305E-06  0.00000E+00  9.000E+00
#rwgt            1           9   1.6673883927444579E-003           5     2851869           0
</event>
<event>
      6   9999  3.45752E-01  2.20676E+01 -1.00000E+00  1.57016E-01
      21    -1     0     0   501   512  0.000000000E+00  0.000000000E+00  2.180135273E+01  2.180135273E+01  0.000000000E+00  0.00000E+00  9.000E+00
      21    -1     0     0   502   503  0.000000000E+00  0.000000000E+00 -8.497238369E+02  8.497238369E+02  0.000000000E+00  0.00000E+00  9.000E+00
      25     1     1     2     0     0 -1.160211211E+00  1.941315009E+01 -8.106847392E+02  8.204955576E+02  1.249999890E+02  0.00000E+00  9.000E+00
       5     1     1     2   501     0 -7.108873479E-01  7.714919584E+00  3.134570548E+00  9.613187689E+00  4.750000000E+00  0.00000E+00  9.000E+00
      -5     1     1     2     0   503  1.682203161E+00 -5.061264104E+00 -1.782464239E+01  1.920225450E+01  4.750000000E+00  0.00000E+00  9.000E+00
      21     1     1     2   502   512  1.888953973E-01 -2.206680557E+01 -2.547673123E+00  2.221418979E+01  3.816559456E-07  0.00000E+00  9.000E+00
#rwgt            1           9   2.5540354769107085E-003           5     2853934           0
</event>
<event>
      6   9999 -3.45752E-01  3.78718E+01 -1.00000E+00  1.41577E-01
      21    -1     0     0   501   502  0.000000000E+00  0.000000000E+00  4.346372966E+01  4.346372966E+01  0.000000000E+00  0.00000E+00  9.000E+00
      21    -1     0     0   502   511  0.000000000E+00  0.000000000E+00 -1.656687835E+03  1.656687835E+03  0.000000000E+00  0.00000E+00  9.000E+00
      25     1     1     2     0     0 -1.606294724E+02  1.242949612E+02 -6.561858848E+02  6.981804407E+02  1.249997903E+02  0.00000E+00  9.000E+00
       5     1     1     2   501     0  1.670793010E+02 -1.135129351E+02 -4.814836558E+02  5.221587426E+02  4.750000000E+00  0.00000E+00  9.000E+00
      -5     1     1     2     0   503  9.649187910E+00  2.349757999E+01 -2.036443823E+02  2.052774709E+02  4.750000000E+00  0.00000E+00  9.000E+00
      21     1     1     2   503   511 -1.609901650E+01 -3.427960607E+01 -2.719101829E+02  2.745349108E+02  3.814697266E-06  0.00000E+00  9.000E+00
#rwgt            1           9  -21.325435435561062                5     2855540           0
</event>
<event>
      6   9999  3.45752E-01  9.45732E+00 -1.00000E+00  1.89783E-01
      21    -1     0     0   501   512  0.000000000E+00  0.000000000E+00  1.773979464E+01  1.773979464E+01  0.000000000E+00  0.00000E+00  9.000E+00
      21    -1     0     0   502   503  0.000000000E+00  0.000000000E+00 -7.871708357E+02  7.871708357E+02  0.000000000E+00  0.00000E+00  9.000E+00
      25     1     1     2     0     0 -5.069198146E+00  5.858643260E+00 -5.565400417E+02  5.704575763E+02  1.250000314E+02  0.00000E+00  9.000E+00
       5     1     1     2   501     0  1.362320593E+00 -1.869020081E-01  3.134808453E+00  5.854944389E+00  4.750000000E+00  0.00000E+00  9.000E+00
      -5     1     1     2     0   503  8.132854990E+00  2.685989667E+00 -2.185820940E+02  2.188013990E+02  4.750000000E+00  0.00000E+00  9.000E+00
      21     1     1     2   502   512 -4.425977438E+00 -8.357730919E+00  2.556286155E+00  9.796710739E+00  1.788139343E-07  0.00000E+00  9.000E+00
#rwgt            1           9   2.5629922794313076E-003           5     2856922           0
</event>
<event>
      6   9999 -3.45752E-01  4.19785E+00 -1.00000E+00  2.43589E-01
      21    -1     0     0   501   502  0.000000000E+00  0.000000000E+00  1.149708070E+01  1.149708070E+01  0.000000000E+00  0.00000E+00  9.000E+00
      21    -1     0     0   502   511  0.000000000E+00  0.000000000E+00 -9.335657582E+02  9.335657582E+02  0.000000000E+00  0.00000E+00  9.000E+00
      25     1     1     2     0     0  3.781302946E+01  2.687935440E+00 -6.372079993E+02  6.504581470E+02  1.249988659E+02  0.00000E+00  9.000E+00
       5     1     1     2   501     0  1.245078221E-01  1.536166229E+00  1.450666093E+00  5.200215476E+00  4.750000000E+00  0.00000E+00  9.000E+00
      -5     1     1     2     0   503 -3.385251877E+01 -3.257354185E+00 -1.952649864E+02  1.982613951E+02  4.750000000E+00  0.00000E+00  9.000E+00
      21     1     1     2   503   511 -4.085018512E+00 -9.667474830E-01 -9.104635796E+01  9.114308133E+01  1.348699152E-06  0.00000E+00  9.000E+00
#rwgt            1           9  -4.7607944270126453E-005           5     2859298           0
</event>
<event>
      6   9999  3.45752E-01  2.34395E+01 -1.00000E+00  1.55122E-01
      21    -1     0     0   512   502  0.000000000E+00  0.000000000E+00  2.511245152E+01  2.511245152E+01  0.000000000E+00  0.00000E+00  9.000E+00
      21    -1     0     0   502   503  0.000000000E+00  0.000000000E+00 -4.067728877E+03  4.067728877E+03  0.000000000E+00  0.00000E+00  9.000E+00
      25     1     1     2     0     0  9.683375159E+01  3.089721873E+01 -5.839444964E+02  6.057598235E+02  1.249895008E+02  0.00000E+00  9.000E+00
       5     1     1     2   501     0  3.731778474E+00 -2.531539017E+00  1.169910943E+01  1.340770382E+01  4.750000000E+00  0.00000E+00  9.000E+00
      -5     1     1     2     0   503 -9.167646832E+01 -6.677050049E+00 -3.336288956E+03  3.337558347E+03  4.750000000E+00  0.00000E+00  9.000E+00
      21     1     1     2   512   501 -8.889061747E+00 -2.168862967E+01 -1.340820826E+02  1.361154545E+02  1.907348633E-06  0.00000E+00  9.000E+00
#rwgt            1           9   3.3544124589632300E-003           5     2863828           0
</event>
<event>
      6   9999  3.45752E-01  5.17145E+00 -1.00000E+00  2.23461E-01
      21    -1     0     0   511   502  0.000000000E+00  0.000000000E+00  2.923442061E+03  2.923442061E+03  0.000000000E+00  0.00000E+00  9.000E+00
      21    -1     0     0   502   503  0.000000000E+00  0.000000000E+00 -2.177893184E+00  2.177893184E+00  0.000000000E+00  0.00000E+00  9.000E+00
      25     1     1     2     0     0  5.791486551E-01  4.325238687E+00  1.860321199E+03  1.864521357E+03  1.250035341E+02  0.00000E+00  9.000E+00
       5     1     1     2   501     0  7.232510046E-01 -1.482205347E-02  4.698906307E+02  4.699151951E+02  4.750000000E+00  0.00000E+00  9.000E+00
      -5     1     1     2     0   503  6.607201683E-01  4.739381306E-01  1.125543333E+02  1.126574525E+02  4.750000000E+00  0.00000E+00  9.000E+00
      21     1     1     2   511   501 -1.963119828E+00 -4.784354764E+00  4.784980043E+02  4.785259492E+02  0.000000000E+00  0.00000E+00  9.000E+00
#rwgt            1           9   9.2313725051808466E-004           5     2866187           0
</event>
<event>
      6   9999  3.45752E-01  2.77347E+01 -1.00000E+00  1.50078E-01
      21    -1     0     0   501   502  0.000000000E+00  0.000000000E+00  3.665036832E+01  3.665036832E+01  0.000000000E+00  0.00000E+00  9.000E+00
       2    -1     0     0   502     0  0.000000000E+00  0.000000000E+00 -2.085460983E+03  2.085460983E+03  0.000000000E+00  0.00000E+00  9.000E+00
      25     1     1     2     0     0  2.513050357E+01  1.983663783E+01 -1.045731926E+03  1.053663530E+03  1.250061602E+02  0.00000E+00  9.000E+00
       5     1     1     2   501     0 -8.362741972E+00 -8.039465344E+00  2.425041646E+01  2.729860170E+01  4.750000000E+00  0.00000E+00  9.000E+00
      -5     1     1     2     0   503 -4.434893841E+01 -1.471145890E+01 -7.549962777E+01  8.891575594E+01  4.750000000E+00  0.00000E+00  9.000E+00
       2     1     1     2   503     0  2.758117681E+01  2.914286423E+00 -9.518294775E+02  9.522334633E+02  1.078959322E-05  0.00000E+00  9.000E+00
#rwgt            1           9   3.8045621475678445E-004           5     2869929           0
</event>
<event>
      6   9999  3.45752E-01  1.31808E+01 -1.00000E+00  1.75386E-01
      21    -1     0     0   511   502  0.000000000E+00  0.000000000E+00  2.528118461E+01  2.528118461E+01  0.000000000E+00  0.00000E+00  9.000E+00
      21    -1     0     0   502   503  0.000000000E+00  0.000000000E+00 -1.090100164E+03  1.090100164E+03  0.000000000E+00  0.00000E+00  9.000E+00
      25     1     1     2     0     0 -7.626264400E+00 -4.813211586E+01 -3.561281814E+02  3.805604731E+02  1.249965263E+02  0.00000E+00  9.000E+00
       5     1     1     2   501     0  3.337563406E-01 -2.966881283E+00  1.001982236E+01  1.148360214E+01  4.750000000E+00  0.00000E+00  9.000E+00
      -5     1     1     2     0   503  2.023776218E+01  5.357946637E+01 -6.803957012E+02  6.828185696E+02  4.750000000E+00  0.00000E+00  9.000E+00
      21     1     1     2   511   501 -1.294525412E+01 -2.480469229E+00 -3.831491952E+01  4.051870420E+01  4.768371582E-07  0.00000E+00  9.000E+00
#rwgt            1           9   3.4816696313800431E-004           5     2872055           0
</event>
<event>
      6   9999  3.45752E-01  4.59316E+00 -1.00000E+00  2.36043E-01
      21    -1     0     0   501   502  0.000000000E+00  0.000000000E+00  9.956432114E+00  9.956432114E+00  0.000000000E+00  0.00000E+00  9.000E+00
      21    -1     0     0   512   503  0.000000000E+00  0.000000000E+00 -8.725220522E+02  8.725220522E+02  0.000000000E+00  0.00000E+00  9.000E+00
      25     1     1     2     0     0  1.753932270E+01  1.396752492E+01 -4.781943591E+02  4.947697902E+02  1.249983227E+02  0.00000E+00  9.000E+00
       5     1     1     2   501     0 -2.907021568E-01 -6.716187332E-02 -4.280818338E+00  6.401322059E+00  4.750000000E+00  0.00000E+00  9.000E+00
      -5     1     1     2     0   503 -1.731242169E+01 -1.849308418E+01 -3.124984307E+02  3.135594773E+02  4.750000000E+00  0.00000E+00  9.000E+00
      21     1     1     2   512   502  6.380115154E-02  4.592721136E+00 -6.759201200E+01  6.774789476E+01  9.536743164E-07  0.00000E+00  9.000E+00
#rwgt            1           9   3.7336766632598543E-004           5     2875959           0
</event>
<event>
      6   9999  3.45752E-01  1.02751E+01 -1.00000E+00  1.85961E-01
      21    -1     0     0   501   511  0.000000000E+00  0.000000000E+00  1.581869473E+02  1.581869473E+02  0.000000000E+00  0.00000E+00  9.000E+00
      21    -1     0     0   502   503  0.000000000E+00  0.000000000E+00 -7.957197556E+02  7.957197556E+02  0.000000000E+00  0.00000E+00  9.000E+00
      25     1     1     2     0     0  1.156739448E+01  9.486556222E+00 -5.598706167E+02  5.738495715E+02  1.249976958E+02  0.00000E+00  9.000E+00
       5     1     1     2   501     0 -2.093586078E+00 -2.853671642E-02  2.064623270E-01  5.195098045E+00  4.750000000E+00  0.00000E+00  9.000E+00
      -5     1     1     2     0   503 -1.974050792E+01 -9.872406751E+00 -2.256235464E+02  2.267503016E+02  4.750000000E+00  0.00000E+00  9.000E+00
      21     1     1     2   502   511  1.026669952E+01  4.143872451E-01  1.477548925E+02  1.481117318E+02  0.000000000E+00  0.00000E+00  9.000E+00
#rwgt            1           9   7.0684540202956426E-005           5     2880284           0
</event>
<event>
      6   9999  3.45752E-01  7.48790E+00 -1.00000E+00  2.01479E-01
      21    -1     0     0   501   512  0.000000000E+00  0.000000000E+00  1.602353808E+01  1.602353808E+01  0.000000000E+00  0.00000E+00  9.000E+00
      21    -1     0     0   502   503  0.000000000E+00  0.000000000E+00 -6.570020770E+02  6.570020770E+02  0.000000000E+00  0.00000E+00  9.000E+00
      25     1     1     2     0     0  2.367473009E+00 -2.063131729E+00 -6.167739221E+02  6.293204142E+02  1.249970052E+02  0.00000E+00  9.000E+00
       5     1     1     2   501     0  3.896397259E+00 -2.421948858E+00  5.849943516E+00  8.822249543E+00  4.750000000E+00  0.00000E+00  9.000E+00
      -5     1     1     2     0   503  3.113779078E-01  9.025237868E-01 -2.584031006E+01  2.629059964E+01  4.750000000E+00  0.00000E+00  9.000E+00
      21     1     1     2   502   512 -6.575248176E+00  3.582556800E+00 -4.214250212E+00  8.592351636E+00  1.576990671E-07  0.00000E+00  9.000E+00
#rwgt            1           9  0.10253163695295647                5     2882690           0
</event>
<event>
      6   9999  3.45752E-01  2.08353E+01 -1.00000E+00  1.58866E-01
      21    -1     0     0   501   502  0.000000000E+00  0.000000000E+00  1.364061659E+01  1.364061659E+01  0.000000000E+00  0.00000E+00  9.000E+00
      21    -1     0     0   511   503  0.000000000E+00  0.000000000E+00 -1.076529700E+03  1.076529700E+03  0.000000000E+00  0.00000E+00  9.000E+00
      25     1     1     2     0     0 -1.248288982E+01 -3.613744866E+01 -7.011668549E+02  7.132471022E+02  1.249989301E+02  0.00000E+00  9.000E+00
       5     1     1     2   501     0 -5.055359163E+00 -3.159508647E+00  3.583347769E+00  8.422709326E+00  4.750000000E+00  0.00000E+00  9.000E+00
      -5     1     1     2     0   503  5.549087316E+00  2.225666448E+01 -1.169735603E+02  1.192959672E+02  4.750000000E+00  0.00000E+00  9.000E+00
      21     1     1     2   511   502  1.198916166E+01  1.704029283E+01 -2.483320160E+02  2.492045380E+02  3.814697266E-06  0.00000E+00  9.000E+00
#rwgt            1           9   8.9242478698568675E-004           5     2885450           0
</event>
<event>
      6   9999  3.45752E-01  8.93771E+00 -1.00000E+00  1.92482E-01
      21    -1     0     0   501   502  0.000000000E+00  0.000000000E+00  1.435717696E+01  1.435717696E+01  0.000000000E+00  0.00000E+00  9.000E+00
       1    -1     0     0   502     0  0.000000000E+00  0.000000000E+00 -1.324313163E+03  1.324313163E+03  0.000000000E+00  0.00000E+00  9.000E+00
      25     1     1     2     0     0  9.557854747E+00 -5.086839059E+00 -8.520152040E+02  8.612035487E+02  1.249976639E+02  0.00000E+00  9.000E+00
       5     1     1     2   501     0 -8.113262113E-01 -2.401992086E-01  8.653666857E+00  9.907794707E+00  4.750000000E+00  0.00000E+00  9.000E+00
      -5     1     1     2     0   503  1.888010864E-01  5.120986425E+00 -2.750679982E+01  2.838039260E+01  4.750000000E+00  0.00000E+00  9.000E+00
       1     1     1     2   503     0 -8.935329622E+00  2.060518417E-01 -4.390876490E+02  4.391786039E+02  7.629394531E-06  0.00000E+00  9.000E+00
#rwgt            1           9   1.0176052456968763E-004           5     2886889           0
</event>
<event>
      6   9999  3.45752E-01  3.63667E+00 -1.00000E+00  2.56733E-01
      21    -1     0     0   511   502  0.000000000E+00  0.000000000E+00  6.769216333E+01  6.769216333E+01  0.000000000E+00  0.00000E+00  9.000E+00
      21    -1     0     0   502   503  0.000000000E+00  0.000000000E+00 -1.422556888E+03  1.422556888E+03  0.000000000E+00  0.00000E+00  9.000E+00
      25     1     1     2     0     0  1.481134805E-01 -2.742168585E+00 -1.391205729E+03  1.396812279E+03  1.249944809E+02  0.00000E+00  9.000E+00
       5     1     1     2   501     0 -6.557998159E-01 -4.048142592E-03 -8.264667232E+00  9.554962807E+00  4.750000000E+00  0.00000E+00  9.000E+00
      -5     1     1     2     0   503 -7.567203831E-01 -6.635651484E-01 -1.928544474E+01  1.988727793E+01  4.750000000E+00  0.00000E+00  9.000E+00
      21     1     1     2   511   501  1.264406718E+00  3.409781876E+00  6.389111640E+01  6.399453174E+01  4.862803949E-06  0.00000E+00  9.000E+00
#rwgt            1           9   1.3862358801596266E-003           5     2889751           0
</event>
<event>
      6   9999  3.45752E-01  5.06936E+00 -1.00000E+00  2.24789E-01
      21    -1     0     0   512   502  0.000000000E+00  0.000000000E+00  1.119619320E+01  1.119619320E+01  0.000000000E+00  0.00000E+00  9.000E+00
      21    -1     0     0   502   503  0.000000000E+00  0.000000000E+00 -1.915982098E+03  1.915982098E+03  0.000000000E+00  0.00000E+00  9.000E+00
      25     1     1     2     0     0 -1.051153917E+02 -1.922740041E+01 -1.149656789E+03  1.161359018E+03  1.250003951E+02  0.00000E+00  9.000E+00
       5     1     1     2   501     0  6.922851023E+01  1.360342939E+00 -2.951092456E+02  3.031607931E+02  4.750000000E+00  0.00000E+00  9.000E+00
      -5     1     1     2     0   503  4.028858371E+01  1.535241164E+01 -4.330039118E+02  4.351710200E+02  4.750000000E+00  0.00000E+00  9.000E+00
      21     1     1     2   512   501 -4.401702253E+00  2.514645834E+00 -2.701595917E+01  2.748746035E+01  3.371747881E-07  0.00000E+00  9.000E+00
#rwgt            1           9   2.7442588253579286E-003           5     2894148           0
</event>
<event>
      6   9999 -3.45752E-01  7.71387E+01 -1.00000E+00  1.25428E-01
      21    -1     0     0   501   511  0.000000000E+00  0.000000000E+00  9.122726179E+01  9.122726179E+01  0.000000000E+00  0.00000E+00  9.000E+00
      21    -1     0     0   502   503  0.000000000E+00  0.000000000E+00 -2.540674345E+03  2.540674345E+03  0.000000000E+00  0.00000E+00  9.000E+00
      25     1     1     2     0     0 -1.928201744E+02 -1.258910520E+02 -1.896216196E+03  1.914233190E+03  1.249986663E+02  0.00000E+00  9.000E+00
       5     1     1     2   501     0  1.669911523E+02  1.785874897E+02 -4.710282427E+02  5.307256394E+02  4.750000000E+00  0.00000E+00  9.000E+00
      -5     1     1     2     0   503 -1.630280193E+01  1.191998434E+01 -1.045846706E+02  1.066226205E+02  4.750000000E+00  0.00000E+00  9.000E+00
      21     1     1     2   502   511  4.213182409E+01 -6.461642206E+01  2.238202574E+01  8.032015735E+01  4.046097457E-06  0.00000E+00  9.000E+00
#rwgt            1           9 -0.28261090118973620                5     2898952           0
</event>
<event>
      6   9999  3.45752E-01  6.37999E+00 -1.00000E+00  2.10409E-01
      21    -1     0     0   501   502  0.000000000E+00  0.000000000E+00  8.928451289E+01  8.928451289E+01  0.000000000E+00  0.00000E+00  9.000E+00
      21    -1     0     0   502   512  0.000000000E+00  0.000000000E+00 -1.670677395E+02  1.670677395E+02  0.000000000E+00  0.00000E+00  9.000E+00
      25     1     1     2     0     0 -1.456571330E+00  2.943251743E+00 -4.311280925E+01  1.322719962E+02  1.250055291E+02  0.00000E+00  9.000E+00
       5     1     1     2   501     0 -2.419100613E+00  1.517969410E+00  3.913425336E+01  3.952478419E+01  4.750000000E+00  0.00000E+00  9.000E+00
      -5     1     1     2     0   503 -1.451218408E+00 -9.500195331E-01  4.026012926E+00  6.463733601E+00  4.750000000E+00  0.00000E+00  9.000E+00
      21     1     1     2   503   512  5.326890352E+00 -3.511201620E+00 -7.783068365E+01  7.809173846E+01  1.348699152E-06  0.00000E+00  9.000E+00
#rwgt            1           9   3.0325148710616426E-003           5     2900041           0
</event>
<event>
      6   9999  3.45752E-01  2.45250E+01 -1.00000E+00  1.53731E-01
      21    -1     0     0   501   502  0.000000000E+00  0.000000000E+00  8.847674050E+00  8.847674050E+00  0.000000000E+00  0.00000E+00  9.000E+00
       2    -1     0     0   502     0  0.000000000E+00  0.000000000E+00 -2.999619797E+03  2.999619797E+03  0.000000000E+00  0.00000E+00  9.000E+00
      25     1     1     2     0     0 -1.216903050E+01  2.764346948E+01 -6.560719155E+02  6.685642946E+02  1.250424371E+02  0.00000E+00  9.000E+00
       5     1     1     2   501     0 -1.483789890E+00  1.046295281E+00 -2.817863837E+00  5.813709905E+00  4.750000000E+00  0.00000E+00  9.000E+00
      -5     1     1     2     0   503 -1.848075653E+00 -9.684522882E+00 -2.779915598E+01  2.987575841E+01  4.750000000E+00  0.00000E+00  9.000E+00
       2     1     1     2   503     0  1.550089604E+01 -1.900524187E+01 -2.304083187E+03  2.304213708E+03  3.051757812E-05  0.00000E+00  9.000E+00
#rwgt            1           9   1.4091848806949801E-004           5     2903428           0
</event>
<event>
      6   9999  3.45752E-01  8.17634E+01 -1.00000E+00  1.24272E-01
      21    -1     0     0   511   502  0.000000000E+00  0.000000000E+00  4.679783530E+01  4.679783530E+01  0.000000000E+00  0.00000E+00  9.000E+00
      21    -1     0     0   502   503  0.000000000E+00  0.000000000E+00 -1.363696412E+03  1.363696412E+03  0.000000000E+00  0.00000E+00  9.000E+00
      25     1     1     2     0     0 -6.856682754E+01 -1.527846941E+01 -5.463161446E+02  5.648200802E+02  1.250022070E+02  0.00000E+00  9.000E+00
       5     1     1     2   501     0 -3.393021959E+00 -2.506787275E+01 -2.974739907E+02  2.985854124E+02  4.750000000E+00  0.00000E+00  9.000E+00
      -5     1     1     2     0   503  2.370759749E+01 -2.566109597E+01 -4.634131813E+02  4.647524945E+02  4.750000000E+00  0.00000E+00  9.000E+00
      21     1     1     2   511   501  4.825225200E+01  6.600743813E+01 -9.695260372E+00  8.233626045E+01  2.984996802E-06  0.00000E+00  9.000E+00
#rwgt            1           9   2.0928844669161895E-003           5     2904768           0
</event>
<event>
      6   9999 -3.45752E-01  6.64684E+01 -1.00000E+00  1.28488E-01
      21    -1     0     0   501   502  0.000000000E+00  0.000000000E+00  2.018163472E+01  2.018163472E+01  0.000000000E+00  0.00000E+00  9.000E+00
      21    -1     0     0   512   503  0.000000000E+00  0.000000000E+00 -1.644047271E+03  1.644047271E+03  0.000000000E+00  0.00000E+00  9.000E+00
      25     1     1     2     0     0 -1.935652294E+01  5.245647676E+01 -5.477013143E+02  5.645617165E+02  1.250073801E+02  0.00000E+00  9.000E+00
       5     1     1     2   501     0  9.233803067E+00 -6.164371516E+01 -1.350523682E+02  1.488183974E+02  4.750000000E+00  0.00000E+00  9.000E+00
      -5     1     1     2     0   503 -7.972229495E+00 -5.477075214E+01 -2.290038249E+02  2.356452971E+02  4.750000000E+00  0.00000E+00  9.000E+00
      21     1     1     2   512   502  1.809494936E+01  6.395799054E+01 -7.121081292E+02  7.152034951E+02  1.078959322E-05  0.00000E+00  9.000E+00
#rwgt            1           9  -2.5360325832049036E-004           5     2905336           0
</event>
<event>
      6   9999  3.45752E-01  2.40111E+01 -1.00000E+00  1.54379E-01
      21    -1     0     0   501   511  0.000000000E+00  0.000000000E+00  2.410233007E+01  2.410233007E+01  0.000000000E+00  0.00000E+00  9.000E+00
      21    -1     0     0   502   503  0.000000000E+00  0.000000000E+00 -7.482388523E+02  7.482388523E+02  0.000000000E+00  0.00000E+00  9.000E+00
      25     1     1     2     0     0  1.611042868E+01  3.484161246E+00 -6.216597807E+02  6.343166429E+02  1.250001407E+02  0.00000E+00  9.000E+00
       5     1     1     2   501     0  2.847232977E+00 -9.126195397E+00 -5.075571323E+01  5.186616530E+01  4.750000000E+00  0.00000E+00  9.000E+00
      -5     1     1     2     0   503 -6.384497698E+00 -1.481393333E+01 -5.877445228E+01  6.113275041E+01  4.750000000E+00  0.00000E+00  9.000E+00
      21     1     1     2   502   511 -1.257316396E+01  2.045596749E+01  7.053423971E+00  2.502562382E+01  7.679521279E-07  0.00000E+00  9.000E+00
#rwgt            1           9   2.6573550476547501E-002           5     2906191           0
</event>
<event>
      6   9999  3.45752E-01  2.30684E+01 -1.00000E+00  1.55619E-01
      21    -1     0     0   502   503  0.000000000E+00  0.000000000E+00  2.016782013E+01  2.016782013E+01  0.000000000E+00  0.00000E+00  9.000E+00
      21    -1     0     0   501   512  0.000000000E+00  0.000000000E+00 -1.303597001E+03  1.303597001E+03  0.000000000E+00  0.00000E+00  9.000E+00
      25     1     1     2     0     0  7.418524776E+01  4.843899332E+01 -4.128164037E+02  4.403316726E+02  1.249992466E+02  0.00000E+00  9.000E+00
       5     1     1     2   501     0 -7.865023373E+01 -5.024629137E+01 -4.536438425E+02  4.631693507E+02  4.750000000E+00  0.00000E+00  9.000E+00
      -5     1     1     2     0   503  7.625075619E+00 -2.104361823E+01 -1.060506031E+02  1.084908686E+02  4.750000000E+00  0.00000E+00  9.000E+00
      21     1     1     2   502   512 -3.160089650E+00  2.285091627E+01 -3.109183314E+02  3.117729291E+02  5.394796609E-06  0.00000E+00  9.000E+00
#rwgt            1           9   1.8843186837049124E-004           5     2907505           0
</event>
<event>
      6   9999  3.45752E-01  1.16693E+01 -1.00000E+00  1.80398E-01
      21    -1     0     0   501   502  0.000000000E+00  0.000000000E+00  9.289404526E+00  9.289404526E+00  0.000000000E+00  0.00000E+00  9.000E+00
      21    -1     0     0   502   511  0.000000000E+00  0.000000000E+00 -9.237925575E+02  9.237925575E+02  0.000000000E+00  0.00000E+00  9.000E+00
      25     1     1     2     0     0  2.619829407E+01 -2.643148526E+01 -6.223504198E+02  6.358703766E+02  1.250044669E+02  0.00000E+00  9.000E+00
       5     1     1     2   501     0 -2.585458526E-01 -1.044386247E+00 -4.130563495E+00  6.386050687E+00  4.750000000E+00  0.00000E+00  9.000E+00
      -5     1     1     2     0   503 -2.309831997E+01  1.615781446E+01 -1.995672196E+02  2.016041790E+02  4.750000000E+00  0.00000E+00  9.000E+00
      21     1     1     2   503   511 -2.841428241E+00  1.131805705E+01 -8.845495007E+01  8.922135575E+01  1.651812370E-06  0.00000E+00  9.000E+00
#rwgt            1           9   6.4530476021096997E-003           5     2909226           0
</event>
<event>
      6   9999  3.45752E-01  2.36908E+01 -1.00000E+00  1.54792E-01
      21    -1     0     0   502   512  0.000000000E+00  0.000000000E+00  3.608363159E+01  3.608363159E+01  0.000000000E+00  0.00000E+00  9.000E+00
      21    -1     0     0   501   502  0.000000000E+00  0.000000000E+00 -1.068345099E+03  1.068345099E+03  0.000000000E+00  0.00000E+00  9.000E+00
      25     1     1     2     0     0  2.598682641E+01 -8.024994326E+01 -9.031344559E+02  9.156368858E+02  1.249947707E+02  0.00000E+00  9.000E+00
       5     1     1     2   501     0 -2.536305296E+01 -2.127019174E+01 -4.829330948E+01  5.874105679E+01  4.750000000E+00  0.00000E+00  9.000E+00
      -5     1     1     2     0   503 -2.004104046E+00  7.786961897E+01 -6.490167193E+01  1.015011503E+02  4.750000000E+00  0.00000E+00  9.000E+00
      21     1     1     2   503   512  1.380330593E+00  2.365051603E+01 -1.593202982E+01  2.854963739E+01  9.078709013E-07  0.00000E+00  9.000E+00
#rwgt            1           9   6.0261287181251040E-003           5     2911538           0
</event>
<event>
      6   9999  3.45752E-01  3.91154E+00 -1.00000E+00  2.49877E-01
      21    -1     0     0   501   511  0.000000000E+00  0.000000000E+00  4.153534936E+00  4.153534936E+00  0.000000000E+00  0.00000E+00  9.000E+00
      21    -1     0     0   502   503  0.000000000E+00  0.000000000E+00 -1.412130602E+03  1.412130602E+03  0.000000000E+00  0.00000E+00  9.000E+00
      25     1     1     2     0     0 -1.064033393E+01  4.777147871E+00 -1.296967941E+03  1.303030231E+03  1.250036137E+02  0.00000E+00  9.000E+00
       5     1     1     2   501     0  6.526270969E-02 -4.957421628E-02 -1.461386594E+01  1.536666179E+01  4.750000000E+00  0.00000E+00  9.000E+00
      -5     1     1     2     0   503  1.169598373E+01 -9.800810897E-01 -8.192294980E+01  8.289565006E+01  4.750000000E+00  0.00000E+00  9.000E+00
      21     1     1     2   502   511 -1.120912504E+00 -3.747492565E+00 -1.447230972E+01  1.499159411E+01  5.057621821E-07  0.00000E+00  9.000E+00
#rwgt            1           9   3.3954329986026985E-004           5     2913104           0
</event>
<event>
      6   9999 -3.45752E-01  6.46716E+00 -1.00000E+00  2.09621E-01
      21    -1     0     0   512   502  0.000000000E+00  0.000000000E+00  1.491324107E+01  1.491324107E+01  0.000000000E+00  0.00000E+00  9.000E+00
      21    -1     0     0   502   503  0.000000000E+00  0.000000000E+00 -1.077491205E+03  1.077491205E+03  0.000000000E+00  0.00000E+00  9.000E+00
      25     1     1     2     0     0  3.515722903E+01  1.564341224E+01 -9.806637264E+02  9.893464631E+02  1.249973303E+02  0.00000E+00  9.000E+00
       5     1     1     2   501     0  1.127557230E+00 -1.245000012E+00  1.460704432E+00  5.245718995E+00  4.750000000E+00  0.00000E+00  9.000E+00
      -5     1     1     2     0   503 -3.849426533E+01 -2.047643157E+01 -6.573042619E+01  7.901989712E+01  4.750000000E+00  0.00000E+00  9.000E+00
      21     1     1     2   512   501  2.209479063E+00  6.078019338E+00 -1.764451551E+01  1.879236666E+01  2.384185791E-07  0.00000E+00  9.000E+00
#rwgt            1           9  -5.6022900425085960E-005           5     2917497           0
</event>
<event>
      6   9999  3.45752E-01  5.52823E+01 -1.00000E+00  1.32495E-01
      21    -1     0     0   501   502  0.000000000E+00  0.000000000E+00  1.584924017E+02  1.584924017E+02  0.000000000E+00  0.00000E+00  9.000E+00
      21    -1     0     0   502   511  0.000000000E+00  0.000000000E+00 -3.297176929E+02  3.297176929E+02  0.000000000E+00  0.00000E+00  9.000E+00
      25     1     1     2     0     0 -1.155685130E+01 -5.270457993E+01  5.644466767E+01  1.473868727E+02  1.250022247E+02  0.00000E+00  9.000E+00
       5     1     1     2   501     0 -1.095039292E+00 -8.732147572E+00  5.215385134E+01  5.310401323E+01  4.750000000E+00  0.00000E+00  9.000E+00
      -5     1     1     2     0   503 -5.116010588E+00  9.087588169E+00 -4.022432475E+01  4.182483263E+01  4.750000000E+00  0.00000E+00  9.000E+00
      21     1     1     2   503   511  1.776790118E+01  5.234913933E+01 -2.395994855E+02  2.458943760E+02  3.814697266E-06  0.00000E+00  9.000E+00
#rwgt            1           9   7.6563183955115396E-002           5     2921540           0
</event>
<event>
      6   9999  3.45752E-01  2.78753E+01 -1.00000E+00  1.49932E-01
      21    -1     0     0   501   502  0.000000000E+00  0.000000000E+00  1.487339930E+02  1.487339930E+02  0.000000000E+00  0.00000E+00  9.000E+00
      21    -1     0     0   512   503  0.000000000E+00  0.000000000E+00 -5.159197941E+02  5.159197941E+02  0.000000000E+00  0.00000E+00  9.000E+00
      25     1     1     2     0     0  1.972065998E+01  1.550057303E+01 -3.117126000E+02  3.367775455E+02  1.250007918E+02  0.00000E+00  9.000E+00
       5     1     1     2   501     0  8.194727738E-01  1.992739064E+00  1.345818423E+02  1.346828768E+02  4.750000000E+00  0.00000E+00  9.000E+00
      -5     1     1     2     0   503  3.435282596E+00 -3.273233698E+00 -4.275312623E+01  4.327710166E+01  4.750000000E+00  0.00000E+00  9.000E+00
      21     1     1     2   512   502 -2.397541535E+01 -1.422007839E+01 -1.473019172E+02  1.499162632E+02  0.000000000E+00  0.00000E+00  9.000E+00
#rwgt            1           9   5.6126061991920218E-004           5     2922356           0
</event>
<event>
      6   9999 -3.45752E-01  1.66596E+01 -1.00000E+00  1.66514E-01
      21    -1     0     0   502   511  0.000000000E+00  0.000000000E+00  8.985581698E+00  8.985581698E+00  0.000000000E+00  0.00000E+00  9.000E+00
      21    -1     0     0   501   502  0.000000000E+00  0.000000000E+00 -1.591786580E+03  1.591786580E+03  0.000000000E+00  0.00000E+00  9.000E+00
      25     1     1     2     0     0 -4.378604784E+01  3.130507971E+01 -1.188255521E+03  1.196024269E+03  1.250025798E+02  0.00000E+00  9.000E+00
       5     1     1     2   501     0  1.552064227E+01  1.866385526E-01 -5.576494828E+01  5.807940364E+01  4.750000000E+00  0.00000E+00  9.000E+00
      -5     1     1     2     0   503  4.469703841E+01 -3.423844622E+01 -2.752684024E+02  2.810077442E+02  4.750000000E+00  0.00000E+00  9.000E+00
      21     1     1     2   503   511 -1.643163284E+01  2.746727957E+00 -6.351212683E+01  6.566074418E+01  9.536743164E-07  0.00000E+00  9.000E+00
#rwgt            1           9  -1.8555770743121047E-002           5     2924375           0
</event>
<event>
      6   9999  3.45752E-01  8.52213E+00 -1.00000E+00  1.94819E-01
       1    -1     0     0   501     0  0.000000000E+00  0.000000000E+00  2.956988844E+03  2.956988844E+03  0.000000000E+00  0.00000E+00  9.000E+00
      21    -1     0     0   502   503  0.000000000E+00  0.000000000E+00 -1.527496376E+02  1.527496376E+02  0.000000000E+00  0.00000E+00  9.000E+00
      25     1     1     2     0     0 -1.435796383E+01 -1.077841611E+01 -1.192468405E+02  1.736838595E+02  1.249957947E+02  0.00000E+00  9.000E+00
       5     1     1     2   501     0  1.084367786E+01 -6.433104961E-02  3.805467187E+02  3.807308197E+02  4.750000000E+00  0.00000E+00  9.000E+00
      -5     1     1     2     0   503  9.995444168E+00  1.637639919E+01  9.605286959E+00  2.197542701E+01  4.750000000E+00  0.00000E+00  9.000E+00
       1     1     1     2   502     0 -6.481158193E+00 -5.533652035E+00  2.533334042E+03  2.533348376E+03  4.315837288E-05  0.00000E+00  9.000E+00
#rwgt            1           9   3.6816046453933604E-002           5     2926260           0
</event>
<event>
      6   9999  3.45752E-01  1.35953E+01 -1.00000E+00  1.74157E-01
      21    -1     0     0   501   511  0.000000000E+00  0.000000000E+00  8.422672393E+00  8.422672393E+00  0.000000000E+00  0.00000E+00  9.000E+00
      21    -1     0     0   502   503  0.000000000E+00  0.000000000E+00 -7.923286940E+02  7.923286940E+02  0.000000000E+00  0.00000E+00  9.000E+00
      25     1     1     2     0     0  5.921508169E+00 -9.064092075E+00 -6.642341207E+02  6.759800586E+02  1.249994020E+02  0.00000E+00  9.000E+00
       5     1     1     2   501     0  8.169355553E-01 -1.812908924E+00 -2.658275053E+00  5.795079699E+00  4.750000000E+00  0.00000E+00  9.000E+00
      -5     1     1     2     0   503 -1.753575266E-01 -1.029267446E+00 -6.610047784E+01  6.627915066E+01  4.750000000E+00  0.00000E+00  9.000E+00
      21     1     1     2   502   511 -6.563086198E+00  1.190626845E+01 -5.091314798E+01  5.269707739E+01  6.743495762E-07  0.00000E+00  9.000E+00
#rwgt            1           9   6.4501499502791777E-004           5     2930802           0
</event>
<event>
      6   9999  3.45752E-01  6.40672E+00 -1.00000E+00  2.10166E-01
      21    -1     0     0   501   502  0.000000000E+00  0.000000000E+00  1.136285329E+02  1.136285329E+02  0.000000000E+00  0.00000E+00  9.000E+00
      21    -1     0     0   502   512  0.000000000E+00  0.000000000E+00 -8.663015577E+01  8.663015577E+01  0.000000000E+00  0.00000E+00  9.000E+00
      25     1     1     2     0     0  5.053872385E+00 -4.671514971E+00 -1.208657072E+01  1.257730615E+02  1.250016525E+02  0.00000E+00  9.000E+00
       5     1     1     2   501     0 -1.441564462E+00  7.019411500E-01  5.333342411E+01  5.356853047E+01  4.750000000E+00  0.00000E+00  9.000E+00
      -5     1     1     2     0   503 -5.523917275E+00 -2.145311654E+00 -1.185264075E+01  1.407705995E+01  4.750000000E+00  0.00000E+00  9.000E+00
      21     1     1     2   503   512  1.911609353E+00  6.114885476E+00 -2.395835491E+00  6.840036725E+00  8.429369702E-08  0.00000E+00  9.000E+00
#rwgt            1           9   1.3250678554498640E-003           5     2932073           0
</event>
<event>
      6   9999  3.45752E-01  6.20277E+00 -1.00000E+00  2.12067E-01
      21    -1     0     0   501   502  0.000000000E+00  0.000000000E+00  4.477370261E+02  4.477370261E+02  0.000000000E+00  0.00000E+00  9.000E+00
      21    -1     0     0   502   511  0.000000000E+00  0.000000000E+00 -1.438436734E+01  1.438436734E+01  0.000000000E+00  0.00000E+00  9.000E+00
      25     1     1     2     0     0 -5.825136975E+00  2.447634230E+01  3.473287175E+02  3.699921438E+02  1.249956997E+02  0.00000E+00  9.000E+00
       5     1     1     2   501     0  2.781292465E+00 -1.832598098E+01  6.831017943E+01  7.093955371E+01  4.750000000E+00  0.00000E+00  9.000E+00
      -5     1     1     2     0   503 -3.358715878E-01 -9.492241277E-01  1.113640441E+01  1.214890280E+01  4.750000000E+00  0.00000E+00  9.000E+00
      21     1     1     2   503   511  3.379716098E+00 -5.201137190E+00  6.577357400E+00  9.040793070E+00  2.384185791E-07  0.00000E+00  9.000E+00
#rwgt            1           9   4.2419899430728401E-003           5     2935672           0
</event>
<event>
      6   9999  3.45752E-01  3.16622E+00 -1.00000E+00  2.70926E-01
      21    -1     0     0   512   502  0.000000000E+00  0.000000000E+00  1.112511054E+02  1.112511054E+02  0.000000000E+00  0.00000E+00  9.000E+00
      21    -1     0     0   502   503  0.000000000E+00  0.000000000E+00 -7.279967055E+02  7.279967055E+02  0.000000000E+00  0.00000E+00  9.000E+00
      25     1     1     2     0     0 -6.869505007E-01  3.052471332E+01 -6.791317526E+02  6.912140517E+02  1.249987918E+02  0.00000E+00  9.000E+00
       5     1     1     2   501     0  9.364583730E+00 -7.393472923E-01  7.428997908E+01  7.503203020E+01  4.750000000E+00  0.00000E+00  9.000E+00
      -5     1     1     2     0   503 -1.142970082E+01 -3.135095696E+01 -3.564077721E+01  4.905454171E+01  4.750000000E+00  0.00000E+00  9.000E+00
      21     1     1     2   512   501  2.752067591E+00  1.565590928E+00  2.373695061E+01  2.394718721E+01  7.539457465E-07  0.00000E+00  9.000E+00
#rwgt            1           9   2.4214896030346123E-004           5     2938864           0
</event>
<event>
      6   9999  3.45752E-01  7.56595E+00 -1.00000E+00  2.00927E-01
      21    -1     0     0   501   502  0.000000000E+00  0.000000000E+00  9.002389832E+00  9.002389832E+00  0.000000000E+00  0.00000E+00  9.000E+00
      21    -1     0     0   502   511  0.000000000E+00  0.000000000E+00 -1.156815730E+03  1.156815730E+03  0.000000000E+00  0.00000E+00  9.000E+00
      25     1     1     2     0     0 -2.318426965E+01 -8.929004808E+00 -6.356319278E+02  6.482890939E+02  1.250342521E+02  0.00000E+00  9.000E+00
       5     1     1     2   501     0 -8.190354250E-01  6.178892188E-01 -2.924938760E+00  5.671893234E+00  4.750000000E+00  0.00000E+00  9.000E+00
      -5     1     1     2     0   503  1.935053852E+01  1.427730113E+01 -1.175940138E+02  1.201216020E+02  4.750000000E+00  0.00000E+00  9.000E+00
      21     1     1     2   503   511  4.652766558E+00 -5.966185546E+00 -3.916624603E+02  3.917355312E+02  5.394796609E-06  0.00000E+00  9.000E+00
#rwgt            1           9   2.9788098675150856E-003           5     2947055           0
</event>
<event>
      6   9999  3.45752E-01  3.37715E+00 -1.00000E+00  2.64118E-01
      21    -1     0     0   501   502  0.000000000E+00  0.000000000E+00  8.607046064E+00  8.607046064E+00  0.000000000E+00  0.00000E+00  9.000E+00
      21    -1     0     0   512   503  0.000000000E+00  0.000000000E+00 -1.451557883E+03  1.451557883E+03  0.000000000E+00  0.00000E+00  9.000E+00
      25     1     1     2     0     0  4.332753662E+00 -8.792117959E+00 -7.280841424E+02  7.388014070E+02  1.249997057E+02  0.00000E+00  9.000E+00
       5     1     1     2   501     0 -1.065109739E-01 -5.615867834E-01 -7.467304561E-01  4.842192755E+00  4.750000000E+00  0.00000E+00  9.000E+00
      -5     1     1     2     0   503 -7.123948201E+00  7.619224462E+00 -2.625051522E+01  2.864359036E+01  4.750000000E+00  0.00000E+00  9.000E+00
      21     1     1     2   512   502  2.897705512E+00  1.734480280E+00 -6.878694486E+02  6.878777387E+02  7.629394531E-06  0.00000E+00  9.000E+00
#rwgt            1           9  0.13379644984159825                5     2949749           0
</event>
<event>
      6   9999  3.45752E-01  5.74553E+00 -1.00000E+00  2.16714E-01
      21    -1     0     0   501   511  0.000000000E+00  0.000000000E+00  9.432043099E+01  9.432043099E+01  0.000000000E+00  0.00000E+00  9.000E+00
      21    -1     0     0   502   503  0.000000000E+00  0.000000000E+00 -8.596284926E+02  8.596284926E+02  0.000000000E+00  0.00000E+00  9.000E+00
      25     1     1     2     0     0 -1.241383795E+01 -3.465548272E+01 -6.617922458E+02  6.744989671E+02  1.249990966E+02  0.00000E+00  9.000E+00
       5     1     1     2   501     0 -1.551531561E+00 -4.527792434E-01  2.817063279E+00  5.754181501E+00  4.750000000E+00  0.00000E+00  9.000E+00
      -5     1     1     2     0   503  1.227035842E+01  4.059807812E+01 -1.875152118E+02  1.923103814E+02  4.750000000E+00  0.00000E+00  9.000E+00
      21     1     1     2   502   511  1.695011093E+00 -5.489816152E+00  8.118233271E+01  8.138539358E+01  2.697398305E-06  0.00000E+00  9.000E+00
#rwgt            1           9   1.4932998770203921E-003           5     2954917           0
</event>
<event>
      6   9999  3.45752E-01  7.50493E+00 -1.00000E+00  2.01358E-01
      21    -1     0     0   501   502  0.000000000E+00  0.000000000E+00  9.702948417E+01  9.702948417E+01  0.000000000E+00  0.00000E+00  9.000E+00
      21    -1     0     0   512   503  0.000000000E+00  0.000000000E+00 -1.662975182E+03  1.662975182E+03  0.000000000E+00  0.00000E+00  9.000E+00
      25     1     1     2     0     0 -8.920113627E+00  1.040560344E+01 -1.516640554E+03  1.521844710E+03  1.249996308E+02  0.00000E+00  9.000E+00
       5     1     1     2   501     0  2.064870812E+01 -8.438053860E+00  9.206685584E+01  9.484955637E+01  4.750000000E+00  0.00000E+00  9.000E+00
      -5     1     1     2     0   503 -4.762696745E+00  8.253553071E-01 -1.262181367E+02  1.263999408E+02  4.750000000E+00  0.00000E+00  9.000E+00
      21     1     1     2   512   502 -6.965897745E+00 -2.792904889E+00 -1.515386371E+01  1.691045932E+01  3.371747881E-07  0.00000E+00  9.000E+00
#rwgt            1           9   4.3698115546290188E-005           5     2958783           0
</event>
<event>
      6   9999  3.45752E-01  2.30352E+01 -1.00000E+00  1.55664E-01
      21    -1     0     0   501   511  0.000000000E+00  0.000000000E+00  5.154184330E+02  5.154184330E+02  0.000000000E+00  0.00000E+00  9.000E+00
      21    -1     0     0   502   503  0.000000000E+00  0.000000000E+00 -2.002479730E+01  2.002479730E+01  0.000000000E+00  0.00000E+00  9.000E+00
      25     1     1     2     0     0  6.730175772E+00 -2.191507952E+00  1.966857850E+02  2.331582062E+02  1.250094122E+02  0.00000E+00  9.000E+00
       5     1     1     2   501     0  2.501433320E+00 -6.649684483E-01  6.722408720E+01  6.744138011E+01  4.750000000E+00  0.00000E+00  9.000E+00
      -5     1     1     2     0   503  1.369530076E+01  6.253974343E-01  5.577165088E+01  5.762804809E+01  4.750000000E+00  0.00000E+00  9.000E+00
      21     1     1     2   502   511 -2.292690985E+01  2.231078966E+00  1.757121126E+02  1.772155959E+02  3.303624740E-06  0.00000E+00  9.000E+00
#rwgt            1           9   1.6975460529619971E-004           5     2964664           0
</event>
<event>
      6   9999  3.45752E-01  2.55324E+01 -1.00000E+00  1.52515E-01
      21    -1     0     0   512   502  0.000000000E+00  0.000000000E+00  1.294130515E+01  1.294130515E+01  0.000000000E+00  0.00000E+00  9.000E+00
      21    -1     0     0   502   503  0.000000000E+00  0.000000000E+00 -9.378659695E+02  9.378659695E+02  0.000000000E+00  0.00000E+00  9.000E+00
      25     1     1     2     0     0 -1.777985174E+01  3.872204195E+01 -6.912426181E+02  7.037163017E+02  1.248389224E+02  0.00000E+00  9.000E+00
       5     1     1     2   501     0 -3.002039323E+00  1.517791431E+00  2.122260637E+00  6.195354803E+00  4.750000000E+00  0.00000E+00  9.000E+00
      -5     1     1     2     0   503  2.564639688E+00 -2.235033735E+01 -1.326796501E+02  1.346572204E+02  4.750000000E+00  0.00000E+00  9.000E+00
      21     1     1     2   512   501  1.821725137E+01 -1.788949603E+01 -1.031246568E+02  1.062383978E+02  0.000000000E+00  0.00000E+00  9.000E+00
#rwgt            1           9   6.0140102432308597E-004           5     2965958           0
</event>
<event>
      6   9999  3.45752E-01  9.05208E+00 -1.00000E+00  1.91868E-01
      21    -1     0     0   502   503  0.000000000E+00  0.000000000E+00  7.463791582E+00  7.463791582E+00  0.000000000E+00  0.00000E+00  9.000E+00
      21    -1     0     0   501   511  0.000000000E+00  0.000000000E+00 -8.166964798E+02  8.166964798E+02  0.000000000E+00  0.00000E+00  9.000E+00
      25     1     1     2     0     0  4.877642182E+00 -9.888920572E+00 -6.467593907E+02  6.588200735E+02  1.249983906E+02  0.00000E+00  9.000E+00
       5     1     1     2   501     0  8.223596380E-01  1.129696867E-01 -7.170704691E+00  8.641211911E+00  4.750000000E+00  0.00000E+00  9.000E+00
      -5     1     1     2     0   503  3.348524174E+00  9.522389586E+00 -6.570815919E+01  6.664842985E+01  4.750000000E+00  0.00000E+00  9.000E+00
      21     1     1     2   502   511 -9.048525994E+00  2.535612994E-01 -8.959443368E+01  9.005055615E+01  1.651812370E-06  0.00000E+00  9.000E+00
#rwgt            1           9   4.7871899047817126E-004           5     2966948           0
</event>
<event>
      6   9999 -3.45752E-01  1.16135E+01 -1.00000E+00  1.80601E-01
      21    -1     0     0   501   502  0.000000000E+00  0.000000000E+00  3.245700199E+02  3.245700199E+02  0.000000000E+00  0.00000E+00  9.000E+00
      21    -1     0     0   512   503  0.000000000E+00  0.000000000E+00 -3.886952552E+01  3.886952552E+01  0.000000000E+00  0.00000E+00  9.000E+00
      25     1     1     2     0     0  1.069234758E+01 -1.502713114E+01  7.575317609E+01  1.473080154E+02  1.249838660E+02  0.00000E+00  9.000E+00
       5     1     1     2   501     0 -8.449852319E-01 -1.105228502E+00  1.739296359E+02  1.740000467E+02  4.750000000E+00  0.00000E+00  9.000E+00
      -5     1     1     2     0   503 -1.888460455E+00  7.674861492E+00  2.246282167E+01  2.428189941E+01  4.750000000E+00  0.00000E+00  9.000E+00
      21     1     1     2   512   502 -7.958901892E+00  8.457498150E+00  1.355486075E+01  1.784958387E+01  1.685873940E-07  0.00000E+00  9.000E+00
#rwgt            1           9  -2.8895027729636442E-002           5     2969092           0
</event>
<event>
      6   9999  3.45752E-01  3.14742E+00 -1.00000E+00  2.71574E-01
      21    -1     0     0   501   502  0.000000000E+00  0.000000000E+00  1.999013494E+01  1.999013494E+01  0.000000000E+00  0.00000E+00  9.000E+00
      21    -1     0     0   511   503  0.000000000E+00  0.000000000E+00 -1.003245479E+03  1.003245479E+03  0.000000000E+00  0.00000E+00  9.000E+00
      25     1     1     2     0     0 -5.834456635E+01  3.642070402E+01 -7.762750195E+02  7.892734974E+02  1.249767646E+02  0.00000E+00  9.000E+00
       5     1     1     2   501     0  2.660773837E+00 -2.974972281E-01  7.205830137E+00  9.036299573E+00  4.750000000E+00  0.00000E+00  9.000E+00
      -5     1     1     2     0   503  5.563784555E+01 -3.297612283E+01 -1.954678740E+02  2.059447664E+02  4.750000000E+00  0.00000E+00  9.000E+00
      21     1     1     2   511   502  4.594696907E-02 -3.147083962E+00 -1.871828048E+01  1.898105036E+01  5.331201500E-07  0.00000E+00  9.000E+00
#rwgt            1           9   3.6300210567049348E-004           5     2971379           0
</event>
<event>
      6   9999  3.45752E-01  2.07580E+01 -1.00000E+00  1.58987E-01
      21    -1     0     0   501   502  0.000000000E+00  0.000000000E+00  2.512155121E+01  2.512155121E+01  0.000000000E+00  0.00000E+00  9.000E+00
      21    -1     0     0   512   503  0.000000000E+00  0.000000000E+00 -1.153621536E+03  1.153621536E+03  0.000000000E+00  0.00000E+00  9.000E+00
      25     1     1     2     0     0  1.722422166E+01  1.581482662E+01 -6.693614192E+02  6.813333853E+02  1.249947598E+02  0.00000E+00  9.000E+00
       5     1     1     2   501     0  4.048201202E+00  3.039857714E+00  1.709772687E+01  1.845327699E+01  4.750000000E+00  0.00000E+00  9.000E+00
      -5     1     1     2     0   503 -2.071594746E+01  1.895899612E+00 -3.753866322E+02  3.759925944E+02  4.750000000E+00  0.00000E+00  9.000E+00
      21     1     1     2   512   502 -5.564754023E-01 -2.075058394E+01 -1.008496602E+02  1.029638303E+02  1.348699152E-06  0.00000E+00  9.000E+00
#rwgt            1           9   7.2260554593982300E-005           5     2978308           0
</event>
<event>
      6   9999  3.45752E-01  1.47851E+01 -1.00000E+00  1.70916E-01
      21    -1     0     0   501   502  0.000000000E+00  0.000000000E+00  1.912725720E+03  1.912725720E+03  0.000000000E+00  0.00000E+00  9.000E+00
      21    -1     0     0   502   511  0.000000000E+00  0.000000000E+00 -7.424941188E+00  7.424941188E+00  0.000000000E+00  0.00000E+00  9.000E+00
      25     1     1     2     0     0  1.858353528E+01 -8.371308969E+00  6.740124722E+02  6.858075565E+02  1.249950614E+02  0.00000E+00  9.000E+00
       5     1     1     2   501     0  9.627328506E-01 -2.425125083E+00  1.042087462E+03  1.042101554E+03  4.750000000E+00  0.00000E+00  9.000E+00
      -5     1     1     2     0   503 -5.636525062E+00  5.784589007E+00  1.508296963E+02  1.511204542E+02  4.750000000E+00  0.00000E+00  9.000E+00
      21     1     1     2   503   511 -1.390974307E+01  5.011845045E+00  3.837114845E+01  4.112109649E+01  1.066240300E-06  0.00000E+00  9.000E+00
#rwgt            1           9   6.3235638267888846E-005           5     2980078           0
</event>
<event>
      6   9999  3.45752E-01  1.56626E+01 -1.00000E+00  1.68760E-01
      21    -1     0     0   502   503  0.000000000E+00  0.000000000E+00  1.837420268E+03  1.837420268E+03  0.000000000E+00  0.00000E+00  9.000E+00
      21    -1     0     0   501   512  0.000000000E+00  0.000000000E+00 -1.074672098E+03  1.074672098E+03  0.000000000E+00  0.00000E+00  9.000E+00
      25     1     1     2     0     0 -5.394074978E+01 -2.698569177E+01  1.164890459E+03  1.173129490E+03  1.250007407E+02  0.00000E+00  9.000E+00
       5     1     1     2   501     0  8.365175230E+01  3.641216069E+01  3.630443866E+02  3.743624584E+02  4.750000000E+00  0.00000E+00  9.000E+00
      -5     1     1     2     0   503 -1.836361598E+01 -2.022244732E+01  2.990078847E+02  3.002906049E+02  4.750000000E+00  0.00000E+00  9.000E+00
      21     1     1     2   502   512 -1.134738654E+01  1.079597840E+01 -1.064194561E+03  1.064309814E+03  1.525878906E-05  0.00000E+00  9.000E+00
#rwgt            1           9   381.59262608338497                5     2982888           0
</event>
<event>
      6   9999  3.45752E-01  9.51180E+00 -1.00000E+00  1.89513E-01
      21    -1     0     0   501   502  0.000000000E+00  0.000000000E+00  2.642611919E+03  2.642611919E+03  0.000000000E+00  0.00000E+00  9.000E+00
      21    -1     0     0   511   503  0.000000000E+00  0.000000000E+00 -5.484607474E+01  5.484607474E+01  0.000000000E+00  0.00000E+00  9.000E+00
      25     1     1     2     0     0  4.828510879E+01 -2.881294454E+01  2.251380046E+03  2.255549973E+03  1.250277220E+02  0.00000E+00  9.000E+00
       5     1     1     2   501     0  1.139648795E+00  2.862911110E+00  3.656808530E+02  3.657246831E+02  4.750000000E+00  0.00000E+00  9.000E+00
      -5     1     1     2     0   503 -4.888564359E+01  3.544654782E+01 -2.306963543E+01  6.481538768E+01  4.750000000E+00  0.00000E+00  9.000E+00
      21     1     1     2   511   502 -5.391139944E-01 -9.496514385E+00 -6.225419717E+00  1.136794968E+01  5.717076687E-07  0.00000E+00  9.000E+00
#rwgt            1           9   3.0680450289677550                5     2985107           0
</event>
<event>
      6   9999  3.45752E-01  1.29021E+01 -1.00000E+00  1.76244E-01
      21    -1     0     0   501   512  0.000000000E+00  0.000000000E+00  4.105783733E+00  4.105783733E+00  0.000000000E+00  0.00000E+00  9.000E+00
      21    -1     0     0   502   503  0.000000000E+00  0.000000000E+00 -3.018894539E+03  3.018894539E+03  0.000000000E+00  0.00000E+00  9.000E+00
      25     1     1     2     0     0  3.465263795E+01  1.949779223E+01 -2.163065140E+03  2.167038705E+03  1.249999131E+02  0.00000E+00  9.000E+00
       5     1     1     2   501     0 -1.379752827E+00  5.051571800E-01 -5.503814634E+00  7.417100321E+00  4.750000000E+00  0.00000E+00  9.000E+00
      -5     1     1     2     0   503 -3.731585361E+01 -7.750640326E+00 -7.869500486E+02  7.878867221E+02  4.750000000E+00  0.00000E+00  9.000E+00
      21     1     1     2   502   512  4.042968490E+00 -1.225230908E+01 -5.926975222E+01  6.065779587E+01  1.168007728E-06  0.00000E+00  9.000E+00
#rwgt            1           9   1.2237511794920313E-002           5     2989876           0
</event>
<event>
      6   9999  3.45752E-01  5.18012E+00 -1.00000E+00  2.23350E-01
      21    -1     0     0   511   502  0.000000000E+00  0.000000000E+00  1.095343676E+01  1.095343676E+01  0.000000000E+00  0.00000E+00  9.000E+00
      21    -1     0     0   502   503  0.000000000E+00  0.000000000E+00 -6.907636679E+02  6.907636679E+02  0.000000000E+00  0.00000E+00  9.000E+00
      25     1     1     2     0     0 -2.349246633E+01 -7.914677605E-01 -5.420108818E+02  5.567343132E+02  1.249991088E+02  0.00000E+00  9.000E+00
       5     1     1     2   501     0  2.142554060E+01 -3.779622806E+00 -1.133029481E+02  1.154706019E+02  4.750000000E+00  0.00000E+00  9.000E+00
      -5     1     1     2     0   503  9.678040707E-01 -4.910816733E-01 -2.379034910E+01  2.428417213E+01  4.750000000E+00  0.00000E+00  9.000E+00
      21     1     1     2   511   501  1.099121655E+00  5.062172240E+00 -7.060521049E-01  5.228017385E+00  2.086162567E-07  0.00000E+00  9.000E+00
#rwgt            1           9   2.0791201442889505E-002           5     2992161           0
</event>
<event>
      6   9999 -3.45752E-01  3.61814E+01 -1.00000E+00  1.42761E-01
      21    -1     0     0   501   502  0.000000000E+00  0.000000000E+00  2.425694121E+01  2.425694121E+01  0.000000000E+00  0.00000E+00  9.000E+00
       2    -1     0     0   502     0  0.000000000E+00  0.000000000E+00 -2.566224014E+03  2.566224014E+03  0.000000000E+00  0.00000E+00  9.000E+00
      25     1     1     2     0     0  4.053991270E+01 -8.023309666E+01 -7.675958134E+02  7.828855669E+02  1.250025750E+02  0.00000E+00  9.000E+00
       5     1     1     2   501     0 -2.560296524E+00  1.687043462E+00  1.326015044E+00  5.807068954E+00  4.750000000E+00  0.00000E+00  9.000E+00
      -5     1     1     2     0   503 -5.788124882E+01  1.087623099E+02 -2.834813549E+02  3.091338223E+02  4.750000000E+00  0.00000E+00  9.000E+00
       2     1     1     2   503     0  1.990163264E+01 -3.021625667E+01 -1.492215919E+03  1.492654497E+03  2.157918644E-05  0.00000E+00  9.000E+00
#rwgt            1           9  -3.6595572331047217E-004           5     2995817           0
</event>
<event>
      6   9999  3.45752E-01  4.90547E+00 -1.00000E+00  2.30830E-01
      21    -1     0     0   501   511  0.000000000E+00  0.000000000E+00  3.029345551E+02  3.029345551E+02  0.000000000E+00  0.00000E+00  9.000E+00
      21    -1     0     0   502   503  0.000000000E+00  0.000000000E+00 -1.165703965E+02  1.165703965E+02  0.000000000E+00  0.00000E+00  9.000E+00
      25     1     1     2     0     0 -2.182423781E+00 -1.606885281E+00 -6.698024037E+01  1.418420164E+02  1.250018398E+02  0.00000E+00  9.000E+00
       5     1     1     2   501     0 -4.758745084E-01 -2.554669242E-02  1.605198651E+01  1.674681702E+01  4.750000000E+00  0.00000E+00  9.000E+00
      -5     1     1     2     0   503  7.536940324E+00  2.144731875E+00 -1.000666700E+01  1.356839079E+01  4.750000000E+00  0.00000E+00  9.000E+00
      21     1     1     2   502   511 -4.878642034E+00 -5.122999012E-01  2.472990794E+02  2.473477275E+02  2.697398305E-06  0.00000E+00  9.000E+00
#rwgt            1           9  0.31146887426015174                5     2997312           0
</event>
<event>
      6   9999  3.45752E-01  3.26247E+00 -1.00000E+00  2.67719E-01
      21    -1     0     0   501   512  0.000000000E+00  0.000000000E+00  8.943741526E+01  8.943741526E+01  0.000000000E+00  0.00000E+00  9.000E+00
      21    -1     0     0   502   503  0.000000000E+00  0.000000000E+00 -3.680832072E+03  3.680832072E+03  0.000000000E+00  0.00000E+00  9.000E+00
      25     1     1     2     0     0 -5.119221539E+01  2.174404917E+00 -3.526168768E+03  3.528755712E+03  1.250012901E+02  0.00000E+00  9.000E+00
       5     1     1     2   501     0 -5.036699480E+00  2.193248917E+00  1.129920799E+01  1.343180121E+01  4.750000000E+00  0.00000E+00  9.000E+00
      -5     1     1     2     0   503  5.465117146E+01 -7.223245805E+00 -1.472393773E+02  1.572924745E+02  4.750000000E+00  0.00000E+00  9.000E+00
      21     1     1     2   502   512  1.577743406E+00  2.855591971E+00  7.071428094E+01  7.078949928E+01  4.046097457E-06  0.00000E+00  9.000E+00
#rwgt            1           9   2.0808833703285580E-004           5     3000912           0
</event>
<event>
      6   9999  3.45752E-01  1.77371E+01 -1.00000E+00  1.64295E-01
      21    -1     0     0   501   502  0.000000000E+00  0.000000000E+00  8.388253414E+00  8.388253414E+00  0.000000000E+00  0.00000E+00  9.000E+00
      21    -1     0     0   511   503  0.000000000E+00  0.000000000E+00 -1.371567723E+03  1.371567723E+03  0.000000000E+00  0.00000E+00  9.000E+00
      25     1     1     2     0     0 -1.216636862E+01 -1.142686640E+01 -6.341276826E+02  6.465461220E+02  1.250015047E+02  0.00000E+00  9.000E+00
       5     1     1     2   501     0 -8.945216163E-01 -1.261645138E+00 -2.594745691E+00  5.629131601E+00  4.750000000E+00  0.00000E+00  9.000E+00
      -5     1     1     2     0   503  9.780018909E+00 -4.742540603E+00 -6.422597452E+01  6.531216398E+01  4.750000000E+00  0.00000E+00  9.000E+00
      21     1     1     2   511   502  3.280871326E+00  1.743105214E+01 -6.622310671E+02  6.624685592E+02  1.321449896E-05  0.00000E+00  9.000E+00
#rwgt            1           9   8.9697913225817953E-006           5     3009125           0
</event>
<event>
      6   9999  3.45752E-01  5.25417E+00 -1.00000E+00  2.22416E-01
      21    -1     0     0   502   503  0.000000000E+00  0.000000000E+00  3.143637718E+00  3.143637718E+00  0.000000000E+00  0.00000E+00  9.000E+00
      21    -1     0     0   512   502  0.000000000E+00  0.000000000E+00 -2.196844275E+03  2.196844275E+03  0.000000000E+00  0.00000E+00  9.000E+00
      25     1     1     2     0     0 -9.642352729E+00 -1.230286447E+00 -1.876711554E+03  1.880895874E+03  1.250141808E+02  0.00000E+00  9.000E+00
       5     1     1     2   501     0 -3.727479937E-01 -1.114080861E+00 -8.568647458E+00  9.867336849E+00  4.750000000E+00  0.00000E+00  9.000E+00
      -5     1     1     2     0   503  5.602180222E+00 -5.073730096E-01 -3.558299497E+01  3.633667406E+01  4.750000000E+00  0.00000E+00  9.000E+00
      21     1     1     2   512   501  4.412920500E+00  2.851740318E+00 -2.728374411E+02  2.728880275E+02  5.394796609E-06  0.00000E+00  9.000E+00
#rwgt            1           9   1.4304453272484721E-002           5     3010400           0
</event>
<event>
      6   9999  3.45752E-01  3.43110E+00 -1.00000E+00  2.62499E-01
      21    -1     0     0   501   502  0.000000000E+00  0.000000000E+00  7.912356219E+00  7.912356219E+00  0.000000000E+00  0.00000E+00  9.000E+00
      21    -1     0     0   502   511  0.000000000E+00  0.000000000E+00 -9.835273995E+02  9.835273995E+02  0.000000000E+00  0.00000E+00  9.000E+00
      25     1     1     2     0     0  3.927250032E+00 -8.871715213E-01 -6.737090979E+02  6.852191193E+02  1.250003302E+02  0.00000E+00  9.000E+00
       5     1     1     2   501     0  2.325482826E-01  1.030300431E+00 -1.061687532E+00  4.980489745E+00  4.750000000E+00  0.00000E+00  9.000E+00
      -5     1     1     2     0   503 -8.827438489E-01  8.734302136E-01 -3.203912783E+01  3.241311970E+01  4.750000000E+00  0.00000E+00  9.000E+00
      21     1     1     2   503   511 -3.277054465E+00 -1.016559123E+00 -2.688051300E+02  2.688270269E+02  0.000000000E+00  0.00000E+00  9.000E+00
#rwgt            1           9   9.9028688957357447E-004           5     3013887           0
</event>
<event>
      6   9999 -3.45752E-01  2.80694E+01 -1.00000E+00  1.49731E-01
      21    -1     0     0   501   512  0.000000000E+00  0.000000000E+00  9.362440393E+01  9.362440393E+01  0.000000000E+00  0.00000E+00  9.000E+00
      21    -1     0     0   502   503  0.000000000E+00  0.000000000E+00 -1.044936618E+03  1.044936618E+03  0.000000000E+00  0.00000E+00  9.000E+00
      25     1     1     2     0     0  2.262051082E+01 -1.430228931E+01 -8.049065175E+02  8.149945230E+02  1.250013105E+02  0.00000E+00  9.000E+00
       5     1     1     2   501     0  9.596990189E+00  1.296731015E+01  1.307786066E+01  2.130366853E+01  4.750000000E+00  0.00000E+00  9.000E+00
      -5     1     1     2     0   503 -1.764340576E+01  2.532430743E+01 -2.270031964E+02  2.291410569E+02  4.750000000E+00  0.00000E+00  9.000E+00
      21     1     1     2   502   512 -1.457409525E+01 -2.398932827E+01  6.751963899E+01  7.312177359E+01  9.536743164E-07  0.00000E+00  9.000E+00
#rwgt            1           9  -9.5263819180394226E-005           5     3018530           0
</event>
</LesHouchesEvents>
 #Random number generator exit values:            5       3019926             0
