<LesHouchesEvents version="3.0">
<!--
file generated with POWHEG-BOX-V2
Input file powheg.input contained:
numevts 1000    ! number of events to be generated

! Production parameters for ttH production
hmass 125.d0      ! mass of the HIggs boson [GeV]
hwidth 0.00498d0  ! width of the Higgs boson [GeV]

hdecaymode -1    ! -1 no decay
                ! 0 all decay channels open
                ! 1-6 d dbar, u ubar,..., t tbar
                ! 7-9 e+ e-, mu+ mu-, tau+ tau-
                ! 10  W+W-
                ! 11  ZZ
                ! 12  gamma gamma

#pythiatune 320	! PYTHIA tune


ih1   1           ! hadron 1 (1 for protons, -1 for antiprotons)
ih2   1           ! hadron 2 (1 for protons, -1 for antiprotons)
ebeam1 6500d0     ! energy of beam 1
ebeam2 6500d0     ! energy of beam 2

! To be set only if using 'native' pdfs
!ndns1 131         ! pdf set for hadron 1 (mlm numbering)
!ndns2 131         ! pdf set for hadron 2 (mlm numbering)
! To be set only if using LHA pdfs
! 10050 cteq6m
! 10042 cteq6l with LO alphas (corr. to vbfnlo LO set)
! 10041 cteq6l with NLO alphas
! 21000 MSTW2008 LO
! 21100 MSTW2008 NLO
! 23300 MSTW2008 NLO, NF=4
! 11082 CT10 Nf4

lhans1  23300      ! pdf set for hadron 1 (LHA numbering)
lhans2  23300      ! pdf set for hadron 2 (LHA numbering)

#bornktmin 1d0    ! Generation cut; minimum kt in underlying born
#bornsuppfact 1d0 ! (default 0d0) switch for Born suppression factor. If < 0 suppfact = 1
delta_mbbmin 0d0 ! generation cut on mbb (no gencut used, if set to 0)

use-old-grid    1 ! if 1 use old grid if file pwggrids.dat is present (<> 1 regenerate)
use-old-ubound  1 ! if 1 use norm of upper bounding function stored in pwgubound.dat, if present; <>

ncall1  500000  ! number of calls for initializing the integration grid
itmx1    2     ! number of iterations for initializing the integration grid
ncall2  50000  ! number of calls for computing the integral and finding upper bound
itmx2     1     ! number of iterations for computing the integral and finding upper bound
foldcsi   1    ! number of folds on csi integration
foldy     1    ! number of folds on  y  integration
foldphi   1    ! number of folds on phi integration
nubound 10000  ! number of bbarra calls to setup norm of upper bounding function
icsimax  1     ! <= 100, number of csi subdivision when computing the upper bounds
iymax    1     ! <= 100, number of y subdivision when computing the upper bounds
xupbound 2d0   ! increase upper bound for radiation generation

#runningscales 2	   ! default 0 (no running scales); 1,2: use running scales
renscfact 1d0   ! (default 1d0) ren scale factor: muren  = muref * renscfact
facscfact 1d0   ! (default 1d0) fac scale factor: mufact = muref * facscfact
testplots  1       ! (default 0, do not) do NLO and PWHG distributions

#bornonly   1      ! (default 0) if 1 do Born only
#fakevirt   1      ! (default 0) if 1 use Born for virtuals

iseed    2

manyseeds  1       ! Used to perform multiple runs with different random
                   ! seeds in the same directory.
                   ! If set to 1, the program asks for an integer j;
                   ! The file pwgseeds.dat at line j is read, and the
                   ! integer at line j is used to initialize the random
                   ! sequence for the generation of the event.
                   ! The event file is called pwgevents-'j'.lhe

#storeinfo_rwgt 1   ! store info for reweighting events
#compute_rwgt 1   ! store info for reweighting events
#xgriditeration 1   ! identifier for grid generation
#parallelstage  4   ! identifier for parallel running stages


toploop 1	! 1 include top loop effects; 0 disregard top loop effects
msbar  1	! 1 MSbar renormalization; 0 On-Shell renormalization
parallelstage 4
End of powheg.input content
PDF package: lha
 Random number generator initialized with:           11             0             0
-->
<init>
     2212     2212  6.50000E+03  6.50000E+03     -1     -1     -1     -1     -4      1
  3.37328E-01  1.60874E-01  1.00000E+00   9999
</init>
<event>
      6   9999  3.45752E-01  2.48732E+01 -1.00000E+00  1.53303E-01
      21    -1     0     0   511   503  0.000000000E+00  0.000000000E+00  3.264328374E+01  3.264328374E+01  0.000000000E+00  0.00000E+00  9.000E+00
      21    -1     0     0   501   502  0.000000000E+00  0.000000000E+00 -6.909289416E+02  6.909289416E+02  0.000000000E+00  0.00000E+00  9.000E+00
      25     1     1     2     0     0 -3.569205696E+00  5.979198686E+00 -5.919971024E+02  6.050900303E+02  1.249995419E+02  0.00000E+00  9.000E+00
       5     1     1     2   501     0  6.258391754E-01  1.799725974E+00 -3.292203833E+01  3.331746983E+01  4.750000000E+00  0.00000E+00  9.000E+00
      -5     1     1     2     0   503  5.489263643E+00  1.696359232E+01 -5.128903592E+01  5.450709298E+01  4.750000000E+00  0.00000E+00  9.000E+00
      21     1     1     2   511   502 -2.545897122E+00 -2.474251698E+01  1.792251874E+01  3.065763228E+01  1.066240300E-06  0.00000E+00  9.000E+00
#rwgt            1           9   1.1319228301558866               11          41           0
</event>
<event>
      6   9999  3.45752E-01  8.48472E+00 -1.00000E+00  1.95038E-01
      21    -1     0     0   501   502  0.000000000E+00  0.000000000E+00  1.017574810E+01  1.017574810E+01  0.000000000E+00  0.00000E+00  9.000E+00
      21    -1     0     0   502   512  0.000000000E+00  0.000000000E+00 -8.548302398E+02  8.548302398E+02  0.000000000E+00  0.00000E+00  9.000E+00
      25     1     1     2     0     0  2.572633291E+01 -1.162325169E+01 -6.516947249E+02  6.641742804E+02  1.249980645E+02  0.00000E+00  9.000E+00
       5     1     1     2   501     0  3.647583909E-01 -1.349771182E+00  4.183608463E-01  4.969150503E+00  4.750000000E+00  0.00000E+00  9.000E+00
      -5     1     1     2     0   503 -1.810632977E+01  1.010352598E+01 -1.088011339E+02  1.108610376E+02  4.750000000E+00  0.00000E+00  9.000E+00
      21     1     1     2   503   512 -7.984761533E+00  2.869496889E+00 -8.457699383E+01  8.500151948E+01  9.536743164E-07  0.00000E+00  9.000E+00
#rwgt            1           9   4.4363002642660654E-004          11         963           0
</event>
<event>
      6   9999  3.45752E-01  3.32958E+01 -1.00000E+00  1.44968E-01
      21    -1     0     0   501   502  0.000000000E+00  0.000000000E+00  5.349346460E+01  5.349346460E+01  0.000000000E+00  0.00000E+00  9.000E+00
      21    -1     0     0   511   503  0.000000000E+00  0.000000000E+00 -1.509987386E+03  1.509987386E+03  0.000000000E+00  0.00000E+00  9.000E+00
      25     1     1     2     0     0 -9.685896496E+01 -1.107816560E+02 -8.277257462E+02  8.499461452E+02  1.249972180E+02  0.00000E+00  9.000E+00
       5     1     1     2   501     0  1.710535206E-01 -2.214775195E+00  3.390372240E+01  3.430684161E+01  4.750000000E+00  0.00000E+00  9.000E+00
      -5     1     1     2     0   503  7.367599675E+01  8.893266207E+01 -5.004624513E+02  5.136364459E+02  4.750000000E+00  0.00000E+00  9.000E+00
      21     1     1     2   511   502  2.301191469E+01  2.406376916E+01 -1.622094464E+02  1.655914180E+02  3.303624740E-06  0.00000E+00  9.000E+00
#rwgt            1           9   1.9636919438728185E-004          11        3516           0
</event>
<event>
      6   9999 -3.45752E-01  1.71576E+01 -1.00000E+00  1.65464E-01
      -1    -1     0     0     0   502  0.000000000E+00  0.000000000E+00  6.229279923E+02  6.229279923E+02  0.000000000E+00  0.00000E+00  9.000E+00
      21    -1     0     0   502   503  0.000000000E+00  0.000000000E+00 -1.227651775E+03  1.227651775E+03  0.000000000E+00  0.00000E+00  9.000E+00
      25     1     1     2     0     0 -8.678098724E+01  7.247046517E+01 -9.091080877E+02  9.245996024E+02  1.249960058E+02  0.00000E+00  9.000E+00
       5     1     1     2   501     0 -1.307952485E+01 -7.543278011E-01  3.227855814E+01  3.515836737E+01  4.750000000E+00  0.00000E+00  9.000E+00
      -5     1     1     2     0   503  8.451897068E+01 -6.403366647E+01 -3.001210508E+02  3.183378308E+02  4.750000000E+00  0.00000E+00  9.000E+00
      -1     1     1     2     0   501  1.534154141E+01 -7.682470901E+00  5.722267981E+02  5.724839663E+02  7.629394531E-06  0.00000E+00  9.000E+00
#rwgt            1           9  -1.6718859994774118E-003          11        5327           0
</event>
<event>
      6   9999  3.45752E-01  6.85261E+01 -1.00000E+00  1.27849E-01
      21    -1     0     0   502   511  0.000000000E+00  0.000000000E+00  1.391427978E+01  1.391427978E+01  0.000000000E+00  0.00000E+00  9.000E+00
      21    -1     0     0   501   502  0.000000000E+00  0.000000000E+00 -1.071221450E+03  1.071221450E+03  0.000000000E+00  0.00000E+00  9.000E+00
      25     1     1     2     0     0  6.214492553E+01  5.635353660E+01 -7.169869670E+02  7.326208402E+02  1.250010874E+02  0.00000E+00  9.000E+00
       5     1     1     2   501     0 -8.989508852E-01 -5.633693074E+00 -1.483206503E+01  1.658611659E+01  4.750000000E+00  0.00000E+00  9.000E+00
      -5     1     1     2     0   503 -4.534985325E+00 -1.225301918E+01 -7.269595271E+01  7.401328673E+01  4.750000000E+00  0.00000E+00  9.000E+00
      21     1     1     2   503   511 -5.671098932E+01 -3.846682435E+01 -2.527921853E+02  2.619154860E+02  4.672030912E-06  0.00000E+00  9.000E+00
#rwgt            1           9   3.2173227955922075E-005          11        8556           0
</event>
<event>
      6   9999  3.45752E-01  4.70621E+00 -1.00000E+00  2.34087E-01
      21    -1     0     0   501   512  0.000000000E+00  0.000000000E+00  3.264962562E+02  3.264962562E+02  0.000000000E+00  0.00000E+00  9.000E+00
      21    -1     0     0   502   503  0.000000000E+00  0.000000000E+00 -2.095209117E+01  2.095209117E+01  0.000000000E+00  0.00000E+00  9.000E+00
      25     1     1     2     0     0 -5.393531150E+00  8.233101208E-01  1.772972337E+02  2.169989863E+02  1.249979318E+02  0.00000E+00  9.000E+00
       5     1     1     2   501     0 -8.859090333E-01 -1.490443402E+00  8.655370304E+01  8.670128180E+01  4.750000000E+00  0.00000E+00  9.000E+00
      -5     1     1     2     0   503  1.762035900E+00 -6.525092991E-01  6.625772481E+00  8.366235705E+00  4.750000000E+00  0.00000E+00  9.000E+00
      21     1     1     2   502   512  4.517404284E+00  1.319642580E+00  3.506745578E+01  3.538184355E+01  4.768371582E-07  0.00000E+00  9.000E+00
#rwgt            1           9  0.66249424247415889               11        8958           0
</event>
<event>
      6   9999  3.45752E-01  1.70845E+01 -1.00000E+00  1.65615E-01
      21    -1     0     0   501   511  0.000000000E+00  0.000000000E+00  3.776892616E+01  3.776892616E+01  0.000000000E+00  0.00000E+00  9.000E+00
      21    -1     0     0   502   503  0.000000000E+00  0.000000000E+00 -1.104744250E+03  1.104744250E+03  0.000000000E+00  0.00000E+00  9.000E+00
      25     1     1     2     0     0 -2.181230179E+01 -3.333420375E+01 -1.559715349E+02  2.038079894E+02  1.249945247E+02  0.00000E+00  9.000E+00
       5     1     1     2   501     0 -3.701110085E+00  3.763230780E+00  1.036838690E+01  1.256686392E+01  4.750000000E+00  0.00000E+00  9.000E+00
      -5     1     1     2     0   503  8.932942888E+00  3.369030497E+01 -8.875433359E+02  8.882401532E+02  4.750000000E+00  0.00000E+00  9.000E+00
      21     1     1     2   502   511  1.658046899E+01 -4.119331999E+00 -3.382883985E+01  3.789816953E+01  6.743495762E-07  0.00000E+00  9.000E+00
#rwgt            1           9   1.2051878921868142               11       12728           0
</event>
<event>
      6   9999  3.45752E-01  4.32442E+00 -1.00000E+00  2.41043E-01
      21    -1     0     0   501   502  0.000000000E+00  0.000000000E+00  7.155531444E+01  7.155531444E+01  0.000000000E+00  0.00000E+00  9.000E+00
      -1    -1     0     0     0   503  0.000000000E+00  0.000000000E+00 -6.663311476E+02  6.663311476E+02  0.000000000E+00  0.00000E+00  9.000E+00
      25     1     1     2     0     0  2.306589917E+01  7.533853718E-01 -9.626430846E+01  1.594506146E+02  1.250003124E+02  0.00000E+00  9.000E+00
       5     1     1     2   501     0  1.273541487E-01 -1.019879839E+00  1.679573687E+01  1.748472622E+01  4.750000000E+00  0.00000E+00  9.000E+00
      -5     1     1     2     0   503 -2.751762960E+01  2.479246362E-01  1.426709278E+01  3.135911098E+01  4.750000000E+00  0.00000E+00  9.000E+00
      -1     1     1     2     0   502  4.324376275E+00  1.856983071E-02 -5.295743544E+02  5.295920103E+02  1.078959322E-05  0.00000E+00  9.000E+00
#rwgt            1           9   2.2963894689252501E-002          11       15335           0
</event>
<event>
      6   9999  3.45752E-01  6.46460E+00 -1.00000E+00  2.09643E-01
      21    -1     0     0   501   511  0.000000000E+00  0.000000000E+00  3.166061355E+00  3.166061355E+00  0.000000000E+00  0.00000E+00  9.000E+00
      21    -1     0     0   502   503  0.000000000E+00  0.000000000E+00 -2.871566812E+03  2.871566812E+03  0.000000000E+00  0.00000E+00  9.000E+00
      25     1     1     2     0     0 -4.973737702E+00 -3.241332912E-01 -2.422205025E+03  2.425433410E+03  1.250007948E+02  0.00000E+00  9.000E+00
       5     1     1     2   501     0 -8.548344617E-01  1.318565605E+00 -3.243184890E+00  5.962390917E+00  4.750000000E+00  0.00000E+00  9.000E+00
      -5     1     1     2     0   503  8.300439439E+00  4.978914197E+00 -3.467425559E+02  3.469101461E+02  4.750000000E+00  0.00000E+00  9.000E+00
      21     1     1     2   502   511 -2.471867275E+00 -5.973346511E+00 -9.620998491E+01  9.642692670E+01  1.348699152E-06  0.00000E+00  9.000E+00
#rwgt            1           9  0.57061538476368290               11       20398           0
</event>
<event>
      6   9999  3.45752E-01  3.83720E+00 -1.00000E+00  2.51645E-01
      21    -1     0     0   512   502  0.000000000E+00  0.000000000E+00  8.100815269E+01  8.100815269E+01  0.000000000E+00  0.00000E+00  9.000E+00
      21    -1     0     0   502   503  0.000000000E+00  0.000000000E+00 -8.054067192E+02  8.054067192E+02  0.000000000E+00  0.00000E+00  9.000E+00
      25     1     1     2     0     0 -6.751030292E+01 -1.227066423E+02 -3.154938143E+02  3.671179321E+02  1.249986726E+02  0.00000E+00  9.000E+00
       5     1     1     2   501     0 -3.993589651E-01  3.410167551E+00  2.099939081E+01  2.180196424E+01  4.750000000E+00  0.00000E+00  9.000E+00
      -5     1     1     2     0   503  6.928354489E+01  1.157136577E+02 -4.537236724E+02  4.733683487E+02  4.750000000E+00  0.00000E+00  9.000E+00
      21     1     1     2   512   501 -1.373883009E+00  3.582817008E+00  2.381952949E+01  2.412662673E+01  3.371747881E-07  0.00000E+00  9.000E+00
#rwgt            1           9   4.7040824296110161E-003          11       23472           0
</event>
<event>
      6   9999  3.45752E-01  1.26673E+01 -1.00000E+00  1.76989E-01
      21    -1     0     0   511   502  0.000000000E+00  0.000000000E+00  2.226171805E+02  2.226171805E+02  0.000000000E+00  0.00000E+00  9.000E+00
      21    -1     0     0   502   503  0.000000000E+00  0.000000000E+00 -3.526063424E+03  3.526063424E+03  0.000000000E+00  0.00000E+00  9.000E+00
      25     1     1     2     0     0 -6.888056100E+01 -4.371911373E+01 -2.124414833E+03  2.129651742E+03  1.249890745E+02  0.00000E+00  9.000E+00
       5     1     1     2   501     0  3.184540503E+00  3.550182668E+00  3.207030153E+00  7.456047049E+00  4.750000000E+00  0.00000E+00  9.000E+00
      -5     1     1     2     0   503  7.678496583E+01  3.404564919E+01 -1.395450822E+03  1.397984476E+03  4.750000000E+00  0.00000E+00  9.000E+00
      21     1     1     2   511   501 -1.108894533E+01  6.123281870E+00  2.132123808E+02  2.135883391E+02  8.529922400E-06  0.00000E+00  9.000E+00
#rwgt            1           9   1.0742273110460959E-003          11       30248           0
</event>
<event>
      6   9999 -3.45752E-01  1.48292E+01 -1.00000E+00  1.70804E-01
      21    -1     0     0   501   502  0.000000000E+00  0.000000000E+00  9.249096490E+00  9.249096490E+00  0.000000000E+00  0.00000E+00  9.000E+00
      21    -1     0     0   502   512  0.000000000E+00  0.000000000E+00 -8.286227622E+02  8.286227622E+02  0.000000000E+00  0.00000E+00  9.000E+00
      25     1     1     2     0     0 -1.588220635E+01  1.167748731E+01 -7.054540804E+02  7.167141801E+02  1.250005929E+02  0.00000E+00  9.000E+00
       5     1     1     2   501     0 -2.037568221E-01  2.222652493E+00 -1.911880022E+00  5.585650022E+00  4.750000000E+00  0.00000E+00  9.000E+00
      -5     1     1     2     0   503  1.144977078E+01  1.856967119E-01 -3.453346011E+01  3.669133551E+01  4.750000000E+00  0.00000E+00  9.000E+00
      21     1     1     2   503   512  4.636192392E+00 -1.408583651E+01 -7.747424515E+01  7.888069302E+01  1.651812370E-06  0.00000E+00  9.000E+00
#rwgt            1           9  -1.0562949159064707E-004          11       32679           0
</event>
<event>
      6   9999  3.45752E-01  1.21521E+01 -1.00000E+00  1.78697E-01
      21    -1     0     0   501   502  0.000000000E+00  0.000000000E+00  4.144195418E+03  4.144195418E+03  0.000000000E+00  0.00000E+00  9.000E+00
       1    -1     0     0   502     0  0.000000000E+00  0.000000000E+00 -6.541175730E+01  6.541175730E+01  0.000000000E+00  0.00000E+00  9.000E+00
      25     1     1     2     0     0  2.877831259E+00  9.386052383E+00  8.985179036E+02  9.072239401E+02  1.249978981E+02  0.00000E+00  9.000E+00
       5     1     1     2   501     0  1.089804586E+00  2.223610255E+00  3.199439772E+03  3.199444256E+03  4.750000001E+00  0.00000E+00  9.000E+00
      -5     1     1     2     0   503 -7.039515755E+00  1.477210074E-01  4.083651013E+01  4.171042632E+01  4.750000000E+00  0.00000E+00  9.000E+00
       1     1     1     2   503     0  3.071879910E+00 -1.175738365E+01 -6.001052510E+01  6.122855248E+01  2.861022949E-06  0.00000E+00  9.000E+00
#rwgt            1           9  0.76341720196004881               11       34576           0
</event>
<event>
      6   9999  3.45752E-01  8.55484E+00 -1.00000E+00  1.94629E-01
      21    -1     0     0   501   511  0.000000000E+00  0.000000000E+00  1.857337412E+03  1.857337412E+03  0.000000000E+00  0.00000E+00  9.000E+00
      21    -1     0     0   502   503  0.000000000E+00  0.000000000E+00 -1.335212878E+01  1.335212878E+01  0.000000000E+00  0.00000E+00  9.000E+00
      25     1     1     2     0     0 -6.786911034E+00  6.904246729E+00  3.177339585E+02  3.415758787E+02  1.250019271E+02  0.00000E+00  9.000E+00
       5     1     1     2   501     0  3.835156352E+00 -4.193599356E-01  1.321488969E+03  1.321503138E+03  4.750000000E+00  0.00000E+00  9.000E+00
      -5     1     1     2     0   503  1.708026559E-01  1.605333954E+00  3.386103421E+00  6.052641327E+00  4.750000000E+00  0.00000E+00  9.000E+00
      21     1     1     2   502   511  2.780952026E+00 -8.090220747E+00  2.013762521E+02  2.015578832E+02  3.814697266E-06  0.00000E+00  9.000E+00
#rwgt            1           9   2.5045727492454460E-004          11       36865           0
</event>
<event>
      6   9999  3.45752E-01  5.65028E+00 -1.00000E+00  2.17756E-01
      21    -1     0     0   501   502  0.000000000E+00  0.000000000E+00  9.729607672E+02  9.729607672E+02  0.000000000E+00  0.00000E+00  9.000E+00
      21    -1     0     0   512   503  0.000000000E+00  0.000000000E+00 -6.743710097E+00  6.743710097E+00  0.000000000E+00  0.00000E+00  9.000E+00
      25     1     1     2     0     0 -8.695495788E-01  1.296343094E-01  7.174914712E+02  7.283006950E+02  1.250084721E+02  0.00000E+00  9.000E+00
       5     1     1     2   501     0 -4.882439988E-01 -9.864456622E-01  1.615448511E+02  1.616184175E+02  4.750000000E+00  0.00000E+00  9.000E+00
      -5     1     1     2     0   503 -5.120925947E-01 -4.475088680E+00  8.153679965E+01  8.179914947E+01  4.750000000E+00  0.00000E+00  9.000E+00
      21     1     1     2   512   502  1.869886172E+00  5.331900033E+00  5.643935200E+00  7.986215424E+00  1.884864366E-07  0.00000E+00  9.000E+00
#rwgt            1           9   1.8674656916752534E-004          11       40647           0
</event>
<event>
      6   9999  3.45752E-01  9.23481E+00 -1.00000E+00  1.90910E-01
      21    -1     0     0   501   502  0.000000000E+00  0.000000000E+00  2.461949748E+02  2.461949748E+02  0.000000000E+00  0.00000E+00  9.000E+00
      21    -1     0     0   502   511  0.000000000E+00  0.000000000E+00 -9.172555774E+01  9.172555774E+01  0.000000000E+00  0.00000E+00  9.000E+00
      25     1     1     2     0     0 -9.487293239E+01  1.043979995E+01  2.851862247E+01  1.598361563E+02  1.249976892E+02  0.00000E+00  9.000E+00
       5     1     1     2   501     0 -1.663700660E+00  2.058038897E+00  5.367737057E+01  5.395207165E+01  4.750000000E+00  0.00000E+00  9.000E+00
      -5     1     1     2     0   503  9.031154363E+01 -5.676544740E+00  7.030554064E+01  1.146901461E+02  4.750000000E+00  0.00000E+00  9.000E+00
      21     1     1     2   503   511  6.225089415E+00 -6.821294105E+00  1.967883350E+00  9.442158460E+00  1.763129170E-07  0.00000E+00  9.000E+00
#rwgt            1           9  0.46645506156118460               11       44655           0
</event>
<event>
      6   9999  3.45752E-01  1.29830E+01 -1.00000E+00  1.75992E-01
      21    -1     0     0   502   512  0.000000000E+00  0.000000000E+00  2.593849665E+01  2.593849665E+01  0.000000000E+00  0.00000E+00  9.000E+00
      21    -1     0     0   501   502  0.000000000E+00  0.000000000E+00 -5.433538267E+02  5.433538267E+02  0.000000000E+00  0.00000E+00  9.000E+00
      25     1     1     2     0     0 -1.605982435E+01  1.679028449E+01 -5.185168032E+02  5.338756505E+02  1.249948137E+02  0.00000E+00  9.000E+00
       5     1     1     2   501     0 -1.128682037E-01  2.041693194E-01 -4.820192819E+00  6.771350172E+00  4.750000000E+00  0.00000E+00  9.000E+00
      -5     1     1     2     0   503  1.349154182E+01 -4.291325217E+00  1.899097268E+00  1.505344622E+01  4.750000000E+00  0.00000E+00  9.000E+00
      21     1     1     2   503   512  2.681150735E+00 -1.270312859E+01  4.022568696E+00  1.359187640E+01  4.086288572E-07  0.00000E+00  9.000E+00
#rwgt            1           9   2.4649679042916501E-005          11       47925           0
</event>
<event>
      6   9999  3.45752E-01  1.54455E+01 -1.00000E+00  1.69277E-01
      21    -1     0     0   501   511  0.000000000E+00  0.000000000E+00  6.132938250E+00  6.132938250E+00  0.000000000E+00  0.00000E+00  9.000E+00
      21    -1     0     0   502   503  0.000000000E+00  0.000000000E+00 -1.248102980E+03  1.248102980E+03  0.000000000E+00  0.00000E+00  9.000E+00
      25     1     1     2     0     0  6.586846815E+00 -1.351844335E+01 -1.126441256E+03  1.133455358E+03  1.250000415E+02  0.00000E+00  9.000E+00
       5     1     1     2   501     0  9.512163709E-02 -9.510948984E-01 -2.892723089E+00  5.643046739E+00  4.750000000E+00  0.00000E+00  9.000E+00
      -5     1     1     2     0   503 -3.687220643E+00 -6.829023909E-01 -1.335553204E+01  1.466269715E+01  4.750000000E+00  0.00000E+00  9.000E+00
      21     1     1     2   502   511 -2.994747810E+00  1.515244064E+01 -9.928053079E+01  1.004748166E+02  1.348699152E-06  0.00000E+00  9.000E+00
#rwgt            1           9   1.2953199979409030E-005          11       50154           0
</event>
<event>
      6   9999 -3.45752E-01  1.47045E+01 -1.00000E+00  1.71124E-01
      21    -1     0     0   512   502  0.000000000E+00  0.000000000E+00  2.712324538E+01  2.712324538E+01  0.000000000E+00  0.00000E+00  9.000E+00
      21    -1     0     0   502   503  0.000000000E+00  0.000000000E+00 -6.437209707E+02  6.437209707E+02  0.000000000E+00  0.00000E+00  9.000E+00
      25     1     1     2     0     0  2.332216120E+01 -1.944276120E+01 -5.959078472E+02  6.096335416E+02  1.249997941E+02  0.00000E+00  9.000E+00
       5     1     1     2   501     0  3.115271327E-01 -1.384695686E+00  3.309663610E+00  5.960772140E+00  4.750000000E+00  0.00000E+00  9.000E+00
      -5     1     1     2     0   503 -1.069504578E+01  1.384082197E+01  8.168300159E+00  1.988054286E+01  4.750000000E+00  0.00000E+00  9.000E+00
      21     1     1     2   512   501 -1.293864256E+01  6.986634916E+00 -3.216784195E+01  3.536935955E+01  8.259061849E-07  0.00000E+00  9.000E+00
#rwgt            1           9  -1.7082514552422035E-002          11       51846           0
</event>
<event>
      6   9999  3.45752E-01  3.01450E+00 -1.00000E+00  2.76365E-01
      21    -1     0     0   501   511  0.000000000E+00  0.000000000E+00  3.075704854E+01  3.075704854E+01  0.000000000E+00  0.00000E+00  9.000E+00
      21    -1     0     0   502   503  0.000000000E+00  0.000000000E+00 -4.177758936E+02  4.177758936E+02  0.000000000E+00  0.00000E+00  9.000E+00
      25     1     1     2     0     0  1.266211945E+01 -1.457312487E+01 -3.512104595E+02  3.732923712E+02  1.250028091E+02  0.00000E+00  9.000E+00
       5     1     1     2   501     0  6.274449781E-01  7.514575866E-01  1.293680016E+01  1.381599342E+01  4.750000000E+00  0.00000E+00  9.000E+00
      -5     1     1     2     0   503 -1.366123045E+01  1.083016465E+01 -5.312155532E+01  5.611046091E+01  4.750000000E+00  0.00000E+00  9.000E+00
      21     1     1     2   502   511  3.716660161E-01  2.991502629E+00  4.376369665E+00  5.314116583E+00  1.576990671E-07  0.00000E+00  9.000E+00
#rwgt            1           9   4.0969718595703990E-004          11       55302           0
</event>
<event>
      6   9999  3.45752E-01  7.73881E+00 -1.00000E+00  1.99737E-01
      21    -1     0     0   501   502  0.000000000E+00  0.000000000E+00  5.151961431E+02  5.151961431E+02  0.000000000E+00  0.00000E+00  9.000E+00
      21    -1     0     0   512   503  0.000000000E+00  0.000000000E+00 -4.073503154E+01  4.073503154E+01  0.000000000E+00  0.00000E+00  9.000E+00
      25     1     1     2     0     0  1.203801183E+00  1.763187019E+01  8.853524875E+01  1.541904308E+02  1.249954667E+02  0.00000E+00  9.000E+00
       5     1     1     2   501     0 -5.349984225E+00  1.336106259E+00  3.750330969E+02  3.751037107E+02  4.750000000E+00  0.00000E+00  9.000E+00
      -5     1     1     2     0   503 -1.989807781E+00 -1.425216853E+01  1.127559279E+01  1.888875685E+01  4.750000000E+00  0.00000E+00  9.000E+00
      21     1     1     2   512   502  6.135990823E+00 -4.715807913E+00 -3.828269519E-01  7.748276204E+00  1.244492314E-07  0.00000E+00  9.000E+00
#rwgt            1           9   2.9592377512736995E-003          11       61960           0
</event>
<event>
      6   9999  3.45752E-01  4.77850E+01 -1.00000E+00  1.35849E-01
      21    -1     0     0   501   511  0.000000000E+00  0.000000000E+00  5.707875696E+02  5.707875696E+02  0.000000000E+00  0.00000E+00  9.000E+00
      21    -1     0     0   502   503  0.000000000E+00  0.000000000E+00 -9.880194453E+02  9.880194453E+02  0.000000000E+00  0.00000E+00  9.000E+00
      25     1     1     2     0     0  6.357239133E+01 -4.216688024E+01 -4.154877800E+02  4.405400145E+02  1.250036574E+02  0.00000E+00  9.000E+00
       5     1     1     2   501     0  8.016086743E+00 -3.698297047E+00  2.006322134E+00  1.022364300E+01  4.750000000E+00  0.00000E+00  9.000E+00
      -5     1     1     2     0   503 -3.396780684E+01  1.640186760E+01 -5.542105506E+02  5.555130332E+02  4.750000000E+00  0.00000E+00  9.000E+00
      21     1     1     2   502   511 -3.762067124E+01  2.946330969E+01  5.504601327E+02  5.525303243E+02  7.629394531E-06  0.00000E+00  9.000E+00
#rwgt            1           9   6.9991939141930855E-004          11       65018           0
</event>
<event>
      6   9999  3.45752E-01  1.22912E+01 -1.00000E+00  1.78225E-01
      21    -1     0     0   501   512  0.000000000E+00  0.000000000E+00  1.648535508E+03  1.648535508E+03  0.000000000E+00  0.00000E+00  9.000E+00
      21    -1     0     0   502   503  0.000000000E+00  0.000000000E+00 -5.234866546E+00  5.234866546E+00  0.000000000E+00  0.00000E+00  9.000E+00
      25     1     1     2     0     0  2.025333819E+00  9.313937030E+00  8.072742803E+02  8.169497996E+02  1.249974406E+02  0.00000E+00  9.000E+00
       5     1     1     2   501     0  1.676225789E+00  1.317298055E+00  5.612713413E+02  5.612954891E+02  4.750000000E+00  0.00000E+00  9.000E+00
      -5     1     1     2     0   503  8.736237671E-01  7.767349846E-01  2.536650399E+01  2.583386460E+01  4.750000000E+00  0.00000E+00  9.000E+00
      21     1     1     2   502   512 -4.575183375E+00 -1.140797007E+01  2.493885159E+02  2.496912212E+02  0.000000000E+00  0.00000E+00  9.000E+00
#rwgt            1           9   2.9109888304037455E-003          11       65939           0
</event>
<event>
      6   9999  3.45752E-01  5.20816E+00 -1.00000E+00  2.22994E-01
      21    -1     0     0   502   511  0.000000000E+00  0.000000000E+00  2.145835281E+01  2.145835281E+01  0.000000000E+00  0.00000E+00  9.000E+00
      21    -1     0     0   501   502  0.000000000E+00  0.000000000E+00 -1.005625489E+03  1.005625489E+03  0.000000000E+00  0.00000E+00  9.000E+00
      25     1     1     2     0     0 -1.428235331E+01 -2.604181786E+01 -2.971383678E+02  3.237282740E+02  1.250064952E+02  0.00000E+00  9.000E+00
       5     1     1     2   501     0  1.192380087E+01  3.565946725E+01 -6.849022367E+02  6.859500062E+02  4.750000000E+00  0.00000E+00  9.000E+00
      -5     1     1     2     0   503  1.820745069E+00 -4.437329575E+00  5.126476393E+00  8.476335681E+00  4.750000000E+00  0.00000E+00  9.000E+00
      21     1     1     2   503   511  5.378073758E-01 -5.180319817E+00 -7.253007954E+00  8.929225865E+00  1.884864366E-07  0.00000E+00  9.000E+00
#rwgt            1           9   26.784444584987224               11       67892           0
</event>
<event>
      6   9999  3.45752E-01  3.67135E+00 -1.00000E+00  2.55818E-01
      21    -1     0     0   501   502  0.000000000E+00  0.000000000E+00  5.328635317E+03  5.328635317E+03  0.000000000E+00  0.00000E+00  9.000E+00
      21    -1     0     0   512   503  0.000000000E+00  0.000000000E+00 -5.479964603E+01  5.479964603E+01  0.000000000E+00  0.00000E+00  9.000E+00
      25     1     1     2     0     0  5.851755869E+00 -2.912197110E+00  1.755468189E+03  1.759924943E+03  1.249980745E+02  0.00000E+00  9.000E+00
       5     1     1     2   501     0  1.292597604E-01  2.682952350E+00  3.522830388E+03  3.522834614E+03  4.750000001E+00  0.00000E+00  9.000E+00
      -5     1     1     2     0   503 -6.874226076E+00  3.790277003E+00  4.760353404E+01  4.847968788E+01  4.750000000E+00  0.00000E+00  9.000E+00
      21     1     1     2   512   502  8.932104464E-01 -3.561032242E+00 -5.206644005E+01  5.219571778E+01  3.814697266E-06  0.00000E+00  9.000E+00
#rwgt            1           9   2.1428167350545792E-002          11       72419           0
</event>
<event>
      6   9999  3.45752E-01  9.29887E+00 -1.00000E+00  1.90582E-01
      21    -1     0     0   501   502  0.000000000E+00  0.000000000E+00  1.137046456E+02  1.137046456E+02  0.000000000E+00  0.00000E+00  9.000E+00
      21    -1     0     0   502   511  0.000000000E+00  0.000000000E+00 -3.640246560E+02  3.640246560E+02  0.000000000E+00  0.00000E+00  9.000E+00
      25     1     1     2     0     0  4.809520517E+01 -1.188935490E+01  4.242347811E-01  1.344645852E+02  1.250041567E+02  0.00000E+00  9.000E+00
       5     1     1     2   501     0  1.683213066E-01  7.103938966E-01  3.885493567E+01  3.915100915E+01  4.750000000E+00  0.00000E+00  9.000E+00
      -5     1     1     2     0   503 -4.607517026E+01  2.141258412E+00 -6.791461755E+01  8.223420261E+01  4.750000000E+00  0.00000E+00  9.000E+00
      21     1     1     2   503   511 -2.188356216E+00  9.037702597E+00 -2.216845633E+02  2.218795046E+02  2.697398305E-06  0.00000E+00  9.000E+00
#rwgt            1           9   1.2472436091014524E-004          11       77090           0
</event>
<event>
      6   9999  3.45752E-01  1.15017E+01 -1.00000E+00  1.81013E-01
      21    -1     0     0   512   502  0.000000000E+00  0.000000000E+00  3.299669108E+02  3.299669108E+02  0.000000000E+00  0.00000E+00  9.000E+00
      21    -1     0     0   502   503  0.000000000E+00  0.000000000E+00 -2.495166231E+02  2.495166231E+02  0.000000000E+00  0.00000E+00  9.000E+00
      25     1     1     2     0     0  1.560263312E+01  2.233175756E+01 -1.659452516E+02  2.095256397E+02  1.249840694E+02  0.00000E+00  9.000E+00
       5     1     1     2   501     0 -1.176482731E+01 -4.182197965E+00  2.879169184E+02  2.882266753E+02  4.750000000E+00  0.00000E+00  9.000E+00
      -5     1     1     2     0   503 -7.595270225E+00 -2.902017686E+01 -5.571928793E+01  6.345912340E+01  4.750000000E+00  0.00000E+00  9.000E+00
      21     1     1     2   512   501  3.757464410E+00  1.087061727E+01  1.419790887E+01  1.827209553E+01  1.685873940E-07  0.00000E+00  9.000E+00
#rwgt            1           9   1.2960716065679721E-002          11       80341           0
</event>
<event>
      6   9999 -3.45752E-01  4.79775E+01 -1.00000E+00  1.35754E-01
      21    -1     0     0   501   511  0.000000000E+00  0.000000000E+00  7.987330107E+01  7.987330107E+01  0.000000000E+00  0.00000E+00  9.000E+00
      21    -1     0     0   502   503  0.000000000E+00  0.000000000E+00 -1.454260178E+03  1.454260178E+03  0.000000000E+00  0.00000E+00  9.000E+00
      25     1     1     2     0     0  2.991498771E+01 -5.298313289E+01 -9.776747199E+02  9.875103179E+02  1.250066045E+02  0.00000E+00  9.000E+00
       5     1     1     2   501     0  1.242340584E+01 -1.283830449E+00  5.516184955E+01  5.675721434E+01  4.750000000E+00  0.00000E+00  9.000E+00
      -5     1     1     2     0   503 -6.573509191E+00  2.228703186E+01 -4.397382671E+02  4.403773709E+02  4.750000000E+00  0.00000E+00  9.000E+00
      21     1     1     2   502   511 -3.576488436E+01  3.197993148E+01 -1.213573951E+01  4.948857589E+01  1.168007728E-06  0.00000E+00  9.000E+00
#rwgt            1           9  -2.1511996559834455E-004          11       84445           0
</event>
<event>
      6   9999  3.45752E-01  1.30984E+01 -1.00000E+00  1.75637E-01
      21    -1     0     0   501   502  0.000000000E+00  0.000000000E+00  1.124431528E+03  1.124431528E+03  0.000000000E+00  0.00000E+00  9.000E+00
      21    -1     0     0   512   503  0.000000000E+00  0.000000000E+00 -2.690970126E+01  2.690970126E+01  0.000000000E+00  0.00000E+00  9.000E+00
      25     1     1     2     0     0 -4.771592578E+00  1.054146709E+01  1.609824479E+02  2.041429274E+02  1.250003826E+02  0.00000E+00  9.000E+00
       5     1     1     2   501     0 -5.915462141E+00 -1.050102128E+00  9.258796819E+02  9.259113582E+02  4.750000000E+00  0.00000E+00  9.000E+00
      -5     1     1     2     0   503  1.145274595E+00 -5.179078040E-01  5.024858936E+00  7.027915033E+00  4.750000000E+00  0.00000E+00  9.000E+00
      21     1     1     2   512   502  9.541780125E+00 -8.973457157E+00  5.634838231E+00  1.425902883E+01  5.022376641E-07  0.00000E+00  9.000E+00
#rwgt            1           9   6.5777358043396891E-002          11       85836           0
</event>
<event>
      6   9999  3.45752E-01  1.94826E+01 -1.00000E+00  1.61084E-01
      21    -1     0     0   511   502  0.000000000E+00  0.000000000E+00  4.770937013E+02  4.770937013E+02  0.000000000E+00  0.00000E+00  9.000E+00
      21    -1     0     0   502   503  0.000000000E+00  0.000000000E+00 -6.900200010E+02  6.900200010E+02  0.000000000E+00  0.00000E+00  9.000E+00
      25     1     1     2     0     0  4.618086373E+01 -3.457769260E+01 -2.122134458E+02  2.529579291E+02  1.249995133E+02  0.00000E+00  9.000E+00
       5     1     1     2   501     0 -3.536205047E+01  5.637081381E+01 -3.751789260E+02  3.810642102E+02  4.750000000E+00  0.00000E+00  9.000E+00
      -5     1     1     2     0   503 -1.682633212E+01 -3.259920779E+00 -7.810347620E+01  8.010285907E+01  4.750000000E+00  0.00000E+00  9.000E+00
      21     1     1     2   511   501  6.007518869E+00 -1.853320043E+01  4.525695483E+02  4.529887039E+02  5.394796609E-06  0.00000E+00  9.000E+00
#rwgt            1           9   4.2412018147289471E-005          11       88464           0
</event>
<event>
      6   9999  3.45752E-01  1.62676E+01 -1.00000E+00  1.67374E-01
      21    -1     0     0   501   502  0.000000000E+00  0.000000000E+00  5.894604658E+01  5.894604658E+01  0.000000000E+00  0.00000E+00  9.000E+00
      21    -1     0     0   502   512  0.000000000E+00  0.000000000E+00 -1.170206294E+02  1.170206294E+02  0.000000000E+00  0.00000E+00  9.000E+00
      25     1     1     2     0     0 -3.367622929E+00 -8.758439070E+00 -5.615214413E+01  1.373530291E+02  1.249989607E+02  0.00000E+00  9.000E+00
       5     1     1     2   501     0 -1.408838536E+00 -1.763399184E+00  1.099838810E+01  1.219103947E+01  4.750000000E+00  0.00000E+00  9.000E+00
      -5     1     1     2     0   503 -7.416676884E-01 -4.781227535E+00 -3.822392918E+00  7.783533601E+00  4.750000000E+00  0.00000E+00  9.000E+00
      21     1     1     2   503   512  5.518129154E+00  1.530306579E+01 -9.098433866E+00  1.863907376E+01  1.192092896E-07  0.00000E+00  9.000E+00
#rwgt            1           9   2.9400434123125278E-004          11       89916           0
</event>
<event>
      6   9999  3.45752E-01  3.97133E+00 -1.00000E+00  2.48498E-01
       1    -1     0     0   501     0  0.000000000E+00  0.000000000E+00  1.943641668E+02  1.943641668E+02  0.000000000E+00  0.00000E+00  9.000E+00
      21    -1     0     0   502   503  0.000000000E+00  0.000000000E+00 -9.552180744E+02  9.552180744E+02  0.000000000E+00  0.00000E+00  9.000E+00
      25     1     1     2     0     0  1.841557300E+00 -4.112863858E+00 -9.130372649E+02  9.215652750E+02  1.250008077E+02  0.00000E+00  9.000E+00
       5     1     1     2   501     0 -5.761845246E+00 -1.082159372E-01  1.254686933E+01  1.460126711E+01  4.750000000E+00  0.00000E+00  9.000E+00
      -5     1     1     2     0   503  6.271824524E-01  2.001415389E+00 -3.668441809E+01  3.705007493E+01  4.750000000E+00  0.00000E+00  9.000E+00
       1     1     1     2   502     0  3.293105494E+00  2.219664406E+00  1.763209061E+02  1.763656242E+02  3.303624740E-06  0.00000E+00  9.000E+00
#rwgt            1           9   4.0590808468252783E-004          11       91881           0
</event>
<event>
      6   9999  3.45752E-01  1.84725E+01 -1.00000E+00  1.62889E-01
      21    -1     0     0   511   502  0.000000000E+00  0.000000000E+00  1.469922814E+01  1.469922814E+01  0.000000000E+00  0.00000E+00  9.000E+00
      21    -1     0     0   502   503  0.000000000E+00  0.000000000E+00 -9.355347591E+02  9.355347591E+02  0.000000000E+00  0.00000E+00  9.000E+00
      25     1     1     2     0     0 -5.691701625E+01  1.542719035E+01 -5.356854867E+02  5.532262875E+02  1.249913578E+02  0.00000E+00  9.000E+00
       5     1     1     2   501     0 -3.256499101E+00  5.719842818E-01  4.415260796E-01  5.804256859E+00  4.750000000E+00  0.00000E+00  9.000E+00
      -5     1     1     2     0   503  4.314085725E+01 -8.849236293E+00 -3.203270483E+02  3.233750499E+02  4.750000000E+00  0.00000E+00  9.000E+00
      21     1     1     2   511   501  1.703265810E+01 -7.149938341E+00 -6.526452208E+01  6.782839304E+01  1.348699152E-06  0.00000E+00  9.000E+00
#rwgt            1           9   2.0308212726935745E-004          11       97490           0
</event>
<event>
      6   9999  3.45752E-01  7.66145E+00 -1.00000E+00  2.00265E-01
      21    -1     0     0   501   502  0.000000000E+00  0.000000000E+00  1.658926380E+01  1.658926380E+01  0.000000000E+00  0.00000E+00  9.000E+00
      21    -1     0     0   502   512  0.000000000E+00  0.000000000E+00 -1.016699172E+03  1.016699172E+03  0.000000000E+00  0.00000E+00  9.000E+00
      25     1     1     2     0     0  3.623765703E+01  1.322336137E+00 -6.783177400E+02  6.906917630E+02  1.250009546E+02  0.00000E+00  9.000E+00
       5     1     1     2   501     0  5.146927019E+00  1.906609453E+00  7.479625754E+00  1.042273087E+01  4.750000000E+00  0.00000E+00  9.000E+00
      -5     1     1     2     0   503 -3.485813041E+01  7.839347264E-01 -2.388607333E+02  2.414388457E+02  4.750000000E+00  0.00000E+00  9.000E+00
      21     1     1     2   503   512 -6.526453643E+00 -4.012880316E+00 -9.041106023E+01  9.073509584E+01  9.536743164E-07  0.00000E+00  9.000E+00
#rwgt            1           9   2.0078716263704496E-004          11       99090           0
</event>
<event>
      6   9999  3.45752E-01  1.44806E+01 -1.00000E+00  1.71709E-01
      21    -1     0     0   501   511  0.000000000E+00  0.000000000E+00  5.372601232E+01  5.372601232E+01  0.000000000E+00  0.00000E+00  9.000E+00
      21    -1     0     0   502   503  0.000000000E+00  0.000000000E+00 -6.476158008E+02  6.476158008E+02  0.000000000E+00  0.00000E+00  9.000E+00
      25     1     1     2     0     0  1.166232145E+01 -9.557122871E+00 -5.765527266E+02  5.901401521E+02  1.250000167E+02  0.00000E+00  9.000E+00
       5     1     1     2   501     0 -1.090220917E+00  1.159921892E+00 -2.856131826E+01  2.899733438E+01  4.750000000E+00  0.00000E+00  9.000E+00
      -5     1     1     2     0   503  1.035306386E-01 -1.386364578E+00 -3.418535208E+01  3.454176489E+01  4.750000000E+00  0.00000E+00  9.000E+00
      21     1     1     2   502   511 -1.067563117E+01  9.783565557E+00  4.540960846E+01  4.766256179E+01  1.907348633E-06  0.00000E+00  9.000E+00
#rwgt            1           9   1.7741832979318681E-002          11      103058           0
</event>
<event>
      6   9999  3.45752E-01  8.12394E+00 -1.00000E+00  1.97228E-01
      21    -1     0     0   501   502  0.000000000E+00  0.000000000E+00  1.117549584E+01  1.117549584E+01  0.000000000E+00  0.00000E+00  9.000E+00
      21    -1     0     0   502   512  0.000000000E+00  0.000000000E+00 -9.450375991E+02  9.450375991E+02  0.000000000E+00  0.00000E+00  9.000E+00
      25     1     1     2     0     0  1.635088942E+01 -1.804916369E+01 -6.179114895E+02  6.308991179E+02  1.250038570E+02  0.00000E+00  9.000E+00
       5     1     1     2   501     0  2.410772224E+00 -2.147495041E-01  2.378034705E+00  5.837421444E+00  4.750000000E+00  0.00000E+00  9.000E+00
      -5     1     1     2     0   503 -1.415657669E+01  1.157125946E+01 -2.141112733E+02  2.149430217E+02  4.750000000E+00  0.00000E+00  9.000E+00
      21     1     1     2   503   512 -4.605084949E+00  6.692653727E+00 -1.042173751E+02  1.045335339E+02  0.000000000E+00  0.00000E+00  9.000E+00
#rwgt            1           9   1.3310861222155045E-002          11      105194           0
</event>
<event>
      6   9999  3.45752E-01  4.89189E+01 -1.00000E+00  1.35297E-01
      21    -1     0     0   511   502  0.000000000E+00  0.000000000E+00  1.153303607E+02  1.153303607E+02  0.000000000E+00  0.00000E+00  9.000E+00
      21    -1     0     0   502   503  0.000000000E+00  0.000000000E+00 -4.046378669E+02  4.046378669E+02  0.000000000E+00  0.00000E+00  9.000E+00
      25     1     1     2     0     0  3.517167296E+01  2.227927909E+00 -3.725254237E+02  3.945104547E+02  1.249851884E+02  0.00000E+00  9.000E+00
       5     1     1     2   501     0  1.320084076E+01  3.427332730E+00  6.225620805E+01  6.390936353E+01  4.750000000E+00  0.00000E+00  9.000E+00
      -5     1     1     2     0   503  2.168329578E-01  1.380252168E-02 -4.371498248E+00  6.459079189E+00  4.750000000E+00  0.00000E+00  9.000E+00
      21     1     1     2   511   501 -4.858934667E+01 -5.669063161E+00  2.533320774E+01  5.508933020E+01  1.168007728E-06  0.00000E+00  9.000E+00
#rwgt            1           9   2.2636334457490316E-003          11      108041           0
</event>
<event>
      6   9999  3.45752E-01  4.81582E+00 -1.00000E+00  2.32267E-01
      21    -1     0     0   501   502  0.000000000E+00  0.000000000E+00  8.158380020E+00  8.158380020E+00  0.000000000E+00  0.00000E+00  9.000E+00
      21    -1     0     0   512   503  0.000000000E+00  0.000000000E+00 -8.129829025E+02  8.129829025E+02  0.000000000E+00  0.00000E+00  9.000E+00
      25     1     1     2     0     0  1.626052331E+00 -4.894524732E+00 -6.450497616E+02  6.570703997E+02  1.250028594E+02  0.00000E+00  9.000E+00
       5     1     1     2   501     0  7.693378012E-01  1.059137222E-01 -1.255867720E+00  4.974213717E+00  4.750000000E+00  0.00000E+00  9.000E+00
      -5     1     1     2     0   503  1.156091140E+00  1.536052917E+00 -2.655307280E+01  2.704300613E+01  4.750000000E+00  0.00000E+00  9.000E+00
      21     1     1     2   512   502 -3.551481272E+00  3.252558093E+00 -1.319658203E+02  1.320536629E+02  0.000000000E+00  0.00000E+00  9.000E+00
#rwgt            1           9   3.5893124078688826E-003          11      108872           0
</event>
<event>
      6   9999  3.45752E-01  9.57443E+00 -1.00000E+00  1.89205E-01
      21    -1     0     0   501   502  0.000000000E+00  0.000000000E+00  2.213524201E+01  2.213524201E+01  0.000000000E+00  0.00000E+00  9.000E+00
      21    -1     0     0   511   503  0.000000000E+00  0.000000000E+00 -1.259589783E+03  1.259589783E+03  0.000000000E+00  0.00000E+00  9.000E+00
      25     1     1     2     0     0  1.057962116E+00 -7.095497483E+00 -9.436170527E+02  9.518912073E+02  1.250290483E+02  0.00000E+00  9.000E+00
       5     1     1     2   501     0 -4.710861462E+00 -4.506964481E+00  1.687640408E+01  1.870509180E+01  4.750000000E+00  0.00000E+00  9.000E+00
      -5     1     1     2     0   503  2.208974190E+00  2.137538259E+00 -7.158677899E+01  7.181001366E+01  4.750000000E+00  0.00000E+00  9.000E+00
      21     1     1     2   511   502  1.443925156E+00  9.464923705E+00 -2.391271133E+02  2.393187122E+02  2.697398305E-06  0.00000E+00  9.000E+00
#rwgt            1           9   8.2437303649584761E-003          11      112771           0
</event>
<event>
      6   9999  3.45752E-01  2.15420E+01 -1.00000E+00  1.57787E-01
      21    -1     0     0   502   512  0.000000000E+00  0.000000000E+00  7.430577508E+02  7.430577508E+02  0.000000000E+00  0.00000E+00  9.000E+00
      21    -1     0     0   501   502  0.000000000E+00  0.000000000E+00 -9.770030654E+00  9.770030654E+00  0.000000000E+00  0.00000E+00  9.000E+00
      25     1     1     2     0     0 -2.500522461E+01  1.106327965E+01  4.939061723E+02  5.102114165E+02  1.249989006E+02  0.00000E+00  9.000E+00
       5     1     1     2   501     0  9.730649264E+00 -2.562279467E-01  4.758736858E+01  4.880441923E+01  4.750000000E+00  0.00000E+00  9.000E+00
      -5     1     1     2     0   503 -3.842915797E+00 -8.783180680E-01  3.424828736E+01  3.480010247E+01  4.750000000E+00  0.00000E+00  9.000E+00
      21     1     1     2   503   512  1.911749114E+01 -9.928733633E+00  1.575458920E+02  1.590118432E+02  2.697398305E-06  0.00000E+00  9.000E+00
#rwgt            1           9   5663.0806011440582               11      115683           0
</event>
<event>
      6   9999  3.45752E-01  4.41258E+01 -1.00000E+00  1.37757E-01
      21    -1     0     0   501   511  0.000000000E+00  0.000000000E+00  3.854590931E+02  3.854590931E+02  0.000000000E+00  0.00000E+00  9.000E+00
      21    -1     0     0   502   503  0.000000000E+00  0.000000000E+00 -1.630092194E+02  1.630092194E+02  0.000000000E+00  0.00000E+00  9.000E+00
      25     1     1     2     0     0 -3.988568421E+01 -8.103770791E+00 -1.067515369E+02  1.693296119E+02  1.249803502E+02  0.00000E+00  9.000E+00
       5     1     1     2   501     0  4.856047447E-01 -1.446121921E+00 -8.914519898E+00  1.021558836E+01  4.750000000E+00  0.00000E+00  9.000E+00
      -5     1     1     2     0   503 -9.857076775E-01 -8.228673285E+00 -1.239327262E+01  1.564731255E+01  4.750000000E+00  0.00000E+00  9.000E+00
      21     1     1     2   502   511  4.038578714E+01  1.777856600E+01  3.505092031E+02  3.532757997E+02  5.394796609E-06  0.00000E+00  9.000E+00
#rwgt            1           9   407.35897766571708               11      116904           0
</event>
<event>
      6   9999  3.45752E-01  1.58456E+01 -1.00000E+00  1.68333E-01
      21    -1     0     0   501   502  0.000000000E+00  0.000000000E+00  7.021280539E+01  7.021280539E+01  0.000000000E+00  0.00000E+00  9.000E+00
       2    -1     0     0   502     0  0.000000000E+00  0.000000000E+00 -6.261147556E+02  6.261147556E+02  0.000000000E+00  0.00000E+00  9.000E+00
      25     1     1     2     0     0 -3.231869608E+01 -3.336908960E+01 -1.161298203E+02  1.768325689E+02  1.250025120E+02  0.00000E+00  9.000E+00
       5     1     1     2   501     0 -1.313375080E+00  4.752228975E-01  3.348336344E+01  3.384743591E+01  4.750000000E+00  0.00000E+00  9.000E+00
      -5     1     1     2     0   503  1.860414316E+01  3.791829142E+01 -6.871889793E+01  8.080074504E+01  4.750000000E+00  0.00000E+00  9.000E+00
       2     1     1     2   503     0  1.502792800E+01 -5.024424717E+00 -4.045365954E+02  4.048468111E+02  0.000000000E+00  0.00000E+00  9.000E+00
#rwgt            1           9   2.7730707604538434E-003          11      117581           0
</event>
<event>
      6   9999  3.45752E-01  2.50914E+01 -1.00000E+00  1.53039E-01
      21    -1     0     0   501   502  0.000000000E+00  0.000000000E+00  2.068502180E+03  2.068502180E+03  0.000000000E+00  0.00000E+00  9.000E+00
      21    -1     0     0   502   511  0.000000000E+00  0.000000000E+00 -5.986867795E+01  5.986867795E+01  0.000000000E+00  0.00000E+00  9.000E+00
      25     1     1     2     0     0  9.937417483E+01  1.897913250E+02  3.227999392E+02  4.070875548E+02  1.249980114E+02  0.00000E+00  9.000E+00
       5     1     1     2   501     0  5.007979667E+00 -2.402081502E+00  1.047134742E+03  1.047160246E+03  4.750000000E+00  0.00000E+00  9.000E+00
      -5     1     1     2     0   503 -9.627057209E+01 -1.636451376E+02  5.794297837E+02  6.097615853E+02  4.750000000E+00  0.00000E+00  9.000E+00
      21     1     1     2   503   511 -8.111582408E+00 -2.374410596E+01  5.926903734E+01  6.436147235E+01  1.168007728E-06  0.00000E+00  9.000E+00
#rwgt            1           9   3.7269544490755722E-002          11      119536           0
</event>
<event>
      6   9999 -3.45752E-01  2.37811E+01 -1.00000E+00  1.54675E-01
      21    -1     0     0   512   502  0.000000000E+00  0.000000000E+00  1.287563600E+02  1.287563600E+02  0.000000000E+00  0.00000E+00  9.000E+00
      21    -1     0     0   502   503  0.000000000E+00  0.000000000E+00 -1.193411614E+02  1.193411614E+02  0.000000000E+00  0.00000E+00  9.000E+00
      25     1     1     2     0     0 -1.146735607E+01 -1.590965351E+01 -7.064769705E+01  1.449187802E+02  1.250029537E+02  0.00000E+00  9.000E+00
       5     1     1     2   501     0  1.346387936E+00 -1.112943395E+00  2.564055662E+01  2.613526444E+01  4.750000000E+00  0.00000E+00  9.000E+00
      -5     1     1     2     0   503  3.001299256E+01  3.989970303E+00  2.826011981E+01  4.168808532E+01  4.750000000E+00  0.00000E+00  9.000E+00
      21     1     1     2   512   501 -1.989202443E+01  1.303262660E+01  2.616221922E+01  3.535539148E+01  3.371747881E-07  0.00000E+00  9.000E+00
#rwgt            1           9  -4.8523937640712085E-005          11      122331           0
</event>
<event>
      6   9999  3.45752E-01  6.51691E+00 -1.00000E+00  2.09178E-01
      21    -1     0     0   501   511  0.000000000E+00  0.000000000E+00  4.602780898E+02  4.602780898E+02  0.000000000E+00  0.00000E+00  9.000E+00
      21    -1     0     0   502   503  0.000000000E+00  0.000000000E+00 -1.626360686E+03  1.626360686E+03  0.000000000E+00  0.00000E+00  9.000E+00
      25     1     1     2     0     0  1.507060473E+00  3.548911974E+00 -1.536377809E+03  1.541459483E+03  1.250027977E+02  0.00000E+00  9.000E+00
       5     1     1     2   501     0  4.544743781E+00  1.325593823E+00  3.312496571E-01  6.714471041E+00  4.750000000E+00  0.00000E+00  9.000E+00
      -5     1     1     2     0   503 -5.201372575E-01 -1.429103145E+00 -8.415321573E+01  8.430088431E+01  4.750000000E+00  0.00000E+00  9.000E+00
      21     1     1     2   502   511 -5.531666997E+00 -3.445402652E+00  4.541171788E+02  4.541639376E+02  7.629394531E-06  0.00000E+00  9.000E+00
#rwgt            1           9   1.5237985202140963E-002          11      124453           0
</event>
<event>
      6   9999  3.45752E-01  1.62583E+01 -1.00000E+00  1.67394E-01
      21    -1     0     0   501   502  0.000000000E+00  0.000000000E+00  9.676007828E+00  9.676007828E+00  0.000000000E+00  0.00000E+00  9.000E+00
      21    -1     0     0   502   512  0.000000000E+00  0.000000000E+00 -1.223525684E+03  1.223525684E+03  0.000000000E+00  0.00000E+00  9.000E+00
      25     1     1     2     0     0  1.073632893E+01  1.323595168E+01 -7.367011491E+02  7.474376959E+02  1.250762451E+02  0.00000E+00  9.000E+00
       5     1     1     2   501     0  4.049057388E+00 -1.395787589E+01 -2.646873356E+01  3.056752397E+01  4.750000000E+00  0.00000E+00  9.000E+00
      -5     1     1     2     0   503 -2.971136802E-01 -6.655278435E+00 -5.822459738E+00  1.004213847E+01  4.750000000E+00  0.00000E+00  9.000E+00
      21     1     1     2   503   512 -1.448827264E+01  7.377202640E+00 -4.448573334E+02  4.451543331E+02  9.344061824E-06  0.00000E+00  9.000E+00
#rwgt            1           9  0.25771878449153418               11      127922           0
</event>
<event>
      6   9999  3.45752E-01  1.77592E+01 -1.00000E+00  1.64252E-01
      21    -1     0     0   501   502  0.000000000E+00  0.000000000E+00  3.238823627E+02  3.238823627E+02  0.000000000E+00  0.00000E+00  9.000E+00
      21    -1     0     0   511   503  0.000000000E+00  0.000000000E+00 -4.350521614E+02  4.350521614E+02  0.000000000E+00  0.00000E+00  9.000E+00
      25     1     1     2     0     0  9.819459026E+00  8.930935364E+01  2.377343151E+01  1.557728881E+02  1.250097364E+02  0.00000E+00  9.000E+00
       5     1     1     2   501     0 -1.422141925E+00 -5.450854286E+00  2.082814446E+02  2.084117487E+02  4.750000000E+00  0.00000E+00  9.000E+00
      -5     1     1     2     0   503  3.055504464E+00 -9.743127945E+01 -6.798988005E+01  1.189427451E+02  4.750000000E+00  0.00000E+00  9.000E+00
      21     1     1     2   511   502 -1.145282157E+01  1.357278009E+01 -2.752347947E+02  2.758071423E+02  3.814697266E-06  0.00000E+00  9.000E+00
#rwgt            1           9   1.7766463137504929               11      129613           0
</event>
<event>
      6   9999  3.45752E-01  1.87282E+01 -1.00000E+00  1.62419E-01
      21    -1     0     0   501   502  0.000000000E+00  0.000000000E+00  4.211472985E+01  4.211472985E+01  0.000000000E+00  0.00000E+00  9.000E+00
      21    -1     0     0   502   512  0.000000000E+00  0.000000000E+00 -4.177819447E+02  4.177819447E+02  0.000000000E+00  0.00000E+00  9.000E+00
      25     1     1     2     0     0  4.147380652E+01 -3.127028243E+01 -1.228008073E+02  1.827671096E+02  1.250034835E+02  0.00000E+00  9.000E+00
       5     1     1     2   501     0  1.713835539E+00 -5.343965776E-01  8.664320924E+00  1.004269730E+01  4.750000000E+00  0.00000E+00  9.000E+00
      -5     1     1     2     0   503 -2.808752234E+01  2.072615750E+01 -1.823130111E+02  1.856854303E+02  4.750000000E+00  0.00000E+00  9.000E+00
      21     1     1     2   503   512 -1.510011972E+01  1.107852150E+01 -7.921771729E+01  8.140143725E+01  1.651812370E-06  0.00000E+00  9.000E+00
#rwgt            1           9   17.441414862362357               11      133236           0
</event>
<event>
      6   9999  3.45752E-01  3.22180E+00 -1.00000E+00  2.69053E-01
      21    -1     0     0   501   502  0.000000000E+00  0.000000000E+00  1.553221899E+03  1.553221899E+03  0.000000000E+00  0.00000E+00  9.000E+00
      21    -1     0     0   502   511  0.000000000E+00  0.000000000E+00 -2.959776909E+01  2.959776909E+01  0.000000000E+00  0.00000E+00  9.000E+00
      25     1     1     2     0     0 -1.044559814E+00 -2.570009689E+00  1.033429257E+03  1.040964969E+03  1.249973685E+02  0.00000E+00  9.000E+00
       5     1     1     2   501     0 -1.089602342E+00 -8.164759924E-01  4.751601795E+02  4.751858716E+02  4.750000000E+00  0.00000E+00  9.000E+00
      -5     1     1     2     0   503 -1.785643793E-01  1.143438685E+00  4.060403679E+01  4.089730603E+01  4.750000000E+00  0.00000E+00  9.000E+00
      21     1     1     2   503   511  2.312726534E+00  2.243046996E+00 -2.556934354E+01  2.577152097E+01  2.977847099E-06  0.00000E+00  9.000E+00
#rwgt            1           9   4.7536069632508085E-004          11      135443           0
</event>
<event>
      6   9999 -3.45752E-01  2.51619E+01 -1.00000E+00  1.52954E-01
      21    -1     0     0   501   512  0.000000000E+00  0.000000000E+00  2.387305011E+02  2.387305011E+02  0.000000000E+00  0.00000E+00  9.000E+00
      21    -1     0     0   502   503  0.000000000E+00  0.000000000E+00 -7.987654932E+01  7.987654932E+01  0.000000000E+00  0.00000E+00  9.000E+00
      25     1     1     2     0     0  5.916554854E+00 -4.029956019E+01 -1.760907340E+01  1.326387635E+02  1.249956077E+02  0.00000E+00  9.000E+00
       5     1     1     2   501     0 -1.164768797E+00 -2.266076056E+00  3.681904641E+01  3.721150985E+01  4.750000000E+00  0.00000E+00  9.000E+00
      -5     1     1     2     0   503 -8.969227764E+00  1.775970972E+01  3.032205505E+01  3.657654793E+01  4.750000000E+00  0.00000E+00  9.000E+00
      21     1     1     2   502   512  4.217441708E+00  2.480592653E+01  1.093219237E+02  1.121802291E+02  2.336015456E-06  0.00000E+00  9.000E+00
#rwgt            1           9  -3.9846425916318962E-005          11      141186           0
</event>
<event>
      6   9999  3.45752E-01  1.58924E+01 -1.00000E+00  1.68225E-01
      21    -1     0     0   511   502  0.000000000E+00  0.000000000E+00  1.738298785E+02  1.738298785E+02  0.000000000E+00  0.00000E+00  9.000E+00
      21    -1     0     0   502   503  0.000000000E+00  0.000000000E+00 -9.232064577E+02  9.232064577E+02  0.000000000E+00  0.00000E+00  9.000E+00
      25     1     1     2     0     0 -2.105263888E+01  9.868105035E+00 -8.894661457E+02  8.985073901E+02  1.249996503E+02  0.00000E+00  9.000E+00
       5     1     1     2   501     0 -3.010645935E+00 -1.055455613E+00  9.021845941E+00  1.068335994E+01  4.750000000E+00  0.00000E+00  9.000E+00
      -5     1     1     2     0   503  1.107740918E+01  3.489365652E-01 -2.669106802E+01  2.928833151E+01  4.750000000E+00  0.00000E+00  9.000E+00
      21     1     1     2   511   501  1.298587564E+01 -9.161585988E+00  1.577587886E+02  1.585572546E+02  3.814697266E-06  0.00000E+00  9.000E+00
#rwgt            1           9   8.6047209397398026E-006          11      143307           0
</event>
<event>
      6   9999  3.45752E-01  7.80583E+00 -1.00000E+00  1.99287E-01
      21    -1     0     0   501   502  0.000000000E+00  0.000000000E+00  6.137235791E+02  6.137235791E+02  0.000000000E+00  0.00000E+00  9.000E+00
      21    -1     0     0   502   512  0.000000000E+00  0.000000000E+00 -2.703339674E+01  2.703339674E+01  0.000000000E+00  0.00000E+00  9.000E+00
      25     1     1     2     0     0 -1.826888678E+01  6.382850999E+00  1.398325607E+02  1.885545162E+02  1.250006701E+02  0.00000E+00  9.000E+00
       5     1     1     2   501     0 -1.268783531E+00  4.709972612E+00  3.180938539E+02  3.181667111E+02  4.750000000E+00  0.00000E+00  9.000E+00
      -5     1     1     2     0   503  2.268863684E+01 -3.951227374E+00  1.200739738E+02  1.223548451E+02  4.750000000E+00  0.00000E+00  9.000E+00
      21     1     1     2   503   512 -3.150966527E+00 -7.141596237E+00  8.689793994E+00  1.168090350E+01  2.064765462E-07  0.00000E+00  9.000E+00
#rwgt            1           9   2.1766500066591179E-004          11      145581           0
</event>
<event>
      6   9999  3.45752E-01  8.20527E+00 -1.00000E+00  1.96722E-01
      21    -1     0     0   501   511  0.000000000E+00  0.000000000E+00  3.804859903E+01  3.804859903E+01  0.000000000E+00  0.00000E+00  9.000E+00
      21    -1     0     0   502   503  0.000000000E+00  0.000000000E+00 -4.459540392E+02  4.459540392E+02  0.000000000E+00  0.00000E+00  9.000E+00
      25     1     1     2     0     0 -1.311592577E+01  2.664040892E+01 -4.109263037E+02  4.305412369E+02  1.249943626E+02  0.00000E+00  9.000E+00
       5     1     1     2   501     0  1.117368934E+00  3.392787916E+00  1.639316098E+01  1.743725179E+01  4.750000000E+00  0.00000E+00  9.000E+00
      -5     1     1     2     0   503  1.006867976E+01 -2.205811352E+01 -1.272717261E+01  2.779356233E+01  4.750000000E+00  0.00000E+00  9.000E+00
      21     1     1     2   502   511  1.929877071E+00 -7.975083318E+00 -6.451247981E-01  8.230587187E+00  2.014414345E-07  0.00000E+00  9.000E+00
#rwgt            1           9   7.4920248868510402E-004          11      148768           0
</event>
<event>
      6   9999  3.45752E-01  4.60628E+00 -1.00000E+00  2.35811E-01
      21    -1     0     0   501   512  0.000000000E+00  0.000000000E+00  5.599869882E+01  5.599869882E+01  0.000000000E+00  0.00000E+00  9.000E+00
      21    -1     0     0   502   503  0.000000000E+00  0.000000000E+00 -8.112635643E+02  8.112635643E+02  0.000000000E+00  0.00000E+00  9.000E+00
      25     1     1     2     0     0 -1.886726297E+00  5.311149597E+00 -6.764679080E+02  6.879431641E+02  1.250007937E+02  0.00000E+00  9.000E+00
       5     1     1     2   501     0  6.775670167E+00  3.414805051E+00  6.578278590E-01  8.975847439E+00  4.750000000E+00  0.00000E+00  9.000E+00
      -5     1     1     2     0   503 -9.169821131E+00 -1.042652400E+01 -1.243496985E+02  1.252126513E+02  4.750000000E+00  0.00000E+00  9.000E+00
      21     1     1     2   502   512  4.280877261E+00  1.700569355E+00  4.489491322E+01  4.513060025E+01  1.581489940E-06  0.00000E+00  9.000E+00
#rwgt            1           9   2.0348021376267127               11      152451           0
</event>
<event>
      6   9999  3.45752E-01  5.29216E+00 -1.00000E+00  2.21945E-01
      21    -1     0     0   501   502  0.000000000E+00  0.000000000E+00  1.019766797E+02  1.019766797E+02  0.000000000E+00  0.00000E+00  9.000E+00
      21    -1     0     0   511   503  0.000000000E+00  0.000000000E+00 -8.746432160E+01  8.746432160E+01  0.000000000E+00  0.00000E+00  9.000E+00
      25     1     1     2     0     0  8.959867712E+00  1.116637091E+00 -3.358455589E+01  1.297471998E+02  1.249995494E+02  0.00000E+00  9.000E+00
       5     1     1     2   501     0 -6.467292623E-01 -7.339464691E-01  4.581158652E+01  4.606756881E+01  4.750000000E+00  0.00000E+00  9.000E+00
      -5     1     1     2     0   503 -3.887526826E+00  2.519189146E+00  4.362967121E+00  7.940853914E+00  4.750000000E+00  0.00000E+00  9.000E+00
      21     1     1     2   511   502 -4.425611624E+00 -2.901879768E+00 -2.077639697E+00  5.685378716E+00  1.115100797E-07  0.00000E+00  9.000E+00
#rwgt            1           9  0.27921273424568233               11      157667           0
</event>
<event>
      6   9999  3.45752E-01  3.06264E+01 -1.00000E+00  1.47260E-01
      21    -1     0     0   512   502  0.000000000E+00  0.000000000E+00  3.785980730E+01  3.785980730E+01  0.000000000E+00  0.00000E+00  9.000E+00
      21    -1     0     0   502   503  0.000000000E+00  0.000000000E+00 -8.242464918E+02  8.242464918E+02  0.000000000E+00  0.00000E+00  9.000E+00
      25     1     1     2     0     0  2.218859197E+01 -1.236948797E+02 -4.706787041E+02  5.029493542E+02  1.250074139E+02  0.00000E+00  9.000E+00
       5     1     1     2   501     0  2.016367661E+00  5.088618507E+01 -7.450446395E+01  9.037116364E+01  4.750000000E+00  0.00000E+00  9.000E+00
      -5     1     1     2     0   503 -5.456575915E+01  6.878394949E+01 -1.754549548E+02  1.962540635E+02  4.750000000E+00  0.00000E+00  9.000E+00
      21     1     1     2   512   501  3.036079951E+01  4.024745164E+00 -6.574856166E+01  7.253171776E+01  9.536743164E-07  0.00000E+00  9.000E+00
#rwgt            1           9   2.9650533533502068E-003          11      161210           0
</event>
<event>
      6   9999  3.45752E-01  4.63183E+00 -1.00000E+00  2.35365E-01
      21    -1     0     0   501   511  0.000000000E+00  0.000000000E+00  3.847076308E+01  3.847076308E+01  0.000000000E+00  0.00000E+00  9.000E+00
      21    -1     0     0   502   503  0.000000000E+00  0.000000000E+00 -2.977589923E+02  2.977589923E+02  0.000000000E+00  0.00000E+00  9.000E+00
      25     1     1     2     0     0  8.566646163E-01 -3.195386019E+00 -2.765291606E+02  3.034864959E+02  1.249989287E+02  0.00000E+00  9.000E+00
       5     1     1     2   501     0 -1.172373405E+00  1.271753077E+00  2.005370932E+01  2.068104380E+01  4.750000000E+00  0.00000E+00  9.000E+00
      -5     1     1     2     0   503  2.965682829E+00 -1.875248623E+00 -4.177333687E+00  7.233564043E+00  4.750000000E+00  0.00000E+00  9.000E+00
      21     1     1     2   502   511 -2.649974040E+00  3.798881565E+00  1.364555801E+00  4.828651581E+00  1.182743003E-07  0.00000E+00  9.000E+00
#rwgt            1           9   8.6840821018374804E-003          11      162516           0
</event>
<event>
      6   9999 -3.45752E-01  9.15637E+00 -1.00000E+00  1.91318E-01
      21    -1     0     0   501   502  0.000000000E+00  0.000000000E+00  1.116446806E+01  1.116446806E+01  0.000000000E+00  0.00000E+00  9.000E+00
      21    -1     0     0   502   512  0.000000000E+00  0.000000000E+00 -8.792818858E+02  8.792818858E+02  0.000000000E+00  0.00000E+00  9.000E+00
      25     1     1     2     0     0  1.287077301E+01 -1.825711175E+01 -6.744559176E+02  6.863041258E+02  1.249943574E+02  0.00000E+00  9.000E+00
       5     1     1     2   501     0  2.115721530E-01  2.508808163E+00  1.694824587E+00  5.636826372E+00  4.750000000E+00  0.00000E+00  9.000E+00
      -5     1     1     2     0   503 -8.433208088E+00  2.363656113E+01 -1.274096666E+02  1.299445715E+02  4.750000000E+00  0.00000E+00  9.000E+00
      21     1     1     2   503   512 -4.649137079E+00 -7.888257542E+00 -6.794665818E+01  6.856083022E+01  9.536743164E-07  0.00000E+00  9.000E+00
#rwgt            1           9  -3.6248624528132327E-004          11      167016           0
</event>
<event>
      6   9999  3.45752E-01  4.63286E+01 -1.00000E+00  1.36584E-01
      21    -1     0     0   511   502  0.000000000E+00  0.000000000E+00  7.494620881E+01  7.494620881E+01  0.000000000E+00  0.00000E+00  9.000E+00
       1    -1     0     0   501     0  0.000000000E+00  0.000000000E+00 -1.233696245E+03  1.233696245E+03  0.000000000E+00  0.00000E+00  9.000E+00
      25     1     1     2     0     0  1.535943579E+02 -8.388392340E+01 -6.580826932E+02  6.923338274E+02  1.250022322E+02  0.00000E+00  9.000E+00
       5     1     1     2   501     0  6.177872648E-01  5.255058430E+01 -5.421360599E+01  7.565463070E+01  4.750000000E+00  0.00000E+00  9.000E+00
      -5     1     1     2     0   502 -1.594658273E+02  7.736306862E+01 -4.595018687E+02  4.925230191E+02  4.750000000E+00  0.00000E+00  9.000E+00
       1     1     1     2   511     0  5.253682200E+00 -4.602972953E+01  1.304813170E+01  4.813097670E+01  6.743495762E-07  0.00000E+00  9.000E+00
#rwgt            1           1   8.3633905114944379E-006          11      169361           0
</event>
<event>
      6   9999  3.45752E-01  1.83482E+01 -1.00000E+00  1.63121E-01
      21    -1     0     0   512   502  0.000000000E+00  0.000000000E+00  2.766702937E+02  2.766702937E+02  0.000000000E+00  0.00000E+00  9.000E+00
      21    -1     0     0   502   503  0.000000000E+00  0.000000000E+00 -4.665575098E+01  4.665575098E+01  0.000000000E+00  0.00000E+00  9.000E+00
      25     1     1     2     0     0 -8.504082169E+00 -1.203506411E+01  4.410629179E+01  1.333710424E+02  1.250012312E+02  0.00000E+00  9.000E+00
       5     1     1     2   501     0 -3.837999329E-01 -3.882766306E+00  6.830412412E+01  6.858016512E+01  4.750000000E+00  0.00000E+00  9.000E+00
      -5     1     1     2     0   503 -1.298489964E+00  6.569993591E-01  4.227670968E+00  6.523298718E+00  4.750000000E+00  0.00000E+00  9.000E+00
      21     1     1     2   512   501  1.018637207E+01  1.526083106E+01  1.133764558E+02  1.148515384E+02  1.907348633E-06  0.00000E+00  9.000E+00
#rwgt            1           9   2.0896061277092496E-004          11      169728           0
</event>
<event>
      6   9999  3.45752E-01  1.67278E+01 -1.00000E+00  1.66368E-01
      21    -1     0     0   502   503  0.000000000E+00  0.000000000E+00  9.472231233E+00  9.472231233E+00  0.000000000E+00  0.00000E+00  9.000E+00
      21    -1     0     0   501   511  0.000000000E+00  0.000000000E+00 -9.426277150E+02  9.426277150E+02  0.000000000E+00  0.00000E+00  9.000E+00
      25     1     1     2     0     0  3.109826987E+01  7.399034337E+00 -6.132666248E+02  6.266928099E+02  1.250043074E+02  0.00000E+00  9.000E+00
       5     1     1     2   501     0 -3.077165155E+01  7.211873165E+00 -1.217387093E+02  1.258641390E+02  4.750000000E+00  0.00000E+00  9.000E+00
      -5     1     1     2     0   503 -5.550121996E-01  2.115318434E+00 -2.257276928E+01  2.317056373E+01  4.750000000E+00  0.00000E+00  9.000E+00
      21     1     1     2   502   511  2.283938820E-01 -1.672622594E+01 -1.755773804E+02  1.763724335E+02  1.907348633E-06  0.00000E+00  9.000E+00
#rwgt            1           9   2.2349106387562706E-005          11      171916           0
</event>
<event>
      6   9999  3.45752E-01  2.64119E+01 -1.00000E+00  1.51508E-01
      21    -1     0     0   501   512  0.000000000E+00  0.000000000E+00  2.675652779E+01  2.675652779E+01  0.000000000E+00  0.00000E+00  9.000E+00
      21    -1     0     0   502   503  0.000000000E+00  0.000000000E+00 -1.109814106E+03  1.109814106E+03  0.000000000E+00  0.00000E+00  9.000E+00
      25     1     1     2     0     0 -3.969106577E+01 -5.656702421E+01 -6.245755980E+02  6.407000719E+02  1.250067818E+02  0.00000E+00  9.000E+00
       5     1     1     2   501     0 -5.734919776E-02 -7.630930890E+00  1.297820811E+01  1.578704472E+01  4.750000000E+00  0.00000E+00  9.000E+00
      -5     1     1     2     0   503  2.430146465E+01  4.277412868E+01 -4.128405263E+02  4.157884677E+02  4.750000000E+00  0.00000E+00  9.000E+00
      21     1     1     2   502   512  1.544695031E+01  2.142382643E+01 -5.861966227E+01  6.429504971E+01  1.168007728E-06  0.00000E+00  9.000E+00
#rwgt            1           9   1.5850183280774265E-004          11      173460           0
</event>
<event>
      6   9999  3.45752E-01  6.56749E+00 -1.00000E+00  2.08733E-01
      21    -1     0     0   501   511  0.000000000E+00  0.000000000E+00  2.246820822E+02  2.246820822E+02  0.000000000E+00  0.00000E+00  9.000E+00
      21    -1     0     0   502   503  0.000000000E+00  0.000000000E+00 -3.753879141E+02  3.753879141E+02  0.000000000E+00  0.00000E+00  9.000E+00
      25     1     1     2     0     0 -5.376932216E+00 -2.557359452E+00 -3.544444190E+02  3.758874249E+02  1.250002343E+02  0.00000E+00  9.000E+00
       5     1     1     2   501     0  4.108416047E+00 -1.109029684E+00  3.610837834E+01  3.666724036E+01  4.750000000E+00  0.00000E+00  9.000E+00
      -5     1     1     2     0   503 -1.593867752E+00 -2.244500860E+00 -9.119027135E+00  1.064412300E+01  4.750000000E+00  0.00000E+00  9.000E+00
      21     1     1     2   502   511  2.862383920E+00  5.910889996E+00  1.767492359E+02  1.768712081E+02  1.907348633E-06  0.00000E+00  9.000E+00
#rwgt            1           9   1.5118704988708164E-002          11      175084           0
</event>
<event>
      6   9999  3.45752E-01  1.23772E+01 -1.00000E+00  1.77938E-01
      21    -1     0     0   501   502  0.000000000E+00  0.000000000E+00  1.030834263E+01  1.030834263E+01  0.000000000E+00  0.00000E+00  9.000E+00
       2    -1     0     0   502     0  0.000000000E+00  0.000000000E+00 -3.043047048E+03  3.043047048E+03  0.000000000E+00  0.00000E+00  9.000E+00
      25     1     1     2     0     0  2.664372699E+01  3.180082366E+00 -5.406585183E+02  5.555690827E+02  1.250014847E+02  0.00000E+00  9.000E+00
       5     1     1     2   501     0 -8.381642400E-01 -1.255568283E+00 -1.658315701E+00  5.252759462E+00  4.750000000E+00  0.00000E+00  9.000E+00
      -5     1     1     2     0   503 -2.829525059E+01 -1.404872870E+01 -2.445726677E+02  2.466502388E+02  4.750000000E+00  0.00000E+00  9.000E+00
       2     1     1     2   503     0  2.489687837E+00  1.212421462E+01 -2.245849203E+03  2.245883309E+03  4.315837288E-05  0.00000E+00  9.000E+00
#rwgt            1           9   6.7908681469315123E-004          11      179039           0
</event>
<event>
      6   9999  3.45752E-01  5.25734E+01 -1.00000E+00  1.33632E-01
       2    -1     0     0   501     0  0.000000000E+00  0.000000000E+00  1.270288801E+03  1.270288801E+03  0.000000000E+00  0.00000E+00  9.000E+00
      21    -1     0     0   502   503  0.000000000E+00  0.000000000E+00 -9.141744947E+02  9.141744947E+02  0.000000000E+00  0.00000E+00  9.000E+00
      25     1     1     2     0     0 -4.207076268E+01 -7.946788004E+00 -7.015895806E+02  7.139230930E+02  1.250005702E+02  0.00000E+00  9.000E+00
       5     1     1     2   501     0  7.170335440E+01 -3.390397872E+01 -1.786081385E+02  1.954847320E+02  4.750000000E+00  0.00000E+00  9.000E+00
      -5     1     1     2     0   503  1.823515473E+00 -2.737112289E-01 -1.847642466E+01  1.916613928E+01  4.750000000E+00  0.00000E+00  9.000E+00
       2     1     1     2   502     0 -3.145610719E+01  4.212447796E+01  1.254788451E+03  1.255889332E+03  1.525878906E-05  0.00000E+00  9.000E+00
#rwgt            1           9   1.7181570946073617E-004          11      181332           0
</event>
<event>
      6   9999  3.45752E-01  1.58089E+01 -1.00000E+00  1.68418E-01
      21    -1     0     0   501   502  0.000000000E+00  0.000000000E+00  2.211631975E+01  2.211631975E+01  0.000000000E+00  0.00000E+00  9.000E+00
      21    -1     0     0   502   511  0.000000000E+00  0.000000000E+00 -1.523907193E+03  1.523907193E+03  0.000000000E+00  0.00000E+00  9.000E+00
      25     1     1     2     0     0 -2.875450466E+01  7.231517217E+00 -5.787425789E+02  5.928296044E+02  1.249994030E+02  0.00000E+00  9.000E+00
       5     1     1     2   501     0 -5.991017222E-01  3.605703670E+00  1.418610112E+01  1.540025931E+01  4.750000000E+00  0.00000E+00  9.000E+00
      -5     1     1     2     0   503  1.395977688E+01 -7.238459172E+00 -4.329184424E+02  4.332299746E+02  4.750000000E+00  0.00000E+00  9.000E+00
      21     1     1     2   503   511  1.539382951E+01 -3.598761715E+00 -5.043159536E+02  5.045636750E+02  5.394796609E-06  0.00000E+00  9.000E+00
#rwgt            1           9   2.3439307376797611E-004          11      182137           0
</event>
<event>
      6   9999 -3.45752E-01  7.27042E+00 -1.00000E+00  2.03063E-01
      21    -1     0     0   501   512  0.000000000E+00  0.000000000E+00  5.784437499E+00  5.784437499E+00  0.000000000E+00  0.00000E+00  9.000E+00
      21    -1     0     0   502   503  0.000000000E+00  0.000000000E+00 -2.535648538E+03  2.535648538E+03  0.000000000E+00  0.00000E+00  9.000E+00
      25     1     1     2     0     0  2.407350053E+01  8.352104778E+00 -2.042774960E+03  2.046754579E+03  1.250019147E+02  0.00000E+00  9.000E+00
       5     1     1     2   501     0 -2.689666746E+01 -1.233886043E+01 -7.619664293E+01  8.187899053E+01  4.750000000E+00  0.00000E+00  9.000E+00
      -5     1     1     2     0   503  1.000358560E+01  5.127191339E+00 -3.963780026E+02  3.965658121E+02  4.750000000E+00  0.00000E+00  9.000E+00
      21     1     1     2   502   512 -7.180418670E+00 -1.140435688E+00 -1.451449500E+01  1.623359390E+01  1.066240300E-06  0.00000E+00  9.000E+00
#rwgt            1           9  -6146.9997844193831               11      184584           0
</event>
<event>
      6   9999  3.45752E-01  2.89237E+00 -1.00000E+00  2.81128E-01
      21    -1     0     0   501   502  0.000000000E+00  0.000000000E+00  7.107771297E+00  7.107771297E+00  0.000000000E+00  0.00000E+00  9.000E+00
      21    -1     0     0   511   503  0.000000000E+00  0.000000000E+00 -8.067514501E+02  8.067514501E+02  0.000000000E+00  0.00000E+00  9.000E+00
      25     1     1     2     0     0 -1.119258104E+00 -5.693569822E+00 -5.929660464E+02  6.060255135E+02  1.249980854E+02  0.00000E+00  9.000E+00
       5     1     1     2   501     0  2.247170406E-01  8.610656583E-03 -1.341829627E+01  1.423600178E+01  4.750000000E+00  0.00000E+00  9.000E+00
      -5     1     1     2     0   503  3.742578222E+00  5.180464893E+00 -1.098457723E+02  1.101340106E+02  4.750000000E+00  0.00000E+00  9.000E+00
      21     1     1     2   511   502 -2.848037158E+00  5.044942727E-01 -8.341356389E+01  8.346369553E+01  9.536743164E-07  0.00000E+00  9.000E+00
#rwgt            1           9   1.8449814637515704E-003          11      187636           0
</event>
<event>
      6   9999  3.45752E-01  1.03908E+01 -1.00000E+00  1.85457E-01
      21    -1     0     0   501   502  0.000000000E+00  0.000000000E+00  1.071916771E+01  1.071916771E+01  0.000000000E+00  0.00000E+00  9.000E+00
      21    -1     0     0   502   512  0.000000000E+00  0.000000000E+00 -8.711514285E+02  8.711514285E+02  0.000000000E+00  0.00000E+00  9.000E+00
      25     1     1     2     0     0  6.772019346E+00 -8.805890538E+00 -7.832571601E+02  7.932467027E+02  1.250005942E+02  0.00000E+00  9.000E+00
       5     1     1     2   501     0  7.758912830E-01 -2.390252579E-02  2.937039922E+00  5.638375841E+00  4.750000000E+00  0.00000E+00  9.000E+00
      -5     1     1     2     0   503 -2.687555423E+00 -3.541406671E-01 -5.882314897E+00  8.031967275E+00  4.750000000E+00  0.00000E+00  9.000E+00
      21     1     1     2   503   512 -4.860355206E+00  9.183933731E+00 -7.422982580E+01  7.495355048E+01  1.651812370E-06  0.00000E+00  9.000E+00
#rwgt            1           9   8.4347494767242432E-005          11      192996           0
</event>
<event>
      6   9999  3.45752E-01  3.31801E+01 -1.00000E+00  1.45062E-01
      21    -1     0     0   501   502  0.000000000E+00  0.000000000E+00  2.331013253E+03  2.331013253E+03  0.000000000E+00  0.00000E+00  9.000E+00
      21    -1     0     0   502   511  0.000000000E+00  0.000000000E+00 -3.751108216E+02  3.751108216E+02  0.000000000E+00  0.00000E+00  9.000E+00
      25     1     1     2     0     0 -7.935783306E+01 -5.012089131E+02  9.474974694E+02  1.082074541E+03  1.250032673E+02  0.00000E+00  9.000E+00
       5     1     1     2   501     0  8.065962896E+00  7.406390333E+00  9.758740887E+02  9.759470856E+02  4.750000000E+00  0.00000E+00  9.000E+00
      -5     1     1     2     0   503  7.167180001E+01  5.269804466E+02  1.279938002E+02  5.470376709E+02  4.750000000E+00  0.00000E+00  9.000E+00
      21     1     1     2   503   511 -3.799298403E-01 -3.317792384E+01 -9.546292654E+01  1.010647778E+02  3.015782986E-06  0.00000E+00  9.000E+00
#rwgt            1           9  0.81176639211875001               11      195612           0
</event>
<event>
      6   9999  3.45752E-01  4.69361E+00 -1.00000E+00  2.34301E-01
      21    -1     0     0   512   502  0.000000000E+00  0.000000000E+00  2.089267781E+02  2.089267781E+02  0.000000000E+00  0.00000E+00  9.000E+00
      21    -1     0     0   502   503  0.000000000E+00  0.000000000E+00 -1.543378493E+02  1.543378493E+02  0.000000000E+00  0.00000E+00  9.000E+00
      25     1     1     2     0     0 -1.978324500E+00  4.044075743E+00 -1.219744749E+02  1.747178279E+02  1.250131134E+02  0.00000E+00  9.000E+00
       5     1     1     2   501     0  3.188117684E-01  2.021185856E-01  2.924534580E+00  5.590876083E+00  4.750000000E+00  0.00000E+00  9.000E+00
      -5     1     1     2     0   503 -9.271590130E-02  1.080757356E-01 -3.407374024E+00  5.847475895E+00  4.750000000E+00  0.00000E+00  9.000E+00
      21     1     1     2   512   501  1.752228633E+00 -4.354270064E+00  1.770462432E+02  1.771084475E+02  1.907348633E-06  0.00000E+00  9.000E+00
#rwgt            1           9   3.2345692823554139E-003          11      198711           0
</event>
<event>
      6   9999  3.45752E-01  1.18883E+01 -1.00000E+00  1.79613E-01
      21    -1     0     0   501   511  0.000000000E+00  0.000000000E+00  1.893216555E+01  1.893216555E+01  0.000000000E+00  0.00000E+00  9.000E+00
      21    -1     0     0   502   503  0.000000000E+00  0.000000000E+00 -9.460372666E+02  9.460372666E+02  0.000000000E+00  0.00000E+00  9.000E+00
      25     1     1     2     0     0 -4.798470532E+01 -2.374296633E+01 -7.665372147E+02  7.785053275E+02  1.249999323E+02  0.00000E+00  9.000E+00
       5     1     1     2   501     0 -6.835043705E-01  2.597049047E+00  6.043001699E+00  8.142002917E+00  4.750000000E+00  0.00000E+00  9.000E+00
      -5     1     1     2     0   503  3.855086071E+01  2.738855133E+01 -1.531882666E+02  1.603917365E+02  4.750000000E+00  0.00000E+00  9.000E+00
      21     1     1     2   502   511  1.011734899E+01 -6.242634047E+00 -1.342262142E+01  1.793036520E+01  1.685873940E-07  0.00000E+00  9.000E+00
#rwgt            1           9   2.3785468561796564E-005          11      202278           0
</event>
<event>
      6   9999 -3.45752E-01  2.51158E+01 -1.00000E+00  1.53010E-01
      21    -1     0     0   501   502  0.000000000E+00  0.000000000E+00  1.252887209E+03  1.252887209E+03  0.000000000E+00  0.00000E+00  9.000E+00
      21    -1     0     0   502   512  0.000000000E+00  0.000000000E+00 -8.619445293E+01  8.619445293E+01  0.000000000E+00  0.00000E+00  9.000E+00
      25     1     1     2     0     0 -3.220719318E+01 -5.003282643E+00  3.152797704E+00  1.292162034E+02  1.249982038E+02  0.00000E+00  9.000E+00
       5     1     1     2   501     0  2.061967836E+00 -1.847126374E+00  1.168674004E+03  1.168686936E+03  4.750000000E+00  0.00000E+00  9.000E+00
      -5     1     1     2     0   503  5.921929274E+00  1.348620090E+01  3.113424563E-01  1.547922140E+01  4.750000000E+00  0.00000E+00  9.000E+00
      21     1     1     2   503   512  2.422329607E+01 -6.635791881E+00 -5.445388630E+00  2.569930084E+01  6.194296387E-07  0.00000E+00  9.000E+00
#rwgt            1           9  -4.8344001720363337E-005          11      205031           0
</event>
<event>
      6   9999  3.45752E-01  2.60793E+00 -1.00000E+00  2.93852E-01
      21    -1     0     0   501   511  0.000000000E+00  0.000000000E+00  2.407930979E+01  2.407930979E+01  0.000000000E+00  0.00000E+00  9.000E+00
      21    -1     0     0   502   503  0.000000000E+00  0.000000000E+00 -9.949309686E+02  9.949309686E+02  0.000000000E+00  0.00000E+00  9.000E+00
      25     1     1     2     0     0 -3.343496940E+01 -2.286397424E+01 -3.837765437E+02  4.056369640E+02  1.249650056E+02  0.00000E+00  9.000E+00
       5     1     1     2   501     0  2.590710225E+00  1.504030349E-02  8.202446059E+00  9.826221402E+00  4.750000000E+00  0.00000E+00  9.000E+00
      -5     1     1     2     0   503  3.095824224E+01  2.024349676E+01 -5.983534139E+02  5.995144555E+02  4.750000000E+00  0.00000E+00  9.000E+00
      21     1     1     2   502   511 -1.139830633E-01  2.605437174E+00  3.075852706E+00  4.032637459E+00  1.737759082E-07  0.00000E+00  9.000E+00
#rwgt            1           9   9.5667132959401536E-003          11      207226           0
</event>
<event>
      6   9999  3.45752E-01  1.83608E+01 -1.00000E+00  1.63098E-01
      21    -1     0     0   502   512  0.000000000E+00  0.000000000E+00  5.590141760E+01  5.590141760E+01  0.000000000E+00  0.00000E+00  9.000E+00
      21    -1     0     0   501   502  0.000000000E+00  0.000000000E+00 -1.241847331E+03  1.241847331E+03  0.000000000E+00  0.00000E+00  9.000E+00
      25     1     1     2     0     0 -1.266773048E+01 -1.326278474E+02 -6.179071488E+02  6.443637836E+02  1.250792703E+02  0.00000E+00  9.000E+00
       5     1     1     2   501     0 -5.167762473E-01  5.078410641E-01 -4.576219811E+02  4.576472059E+02  4.750000000E+00  0.00000E+00  9.000E+00
      -5     1     1     2     0   503 -3.822348770E+00  1.252000794E+02 -1.212697510E+02  1.744092464E+02  4.750000000E+00  0.00000E+00  9.000E+00
      21     1     1     2   503   512  1.700685549E+01  6.919927015E+00  1.085296790E+01  2.132851227E+01  8.172577143E-07  0.00000E+00  9.000E+00
#rwgt            1           9   1.6235754931020505               11      215008           0
</event>
<event>
      6   9999  3.45752E-01  1.03629E+01 -1.00000E+00  1.85578E-01
      21    -1     0     0   501   511  0.000000000E+00  0.000000000E+00  1.389188585E+01  1.389188585E+01  0.000000000E+00  0.00000E+00  9.000E+00
      21    -1     0     0   502   503  0.000000000E+00  0.000000000E+00 -7.667894096E+02  7.667894096E+02  0.000000000E+00  0.00000E+00  9.000E+00
      25     1     1     2     0     0 -6.667406052E+00  8.705621340E-01 -7.253288979E+02  7.360516226E+02  1.249990755E+02  0.00000E+00  9.000E+00
       5     1     1     2   501     0  5.560246453E-02  2.263499785E+00  4.469728205E+00  6.904164912E+00  4.750000000E+00  0.00000E+00  9.000E+00
      -5     1     1     2     0   503 -2.544190262E+00  1.719548488E+00 -2.386825603E+01  2.452928651E+01  4.750000000E+00  0.00000E+00  9.000E+00
      21     1     1     2   502   511  9.155993850E+00 -4.853610406E+00 -8.170098056E+00  1.319622141E+01  2.920019320E-07  0.00000E+00  9.000E+00
#rwgt            1           9   4.6161228930822105E-002          11      217770           0
</event>
<event>
      6   9999  3.45752E-01  1.79097E+01 -1.00000E+00  1.63958E-01
      21    -1     0     0   501   502  0.000000000E+00  0.000000000E+00  1.160461731E+01  1.160461731E+01  0.000000000E+00  0.00000E+00  9.000E+00
      21    -1     0     0   512   503  0.000000000E+00  0.000000000E+00 -1.111005030E+03  1.111005030E+03  0.000000000E+00  0.00000E+00  9.000E+00
      25     1     1     2     0     0 -3.951493148E+01  2.954986269E+01 -6.491682192E+02  6.629324964E+02  1.250019752E+02  0.00000E+00  9.000E+00
       5     1     1     2   501     0 -1.211410213E+00  1.089438205E+00  2.140497807E-01  5.026202106E+00  4.750000000E+00  0.00000E+00  9.000E+00
      -5     1     1     2     0   503  2.303424377E+01 -2.785577451E+01 -1.824347869E+02  1.860417548E+02  4.750000000E+00  0.00000E+00  9.000E+00
      21     1     1     2   512   502  1.769209792E+01 -2.783526391E+00 -2.680114565E+02  2.686091941E+02  0.000000000E+00  0.00000E+00  9.000E+00
#rwgt            1           9   2.8031472353791685E-004          11      219941           0
</event>
<event>
      6   9999  3.45752E-01  4.44372E+00 -1.00000E+00  2.38758E-01
      21    -1     0     0   511   502  0.000000000E+00  0.000000000E+00  3.351594591E+01  3.351594591E+01  0.000000000E+00  0.00000E+00  9.000E+00
      21    -1     0     0   502   503  0.000000000E+00  0.000000000E+00 -7.199441352E+02  7.199441352E+02  0.000000000E+00  0.00000E+00  9.000E+00
      25     1     1     2     0     0 -5.126209569E+00 -1.076266767E+01 -6.008856162E+02  6.138651010E+02  1.249989019E+02  0.00000E+00  9.000E+00
       5     1     1     2   501     0  1.424157319E+00 -1.141035384E+00  1.921615667E+00  5.439236398E+00  4.750000000E+00  0.00000E+00  9.000E+00
      -5     1     1     2     0   503  5.261672712E+00  7.742667631E+00 -1.103471307E+02  1.108453240E+02  4.750000000E+00  0.00000E+00  9.000E+00
      21     1     1     2   511   501 -1.559620463E+00  4.161035420E+00  2.288294196E+01  2.331041966E+01  0.000000000E+00  0.00000E+00  9.000E+00
#rwgt            1           9   9.4988130153780090E-002          11      221576           0
</event>
<event>
      6   9999  3.45752E-01  1.19590E+01 -1.00000E+00  1.79365E-01
      21    -1     0     0   501   502  0.000000000E+00  0.000000000E+00  1.057686724E+01  1.057686724E+01  0.000000000E+00  0.00000E+00  9.000E+00
      21    -1     0     0   512   503  0.000000000E+00  0.000000000E+00 -2.609722255E+03  2.609722255E+03  0.000000000E+00  0.00000E+00  9.000E+00
      25     1     1     2     0     0 -4.159383825E+01 -1.564410521E+01 -6.845098281E+02  6.972493631E+02  1.250127360E+02  0.00000E+00  9.000E+00
       5     1     1     2   501     0  2.509784183E-02 -1.170487118E+00  2.280594941E+00  5.397618297E+00  4.750000000E+00  0.00000E+00  9.000E+00
      -5     1     1     2     0   503  3.143484690E+01  2.316458074E+01 -1.221596983E+03  1.222230134E+03  4.750000000E+00  0.00000E+00  9.000E+00
      21     1     1     2   512   502  1.013389352E+01 -6.349988412E+00 -6.953191717E+02  6.954220076E+02  0.000000000E+00  0.00000E+00  9.000E+00
#rwgt            1           9   2.8182628233096345E-004          11      226134           0
</event>
<event>
      6   9999  3.45752E-01  1.38429E+01 -1.00000E+00  1.73449E-01
      21    -1     0     0   501   502  0.000000000E+00  0.000000000E+00  3.567068165E+01  3.567068165E+01  0.000000000E+00  0.00000E+00  9.000E+00
      21    -1     0     0   502   511  0.000000000E+00  0.000000000E+00 -1.747096474E+03  1.747096474E+03  0.000000000E+00  0.00000E+00  9.000E+00
      25     1     1     2     0     0  7.071995480E+01 -6.501911468E+01 -9.855808459E+02  9.981097423E+02  1.249986261E+02  0.00000E+00  9.000E+00
       5     1     1     2   501     0 -2.469359233E+00  1.079177517E+00  2.118528748E+01  2.187787158E+01  4.750000000E+00  0.00000E+00  9.000E+00
      -5     1     1     2     0   503 -5.443008583E+01  6.315374331E+01 -2.161753159E+02  2.317441676E+02  4.750000000E+00  0.00000E+00  9.000E+00
      21     1     1     2   503   511 -1.382050974E+01  7.861938529E-01 -5.308549177E+02  5.310353738E+02  7.629394531E-06  0.00000E+00  9.000E+00
#rwgt            1           9   7.4536226525735048E-003          11      228895           0
</event>
<event>
      6   9999  3.45752E-01  1.52961E+01 -1.00000E+00  1.69639E-01
      21    -1     0     0   501   502  0.000000000E+00  0.000000000E+00  3.950180287E+01  3.950180287E+01  0.000000000E+00  0.00000E+00  9.000E+00
      21    -1     0     0   512   503  0.000000000E+00  0.000000000E+00 -1.626963999E+03  1.626963999E+03  0.000000000E+00  0.00000E+00  9.000E+00
      25     1     1     2     0     0 -9.774957919E+00 -5.880977144E+00 -1.123380857E+03  1.130370798E+03  1.249938168E+02  0.00000E+00  9.000E+00
       5     1     1     2   501     0 -2.524012460E+00  1.731203922E+00  3.499464241E+01  3.544792241E+01  4.750000000E+00  0.00000E+00  9.000E+00
      -5     1     1     2     0   503  1.109486905E+01 -1.109888416E+01 -1.048351203E+02  1.061095957E+02  4.750000000E+00  0.00000E+00  9.000E+00
      21     1     1     2   512   502  1.204101333E+00  1.524865738E+01 -3.942408606E+02  3.945374857E+02  5.394796609E-06  0.00000E+00  9.000E+00
#rwgt            1           9   9.5203651774053013E-005          11      232824           0
</event>
<event>
      6   9999 -3.45752E-01  1.14613E+01 -1.00000E+00  1.81163E-01
      21    -1     0     0   501   511  0.000000000E+00  0.000000000E+00  2.556011973E+01  2.556011973E+01  0.000000000E+00  0.00000E+00  9.000E+00
      21    -1     0     0   502   503  0.000000000E+00  0.000000000E+00 -1.036068819E+03  1.036068819E+03  0.000000000E+00  0.00000E+00  9.000E+00
      25     1     1     2     0     0  1.863194783E+00 -6.768695638E+01 -8.229059512E+02  8.350957831E+02  1.250030676E+02  0.00000E+00  9.000E+00
       5     1     1     2   501     0 -5.350719595E+00  6.711543907E+01 -5.452353753E+01  8.676687736E+01  4.750000000E+00  0.00000E+00  9.000E+00
      -5     1     1     2     0   503  3.363275907E+00 -1.088906975E+01 -1.253172134E+02  1.259239848E+02  4.750000000E+00  0.00000E+00  9.000E+00
      21     1     1     2   502   511  1.242489045E-01  1.146058705E+01 -7.761997463E+00  1.384229381E+01  2.665600750E-07  0.00000E+00  9.000E+00
#rwgt            1           9  -1.0932818335376562E-003          11      235477           0
</event>
<event>
      6   9999  3.45752E-01  1.12692E+01 -1.00000E+00  1.81888E-01
      21    -1     0     0   501   512  0.000000000E+00  0.000000000E+00  7.348766861E+01  7.348766861E+01  0.000000000E+00  0.00000E+00  9.000E+00
      21    -1     0     0   502   503  0.000000000E+00  0.000000000E+00 -1.030980762E+03  1.030980762E+03  0.000000000E+00  0.00000E+00  9.000E+00
      25     1     1     2     0     0  5.217028091E+01 -3.233468374E+01 -2.140542142E+02  2.553665834E+02  1.250024613E+02  0.00000E+00  9.000E+00
       5     1     1     2   501     0 -8.938890154E-01 -4.762924847E-01 -1.870268200E-01  4.860387961E+00  4.750000000E+00  0.00000E+00  9.000E+00
      -5     1     1     2     0   503 -6.190248330E+01  3.656347222E+01 -7.914604207E+02  7.947332666E+02  4.750000000E+00  0.00000E+00  9.000E+00
      21     1     1     2   502   512  1.062609141E+01 -3.752495988E+00  4.820856852E+01  4.950819249E+01  6.743495762E-07  0.00000E+00  9.000E+00
#rwgt            1           9   6.2508643402514798E-003          11      239191           0
</event>
<event>
      6   9999  3.45752E-01  6.69087E+00 -1.00000E+00  2.07671E-01
      21    -1     0     0   501   511  0.000000000E+00  0.000000000E+00  1.048710642E+01  1.048710642E+01  0.000000000E+00  0.00000E+00  9.000E+00
      21    -1     0     0   502   503  0.000000000E+00  0.000000000E+00 -7.771596130E+02  7.771596130E+02  0.000000000E+00  0.00000E+00  9.000E+00
      25     1     1     2     0     0 -2.608953019E+01 -1.144351097E+01 -6.026686002E+02  6.161537140E+02  1.249973601E+02  0.00000E+00  9.000E+00
       5     1     1     2   501     0 -1.097640561E+00  7.281865114E-01 -2.446029773E+00  5.502784027E+00  4.750000000E+00  0.00000E+00  9.000E+00
      -5     1     1     2     0   503  2.088322891E+01  1.295765775E+01 -1.534493136E+02  1.554775369E+02  4.750000000E+00  0.00000E+00  9.000E+00
      21     1     1     2   502   511  6.303941842E+00 -2.242333293E+00 -8.108563005E+00  1.051268450E+01  1.192092896E-07  0.00000E+00  9.000E+00
#rwgt            1           9   1.3180546095249897E-004          11      242247           0
</event>
<event>
      6   9999 -3.45752E-01  1.64913E+01 -1.00000E+00  1.66880E-01
      21    -1     0     0   501   502  0.000000000E+00  0.000000000E+00  2.495016646E+01  2.495016646E+01  0.000000000E+00  0.00000E+00  9.000E+00
      21    -1     0     0   502   512  0.000000000E+00  0.000000000E+00 -1.102765412E+03  1.102765412E+03  0.000000000E+00  0.00000E+00  9.000E+00
      25     1     1     2     0     0  1.345773092E+01 -8.958482984E+00 -1.021861820E+03  1.029604250E+03  1.249878713E+02  0.00000E+00  9.000E+00
       5     1     1     2   501     0  2.573200520E+00  3.680914478E+00  1.898824254E+01  2.008199061E+01  4.750000000E+00  0.00000E+00  9.000E+00
      -5     1     1     2     0   503  1.724567617E-01  2.209638671E+00 -1.796928900E+01  1.871817543E+01  4.750000000E+00  0.00000E+00  9.000E+00
      21     1     1     2   503   512 -1.620338820E+01  3.067929835E+00 -5.697237934E+01  5.931116245E+01  6.743495762E-07  0.00000E+00  9.000E+00
#rwgt            1           9  -5.6405221942675487E-004          11      245386           0
</event>
<event>
      6   9999  3.45752E-01  1.23086E+01 -1.00000E+00  1.78167E-01
      21    -1     0     0   501   502  0.000000000E+00  0.000000000E+00  1.304285514E+01  1.304285514E+01  0.000000000E+00  0.00000E+00  9.000E+00
       2    -1     0     0   502     0  0.000000000E+00  0.000000000E+00 -9.486172515E+02  9.486172515E+02  0.000000000E+00  0.00000E+00  9.000E+00
      25     1     1     2     0     0  3.607738097E+01  2.896533118E+01 -5.649127778E+02  5.804239785E+02  1.249999216E+02  0.00000E+00  9.000E+00
       5     1     1     2   501     0 -1.152261666E-01  6.238636905E-01  1.920272043E+00  5.162598928E+00  4.750000000E+00  0.00000E+00  9.000E+00
      -5     1     1     2     0   503 -3.015812251E+01 -1.873498866E+01 -2.105869557E+02  2.136116583E+02  4.750000000E+00  0.00000E+00  9.000E+00
       2     1     1     2   503     0 -5.804032287E+00 -1.085420621E+01 -1.619949348E+02  1.624618709E+02  1.907348633E-06  0.00000E+00  9.000E+00
#rwgt            1           9   4.1676351232422188E-003          11      247497           0
</event>
<event>
      6   9999  3.45752E-01  1.28110E+01 -1.00000E+00  1.76531E-01
      21    -1     0     0   501   502  0.000000000E+00  0.000000000E+00  2.259347379E+03  2.259347379E+03  0.000000000E+00  0.00000E+00  9.000E+00
      21    -1     0     0   502   511  0.000000000E+00  0.000000000E+00 -5.832121803E+01  5.832121803E+01  0.000000000E+00  0.00000E+00  9.000E+00
      25     1     1     2     0     0 -2.089063634E+00  1.572147506E+00  1.314120328E+03  1.320050898E+03  1.249611963E+02  0.00000E+00  9.000E+00
       5     1     1     2   501     0 -6.726002649E-01  3.291326900E+00  8.987995614E+02  8.988183906E+02  4.750000000E+00  0.00000E+00  9.000E+00
      -5     1     1     2     0   503 -4.986276611E+00  5.339056285E+00  4.226094429E+01  4.314995236E+01  4.750000000E+00  0.00000E+00  9.000E+00
      21     1     1     2   503   511  7.747940510E+00 -1.020253069E+01 -5.415467298E+01  5.564935597E+01  3.989505894E-06  0.00000E+00  9.000E+00
#rwgt            1           9   4.9859859220082337E-003          11      249755           0
</event>
<event>
      6   9999  3.45752E-01  1.04899E+02 -1.00000E+00  1.19559E-01
      21    -1     0     0   501   502  0.000000000E+00  0.000000000E+00  9.489735424E+02  9.489735424E+02  0.000000000E+00  0.00000E+00  9.000E+00
      21    -1     0     0   512   503  0.000000000E+00  0.000000000E+00 -4.343791273E+01  4.343791273E+01  0.000000000E+00  0.00000E+00  9.000E+00
      25     1     1     2     0     0 -1.256634760E+02  5.590208842E+01  3.601556731E+02  4.052823168E+02  1.250011788E+02  0.00000E+00  9.000E+00
       5     1     1     2   501     0  2.235696318E+00 -1.640492085E+01  2.667981905E+02  2.673536174E+02  4.750000000E+00  0.00000E+00  9.000E+00
      -5     1     1     2     0   503  3.570867054E+01  1.802741471E+01  1.417427603E+02  1.473555884E+02  4.750000000E+00  0.00000E+00  9.000E+00
      21     1     1     2   512   502  8.771910909E+01 -5.752458228E+01  1.368390056E+02  1.724199325E+02  2.697398305E-06  0.00000E+00  9.000E+00
#rwgt            1           9   2.7975361615986201E-003          11      251884           0
</event>
<event>
      6   9999  3.45752E-01  6.39475E+00 -1.00000E+00  2.10275E-01
      21    -1     0     0   501   502  0.000000000E+00  0.000000000E+00  2.230774285E+03  2.230774285E+03  0.000000000E+00  0.00000E+00  9.000E+00
      21    -1     0     0   511   503  0.000000000E+00  0.000000000E+00 -3.846888470E+00  3.846888470E+00  0.000000000E+00  0.00000E+00  9.000E+00
      25     1     1     2     0     0 -1.120842913E+01  6.608919291E-02  1.974867842E+03  1.978851654E+03  1.250009676E+02  0.00000E+00  9.000E+00
       5     1     1     2   501     0  1.386313432E-01  4.168666033E-01  1.455576890E+02  1.456358346E+02  4.750000000E+00  0.00000E+00  9.000E+00
      -5     1     1     2     0   503  1.186591967E+01  5.862042235E+00  1.001081022E+02  1.010908414E+02  4.750000000E+00  0.00000E+00  9.000E+00
      21     1     1     2   511   502 -7.961218790E-01 -6.344998031E+00  6.393763654E+00  9.042843786E+00  4.616955931E-07  0.00000E+00  9.000E+00
#rwgt            1           9   9.1964585121028109E-003          11      252590           0
</event>
<event>
      6   9999  3.45752E-01  9.44792E+00 -1.00000E+00  1.89830E-01
      21    -1     0     0   501   502  0.000000000E+00  0.000000000E+00  2.532815717E+01  2.532815717E+01  0.000000000E+00  0.00000E+00  9.000E+00
      21    -1     0     0   512   503  0.000000000E+00  0.000000000E+00 -1.105621302E+03  1.105621302E+03  0.000000000E+00  0.00000E+00  9.000E+00
      25     1     1     2     0     0 -6.101769843E+01 -3.301433824E+01 -4.576415614E+02  4.794572588E+02  1.250214311E+02  0.00000E+00  9.000E+00
       5     1     1     2   501     0  3.429584077E-02 -5.394005564E+00  1.120366074E+01  1.331093484E+01  4.750000000E+00  0.00000E+00  9.000E+00
      -5     1     1     2     0   503  5.442762022E+01  3.160503651E+01 -5.869541435E+02  5.903380161E+02  4.750000000E+00  0.00000E+00  9.000E+00
      21     1     1     2   512   502  6.555782366E+00  6.803307293E+00 -4.690110077E+01  4.784324954E+01  6.743495762E-07  0.00000E+00  9.000E+00
#rwgt            1           9   8.4082469037082593E-004          11      255943           0
</event>
<event>
      6   9999 -3.45752E-01  9.13724E+00 -1.00000E+00  1.91418E-01
      21    -1     0     0   511   502  0.000000000E+00  0.000000000E+00  1.046533916E+01  1.046533916E+01  0.000000000E+00  0.00000E+00  9.000E+00
      21    -1     0     0   502   503  0.000000000E+00  0.000000000E+00 -7.590184477E+02  7.590184477E+02  0.000000000E+00  0.00000E+00  9.000E+00
      25     1     1     2     0     0 -6.595683075E-01 -6.190312230E+00 -7.325727293E+02  7.431865614E+02  1.249988250E+02  0.00000E+00  9.000E+00
       5     1     1     2   501     0 -1.819835750E+00 -7.603714628E-01 -6.635968657E-01  5.185829511E+00  4.750000000E+00  0.00000E+00  9.000E+00
      -5     1     1     2     0   503 -2.273719561E+00 -8.529729150E-01 -6.561995877E+00  8.456929308E+00  4.750000000E+00  0.00000E+00  9.000E+00
      21     1     1     2   511   501  4.753123618E+00  7.803656608E+00 -8.754786462E+00  1.265446667E+01  3.769728732E-07  0.00000E+00  9.000E+00
#rwgt            1           9  -9.5353969650707174E-004          11      259442           0
</event>
<event>
      6   9999 -3.45752E-01  1.41488E+01 -1.00000E+00  1.72600E-01
      21    -1     0     0   501   512  0.000000000E+00  0.000000000E+00  1.102973893E+02  1.102973893E+02  0.000000000E+00  0.00000E+00  9.000E+00
      21    -1     0     0   502   503  0.000000000E+00  0.000000000E+00 -2.530987203E+02  2.530987203E+02  0.000000000E+00  0.00000E+00  9.000E+00
      25     1     1     2     0     0 -7.036526953E+01  2.893618673E+01 -1.333760121E+02  1.980006042E+02  1.250060183E+02  0.00000E+00  9.000E+00
       5     1     1     2   501     0  5.635493335E+01 -5.188390499E+01 -4.242804465E+01  8.769560754E+01  4.750000000E+00  0.00000E+00  9.000E+00
      -5     1     1     2     0   503  1.325962698E+01  8.818829365E+00 -1.816059774E+01  2.461623995E+01  4.750000000E+00  0.00000E+00  9.000E+00
      21     1     1     2   502   512  7.507091945E-01  1.412888889E+01  5.116332350E+01  5.308365791E+01  9.536743164E-07  0.00000E+00  9.000E+00
#rwgt            1           9  -157.52277329581224               11      261526           0
</event>
<event>
      6   9999  3.45752E-01  2.49158E+01 -1.00000E+00  1.53251E-01
      21    -1     0     0   501   502  0.000000000E+00  0.000000000E+00  2.360248263E+03  2.360248263E+03  0.000000000E+00  0.00000E+00  9.000E+00
      21    -1     0     0   502   511  0.000000000E+00  0.000000000E+00 -9.012475831E+01  9.012475831E+01  0.000000000E+00  0.00000E+00  9.000E+00
      25     1     1     2     0     0  4.222556262E+00 -7.112833721E+00  1.642301477E+03  1.647072343E+03  1.249989562E+02  0.00000E+00  9.000E+00
       5     1     1     2   501     0  7.506165735E-01 -3.451103320E+00  5.628952260E+02  5.629263465E+02  4.750000000E+00  0.00000E+00  9.000E+00
      -5     1     1     2     0   503  6.296448598E+00 -1.165756239E+01  1.505464699E+02  1.512029964E+02  4.750000000E+00  0.00000E+00  9.000E+00
      21     1     1     2   503   511 -1.126962143E+01  2.222149943E+01 -8.561966849E+01  8.917133529E+01  5.560829062E-06  0.00000E+00  9.000E+00
#rwgt            1           9   3.1675560268202593E-003          11      263488           0
</event>
<event>
      6   9999  3.45752E-01  1.76601E+01 -1.00000E+00  1.64448E-01
      21    -1     0     0   512   502  0.000000000E+00  0.000000000E+00  5.867816230E+01  5.867816230E+01  0.000000000E+00  0.00000E+00  9.000E+00
      21    -1     0     0   502   503  0.000000000E+00  0.000000000E+00 -3.215922795E+03  3.215922795E+03  0.000000000E+00  0.00000E+00  9.000E+00
      25     1     1     2     0     0 -5.062576864E+01  6.506234159E+01 -1.521352396E+02  2.134321780E+02  1.249483363E+02  0.00000E+00  9.000E+00
       5     1     1     2   501     0  2.249585945E+00  1.918821209E+00  2.167892623E+01  2.238930223E+01  4.750000000E+00  0.00000E+00  9.000E+00
      -5     1     1     2     0   503  4.260161989E+01 -8.367044591E+01 -3.017238389E+03  3.018702652E+03  4.750000000E+00  0.00000E+00  9.000E+00
      21     1     1     2   512   501  5.774562807E+00  1.668928312E+01 -9.549930520E+00  2.007682543E+01  1.192092896E-07  0.00000E+00  9.000E+00
#rwgt            1           9   6.1699603581895086E-002          11      264683           0
</event>
<event>
      6   9999  3.45752E-01  1.36766E+01 -1.00000E+00  1.73923E-01
      21    -1     0     0   511   502  0.000000000E+00  0.000000000E+00  1.486631307E+01  1.486631307E+01  0.000000000E+00  0.00000E+00  9.000E+00
      21    -1     0     0   502   503  0.000000000E+00  0.000000000E+00 -8.759033682E+02  8.759033682E+02  0.000000000E+00  0.00000E+00  9.000E+00
      25     1     1     2     0     0 -2.712927417E+01 -1.198304866E+01 -5.458369631E+02  5.607538764E+02  1.250093144E+02  0.00000E+00  9.000E+00
       5     1     1     2   501     0 -3.694138727E-01  1.275053685E+00  4.339008655E+00  6.568997231E+00  4.750000000E+00  0.00000E+00  9.000E+00
      -5     1     1     2     0   503  1.927259573E+01  2.163420385E+01 -2.814391414E+02  2.829664725E+02  4.750000000E+00  0.00000E+00  9.000E+00
      21     1     1     2   511   501  8.226092312E+00 -1.092620888E+01 -3.809995925E+01  4.048033510E+01  6.743495762E-07  0.00000E+00  9.000E+00
#rwgt            1           9   1.7944661816781236E-004          11      268169           0
</event>
<event>
      6   9999 -3.45752E-01  1.85841E+01 -1.00000E+00  1.62683E-01
      -2    -1     0     0     0   502  0.000000000E+00  0.000000000E+00  6.521749958E+01  6.521749958E+01  0.000000000E+00  0.00000E+00  9.000E+00
      21    -1     0     0   502   503  0.000000000E+00  0.000000000E+00 -9.782002612E+02  9.782002612E+02  0.000000000E+00  0.00000E+00  9.000E+00
      25     1     1     2     0     0 -1.273959305E+01 -1.036277173E+01 -7.581442340E+02  7.685569411E+02  1.250096308E+02  0.00000E+00  9.000E+00
       5     1     1     2   501     0  5.343775093E-01  5.357924796E+00  1.255870572E+01  1.446639232E+01  4.750000000E+00  0.00000E+00  9.000E+00
      -5     1     1     2     0   503 -4.053780545E-01  1.865559264E+01 -2.115841524E+02  2.124584936E+02  4.750000000E+00  0.00000E+00  9.000E+00
      -2     1     1     2     0   501  1.261059360E+01 -1.365074571E+01  4.418691908E+01  4.793593378E+01  1.719260824E-06  0.00000E+00  9.000E+00
#rwgt            1           9  -2.8578476518693393E-006          11      270117           0
</event>
<event>
      6   9999  3.45752E-01  9.89790E+00 -1.00000E+00  1.87664E-01
      21    -1     0     0   501   511  0.000000000E+00  0.000000000E+00  3.384443380E+01  3.384443380E+01  0.000000000E+00  0.00000E+00  9.000E+00
      21    -1     0     0   502   503  0.000000000E+00  0.000000000E+00 -8.469231533E+02  8.469231533E+02  0.000000000E+00  0.00000E+00  9.000E+00
      25     1     1     2     0     0  1.222246805E+01 -3.973610672E+01 -5.783289670E+02  5.931492005E+02  1.250329278E+02  0.00000E+00  9.000E+00
       5     1     1     2   501     0 -1.185295557E+00  1.691527491E+00  2.794017668E+00  5.885169967E+00  4.750000000E+00  0.00000E+00  9.000E+00
      -5     1     1     2     0   503 -7.717637172E+00  4.736922545E+01 -2.561539686E+02  2.606546059E+02  4.750000000E+00  0.00000E+00  9.000E+00
      21     1     1     2   502   511 -3.319535322E+00 -9.324646227E+00  1.861019850E+01  2.107861073E+01  1.168007728E-06  0.00000E+00  9.000E+00
#rwgt            1           9   4.4670149353898834E-005          11      271974           0
</event>
<event>
      6   9999  3.45752E-01  2.05570E+01 -1.00000E+00  1.59305E-01
      21    -1     0     0   512   502  0.000000000E+00  0.000000000E+00  7.930328325E+01  7.930328325E+01  0.000000000E+00  0.00000E+00  9.000E+00
      21    -1     0     0   502   503  0.000000000E+00  0.000000000E+00 -1.634671180E+03  1.634671180E+03  0.000000000E+00  0.00000E+00  9.000E+00
      25     1     1     2     0     0 -1.218323724E+02  1.035795487E+02 -1.091553024E+02  2.304790703E+02  1.250354827E+02  0.00000E+00  9.000E+00
       5     1     1     2   501     0  9.714788200E-01  5.723419990E-01  1.148583234E+01  1.248031213E+01  4.750000000E+00  0.00000E+00  9.000E+00
      -5     1     1     2     0   503  1.047911069E+02 -1.169718522E+02 -1.414228235E+03  1.422929251E+03  4.750000000E+00  0.00000E+00  9.000E+00
      21     1     1     2   512   501  1.606978666E+01  1.281996146E+01 -4.347019143E+01  4.808582950E+01  8.259061849E-07  0.00000E+00  9.000E+00
#rwgt            1           9  0.23136626900530891               11      274627           0
</event>
<event>
      6   9999  3.45752E-01  8.31055E+01 -1.00000E+00  1.23952E-01
      21    -1     0     0   501   502  0.000000000E+00  0.000000000E+00  8.507254733E+01  8.507254733E+01  0.000000000E+00  0.00000E+00  9.000E+00
      21    -1     0     0   502   511  0.000000000E+00  0.000000000E+00 -1.526198418E+03  1.526198418E+03  0.000000000E+00  0.00000E+00  9.000E+00
      25     1     1     2     0     0  6.347529526E+01  3.460266387E+01 -2.438079217E+02  2.833608563E+02  1.249984590E+02  0.00000E+00  9.000E+00
       5     1     1     2   501     0  3.998293877E+00 -2.127876770E+01  5.670705481E+01  6.088534203E+01  4.750000000E+00  0.00000E+00  9.000E+00
      -5     1     1     2     0   503 -3.113373724E+01 -8.806307593E+01 -8.008554349E+02  8.062979630E+02  4.750000000E+00  0.00000E+00  9.000E+00
      21     1     1     2   503   511 -3.633985190E+01  7.473917976E+01 -4.531695690E+02  4.607268042E+02  0.000000000E+00  0.00000E+00  9.000E+00
#rwgt            1           9   2.7496534930885819E-002          11      277558           0
</event>
<event>
      6   9999  3.45752E-01  4.99493E+00 -1.00000E+00  2.29439E-01
      21    -1     0     0   512   502  0.000000000E+00  0.000000000E+00  9.528905994E+01  9.528905994E+01  0.000000000E+00  0.00000E+00  9.000E+00
      21    -1     0     0   502   503  0.000000000E+00  0.000000000E+00 -8.459106077E+02  8.459106077E+02  0.000000000E+00  0.00000E+00  9.000E+00
      25     1     1     2     0     0  6.947693756E+01  5.220129829E+00 -4.414768522E+02  4.640912682E+02  1.249983986E+02  0.00000E+00  9.000E+00
       5     1     1     2   501     0  6.510002575E-01  7.758310577E-02 -1.222425877E+00  4.948398276E+00  4.750000000E+00  0.00000E+00  9.000E+00
      -5     1     1     2     0   503 -6.621225563E+01 -2.196619238E+00 -3.871343463E+02  3.927905963E+02  4.750000000E+00  0.00000E+00  9.000E+00
      21     1     1     2   512   501 -3.915682188E+00 -3.101093697E+00  7.921207659E+01  7.936940485E+01  0.000000000E+00  0.00000E+00  9.000E+00
#rwgt            1           9   8.9609991001358871E-004          11      278611           0
</event>
<event>
      6   9999 -3.45752E-01  9.33645E+00 -1.00000E+00  1.90390E-01
      21    -1     0     0   501   502  0.000000000E+00  0.000000000E+00  2.577652980E+00  2.577652980E+00  0.000000000E+00  0.00000E+00  9.000E+00
      21    -1     0     0   502   511  0.000000000E+00  0.000000000E+00 -2.351427221E+03  2.351427221E+03  0.000000000E+00  0.00000E+00  9.000E+00
      25     1     1     2     0     0 -3.481751418E+00  1.500825962E+01 -2.002508139E+03  2.006464579E+03  1.249955585E+02  0.00000E+00  9.000E+00
       5     1     1     2   501     0  2.928739416E-01  8.550597365E-01 -1.583778301E+01  1.655943154E+01  4.750000000E+00  0.00000E+00  9.000E+00
      -5     1     1     2     0   503  3.976755513E-01 -6.953858318E+00 -1.569241768E+02  1.571504822E+02  4.750000000E+00  0.00000E+00  9.000E+00
      21     1     1     2   503   511  2.791201925E+00 -8.909461040E+00 -1.735794690E+02  1.738303811E+02  1.907348633E-06  0.00000E+00  9.000E+00
#rwgt            1           9  -4.1889532267309486E-004          11      282902           0
</event>
<event>
      6   9999  3.45752E-01  8.53702E+00 -1.00000E+00  1.94732E-01
      21    -1     0     0   501   512  0.000000000E+00  0.000000000E+00  1.672727702E+02  1.672727702E+02  0.000000000E+00  0.00000E+00  9.000E+00
      21    -1     0     0   502   503  0.000000000E+00  0.000000000E+00 -3.686500131E+02  3.686500131E+02  0.000000000E+00  0.00000E+00  9.000E+00
      25     1     1     2     0     0 -5.151158151E+00  9.243243222E+00 -3.163804183E+02  3.403425531E+02  1.249980496E+02  0.00000E+00  9.000E+00
       5     1     1     2   501     0 -1.439773407E+00 -9.969654601E+00  9.859243513E+01  9.921944227E+01  4.750000000E+00  0.00000E+00  9.000E+00
      -5     1     1     2     0   503 -1.690156994E+00 -1.348262980E+00 -3.947917271E+01  3.982263203E+01  4.750000000E+00  0.00000E+00  9.000E+00
      21     1     1     2   502   512  8.281088551E+00  2.074674359E+00  5.588991298E+01  5.653815591E+01  1.168007728E-06  0.00000E+00  9.000E+00
#rwgt            1           9   4.4042194865748598E-002          11      285266           0
</event>
<event>
      6   9999  3.45752E-01  7.83121E+00 -1.00000E+00  1.99118E-01
      21    -1     0     0   511   502  0.000000000E+00  0.000000000E+00  1.358303486E+01  1.358303486E+01  0.000000000E+00  0.00000E+00  9.000E+00
      21    -1     0     0   502   503  0.000000000E+00  0.000000000E+00 -7.297247858E+02  7.297247858E+02  0.000000000E+00  0.00000E+00  9.000E+00
      25     1     1     2     0     0 -4.787844524E+00  1.576828410E+01 -6.427229424E+02  6.549767073E+02  1.250205749E+02  0.00000E+00  9.000E+00
       5     1     1     2   501     0 -1.025455235E+00  3.914848290E-01 -1.351280729E+00  5.058979978E+00  4.750000000E+00  0.00000E+00  9.000E+00
      -5     1     1     2     0   503  7.438362592E-01 -1.019081558E+01 -7.428363881E+01  7.513339810E+01  4.750000000E+00  0.00000E+00  9.000E+00
      21     1     1     2   511   501  5.069463500E+00 -5.968953351E+00  2.216111012E+00  8.138735302E+00  4.470348358E-07  0.00000E+00  9.000E+00
#rwgt            1           9   1.7184738414534940E-003          11      289222           0
</event>
<event>
      6   9999  3.45752E-01  1.17836E+01 -1.00000E+00  1.79985E-01
      21    -1     0     0   501   502  0.000000000E+00  0.000000000E+00  4.456911531E+01  4.456911531E+01  0.000000000E+00  0.00000E+00  9.000E+00
      21    -1     0     0   502   512  0.000000000E+00  0.000000000E+00 -1.771458630E+02  1.771458630E+02  0.000000000E+00  0.00000E+00  9.000E+00
      25     1     1     2     0     0 -5.063106228E+00  1.732115234E+01 -1.120062824E+02  1.688102379E+02  1.250033270E+02  0.00000E+00  9.000E+00
       5     1     1     2   501     0  3.386777467E-01  6.474567546E-01  1.261774443E+01  1.350199531E+01  4.750000000E+00  0.00000E+00  9.000E+00
      -5     1     1     2     0   503  4.103639396E+00 -6.201355933E+00 -9.626151936E+00  1.305840621E+01  4.750000000E+00  0.00000E+00  9.000E+00
      21     1     1     2   503   512  6.207890856E-01 -1.176725316E+01 -2.356205777E+01  2.634433891E+01  3.371747881E-07  0.00000E+00  9.000E+00
#rwgt            1           9   1.7488418456093553               11      292179           0
</event>
<event>
      6   9999  3.45752E-01  5.73563E+01 -1.00000E+00  1.31673E-01
      21    -1     0     0   501   502  0.000000000E+00  0.000000000E+00  1.674318310E+02  1.674318310E+02  0.000000000E+00  0.00000E+00  9.000E+00
      21    -1     0     0   511   503  0.000000000E+00  0.000000000E+00 -6.660292136E+02  6.660292136E+02  0.000000000E+00  0.00000E+00  9.000E+00
      25     1     1     2     0     0  3.303251200E+00  5.023029922E+01 -4.199429904E+02  4.410355895E+02  1.250051261E+02  0.00000E+00  9.000E+00
       5     1     1     2   501     0  1.381798032E+01  1.216198934E+01  1.499733600E+02  1.511734824E+02  4.750000000E+00  0.00000E+00  9.000E+00
      -5     1     1     2     0   503  5.194646358E+00 -9.555282438E+00 -1.096139753E+01  1.615557207E+01  4.750000000E+00  0.00000E+00  9.000E+00
      21     1     1     2   511   502 -2.231587788E+01 -5.283700611E+01 -2.176663546E+02  2.250964006E+02  2.697398305E-06  0.00000E+00  9.000E+00
#rwgt            1           9   2.4087116292130511E-004          11      294309           0
</event>
<event>
      6   9999  3.45752E-01  3.22688E+01 -1.00000E+00  1.45819E-01
      21    -1     0     0   502   503  0.000000000E+00  0.000000000E+00  1.335619997E+03  1.335619997E+03  0.000000000E+00  0.00000E+00  9.000E+00
      21    -1     0     0   501   512  0.000000000E+00  0.000000000E+00 -8.781297183E+01  8.781297183E+01  0.000000000E+00  0.00000E+00  9.000E+00
      25     1     1     2     0     0  8.733949355E+01 -2.110883781E+02  2.277533224E+02  3.459521386E+02  1.249992635E+02  0.00000E+00  9.000E+00
       5     1     1     2   501     0  1.725643142E+00  9.274754149E-01 -5.471580381E+00  7.505914119E+00  4.750000000E+00  0.00000E+00  9.000E+00
      -5     1     1     2     0   503 -6.512583927E+01  2.317984873E+02  1.000679334E+03  1.029249050E+03  4.750000000E+00  0.00000E+00  9.000E+00
      21     1     1     2   502   512 -2.393929742E+01 -2.163758461E+01  2.484594917E+01  4.072586670E+01  3.371747881E-07  0.00000E+00  9.000E+00
#rwgt            1           9  0.61351531274541982               11      295468           0
</event>
<event>
      6   9999  3.45752E-01  7.84805E+00 -1.00000E+00  1.99006E-01
      21    -1     0     0   501   502  0.000000000E+00  0.000000000E+00  1.542338149E+01  1.542338149E+01  0.000000000E+00  0.00000E+00  9.000E+00
      21    -1     0     0   502   511  0.000000000E+00  0.000000000E+00 -1.142322501E+03  1.142322501E+03  0.000000000E+00  0.00000E+00  9.000E+00
      25     1     1     2     0     0  2.621210967E+01 -3.978229430E-01 -2.832044061E+02  3.106720846E+02  1.250007022E+02  0.00000E+00  9.000E+00
       5     1     1     2   501     0  3.978594269E-02  7.471519620E-01 -2.671701455E+00  5.500936978E+00  4.750000000E+00  0.00000E+00  9.000E+00
      -5     1     1     2     0   503 -2.127339638E+01  5.717500707E+00 -6.059134323E+02  6.063323323E+02  4.750000000E+00  0.00000E+00  9.000E+00
      21     1     1     2   503   511 -4.978499227E+00 -6.066829726E+00 -2.351095794E+02  2.352405284E+02  0.000000000E+00  0.00000E+00  9.000E+00
#rwgt            1           9   1.2601435124098340E-003          11      297373           0
</event>
<event>
      6   9999  3.45752E-01  1.95163E+01 -1.00000E+00  1.61026E-01
      21    -1     0     0   501   512  0.000000000E+00  0.000000000E+00  1.877551706E+02  1.877551706E+02  0.000000000E+00  0.00000E+00  9.000E+00
      21    -1     0     0   502   503  0.000000000E+00  0.000000000E+00 -9.973465002E+01  9.973465002E+01  0.000000000E+00  0.00000E+00  9.000E+00
      25     1     1     2     0     0 -6.337823047E-01 -3.379495700E+00 -2.952990865E+01  1.284883869E+02  1.250017096E+02  0.00000E+00  9.000E+00
       5     1     1     2   501     0  7.786530135E-01  1.170290764E+00  1.063042079E+01  1.172792510E+01  4.750000000E+00  0.00000E+00  9.000E+00
      -5     1     1     2     0   503  1.439132468E+01  1.523168278E+01 -1.343844688E+01  2.534302154E+01  4.750000000E+00  0.00000E+00  9.000E+00
      21     1     1     2   502   512 -1.453619539E+01 -1.302247784E+01  1.203584553E+02  1.219304871E+02  1.348699152E-06  0.00000E+00  9.000E+00
#rwgt            1           9  0.97963774916848834               11      300895           0
</event>
<event>
      6   9999  3.45752E-01  1.07807E+01 -1.00000E+00  1.83819E-01
      21    -1     0     0   511   502  0.000000000E+00  0.000000000E+00  1.993728616E+01  1.993728616E+01  0.000000000E+00  0.00000E+00  9.000E+00
      21    -1     0     0   502   503  0.000000000E+00  0.000000000E+00 -9.266043246E+02  9.266043246E+02  0.000000000E+00  0.00000E+00  9.000E+00
      25     1     1     2     0     0  3.123811882E+01  4.182481766E+01 -7.899088825E+02  8.014397731E+02  1.249981273E+02  0.00000E+00  9.000E+00
       5     1     1     2   501     0  1.605154979E+00 -1.023230161E+00  5.572352628E+00  7.565522869E+00  4.750000000E+00  0.00000E+00  9.000E+00
      -5     1     1     2     0   503 -2.324591425E+01 -3.589092935E+01 -1.185436673E+02  1.261098525E+02  4.750000000E+00  0.00000E+00  9.000E+00
      21     1     1     2   511   501 -9.597359550E+00 -4.910658151E+00 -3.786841281E+00  1.142646230E+01  2.190014490E-07  0.00000E+00  9.000E+00
#rwgt            1           9   9.0447759114559352E-004          11      302129           0
</event>
<event>
      6   9999  3.45752E-01  5.32162E+00 -1.00000E+00  2.21583E-01
      21    -1     0     0   501   502  0.000000000E+00  0.000000000E+00  1.948291641E+01  1.948291641E+01  0.000000000E+00  0.00000E+00  9.000E+00
      21    -1     0     0   502   512  0.000000000E+00  0.000000000E+00 -1.241765388E+03  1.241765388E+03  0.000000000E+00  0.00000E+00  9.000E+00
      25     1     1     2     0     0  7.249540634E+00  8.518349159E-02 -9.477345788E+02  9.559695919E+02  1.249978631E+02  0.00000E+00  9.000E+00
       5     1     1     2   501     0 -1.874771056E+00  3.932195614E+00  1.427817578E+01  1.566543113E+01  4.750000000E+00  0.00000E+00  9.000E+00
      -5     1     1     2     0   503 -5.615733862E-02 -4.196418566E+00 -2.703346285E+01  2.776659317E+01  4.750000000E+00  0.00000E+00  9.000E+00
      21     1     1     2   503   512 -5.318612239E+00  1.790394607E-01 -2.617926053E+02  2.618466878E+02  5.394796609E-06  0.00000E+00  9.000E+00
#rwgt            1           9   2.2989248984125565E-004          11      304619           0
</event>
<event>
      6   9999  3.45752E-01  1.90551E+01 -1.00000E+00  1.61831E-01
      21    -1     0     0   501   511  0.000000000E+00  0.000000000E+00  3.119473873E+01  3.119473873E+01  0.000000000E+00  0.00000E+00  9.000E+00
      21    -1     0     0   502   503  0.000000000E+00  0.000000000E+00 -1.051727367E+03  1.051727367E+03  0.000000000E+00  0.00000E+00  9.000E+00
      25     1     1     2     0     0 -4.384242466E+01 -3.278467942E+00 -7.227540228E+02  7.348010505E+02  1.250051991E+02  0.00000E+00  9.000E+00
       5     1     1     2   501     0 -4.202632211E+00 -6.220268603E+00  2.039525616E+01  2.224596217E+01  4.750000000E+00  0.00000E+00  9.000E+00
      -5     1     1     2     0   503  2.899586879E+01  9.023247044E+00 -2.913784992E+02  2.929951735E+02  4.750000000E+00  0.00000E+00  9.000E+00
      21     1     1     2   502   511  1.904918808E+01  4.754895016E-01 -2.679536192E+01  3.287991906E+01  6.743495762E-07  0.00000E+00  9.000E+00
#rwgt            1           9   2.2330016487286278E-003          11      309462           0
</event>
<event>
      6   9999  3.45752E-01  1.57056E+01 -1.00000E+00  1.68659E-01
      21    -1     0     0   501   512  0.000000000E+00  0.000000000E+00  4.886919402E+02  4.886919402E+02  0.000000000E+00  0.00000E+00  9.000E+00
      21    -1     0     0   502   503  0.000000000E+00  0.000000000E+00 -1.324170353E+01  1.324170353E+01  0.000000000E+00  0.00000E+00  9.000E+00
      25     1     1     2     0     0 -5.647315538E+00 -1.955192393E+01  3.447056960E+02  3.672351544E+02  1.250018872E+02  0.00000E+00  9.000E+00
       5     1     1     2   501     0 -2.882256826E-01 -3.922478210E-01  3.345482116E+01  3.379385287E+01  4.750000000E+00  0.00000E+00  9.000E+00
      -5     1     1     2     0   503 -4.522381676E+00  8.226804028E+00  4.930488687E+01  5.041494431E+01  4.750000000E+00  0.00000E+00  9.000E+00
      21     1     1     2   502   512  1.045792290E+01  1.171736772E+01  4.798483261E+01  5.048969220E+01  6.743495762E-07  0.00000E+00  9.000E+00
#rwgt            1           9   8.5386826795286259E-005          11      311368           0
</event>
<event>
      6   9999  3.45752E-01  1.84426E+02 -1.00000E+00  1.10126E-01
      21    -1     0     0   511   502  0.000000000E+00  0.000000000E+00  3.812984292E+02  3.812984292E+02  0.000000000E+00  0.00000E+00  9.000E+00
      21    -1     0     0   502   503  0.000000000E+00  0.000000000E+00 -6.200223625E+02  6.200223625E+02  0.000000000E+00  0.00000E+00  9.000E+00
      25     1     1     2     0     0  1.329102424E+02  5.041488636E+01  9.203751316E+01  2.104803423E+02  1.249971095E+02  0.00000E+00  9.000E+00
       5     1     1     2   501     0 -6.399735185E+00 -2.913475889E+00  1.366204853E+01  1.608287978E+01  4.750000000E+00  0.00000E+00  9.000E+00
      -5     1     1     2     0   503 -2.836132607E+02 -1.441023590E+02 -4.583719934E+02  5.579690120E+02  4.750000000E+00  0.00000E+00  9.000E+00
      21     1     1     2   511   501  1.571027535E+02  9.660094854E+01  1.139484984E+02  2.167885576E+02  1.907348633E-06  0.00000E+00  9.000E+00
#rwgt            1           9   1.1082869083250364               11      313381           0
</event>
<event>
      6   9999  3.45752E-01  1.32415E+01 -1.00000E+00  1.75202E-01
      21    -1     0     0   512   502  0.000000000E+00  0.000000000E+00  4.727407195E+02  4.727407195E+02  0.000000000E+00  0.00000E+00  9.000E+00
      21    -1     0     0   502   503  0.000000000E+00  0.000000000E+00 -1.056452915E+03  1.056452915E+03  0.000000000E+00  0.00000E+00  9.000E+00
      25     1     1     2     0     0 -5.142203593E+00  1.168861186E+01 -1.013965715E+03  1.021721261E+03  1.249991890E+02  0.00000E+00  9.000E+00
       5     1     1     2   501     0 -6.692084219E+00  3.225771658E+00  1.921012349E+01  2.113719325E+01  4.750000000E+00  0.00000E+00  9.000E+00
      -5     1     1     2     0   503  5.835252647E+00 -3.109759962E+00 -3.710677949E+01  3.798942438E+01  4.750000000E+00  0.00000E+00  9.000E+00
      21     1     1     2   512   501  5.999035164E+00 -1.180462355E+01  4.481501754E+02  4.483457564E+02  7.629394531E-06  0.00000E+00  9.000E+00
#rwgt            1           9   2.8045775616759791E-003          11      314240           0
</event>
<event>
      6   9999  3.45752E-01  1.09907E+01 -1.00000E+00  1.82973E-01
      21    -1     0     0   501   502  0.000000000E+00  0.000000000E+00  4.061153856E+01  4.061153856E+01  0.000000000E+00  0.00000E+00  9.000E+00
      21    -1     0     0   511   503  0.000000000E+00  0.000000000E+00 -1.355830842E+03  1.355830842E+03  0.000000000E+00  0.00000E+00  9.000E+00
      25     1     1     2     0     0 -4.400990097E+00 -4.877176302E+01 -7.505194262E+02  7.624318715E+02  1.249995835E+02  0.00000E+00  9.000E+00
       5     1     1     2   501     0 -1.783360626E-01 -4.728900815E+00  3.301979795E+01  3.369367690E+01  4.750000000E+00  0.00000E+00  9.000E+00
      -5     1     1     2     0   503 -1.725884403E+00  4.449840938E+01 -4.832563327E+02  4.853270368E+02  4.750000000E+00  0.00000E+00  9.000E+00
      21     1     1     2   511   502  6.305210563E+00  9.002254459E+00 -1.144633428E+02  1.149897956E+02  0.000000000E+00  0.00000E+00  9.000E+00
#rwgt            1           9   4.6168992463406951E-002          11      317139           0
</event>
<event>
      6   9999  3.45752E-01  1.61510E+01 -1.00000E+00  1.67635E-01
      21    -1     0     0   501   502  0.000000000E+00  0.000000000E+00  3.206925804E+02  3.206925804E+02  0.000000000E+00  0.00000E+00  9.000E+00
       2    -1     0     0   502     0  0.000000000E+00  0.000000000E+00 -4.059152228E+02  4.059152228E+02  0.000000000E+00  0.00000E+00  9.000E+00
      25     1     1     2     0     0 -9.546592172E+01 -2.593270851E+01 -1.017808157E+02  1.891324776E+02  1.250020483E+02  0.00000E+00  9.000E+00
       5     1     1     2   501     0  2.958960494E+00 -2.551992349E+00  2.440434699E+02  2.441209655E+02  4.750000000E+00  0.00000E+00  9.000E+00
      -5     1     1     2     0   503  7.922575940E+01  3.767512999E+01 -2.656296398E+01  9.178393066E+01  4.750000000E+00  0.00000E+00  9.000E+00
       2     1     1     2   503     0  1.328120183E+01 -9.190429127E+00 -2.009223325E+02  2.015704294E+02  0.000000000E+00  0.00000E+00  9.000E+00
#rwgt            1           9   3.4191320536954228E-002          11      320746           0
</event>
<event>
      6   9999  3.45752E-01  1.22673E+01 -1.00000E+00  1.78306E-01
      21    -1     0     0   511   503  0.000000000E+00  0.000000000E+00  2.527777868E+03  2.527777868E+03  0.000000000E+00  0.00000E+00  9.000E+00
      21    -1     0     0   501   502  0.000000000E+00  0.000000000E+00 -1.810376546E+01  1.810376546E+01  0.000000000E+00  0.00000E+00  9.000E+00
      25     1     1     2     0     0 -1.251795943E+02  2.581642567E+01  1.238721830E+03  1.251556235E+03  1.249992816E+02  0.00000E+00  9.000E+00
       5     1     1     2   501     0 -2.414785090E+01 -7.738620789E+01  3.203862190E+02  3.305172245E+02  4.750000000E+00  0.00000E+00  9.000E+00
      -5     1     1     2     0   503  1.373773116E+02  4.879828389E+01  8.407884290E+02  8.533472582E+02  4.750000000E+00  0.00000E+00  9.000E+00
      21     1     1     2   511   502  1.195013356E+01  2.771498326E+00  1.097776248E+02  1.104609153E+02  1.348699152E-06  0.00000E+00  9.000E+00
#rwgt            1           9   1.2464724584614366E-002          11      323666           0
</event>
<event>
      6   9999 -3.45752E-01  6.09300E+01 -1.00000E+00  1.30348E-01
      21    -1     0     0   501   502  0.000000000E+00  0.000000000E+00  4.484375226E+01  4.484375226E+01  0.000000000E+00  0.00000E+00  9.000E+00
      21    -1     0     0   512   503  0.000000000E+00  0.000000000E+00 -2.118686333E+03  2.118686333E+03  0.000000000E+00  0.00000E+00  9.000E+00
      25     1     1     2     0     0 -1.906633927E+02  7.021040115E+01 -5.734184441E+02  6.210593530E+02  1.249959126E+02  0.00000E+00  9.000E+00
       5     1     1     2   501     0 -2.799475875E+00  3.646425535E+00  7.274026065E+00  9.828908360E+00  4.750000000E+00  0.00000E+00  9.000E+00
      -5     1     1     2     0   503  1.751125714E+02 -1.575579610E+01 -6.690287081E+02  6.917619768E+02  4.750000000E+00  0.00000E+00  9.000E+00
      21     1     1     2   512   502  1.835029716E+01 -5.810103058E+01 -8.386694545E+02  8.408798470E+02  1.078959322E-05  0.00000E+00  9.000E+00
#rwgt            1           9  -4.1961901258187378E-004          11      327085           0
</event>
<event>
      6   9999  3.45752E-01  5.67674E+00 -1.00000E+00  2.17464E-01
      21    -1     0     0   501   502  0.000000000E+00  0.000000000E+00  1.348291437E+01  1.348291437E+01  0.000000000E+00  0.00000E+00  9.000E+00
      21    -1     0     0   502   511  0.000000000E+00  0.000000000E+00 -9.115401857E+02  9.115401857E+02  0.000000000E+00  0.00000E+00  9.000E+00
      25     1     1     2     0     0 -4.451187515E+01 -2.301861594E+00 -5.203459701E+02  5.370025617E+02  1.250008686E+02  0.00000E+00  9.000E+00
       5     1     1     2   501     0  6.345828439E-01  6.339549570E-01  1.950353259E+00  5.212578259E+00  4.750000000E+00  0.00000E+00  9.000E+00
      -5     1     1     2     0   503  4.187917547E+01  6.981372664E+00 -3.509271582E+02  3.535180869E+02  4.750000000E+00  0.00000E+00  9.000E+00
      21     1     1     2   503   511  1.998116836E+00 -5.313466027E+00 -2.873449631E+01  2.928987317E+01  0.000000000E+00  0.00000E+00  9.000E+00
#rwgt            1           9   4.3427319913370904E-003          11      327897           0
</event>
<event>
      6   9999  3.45752E-01  1.22455E+01 -1.00000E+00  1.78379E-01
      21    -1     0     0   501   502  0.000000000E+00  0.000000000E+00  1.613354120E+03  1.613354120E+03  0.000000000E+00  0.00000E+00  9.000E+00
      21    -1     0     0   512   503  0.000000000E+00  0.000000000E+00 -1.116026005E+03  1.116026005E+03  0.000000000E+00  0.00000E+00  9.000E+00
      25     1     1     2     0     0  5.109538811E+00 -3.649544174E+01  4.972787848E+02  5.140707129E+02  1.249979333E+02  0.00000E+00  9.000E+00
       5     1     1     2   501     0 -1.113952800E+00 -5.899084724E+00  7.786761106E+02  7.787137393E+02  4.750000000E+00  0.00000E+00  9.000E+00
      -5     1     1     2     0   503 -8.068992412E+00  3.084642237E+01  3.281608123E+02  3.297403397E+02  4.750000000E+00  0.00000E+00  9.000E+00
      21     1     1     2   512   502  4.073406401E+00  1.154810409E+01 -1.106787593E+03  1.106855332E+03  2.157918644E-05  0.00000E+00  9.000E+00
#rwgt            1           9  0.46893994915165238               11      331813           0
</event>
<event>
      6   9999  3.45752E-01  1.69786E+01 -1.00000E+00  1.65836E-01
      21    -1     0     0   501   502  0.000000000E+00  0.000000000E+00  8.800578310E+01  8.800578310E+01  0.000000000E+00  0.00000E+00  9.000E+00
      21    -1     0     0   511   503  0.000000000E+00  0.000000000E+00 -1.430295164E+02  1.430295164E+02  0.000000000E+00  0.00000E+00  9.000E+00
      25     1     1     2     0     0  9.700282783E+00  1.498632288E+01 -4.362711611E+01  1.335942635E+02  1.250016665E+02  0.00000E+00  9.000E+00
       5     1     1     2   501     0  4.599481922E+00  1.975172254E+00  3.639821748E+01  3.704658250E+01  4.750000000E+00  0.00000E+00  9.000E+00
      -5     1     1     2     0   503 -1.607094292E+00 -5.684579828E+00  1.954089252E+00  7.828037090E+00  4.750000000E+00  0.00000E+00  9.000E+00
      21     1     1     2   511   502 -1.269267041E+01 -1.127691530E+01 -4.974892395E+01  5.256641642E+01  6.743495762E-07  0.00000E+00  9.000E+00
#rwgt            1           9   3.6596594348089019E-002          11      333835           0
</event>
<event>
      6   9999  3.45752E-01  3.06275E+01 -1.00000E+00  1.47259E-01
      21    -1     0     0   501   502  0.000000000E+00  0.000000000E+00  5.812716910E+01  5.812716910E+01  0.000000000E+00  0.00000E+00  9.000E+00
      21    -1     0     0   512   503  0.000000000E+00  0.000000000E+00 -9.987732794E+02  9.987732794E+02  0.000000000E+00  0.00000E+00  9.000E+00
      25     1     1     2     0     0 -6.494078344E+01  2.998969486E+01 -7.641039902E+02  7.775560935E+02  1.249875331E+02  0.00000E+00  9.000E+00
       5     1     1     2   501     0 -4.489016496E+00  1.564924646E+00  4.278696908E+01  4.331151673E+01  4.750000000E+00  0.00000E+00  9.000E+00
      -5     1     1     2     0   503  5.526819528E+01 -4.397794283E+00 -1.242271033E+02  1.361207174E+02  4.750000000E+00  0.00000E+00  9.000E+00
      21     1     1     2   512   502  1.416160465E+01 -2.715682523E+01 -9.510198581E+01  9.991212092E+01  1.348699152E-06  0.00000E+00  9.000E+00
#rwgt            1           9   1.2478337202923099E-004          11      335400           0
</event>
<event>
      6   9999  3.45752E-01  2.71771E+01 -1.00000E+00  1.50669E-01
      21    -1     0     0   511   502  0.000000000E+00  0.000000000E+00  8.222858804E+01  8.222858804E+01  0.000000000E+00  0.00000E+00  9.000E+00
      21    -1     0     0   502   503  0.000000000E+00  0.000000000E+00 -8.764500537E+02  8.764500537E+02  0.000000000E+00  0.00000E+00  9.000E+00
      25     1     1     2     0     0  3.515308956E+01 -1.107913100E+01 -2.223768265E+02  2.577506166E+02  1.250017621E+02  0.00000E+00  9.000E+00
       5     1     1     2   501     0 -2.504144317E+00 -9.449604189E-01  4.576120506E+01  4.608485735E+01  4.750000000E+00  0.00000E+00  9.000E+00
      -5     1     1     2     0   503 -3.581173801E+01 -1.496833860E+01 -6.253601011E+02  6.265814793E+02  4.750000000E+00  0.00000E+00  9.000E+00
      21     1     1     2   511   501  3.162792769E+00  2.699243002E+01  7.754256832E+00  2.826168847E+01  9.000103993E-07  0.00000E+00  9.000E+00
#rwgt            1           9   4.4896973045274318E-004          11      337121           0
</event>
<event>
      6   9999  3.45752E-01  6.29996E+00 -1.00000E+00  2.11149E-01
      21    -1     0     0   512   502  0.000000000E+00  0.000000000E+00  8.923455943E+00  8.923455943E+00  0.000000000E+00  0.00000E+00  9.000E+00
      21    -1     0     0   502   503  0.000000000E+00  0.000000000E+00 -7.159696049E+02  7.159696049E+02  0.000000000E+00  0.00000E+00  9.000E+00
      25     1     1     2     0     0  4.799751253E+00 -4.345620519E+00 -6.634747764E+02  6.751777237E+02  1.249970302E+02  0.00000E+00  9.000E+00
       5     1     1     2   501     0  5.645062510E-01  4.791038434E-01 -5.088970061E+00  7.000594552E+00  4.750000000E+00  0.00000E+00  9.000E+00
      -5     1     1     2     0   503  3.067172230E-01  6.610510466E+00 -3.405239960E+01  3.501315956E+01  4.750000000E+00  0.00000E+00  9.000E+00
      21     1     1     2   512   501 -5.670974727E+00 -2.743993791E+00 -4.430002890E+00  7.701583077E+00  2.858538343E-07  0.00000E+00  9.000E+00
#rwgt            1           9   6.4459304038910693E-005          11      339408           0
</event>
<event>
      6   9999  3.45752E-01  1.21805E+01 -1.00000E+00  1.78600E-01
      21    -1     0     0   501   511  0.000000000E+00  0.000000000E+00  2.504780925E+02  2.504780925E+02  0.000000000E+00  0.00000E+00  9.000E+00
      21    -1     0     0   502   503  0.000000000E+00  0.000000000E+00 -1.523993694E+03  1.523993694E+03  0.000000000E+00  0.00000E+00  9.000E+00
      25     1     1     2     0     0  5.915741649E+00  3.803887787E+01 -2.057045663E+02  2.437671722E+02  1.250044535E+02  0.00000E+00  9.000E+00
       5     1     1     2   501     0  3.289374128E+00  1.206566552E+01  5.510854961E+01  5.670903814E+01  4.750000000E+00  0.00000E+00  9.000E+00
      -5     1     1     2     0   503  2.706000754E+00 -5.265199224E+01 -1.297706033E+03  1.298785227E+03  4.750000000E+00  0.00000E+00  9.000E+00
      21     1     1     2   502   511 -1.191111653E+01  2.547448853E+00  1.747864480E+02  1.752103496E+02  3.814697266E-06  0.00000E+00  9.000E+00
#rwgt            1           9   7.8396161161884445E-004          11      342368           0
</event>
<event>
      6   9999 -3.45752E-01  1.81156E+01 -1.00000E+00  1.63562E-01
      21    -1     0     0   501   512  0.000000000E+00  0.000000000E+00  5.701562334E+01  5.701562334E+01  0.000000000E+00  0.00000E+00  9.000E+00
      21    -1     0     0   502   503  0.000000000E+00  0.000000000E+00 -1.266782295E+03  1.266782295E+03  0.000000000E+00  0.00000E+00  9.000E+00
      25     1     1     2     0     0  1.048362965E+01  3.461572460E+00 -1.076566188E+03  1.083855059E+03  1.250005689E+02  0.00000E+00  9.000E+00
       5     1     1     2   501     0  3.064007787E+00  2.284905578E-01 -1.121020389E+01  1.255673218E+01  4.750000000E+00  0.00000E+00  9.000E+00
      -5     1     1     2     0   503  4.564214142E+00 -3.321865850E+00 -1.730504145E+02  1.732076075E+02  4.750000000E+00  0.00000E+00  9.000E+00
      21     1     1     2   502   512 -1.811185157E+01 -3.681971685E-01  5.106013437E+01  5.417852027E+01  1.784161275E-06  0.00000E+00  9.000E+00
#rwgt            1           9  -1035.3716322300054               11      346256           0
</event>
<event>
      6   9999  3.45752E-01  6.43919E+01 -1.00000E+00  1.29161E-01
      21    -1     0     0   511   502  0.000000000E+00  0.000000000E+00  3.395308040E+02  3.395308040E+02  0.000000000E+00  0.00000E+00  9.000E+00
      21    -1     0     0   502   503  0.000000000E+00  0.000000000E+00 -5.022044636E+02  5.022044636E+02  0.000000000E+00  0.00000E+00  9.000E+00
      25     1     1     2     0     0 -3.717855264E+00  5.099958714E-01 -2.947002931E+02  3.201362288E+02  1.249994388E+02  0.00000E+00  9.000E+00
       5     1     1     2   501     0  3.915922779E+00  4.635914483E+01 -4.201290457E+01  6.286613883E+01  4.750000000E+00  0.00000E+00  9.000E+00
      -5     1     1     2     0   503  5.420222823E+01 -1.241728930E+01 -1.334099147E+02  1.446127189E+02  4.750000000E+00  0.00000E+00  9.000E+00
      21     1     1     2   511   501 -5.440029575E+01 -3.445185141E+01  3.074494527E+02  3.141201811E+02  0.000000000E+00  0.00000E+00  9.000E+00
#rwgt            1           9   1788.9752727430011               11      347524           0
</event>
<event>
      6   9999  3.45752E-01  2.89090E+00 -1.00000E+00  2.81188E-01
      21    -1     0     0   512   502  0.000000000E+00  0.000000000E+00  4.004466571E+01  4.004466571E+01  0.000000000E+00  0.00000E+00  9.000E+00
      21    -1     0     0   502   503  0.000000000E+00  0.000000000E+00 -1.552057033E+02  1.552057033E+02  0.000000000E+00  0.00000E+00  9.000E+00
      25     1     1     2     0     0 -1.721854070E+01 -5.063680850E+00 -1.059389140E+02  1.648241747E+02  1.249873436E+02  0.00000E+00  9.000E+00
       5     1     1     2   501     0  8.972304591E-02 -4.595281020E-01  2.609309916E+00  5.439688827E+00  4.750000000E+00  0.00000E+00  9.000E+00
      -5     1     1     2     0   503  1.623055490E+01  2.775406282E+00 -1.334753205E+01  2.172217541E+01  4.750000000E+00  0.00000E+00  9.000E+00
      21     1     1     2   512   501  8.982627549E-01  2.747802670E+00  1.516098596E+00  3.264330014E+00  5.960464478E-08  0.00000E+00  9.000E+00
#rwgt            1           9   2.0431429575975063E-004          11      348504           0
</event>
<event>
      6   9999  3.45752E-01  1.71903E+01 -1.00000E+00  1.65396E-01
      21    -1     0     0   501   511  0.000000000E+00  0.000000000E+00  1.202571922E+01  1.202571922E+01  0.000000000E+00  0.00000E+00  9.000E+00
      21    -1     0     0   502   503  0.000000000E+00  0.000000000E+00 -1.773950329E+03  1.773950329E+03  0.000000000E+00  0.00000E+00  9.000E+00
      25     1     1     2     0     0  3.562022206E+00  1.256569660E+01 -1.650958640E+03  1.655735614E+03  1.250016317E+02  0.00000E+00  9.000E+00
       5     1     1     2   501     0 -5.922466834E+00  5.415205919E+00  5.954835918E+00  1.106447646E+01  4.750000000E+00  0.00000E+00  9.000E+00
      -5     1     1     2     0   503  8.229635382E-01 -8.595204743E-01 -4.324119485E+01  4.351757664E+01  4.750000000E+00  0.00000E+00  9.000E+00
      21     1     1     2   502   511  1.537481091E+00 -1.712138205E+01 -7.367961080E+01  7.565838102E+01  0.000000000E+00  0.00000E+00  9.000E+00
#rwgt            1           9   2.5396302845419234E-002          11      354566           0
</event>
<event>
      6   9999  3.45752E-01  5.48774E+00 -1.00000E+00  2.19603E-01
      21    -1     0     0   512   502  0.000000000E+00  0.000000000E+00  1.992026560E+01  1.992026560E+01  0.000000000E+00  0.00000E+00  9.000E+00
      21    -1     0     0   502   503  0.000000000E+00  0.000000000E+00 -9.725622803E+02  9.725622803E+02  0.000000000E+00  0.00000E+00  9.000E+00
      25     1     1     2     0     0 -2.721268366E+01  1.214248756E+01 -4.563374237E+02  4.740872027E+02  1.250074451E+02  0.00000E+00  9.000E+00
       5     1     1     2   501     0  4.143779857E+00 -7.945762719E-02  8.435662246E+00  1.053091271E+01  4.750000000E+00  0.00000E+00  9.000E+00
      -5     1     1     2     0   503  2.627666094E+01 -7.610443031E+00 -4.995176953E+02  5.002887888E+02  4.750000000E+00  0.00000E+00  9.000E+00
      21     1     1     2   512   501 -3.207757137E+00 -4.452586900E+00 -5.222557908E+00  7.575641693E+00  0.000000000E+00  0.00000E+00  9.000E+00
#rwgt            1           9   7.1549556284667570E-005          11      356765           0
</event>
<event>
      6   9999  3.45752E-01  1.78896E+01 -1.00000E+00  1.63997E-01
      21    -1     0     0   501   502  0.000000000E+00  0.000000000E+00  8.433484351E+00  8.433484351E+00  0.000000000E+00  0.00000E+00  9.000E+00
      21    -1     0     0   511   503  0.000000000E+00  0.000000000E+00 -1.068704929E+03  1.068704929E+03  0.000000000E+00  0.00000E+00  9.000E+00
      25     1     1     2     0     0  2.260521771E+00 -1.683599523E+01 -7.021225242E+02  7.133662877E+02  1.250074426E+02  0.00000E+00  9.000E+00
       5     1     1     2   501     0 -3.345918768E-01 -2.688207677E+00 -8.340115018E-01  5.531409171E+00  4.750000000E+00  0.00000E+00  9.000E+00
      -5     1     1     2     0   503  8.548372481E-02  1.748027345E+00 -2.897977562E+01  2.941857919E+01  4.750000000E+00  0.00000E+00  9.000E+00
      21     1     1     2   511   502 -2.011413619E+00  1.777617557E+01 -3.283351330E+02  3.288221370E+02  3.814697266E-06  0.00000E+00  9.000E+00
#rwgt            1           9   1.9435141911790317E-004          11      361326           0
</event>
<event>
      6   9999  3.45752E-01  3.89770E+00 -1.00000E+00  2.50202E-01
      21    -1     0     0   501   502  0.000000000E+00  0.000000000E+00  1.604485642E+01  1.604485642E+01  0.000000000E+00  0.00000E+00  9.000E+00
      21    -1     0     0   512   503  0.000000000E+00  0.000000000E+00 -1.381509072E+03  1.381509072E+03  0.000000000E+00  0.00000E+00  9.000E+00
      25     1     1     2     0     0 -2.180322428E+01 -2.042056122E+00 -3.903703119E+02  4.105911034E+02  1.253655582E+02  0.00000E+00  9.000E+00
       5     1     1     2   501     0  1.308314898E+00 -2.322220636E+00  4.336736701E+00  6.962340251E+00  4.750000000E+00  0.00000E+00  9.000E+00
      -5     1     1     2     0   503  2.436221066E+01  3.878447718E+00 -5.722326558E+02  5.727838463E+02  4.750000000E+00  0.00000E+00  9.000E+00
      21     1     1     2   512   502 -3.867301282E+00  4.858290401E-01 -4.071979849E+02  4.072166389E+02  5.394796609E-06  0.00000E+00  9.000E+00
#rwgt            1           9   1.1876549228184798E-003          11      363000           0
</event>
<event>
      6   9999  3.45752E-01  8.67239E+00 -1.00000E+00  1.93954E-01
      21    -1     0     0   511   503  0.000000000E+00  0.000000000E+00  2.961799552E+00  2.961799552E+00  0.000000000E+00  0.00000E+00  9.000E+00
      21    -1     0     0   501   502  0.000000000E+00  0.000000000E+00 -2.079045037E+03  2.079045037E+03  0.000000000E+00  0.00000E+00  9.000E+00
      25     1     1     2     0     0  1.268869598E+01  1.244263462E+01 -1.886530112E+03  1.890750178E+03  1.249981962E+02  0.00000E+00  9.000E+00
       5     1     1     2   501     0  1.897509692E-01  1.171770627E-01 -2.487312589E+01  2.532359823E+01  4.750000000E+00  0.00000E+00  9.000E+00
      -5     1     1     2     0   503 -6.259961249E+00 -6.955713129E+00 -6.147327219E+01  6.236260702E+01  4.750000000E+00  0.00000E+00  9.000E+00
      21     1     1     2   511   502 -6.618485703E+00 -5.604098554E+00 -1.032067265E+02  1.035704527E+02  1.348699152E-06  0.00000E+00  9.000E+00
#rwgt            1           9   4.4211951267357115E-003          11      368293           0
</event>
<event>
      6   9999 -3.45752E-01  6.32790E+00 -1.00000E+00  2.10889E-01
      21    -1     0     0   501   512  0.000000000E+00  0.000000000E+00  1.154409326E+02  1.154409326E+02  0.000000000E+00  0.00000E+00  9.000E+00
      21    -1     0     0   502   503  0.000000000E+00  0.000000000E+00 -1.702367896E+02  1.702367896E+02  0.000000000E+00  0.00000E+00  9.000E+00
      25     1     1     2     0     0  2.180088768E+01  4.317429211E+01 -4.004905648E+01  1.398869046E+02  1.250004838E+02  0.00000E+00  9.000E+00
       5     1     1     2   501     0 -1.048527460E+00 -4.222729255E-01  1.689452619E+01  1.758593869E+01  4.750000000E+00  0.00000E+00  9.000E+00
      -5     1     1     2     0   503 -1.839922722E+01 -4.862612657E+01 -7.111849113E+01  8.822377247E+01  4.750000000E+00  0.00000E+00  9.000E+00
      21     1     1     2   502   512 -2.353133001E+00  5.874107385E+00  3.947716438E+01  3.998110653E+01  0.000000000E+00  0.00000E+00  9.000E+00
#rwgt            1           9  -7.4672772704047236E-002          11      370550           0
</event>
<event>
      6   9999  3.45752E-01  3.60832E+01 -1.00000E+00  1.42832E-01
      21    -1     0     0   501   502  0.000000000E+00  0.000000000E+00  2.108787092E+02  2.108787092E+02  0.000000000E+00  0.00000E+00  9.000E+00
       1    -1     0     0   502     0  0.000000000E+00  0.000000000E+00 -1.973208852E+03  1.973208852E+03  0.000000000E+00  0.00000E+00  9.000E+00
      25     1     1     2     0     0 -1.198515622E+01 -5.673391184E-02 -7.874809066E+02  7.974301258E+02  1.249999206E+02  0.00000E+00  9.000E+00
       5     1     1     2   501     0 -5.718979092E+00  1.310856733E+01  2.032124173E+02  2.037704353E+02  4.750000000E+00  0.00000E+00  9.000E+00
      -5     1     1     2     0   503 -7.285258611E+00  1.297757125E+01 -2.651378398E+01  3.077394335E+01  4.750000000E+00  0.00000E+00  9.000E+00
       1     1     1     2   503     0  2.498939392E+01 -2.602940467E+01 -1.151547870E+03  1.152113057E+03  2.157918644E-05  0.00000E+00  9.000E+00
#rwgt            1           9   6.5351424469157517E-003          11      374296           0
</event>
<event>
      6   9999  3.45752E-01  1.60267E+01 -1.00000E+00  1.67917E-01
      21    -1     0     0   501   502  0.000000000E+00  0.000000000E+00  9.372559756E+02  9.372559756E+02  0.000000000E+00  0.00000E+00  9.000E+00
      -2    -1     0     0     0   503  0.000000000E+00  0.000000000E+00 -9.008873132E+01  9.008873132E+01  0.000000000E+00  0.00000E+00  9.000E+00
      25     1     1     2     0     0  7.891335979E+00  3.106270544E+00  7.270100268E+01  1.448398864E+02  1.249849383E+02  0.00000E+00  9.000E+00
       5     1     1     2   501     0 -4.583741080E-01 -2.560173303E+00  7.999493898E+02  7.999677202E+02  4.750000000E+00  0.00000E+00  9.000E+00
      -5     1     1     2     0   503  8.520450900E+00  9.849419624E-01  2.643864144E+01  2.819809312E+01  4.750000000E+00  0.00000E+00  9.000E+00
      -2     1     1     2     0   502 -1.595341277E+01 -1.531039203E+00 -5.192178966E+01  5.433900718E+01  2.611744678E-06  0.00000E+00  9.000E+00
#rwgt            1           9   1.2832726286976841E-002          11      376729           0
</event>
<event>
      6   9999  3.45752E-01  8.83479E+00 -1.00000E+00  1.93045E-01
      21    -1     0     0   511   502  0.000000000E+00  0.000000000E+00  2.777524045E+01  2.777524045E+01  0.000000000E+00  0.00000E+00  9.000E+00
      21    -1     0     0   502   503  0.000000000E+00  0.000000000E+00 -1.029838922E+03  1.029838922E+03  0.000000000E+00  0.00000E+00  9.000E+00
      25     1     1     2     0     0 -4.132242816E+01  3.442602067E+01 -2.490354069E+02  2.837889911E+02  1.249994544E+02  0.00000E+00  9.000E+00
       5     1     1     2   501     0  1.169946651E+00  1.416557237E-01  2.367089380E+00  5.436400799E+00  4.750000000E+00  0.00000E+00  9.000E+00
      -5     1     1     2     0   503  4.884152787E+01 -3.616582077E+01 -7.569650308E+02  7.594156187E+02  4.750000000E+00  0.00000E+00  9.000E+00
      21     1     1     2   511   501 -8.689046354E+00  1.598144377E+00  1.569667257E+00  8.973151470E+00  4.048072608E-07  0.00000E+00  9.000E+00
#rwgt            1           9   4.7831803842645855E-002          11      379632           0
</event>
<event>
      6   9999  3.45752E-01  3.95947E+00 -1.00000E+00  2.48769E-01
      21    -1     0     0   512   502  0.000000000E+00  0.000000000E+00  1.888996958E+01  1.888996958E+01  0.000000000E+00  0.00000E+00  9.000E+00
      21    -1     0     0   502   503  0.000000000E+00  0.000000000E+00 -9.732175523E+02  9.732175523E+02  0.000000000E+00  0.00000E+00  9.000E+00
      25     1     1     2     0     0 -9.687101604E+00  1.348830295E+01 -9.207206151E+02  9.293176719E+02  1.250164390E+02  0.00000E+00  9.000E+00
       5     1     1     2   501     0 -1.820443343E-01  3.014984809E-01  1.152433444E+01  1.246983664E+01  4.750000000E+00  0.00000E+00  9.000E+00
      -5     1     1     2     0   503  6.742464555E+00 -1.621906072E+01 -3.510922633E+01  3.954414030E+01  4.750000000E+00  0.00000E+00  9.000E+00
      21     1     1     2   512   501  3.126681383E+00  2.429259292E+00 -1.002207579E+01  1.077587306E+01  1.685873940E-07  0.00000E+00  9.000E+00
#rwgt            1           9   3.5592075046759011E-004          11      383044           0
</event>
<event>
      6   9999  3.45752E-01  3.60430E+01 -1.00000E+00  1.42861E-01
      21    -1     0     0   501   502  0.000000000E+00  0.000000000E+00  8.111169290E+01  8.111169290E+01  0.000000000E+00  0.00000E+00  9.000E+00
       2    -1     0     0   502     0  0.000000000E+00  0.000000000E+00 -2.431064822E+03  2.431064822E+03  0.000000000E+00  0.00000E+00  9.000E+00
      25     1     1     2     0     0  1.677134854E+02  2.738507883E+01 -4.999168793E+02  5.426044563E+02  1.249998164E+02  0.00000E+00  9.000E+00
       5     1     1     2   501     0 -2.023986338E+00  1.033169699E+00  5.447034253E+01  5.472426039E+01  4.750000000E+00  0.00000E+00  9.000E+00
      -5     1     1     2     0   503 -1.457792779E+02  1.626443795E+00 -1.112548700E+03  1.122070147E+03  4.750000000E+00  0.00000E+00  9.000E+00
       2     1     1     2   503     0 -1.991022117E+01 -3.004469232E+01 -7.919578923E+02  7.927776508E+02  1.078959322E-05  0.00000E+00  9.000E+00
#rwgt            1           9   3.0993861302010175E-003          11      389179           0
</event>
<event>
      6   9999  3.45752E-01  2.06945E+01 -1.00000E+00  1.59087E-01
      21    -1     0     0   502   503  0.000000000E+00  0.000000000E+00  5.991790827E+01  5.991790827E+01  0.000000000E+00  0.00000E+00  9.000E+00
      21    -1     0     0   511   502  0.000000000E+00  0.000000000E+00 -1.176749518E+02  1.176749518E+02  0.000000000E+00  0.00000E+00  9.000E+00
      25     1     1     2     0     0  6.338987199E+00  2.156452616E+01 -3.277080261E+01  1.311549522E+02  1.249899374E+02  0.00000E+00  9.000E+00
       5     1     1     2   501     0  1.548324664E-01  7.276125828E-01  5.244881954E-01  4.836422338E+00  4.750000000E+00  0.00000E+00  9.000E+00
      -5     1     1     2     0   503 -8.111008279E-01 -2.393206927E+00  3.162005349E+00  6.240681195E+00  4.750000000E+00  0.00000E+00  9.000E+00
      21     1     1     2   511   501 -5.682718838E+00 -1.989893182E+01 -2.867273445E+01  3.536080432E+01  0.000000000E+00  0.00000E+00  9.000E+00
#rwgt            1           9   5.7708696862496463E-005          11      390993           0
</event>
<event>
      6   9999  3.45752E-01  1.68405E+01 -1.00000E+00  1.66128E-01
      21    -1     0     0   501   502  0.000000000E+00  0.000000000E+00  7.041032547E+00  7.041032547E+00  0.000000000E+00  0.00000E+00  9.000E+00
       2    -1     0     0   502     0  0.000000000E+00  0.000000000E+00 -1.922545973E+03  1.922545973E+03  0.000000000E+00  0.00000E+00  9.000E+00
      25     1     1     2     0     0 -1.644284343E+01  1.886162584E+00 -6.195824510E+02  6.322825414E+02  1.249994954E+02  0.00000E+00  9.000E+00
       5     1     1     2   501     0 -4.912909071E+00  1.332749310E+00 -3.027725451E+01  3.106746750E+01  4.750000000E+00  0.00000E+00  9.000E+00
      -5     1     1     2     0   503  4.626175169E+00 -1.289449103E+00 -4.775649961E+01  4.823183524E+01  4.750000000E+00  0.00000E+00  9.000E+00
       2     1     1     2   503     0  1.672957733E+01 -1.929462792E+00 -1.217888735E+03  1.218005161E+03  0.000000000E+00  0.00000E+00  9.000E+00
#rwgt            1           9   3.4502486856909124E-003          11      392553           0
</event>
<event>
      6   9999  3.45752E-01  4.16408E+00 -1.00000E+00  2.44291E-01
      21    -1     0     0   501   502  0.000000000E+00  0.000000000E+00  3.056915422E+02  3.056915422E+02  0.000000000E+00  0.00000E+00  9.000E+00
       3    -1     0     0   502     0  0.000000000E+00  0.000000000E+00 -1.250289156E+02  1.250289156E+02  0.000000000E+00  0.00000E+00  9.000E+00
      25     1     1     2     0     0  1.482511073E+00 -6.246596425E-01  5.234575323E+01  1.355239803E+02  1.249963332E+02  0.00000E+00  9.000E+00
       5     1     1     2   501     0  4.715003043E-01  3.821969603E+00  2.077742907E+02  2.078642541E+02  4.750000000E+00  0.00000E+00  9.000E+00
      -5     1     1     2     0   503 -2.008533302E+00  9.664102095E-01  2.112373126E+00  5.656215602E+00  4.750000000E+00  0.00000E+00  9.000E+00
       3     1     1     2   503     0  5.452192392E-02 -4.163720170E+00 -8.156979046E+01  8.167600783E+01  9.536743164E-07  0.00000E+00  9.000E+00
#rwgt            1           9  0.10425340033888164               11      393880           0
</event>
<event>
      6   9999  3.45752E-01  2.35033E+01 -1.00000E+00  1.55038E-01
      21    -1     0     0   501   502  0.000000000E+00  0.000000000E+00  4.075831009E+01  4.075831009E+01  0.000000000E+00  0.00000E+00  9.000E+00
      21    -1     0     0   511   503  0.000000000E+00  0.000000000E+00 -1.585163071E+03  1.585163071E+03  0.000000000E+00  0.00000E+00  9.000E+00
      25     1     1     2     0     0  7.195631006E+00  7.134956005E+00 -1.125415565E+03  1.132382024E+03  1.250046833E+02  0.00000E+00  9.000E+00
       5     1     1     2   501     0  4.996656747E+00  1.227029392E+00  3.631738101E+01  3.698630616E+01  4.750000000E+00  0.00000E+00  9.000E+00
      -5     1     1     2     0   503  6.709790998E+00  5.606370259E+00 -1.109481740E+02  1.113935029E+02  4.750000000E+00  0.00000E+00  9.000E+00
      21     1     1     2   511   502 -1.890207875E+01 -1.396835566E+01 -3.443584030E+02  3.451595475E+02  3.814697266E-06  0.00000E+00  9.000E+00
#rwgt            1           9   2.2159903077876864E-004          11      399046           0
</event>
<event>
      6   9999  3.45752E-01  5.53336E+00 -1.00000E+00  2.19076E-01
      21    -1     0     0   501   502  0.000000000E+00  0.000000000E+00  3.993873931E+03  3.993873931E+03  0.000000000E+00  0.00000E+00  9.000E+00
      21    -1     0     0   512   503  0.000000000E+00  0.000000000E+00 -5.782236415E+00  5.782236415E+00  0.000000000E+00  0.00000E+00  9.000E+00
      25     1     1     2     0     0  4.057211690E+00 -9.904651428E+00  3.120153037E+03  3.122673722E+03  1.249865513E+02  0.00000E+00  9.000E+00
       5     1     1     2   501     0 -1.608426373E-01 -8.881352219E-01  6.388596854E+02  6.388779811E+02  4.750000000E+00  0.00000E+00  9.000E+00
      -5     1     1     2     0   503 -2.704128951E+00  5.389398443E+00  2.318077742E+02  2.319348284E+02  4.750000000E+00  0.00000E+00  9.000E+00
      21     1     1     2   512   502 -1.192240103E+00  5.403388207E+00 -2.728802222E+00  6.169635495E+00  1.223348126E-06  0.00000E+00  9.000E+00
#rwgt            1           9  0.14684483114711072               11      401552           0
</event>
<event>
      6   9999  3.45752E-01  2.89517E+01 -1.00000E+00  1.48844E-01
      21    -1     0     0   501   502  0.000000000E+00  0.000000000E+00  3.195893288E+02  3.195893288E+02  0.000000000E+00  0.00000E+00  9.000E+00
      21    -1     0     0   502   511  0.000000000E+00  0.000000000E+00 -1.002806558E+02  1.002806558E+02  0.000000000E+00  0.00000E+00  9.000E+00
      25     1     1     2     0     0  4.697855711E+01  5.807684877E+01  4.222163267E+00  1.456796739E+02  1.249993421E+02  0.00000E+00  9.000E+00
       5     1     1     2   501     0  7.329293244E-01  3.606052915E+00  1.088257019E+02  1.089914524E+02  4.750000000E+00  0.00000E+00  9.000E+00
      -5     1     1     2     0   503 -2.735677746E+01 -4.109440601E+01  1.223904262E+02  1.320572694E+02  4.750000000E+00  0.00000E+00  9.000E+00
      21     1     1     2   503   511 -2.035470897E+01 -2.058849568E+01 -1.612961829E+01  3.314158894E+01  5.840038640E-07  0.00000E+00  9.000E+00
#rwgt            1           9   3.4548131295425021E-005          11      404390           0
</event>
<event>
      6   9999  3.45752E-01  3.75502E+00 -1.00000E+00  2.53671E-01
      21    -1     0     0   502   512  0.000000000E+00  0.000000000E+00  1.140136644E+01  1.140136644E+01  0.000000000E+00  0.00000E+00  9.000E+00
      21    -1     0     0   501   502  0.000000000E+00  0.000000000E+00 -8.280889853E+02  8.280889853E+02  0.000000000E+00  0.00000E+00  9.000E+00
      25     1     1     2     0     0 -1.980273025E+01 -3.652814696E+00 -4.997900003E+02  5.155777294E+02  1.249994379E+02  0.00000E+00  9.000E+00
       5     1     1     2   501     0  3.794922544E+01 -1.301631095E+00 -2.663009293E+02  2.690364016E+02  4.750000000E+00  0.00000E+00  9.000E+00
      -5     1     1     2     0   503 -1.659672032E+01  1.534157634E+00 -3.876193574E+01  4.246003918E+01  4.750000000E+00  0.00000E+00  9.000E+00
      21     1     1     2   503   512 -1.549774877E+00  3.420288158E+00 -1.183475352E+01  1.241618154E+01  1.685873940E-07  0.00000E+00  9.000E+00
#rwgt            1           9  0.91677574284670926               11      406188           0
</event>
<event>
      6   9999  3.45752E-01  5.14257E+00 -1.00000E+00  2.23832E-01
      21    -1     0     0   501   502  0.000000000E+00  0.000000000E+00  1.334918286E+01  1.334918286E+01  0.000000000E+00  0.00000E+00  9.000E+00
      21    -1     0     0   502   511  0.000000000E+00  0.000000000E+00 -2.755291261E+03  2.755291261E+03  0.000000000E+00  0.00000E+00  9.000E+00
      25     1     1     2     0     0  3.100008087E+01  6.866930269E+01 -9.336927403E+02  9.450299543E+02  1.249920126E+02  0.00000E+00  9.000E+00
       5     1     1     2   501     0 -2.717954354E+00 -8.468538922E-01  5.571526639E+00  7.855497850E+00  4.750000000E+00  0.00000E+00  9.000E+00
      -5     1     1     2     0   503 -2.746816885E+01 -7.290019841E+01 -1.637213147E+03  1.639072417E+03  4.750000000E+00  0.00000E+00  9.000E+00
      21     1     1     2   503   511 -8.139576685E-01  5.077749612E+00 -1.766077178E+02  1.766825743E+02  2.697398305E-06  0.00000E+00  9.000E+00
#rwgt            1           9  0.20817001028159351               11      411045           0
</event>
<event>
      6   9999 -3.45752E-01  8.93792E+00 -1.00000E+00  1.92481E-01
      21    -1     0     0   501   502  0.000000000E+00  0.000000000E+00  4.300619814E+01  4.300619814E+01  0.000000000E+00  0.00000E+00  9.000E+00
      21    -1     0     0   512   503  0.000000000E+00  0.000000000E+00 -1.243573437E+03  1.243573437E+03  0.000000000E+00  0.00000E+00  9.000E+00
      25     1     1     2     0     0 -1.157735770E+01  9.543625281E+00 -1.066997605E+03  1.074400874E+03  1.250129325E+02  0.00000E+00  9.000E+00
       5     1     1     2   501     0  1.474927791E+00 -1.027790264E+01  3.763697155E+01  3.933083805E+01  4.750000000E+00  0.00000E+00  9.000E+00
      -5     1     1     2     0   503  1.239497174E+00  1.889627450E+00 -1.461549906E+02  1.462496182E+02  4.750000000E+00  0.00000E+00  9.000E+00
      21     1     1     2   512   502  8.862932740E+00 -1.155350092E+00 -2.505161481E+01  2.659830475E+01  3.371747881E-07  0.00000E+00  9.000E+00
#rwgt            1           9  -2.9696002439022640               11      416732           0
</event>
<event>
      6   9999  3.45752E-01  5.83293E+01 -1.00000E+00  1.31302E-01
      21    -1     0     0   501   502  0.000000000E+00  0.000000000E+00  6.405912280E+01  6.405912280E+01  0.000000000E+00  0.00000E+00  9.000E+00
      21    -1     0     0   502   511  0.000000000E+00  0.000000000E+00 -6.027424779E+02  6.027424779E+02  0.000000000E+00  0.00000E+00  9.000E+00
      25     1     1     2     0     0  5.413275807E+01  2.454900658E+01 -3.285863935E+01  1.422614210E+02  1.250024500E+02  0.00000E+00  9.000E+00
       5     1     1     2   501     0  5.433099377E+00  3.497113235E-01 -1.100887890E+01  1.316809711E+01  4.750000000E+00  0.00000E+00  9.000E+00
      -5     1     1     2     0   503 -1.341303951E+01 -6.056689855E+01 -1.630327175E+02  1.745006828E+02  4.750000000E+00  0.00000E+00  9.000E+00
      21     1     1     2   503   511 -4.615281793E+01  3.566818064E+01 -3.317831193E+02  3.368713998E+02  0.000000000E+00  0.00000E+00  9.000E+00
#rwgt            1           9   958.64918300743875               11      421255           0
</event>
<event>
      6   9999 -3.45752E-01  2.74314E+01 -1.00000E+00  1.50397E-01
      21    -1     0     0   501   502  0.000000000E+00  0.000000000E+00  1.700946946E+01  1.700946946E+01  0.000000000E+00  0.00000E+00  9.000E+00
      21    -1     0     0   502   512  0.000000000E+00  0.000000000E+00 -1.495061031E+03  1.495061031E+03  0.000000000E+00  0.00000E+00  9.000E+00
      25     1     1     2     0     0 -7.886117498E+00 -1.155238779E+01 -1.035242558E+03  1.042855503E+03  1.249991964E+02  0.00000E+00  9.000E+00
       5     1     1     2   501     0 -7.991893622E+00 -1.205817195E+01  7.653900904E+00  1.704155431E+01  4.750000000E+00  0.00000E+00  9.000E+00
      -5     1     1     2     0   503  3.594044594E+00 -9.167094857E-01 -2.133994278E+01  2.217460644E+01  4.750000000E+00  0.00000E+00  9.000E+00
      21     1     1     2   503   512  1.228396653E+01  2.452726922E+01 -4.291229620E+02  4.299988364E+02  0.000000000E+00  0.00000E+00  9.000E+00
#rwgt            1           9  -1.0942881967929061E-003          11      422026           0
</event>
<event>
      6   9999 -3.45752E-01  2.15490E+01 -1.00000E+00  1.57776E-01
       4    -1     0     0   501     0  0.000000000E+00  0.000000000E+00  7.707362639E+01  7.707362639E+01  0.000000000E+00  0.00000E+00  9.000E+00
      21    -1     0     0   502   503  0.000000000E+00  0.000000000E+00 -8.607950789E+02  8.607950789E+02  0.000000000E+00  0.00000E+00  9.000E+00
      25     1     1     2     0     0  2.057264638E+01  3.740376593E+01 -8.192504208E+02  8.298306339E+02  1.250014139E+02  0.00000E+00  9.000E+00
       5     1     1     2   501     0  1.401880779E+00  1.534250144E-01 -7.818593379E-01  5.016234941E+00  4.750000000E+00  0.00000E+00  9.000E+00
      -5     1     1     2     0   503 -4.018039047E+00 -2.564401481E+01 -2.602743647E+01  3.706413472E+01  4.750000000E+00  0.00000E+00  9.000E+00
       4     1     1     2   502     0 -1.795648812E+01 -1.191317613E+01  6.233826417E+01  6.595770167E+01  1.507891493E-06  0.00000E+00  9.000E+00
#rwgt            1           9  -1.0125138398260297E-005          11      423325           0
</event>
<event>
      6   9999  3.45752E-01  7.24682E+00 -1.00000E+00  2.03239E-01
      21    -1     0     0   502   503  0.000000000E+00  0.000000000E+00  3.511249890E+03  3.511249890E+03  0.000000000E+00  0.00000E+00  9.000E+00
      21    -1     0     0   501   511  0.000000000E+00  0.000000000E+00 -2.876445373E+00  2.876445373E+00  0.000000000E+00  0.00000E+00  9.000E+00
      25     1     1     2     0     0  6.205073571E+00 -4.641994453E+00  3.409720103E+03  3.412019407E+03  1.250008027E+02  0.00000E+00  9.000E+00
       5     1     1     2   501     0  1.106898696E+00 -1.045708399E+00  2.058831557E+01  2.118395546E+01  4.750000000E+00  0.00000E+00  9.000E+00
      -5     1     1     2     0   503 -2.833899100E+00 -9.945053915E-03  6.943010830E+01  6.965007912E+01  4.750000000E+00  0.00000E+00  9.000E+00
      21     1     1     2   502   511 -4.478073168E+00  5.697647906E+00  8.634917208E+00  1.127289342E+01  5.591411304E-07  0.00000E+00  9.000E+00
#rwgt            1           9   1.9965991619273686E-003          11      425335           0
</event>
<event>
      6   9999  3.45752E-01  3.10131E+01 -1.00000E+00  1.46911E-01
      21    -1     0     0   501   502  0.000000000E+00  0.000000000E+00  4.424063783E+02  4.424063783E+02  0.000000000E+00  0.00000E+00  9.000E+00
      21    -1     0     0   502   512  0.000000000E+00  0.000000000E+00 -1.052828726E+02  1.052828726E+02  0.000000000E+00  0.00000E+00  9.000E+00
      25     1     1     2     0     0  1.308239900E+01 -3.346550775E+01  3.000411451E+02  3.270154780E+02  1.249933787E+02  0.00000E+00  9.000E+00
       5     1     1     2   501     0  1.750812688E+00 -1.021013884E+00  4.295039962E+01  4.325976355E+01  4.750000000E+00  0.00000E+00  9.000E+00
      -5     1     1     2     0   503  1.104043749E+01  1.738776880E+01  8.176610608E+01  8.445403701E+01  4.750000000E+00  0.00000E+00  9.000E+00
      21     1     1     2   503   512 -2.587364917E+01  1.709875283E+01 -8.763414505E+01  9.295997229E+01  2.861022949E-06  0.00000E+00  9.000E+00
#rwgt            1           9   5.1086763821911385E-003          11      428240           0
</event>
<event>
      6   9999  3.45752E-01  1.12067E+01 -1.00000E+00  1.82128E-01
      21    -1     0     0   511   502  0.000000000E+00  0.000000000E+00  1.265301335E+02  1.265301335E+02  0.000000000E+00  0.00000E+00  9.000E+00
      21    -1     0     0   502   503  0.000000000E+00  0.000000000E+00 -1.695912323E+03  1.695912323E+03  0.000000000E+00  0.00000E+00  9.000E+00
      25     1     1     2     0     0 -4.104605705E+00  3.230554562E+00 -1.614953092E+03  1.619791974E+03  1.250010657E+02  0.00000E+00  9.000E+00
       5     1     1     2   501     0 -7.262543685E+00 -6.494905433E+00  1.017843767E+02  1.023599052E+02  4.750000000E+00  0.00000E+00  9.000E+00
      -5     1     1     2     0   503  1.836472455E-01  2.544352199E+00 -7.672662909E+01  7.691583429E+01  4.750000000E+00  0.00000E+00  9.000E+00
      21     1     1     2   511   501  1.118350214E+01  7.199986722E-01  2.051315438E+01  2.337474322E+01  1.192092896E-06  0.00000E+00  9.000E+00
#rwgt            1           9   1.5147988617958161E-004          11      429211           0
</event>
<event>
      6   9999  3.45752E-01  1.33892E+01 -1.00000E+00  1.74761E-01
      21    -1     0     0   512   502  0.000000000E+00  0.000000000E+00  2.060556710E+01  2.060556710E+01  0.000000000E+00  0.00000E+00  9.000E+00
      21    -1     0     0   502   503  0.000000000E+00  0.000000000E+00 -9.845070771E+02  9.845070771E+02  0.000000000E+00  0.00000E+00  9.000E+00
      25     1     1     2     0     0  1.340173094E+01  1.125689817E+01 -7.713300772E+02  7.815892724E+02  1.250015145E+02  0.00000E+00  9.000E+00
       5     1     1     2   501     0 -1.124720208E-01 -2.035680503E-01  1.267988821E+01  1.354238365E+01  4.750000000E+00  0.00000E+00  9.000E+00
      -5     1     1     2     0   503 -1.354497599E+01  2.333468782E+00 -1.857923078E+02  1.863605527E+02  4.750000000E+00  0.00000E+00  9.000E+00
      21     1     1     2   512   501  2.557170737E-01 -1.338679891E+01 -1.945901313E+01  2.362043539E+01  2.384185791E-07  0.00000E+00  9.000E+00
#rwgt            1           9   2.6006945054680147E-005          11      433792           0
</event>
<event>
      6   9999  3.45752E-01  5.53232E+01 -1.00000E+00  1.32478E-01
      21    -1     0     0   501   511  0.000000000E+00  0.000000000E+00  2.082929843E+03  2.082929843E+03  0.000000000E+00  0.00000E+00  9.000E+00
      21    -1     0     0   502   503  0.000000000E+00  0.000000000E+00 -1.791668016E+03  1.791668016E+03  0.000000000E+00  0.00000E+00  9.000E+00
      25     1     1     2     0     0  9.452384044E+00 -2.274504040E+01 -1.401023471E+03  1.406804078E+03  1.249970516E+02  0.00000E+00  9.000E+00
       5     1     1     2   501     0  3.676194187E+01  2.110196319E+01  1.170068881E+02  1.245387794E+02  4.750000000E+00  0.00000E+00  9.000E+00
      -5     1     1     2     0   503  6.017288223E+00  1.987805768E+01 -3.833018783E+02  3.838935234E+02  4.750000000E+00  0.00000E+00  9.000E+00
      21     1     1     2   502   511 -5.223161413E+01 -1.823498047E+01  1.958580289E+03  1.959361478E+03  2.157918644E-05  0.00000E+00  9.000E+00
#rwgt            1           9   1.8314928394752889E-003          11      436276           0
</event>
<event>
      6   9999  3.45752E-01  4.08801E+00 -1.00000E+00  2.45910E-01
      21    -1     0     0   501   512  0.000000000E+00  0.000000000E+00  3.351183746E+01  3.351183746E+01  0.000000000E+00  0.00000E+00  9.000E+00
      21    -1     0     0   502   503  0.000000000E+00  0.000000000E+00 -1.084962731E+03  1.084962731E+03  0.000000000E+00  0.00000E+00  9.000E+00
      25     1     1     2     0     0 -5.280306598E+01 -1.846445569E+01 -4.072136928E+02  4.296244496E+02  1.250003046E+02  0.00000E+00  9.000E+00
       5     1     1     2   501     0  8.284533103E-01 -3.097169884E+00  1.288905004E+01  1.410563388E+01  4.750000000E+00  0.00000E+00  9.000E+00
      -5     1     1     2     0   503  4.806480525E+01  2.036780838E+01 -6.643658073E+02  6.664304626E+02  4.750000000E+00  0.00000E+00  9.000E+00
      21     1     1     2   502   512  3.909807413E+00  1.193817198E+00  7.239556397E+00  8.314022512E+00  8.387116956E-07  0.00000E+00  9.000E+00
#rwgt            1           9   2.8527010777257115E-005          11      438246           0
</event>
<event>
      6   9999  3.45752E-01  2.57507E+00 -1.00000E+00  2.95495E-01
      21    -1     0     0   511   502  0.000000000E+00  0.000000000E+00  4.310464946E+00  4.310464946E+00  0.000000000E+00  0.00000E+00  9.000E+00
      21    -1     0     0   502   503  0.000000000E+00  0.000000000E+00 -2.279623519E+03  2.279623519E+03  0.000000000E+00  0.00000E+00  9.000E+00
      25     1     1     2     0     0  9.274904198E-02 -9.497953798E+00 -1.853478495E+03  1.857712944E+03  1.249985214E+02  0.00000E+00  9.000E+00
       5     1     1     2   501     0  2.796083077E+00  3.238640451E-01 -1.794537748E+00  5.805672590E+00  4.750000000E+00  0.00000E+00  9.000E+00
      -5     1     1     2     0   503 -5.937494249E-01  8.006373362E+00 -4.078343902E+02  4.079410581E+02  4.750000000E+00  0.00000E+00  9.000E+00
      21     1     1     2   511   501 -2.295082694E+00  1.167716390E+00 -1.220563112E+01  1.247430949E+01  1.685873940E-07  0.00000E+00  9.000E+00
#rwgt            1           9   2.4077720244680815E-003          11      444469           0
</event>
<event>
      6   9999  3.45752E-01  3.66854E+01 -1.00000E+00  1.42400E-01
      21    -1     0     0   501   502  0.000000000E+00  0.000000000E+00  6.099528495E+01  6.099528495E+01  0.000000000E+00  0.00000E+00  9.000E+00
      21    -1     0     0   502   512  0.000000000E+00  0.000000000E+00 -1.385698946E+03  1.385698946E+03  0.000000000E+00  0.00000E+00  9.000E+00
      25     1     1     2     0     0  1.082485448E+02 -1.573209209E+02 -8.179119320E+02  8.491587404E+02  1.249920733E+02  0.00000E+00  9.000E+00
       5     1     1     2   501     0 -5.290859677E-01 -2.056087791E+01 -5.095110195E+00  2.171525455E+01  4.750000000E+00  0.00000E+00  9.000E+00
      -5     1     1     2     0   503 -1.284186068E+02  2.081698416E+02 -4.160066166E+02  4.826075932E+02  4.750000000E+00  0.00000E+00  9.000E+00
      21     1     1     2   503   512  2.069914801E+01 -3.028804283E+01 -8.569000248E+01  9.321264288E+01  1.348699152E-06  0.00000E+00  9.000E+00
#rwgt            1           9  0.43834928944683638               11      451078           0
</event>
<event>
      6   9999  3.45752E-01  2.84663E+01 -1.00000E+00  1.49327E-01
      21    -1     0     0   502   503  0.000000000E+00  0.000000000E+00  1.964699360E+03  1.964699360E+03  0.000000000E+00  0.00000E+00  9.000E+00
      21    -1     0     0   501   511  0.000000000E+00  0.000000000E+00 -4.684876775E+00  4.684876775E+00  0.000000000E+00  0.00000E+00  9.000E+00
      25     1     1     2     0     0  5.495012145E+00 -1.719290932E+01  1.283530162E+03  1.289729312E+03  1.250049225E+02  0.00000E+00  9.000E+00
       5     1     1     2   501     0  7.607245387E-01 -3.852231968E-01  7.325329954E+01  7.341209364E+01  4.750000000E+00  0.00000E+00  9.000E+00
      -5     1     1     2     0   503  1.921776951E+01  4.872584937E+00  4.453283140E+02  4.457947223E+02  4.750000000E+00  0.00000E+00  9.000E+00
      21     1     1     2   502   511 -2.547350619E+01  1.270554758E+01  1.579027084E+02  1.604481093E+02  2.697398305E-06  0.00000E+00  9.000E+00
#rwgt            1           9   1.4231538436575808E-003          11      452534           0
</event>
<event>
      6   9999  3.45752E-01  1.40217E+01 -1.00000E+00  1.72949E-01
      21    -1     0     0   512   502  0.000000000E+00  0.000000000E+00  5.711224864E+01  5.711224864E+01  0.000000000E+00  0.00000E+00  9.000E+00
      21    -1     0     0   502   503  0.000000000E+00  0.000000000E+00 -1.345323362E+03  1.345323362E+03  0.000000000E+00  0.00000E+00  9.000E+00
      25     1     1     2     0     0 -9.076506806E+01 -1.986772237E+01 -2.051721247E+02  2.575961237E+02  1.250085526E+02  0.00000E+00  9.000E+00
       5     1     1     2   501     0  3.395203118E+00  2.183947261E+00  2.251707524E+01  2.336403662E+01  4.750000000E+00  0.00000E+00  9.000E+00
      -5     1     1     2     0   503  8.951226571E+01  3.826684805E+00 -1.103689308E+03  1.107330005E+03  4.750000000E+00  0.00000E+00  9.000E+00
      21     1     1     2   512   501 -2.142400769E+00  1.385709031E+01 -1.866755561E+00  1.414544482E+01  3.358551165E-07  0.00000E+00  9.000E+00
#rwgt            1           9   1.9155327592359352E-005          11      454264           0
</event>
<event>
      6   9999  3.45752E-01  7.72960E+00 -1.00000E+00  1.99800E-01
       2    -1     0     0   501     0  0.000000000E+00  0.000000000E+00  2.671576570E+03  2.671576570E+03  0.000000000E+00  0.00000E+00  9.000E+00
      21    -1     0     0   502   503  0.000000000E+00  0.000000000E+00 -7.728899386E+00  7.728899386E+00  0.000000000E+00  0.00000E+00  9.000E+00
      25     1     1     2     0     0  5.306658277E+00  2.571888711E+00  5.545251083E+02  5.684698841E+02  1.250005526E+02  0.00000E+00  9.000E+00
       5     1     1     2   501     0  8.120753687E-03 -5.712692720E+00  1.215583721E+03  1.215606425E+03  4.750000000E+00  0.00000E+00  9.000E+00
      -5     1     1     2     0   503 -5.572215653E-01 -2.951186681E+00  1.011356953E+01  1.157008156E+01  4.750000000E+00  0.00000E+00  9.000E+00
       2     1     1     2   502     0 -4.757557465E+00  6.091990690E+00  8.836252718E+02  8.836590788E+02  1.868812365E-05  0.00000E+00  9.000E+00
#rwgt            1           9   5.7839151036035694E-002          11      457413           0
</event>
<event>
      6   9999 -3.45752E-01  3.59806E+01 -1.00000E+00  1.42906E-01
      21    -1     0     0   511   502  0.000000000E+00  0.000000000E+00  1.212707747E+02  1.212707747E+02  0.000000000E+00  0.00000E+00  9.000E+00
      21    -1     0     0   502   503  0.000000000E+00  0.000000000E+00 -1.277970888E+03  1.277970888E+03  0.000000000E+00  0.00000E+00  9.000E+00
      25     1     1     2     0     0  5.254601663E+00 -1.695459901E+01 -1.100648800E+03  1.107867732E+03  1.250122491E+02  0.00000E+00  9.000E+00
       5     1     1     2   501     0 -1.725829446E+01 -2.081337896E+01  3.483938262E+01  4.435527649E+01  4.750000000E+00  0.00000E+00  9.000E+00
      -5     1     1     2     0   503 -8.307813888E+00  8.068666211E+00 -1.645583375E+02  1.650337301E+02  4.750000000E+00  0.00000E+00  9.000E+00
      21     1     1     2   511   501  2.031150668E+01  2.969931176E+01  7.366764117E+01  8.198492409E+01  1.348699152E-06  0.00000E+00  9.000E+00
#rwgt            1           9  -2.4820865237913221E-005          11      460812           0
</event>
<event>
      6   9999  3.45752E-01  1.33677E+01 -1.00000E+00  1.74825E-01
      21    -1     0     0   512   502  0.000000000E+00  0.000000000E+00  3.054510665E+01  3.054510665E+01  0.000000000E+00  0.00000E+00  9.000E+00
      21    -1     0     0   502   503  0.000000000E+00  0.000000000E+00 -7.075703348E+02  7.075703348E+02  0.000000000E+00  0.00000E+00  9.000E+00
      25     1     1     2     0     0  9.398767805E+00  7.456402236E+00 -6.574722455E+02  6.693574064E+02  1.250025966E+02  0.00000E+00  9.000E+00
       5     1     1     2   501     0  9.698257350E-01  2.430240064E-01 -6.127438578E+00  7.817136698E+00  4.750000000E+00  0.00000E+00  9.000E+00
      -5     1     1     2     0   503  1.033387942E+00 -7.215746762E-01 -3.511808867E+01  3.546027654E+01  4.750000000E+00  0.00000E+00  9.000E+00
      21     1     1     2   512   501 -1.140198148E+01 -6.977851566E+00  2.169254461E+01  2.548062177E+01  1.215700987E-06  0.00000E+00  9.000E+00
#rwgt            1           9   4.4287217177219507E-004          11      462805           0
</event>
<event>
      6   9999  3.45752E-01  2.83558E+00 -1.00000E+00  2.83475E-01
      21    -1     0     0   511   502  0.000000000E+00  0.000000000E+00  1.857667817E+03  1.857667817E+03  0.000000000E+00  0.00000E+00  9.000E+00
      21    -1     0     0   502   503  0.000000000E+00  0.000000000E+00 -1.803027144E+01  1.803027144E+01  0.000000000E+00  0.00000E+00  9.000E+00
      25     1     1     2     0     0  2.214098147E+01  6.983418197E+01  4.757093628E+02  4.972843330E+02  1.250010959E+02  0.00000E+00  9.000E+00
       5     1     1     2   501     0  5.706407319E+00  6.951264432E-01  1.164523010E+03  1.164546885E+03  4.750000000E+00  0.00000E+00  9.000E+00
      -5     1     1     2     0   503 -2.873283203E+01 -6.783552116E+01  1.850012535E+02  1.991864952E+02  4.750000000E+00  0.00000E+00  9.000E+00
      21     1     1     2   511   501  8.854432456E-01 -2.693787246E+00  1.440391972E+01  1.468037475E+01  1.685873940E-07  0.00000E+00  9.000E+00
#rwgt            1           9   2.9079240715510185E-002          11      464590           0
</event>
<event>
      6   9999  3.45752E-01  2.79420E+01 -1.00000E+00  1.49863E-01
      21    -1     0     0   512   502  0.000000000E+00  0.000000000E+00  1.787010795E+02  1.787010795E+02  0.000000000E+00  0.00000E+00  9.000E+00
      21    -1     0     0   502   503  0.000000000E+00  0.000000000E+00 -1.136185868E+03  1.136185868E+03  0.000000000E+00  0.00000E+00  9.000E+00
      25     1     1     2     0     0  2.665823500E+00  1.434147682E+01 -9.384046971E+02  9.468061031E+02  1.250025475E+02  0.00000E+00  9.000E+00
       5     1     1     2   501     0  1.508150412E+01  1.069536625E+01  2.279319780E+01  2.973104424E+01  4.750000000E+00  0.00000E+00  9.000E+00
      -5     1     1     2     0   503 -3.898595065E+00 -7.682133911E-01 -1.887435873E+02  1.888451573E+02  4.750000000E+00  0.00000E+00  9.000E+00
      21     1     1     2   512   501 -1.384873255E+01 -2.426862968E+01  1.468702980E+02  1.495046428E+02  3.814697266E-06  0.00000E+00  9.000E+00
#rwgt            1           9   1.7099363262601006E-002          11      472649           0
</event>
<event>
      6   9999  3.45752E-01  1.54581E+01 -1.00000E+00  1.69247E-01
      21    -1     0     0   501   511  0.000000000E+00  0.000000000E+00  6.258694997E+01  6.258694997E+01  0.000000000E+00  0.00000E+00  9.000E+00
      21    -1     0     0   502   503  0.000000000E+00  0.000000000E+00 -8.804278711E+02  8.804278711E+02  0.000000000E+00  0.00000E+00  9.000E+00
      25     1     1     2     0     0 -9.597665435E-01 -2.796243947E+01 -3.589464448E+02  3.811174276E+02  1.250004969E+02  0.00000E+00  9.000E+00
       5     1     1     2   501     0 -4.839531486E+00  2.646896306E-01 -5.184884363E+00  8.540295748E+00  4.750000000E+00  0.00000E+00  9.000E+00
      -5     1     1     2     0   503 -4.889925452E+00  1.653106265E+01 -5.021713713E+02  5.024896378E+02  4.750000000E+00  0.00000E+00  9.000E+00
      21     1     1     2   502   511  1.068922348E+01  1.116668718E+01  4.846177945E+01  5.086745982E+01  1.348699152E-06  0.00000E+00  9.000E+00
#rwgt            1           9  0.26214255826340838               11      474319           0
</event>
<event>
      6   9999  3.45752E-01  6.77513E+01 -1.00000E+00  1.28087E-01
      21    -1     0     0   502   503  0.000000000E+00  0.000000000E+00  6.313353428E+01  6.313353428E+01  0.000000000E+00  0.00000E+00  9.000E+00
      21    -1     0     0   501   512  0.000000000E+00  0.000000000E+00 -1.581177194E+03  1.581177194E+03  0.000000000E+00  0.00000E+00  9.000E+00
      25     1     1     2     0     0  5.361224408E+00 -1.499468080E+02 -2.329829113E+02  3.040046922E+02  1.250001120E+02  0.00000E+00  9.000E+00
       5     1     1     2   501     0  4.697898916E+00  3.350948206E+00 -6.022317043E+02  6.022780814E+02  4.750000000E+00  0.00000E+00  9.000E+00
      -5     1     1     2     0   503  8.613358214E+00  2.117232205E+02 -5.011734634E+02  5.441491660E+02  4.750000000E+00  0.00000E+00  9.000E+00
      21     1     1     2   502   512 -1.867248154E+01 -6.512736070E+01 -1.816555809E+02  1.938787888E+02  2.697398305E-06  0.00000E+00  9.000E+00
#rwgt            1           9   8.4602168573003067E-003          11      476509           0
</event>
<event>
      6   9999  3.45752E-01  6.31549E+00 -1.00000E+00  2.11004E-01
      21    -1     0     0   501   502  0.000000000E+00  0.000000000E+00  2.550251976E+01  2.550251976E+01  0.000000000E+00  0.00000E+00  9.000E+00
      21    -1     0     0   511   503  0.000000000E+00  0.000000000E+00 -1.429991757E+03  1.429991757E+03  0.000000000E+00  0.00000E+00  9.000E+00
      25     1     1     2     0     0 -3.548989179E+01 -6.134148072E+01 -3.038381444E+02  3.361090287E+02  1.250174048E+02  0.00000E+00  9.000E+00
       5     1     1     2   501     0 -1.616512485E+00  2.053844766E+00  6.436415979E+00  8.415541670E+00  4.750000000E+00  0.00000E+00  9.000E+00
      -5     1     1     2     0   503  3.712351853E+01  6.560310035E+01 -7.433067053E+02  7.471340864E+02  4.750000000E+00  0.00000E+00  9.000E+00
      21     1     1     2   511   502 -1.711424761E-02 -6.315464397E+00 -3.637808034E+02  3.638356199E+02  0.000000000E+00  0.00000E+00  9.000E+00
#rwgt            1           9   5.3619427761932080E-004          11      477583           0
</event>
<event>
      6   9999  3.45752E-01  1.25175E+01 -1.00000E+00  1.77475E-01
      21    -1     0     0   501   512  0.000000000E+00  0.000000000E+00  8.929568289E+01  8.929568289E+01  0.000000000E+00  0.00000E+00  9.000E+00
      21    -1     0     0   502   503  0.000000000E+00  0.000000000E+00 -1.489975712E+03  1.489975712E+03  0.000000000E+00  0.00000E+00  9.000E+00
      25     1     1     2     0     0 -5.115423470E+01  1.885356695E+02 -4.319857564E+02  4.903038233E+02  1.249947639E+02  0.00000E+00  9.000E+00
       5     1     1     2   501     0 -5.175412948E+00 -7.786817914E-01  3.139190378E+01  3.217771538E+01  4.750000000E+00  0.00000E+00  9.000E+00
      -5     1     1     2     0   503  6.659257220E+01 -1.949236277E+02 -1.015921551E+03  1.036604530E+03  4.750000000E+00  0.00000E+00  9.000E+00
      21     1     1     2   502   512 -1.026292456E+01  7.166639985E+00  1.583537393E+01  2.018532677E+01  1.130918620E-06  0.00000E+00  9.000E+00
#rwgt            1           9   1.2342665579317062E-003          11      481561           0
</event>
<event>
      6   9999 -3.45752E-01  1.88163E+01 -1.00000E+00  1.62259E-01
      21    -1     0     0   501   502  0.000000000E+00  0.000000000E+00  2.462445948E+01  2.462445948E+01  0.000000000E+00  0.00000E+00  9.000E+00
      21    -1     0     0   502   511  0.000000000E+00  0.000000000E+00 -2.282998102E+03  2.282998102E+03  0.000000000E+00  0.00000E+00  9.000E+00
      25     1     1     2     0     0  1.016302416E+02  2.387188090E+01 -1.241813845E+03  1.252447735E+03  1.250005200E+02  0.00000E+00  9.000E+00
       5     1     1     2   501     0  1.183478114E+00 -3.690395086E-01  1.277937326E+01  1.368983899E+01  4.750000000E+00  0.00000E+00  9.000E+00
      -5     1     1     2     0   503 -1.004098123E+02 -4.840682004E+00 -4.212478351E+02  4.331026018E+02  4.750000000E+00  0.00000E+00  9.000E+00
      21     1     1     2   503   511 -2.403907433E+00 -1.866215938E+01 -6.080913357E+02  6.083823860E+02  1.078959322E-05  0.00000E+00  9.000E+00
#rwgt            1           9 -0.11090273977267980               11      485242           0
</event>
<event>
      6   9999 -3.45752E-01  1.75056E+01 -1.00000E+00  1.64755E-01
      21    -1     0     0   501   502  0.000000000E+00  0.000000000E+00  2.688482154E+01  2.688482154E+01  0.000000000E+00  0.00000E+00  9.000E+00
      21    -1     0     0   502   512  0.000000000E+00  0.000000000E+00 -1.471951871E+03  1.471951871E+03  0.000000000E+00  0.00000E+00  9.000E+00
      25     1     1     2     0     0 -1.230263988E+02 -3.757817099E+01 -6.408219189E+02  6.654508060E+02  1.249977192E+02  0.00000E+00  9.000E+00
       5     1     1     2   501     0 -1.609220584E+00  1.476373398E+00  4.566961119E+00  6.941822755E+00  4.750000000E+00  0.00000E+00  9.000E+00
      -5     1     1     2     0   503  1.119073185E+02  4.811998723E+01 -4.225072788E+02  4.397428160E+02  4.750000000E+00  0.00000E+00  9.000E+00
      21     1     1     2   503   512  1.272830087E+01 -1.201818964E+01 -3.863048135E+02  3.867012483E+02  5.394796609E-06  0.00000E+00  9.000E+00
#rwgt            1           9  -1.4190890305503137E-005          11      487606           0
</event>
<event>
      6   9999  3.45752E-01  2.17935E+01 -1.00000E+00  1.57415E-01
      21    -1     0     0   511   503  0.000000000E+00  0.000000000E+00  3.042035574E+02  3.042035574E+02  0.000000000E+00  0.00000E+00  9.000E+00
      21    -1     0     0   501   502  0.000000000E+00  0.000000000E+00 -4.296191297E+02  4.296191297E+02  0.000000000E+00  0.00000E+00  9.000E+00
      25     1     1     2     0     0 -8.628332670E+01 -6.855688557E+01  2.057984189E+02  2.648036466E+02  1.249924918E+02  0.00000E+00  9.000E+00
       5     1     1     2   501     0  8.975831025E-01  1.110311510E+01 -1.985774394E+02  1.989463414E+02  4.750000000E+00  0.00000E+00  9.000E+00
      -5     1     1     2     0   503  1.031884680E+02  7.002429609E+01 -1.793674880E+02  2.185097715E+02  4.750000000E+00  0.00000E+00  9.000E+00
      21     1     1     2   511   502 -1.780272436E+01 -1.257052563E+01  4.673093626E+01  5.156292770E+01  9.536743164E-07  0.00000E+00  9.000E+00
#rwgt            1           9   99.068055393935197               11      490443           0
</event>
<event>
      6   9999 -3.45752E-01  1.02856E+01 -1.00000E+00  1.85915E-01
      21    -1     0     0   502   503  0.000000000E+00  0.000000000E+00  1.288790801E+01  1.288790801E+01  0.000000000E+00  0.00000E+00  9.000E+00
      21    -1     0     0   501   512  0.000000000E+00  0.000000000E+00 -1.085705508E+03  1.085705508E+03  0.000000000E+00  0.00000E+00  9.000E+00
      25     1     1     2     0     0  1.040107234E+00 -1.736064259E+01 -7.583163207E+02  7.687469337E+02  1.250029282E+02  0.00000E+00  9.000E+00
       5     1     1     2   501     0 -2.603950353E+00 -1.065726173E+00  4.637426613E+00  7.210031575E+00  4.750000000E+00  0.00000E+00  9.000E+00
      -5     1     1     2     0   503 -7.936090331E+00  2.236898806E+01 -8.798177609E+01  9.125080044E+01  4.750000000E+00  0.00000E+00  9.000E+00
      21     1     1     2   502   512  9.499933450E+00 -3.942619296E+00 -2.311569303E+02  2.313856508E+02  4.672030912E-06  0.00000E+00  9.000E+00
#rwgt            1           9  -1.9047426991091448E-002          11      493261           0
</event>
<event>
      6   9999  3.45752E-01  3.45701E+00 -1.00000E+00  2.61738E-01
      21    -1     0     0   501   511  0.000000000E+00  0.000000000E+00  1.702479807E+02  1.702479807E+02  0.000000000E+00  0.00000E+00  9.000E+00
      21    -1     0     0   502   503  0.000000000E+00  0.000000000E+00 -1.261196914E+03  1.261196914E+03  0.000000000E+00  0.00000E+00  9.000E+00
      25     1     1     2     0     0  3.435731111E+00  1.751790475E+00 -1.209422196E+03  1.215870820E+03  1.249997112E+02  0.00000E+00  9.000E+00
       5     1     1     2   501     0  4.474323026E-01  1.012224156E+00  2.006433718E+00  5.273809787E+00  4.750000000E+00  0.00000E+00  9.000E+00
      -5     1     1     2     0   503 -1.875094334E+00  4.997644060E-02 -4.675938668E+01  4.703744486E+01  4.750000000E+00  0.00000E+00  9.000E+00
      21     1     1     2   502   511 -2.008069079E+00 -2.813991071E+00  1.632262161E+02  1.632628204E+02  4.672030912E-06  0.00000E+00  9.000E+00
#rwgt            1           9   1.8296738551145197E-004          11      495761           0
</event>
<event>
      6   9999  3.45752E-01  3.66904E+01 -1.00000E+00  1.42396E-01
      21    -1     0     0   502   503  0.000000000E+00  0.000000000E+00  2.830144566E+01  2.830144566E+01  0.000000000E+00  0.00000E+00  9.000E+00
      21    -1     0     0   501   512  0.000000000E+00  0.000000000E+00 -1.106322111E+03  1.106322111E+03  0.000000000E+00  0.00000E+00  9.000E+00
      25     1     1     2     0     0 -1.043250862E+02 -4.194707291E+01 -3.307179644E+02  3.710018916E+02  1.249990043E+02  0.00000E+00  9.000E+00
       5     1     1     2   501     0  4.464780284E+01 -1.523318320E+01 -2.878209730E+02  2.917001049E+02  4.750000000E+00  0.00000E+00  9.000E+00
      -5     1     1     2     0   503  2.415617973E+01  6.636922137E+01 -3.146848538E+02  3.225484681E+02  4.750000000E+00  0.00000E+00  9.000E+00
      21     1     1     2   502   512  3.552110359E+01 -9.188965259E+00 -1.447968744E+02  1.493730924E+02  2.697398305E-06  0.00000E+00  9.000E+00
#rwgt            1           9   30.952348654288439               11      501056           0
</event>
<event>
      6   9999 -3.45752E-01  1.62533E+01 -1.00000E+00  1.67405E-01
      -2    -1     0     0     0   503  0.000000000E+00  0.000000000E+00  2.724451623E+01  2.724451623E+01  0.000000000E+00  0.00000E+00  9.000E+00
      21    -1     0     0   501   502  0.000000000E+00  0.000000000E+00 -8.268380852E+02  8.268380852E+02  0.000000000E+00  0.00000E+00  9.000E+00
      25     1     1     2     0     0  5.804176293E+01  1.187824006E+01 -5.802194212E+02  5.964854423E+02  1.250214673E+02  0.00000E+00  9.000E+00
       5     1     1     2   501     0 -4.453590764E+01 -3.757044301E-03 -2.226147293E+02  2.270755982E+02  4.750000000E+00  0.00000E+00  9.000E+00
      -5     1     1     2     0   503  4.975748478E-01 -3.623770251E+00 -8.549707237E+00  1.044218777E+01  4.750000000E+00  0.00000E+00  9.000E+00
      -2     1     1     2     0   502 -1.400343013E+01 -8.250712761E+00  1.179028881E+01  2.007937316E+01  1.192092896E-06  0.00000E+00  9.000E+00
#rwgt            1           9  -2.6771876056675521               11      503018           0
</event>
<event>
      6   9999 -3.45752E-01  4.10034E+00 -1.00000E+00  2.45644E-01
      21    -1     0     0   511   502  0.000000000E+00  0.000000000E+00  1.670675553E+00  1.670675553E+00  0.000000000E+00  0.00000E+00  9.000E+00
      21    -1     0     0   502   503  0.000000000E+00  0.000000000E+00 -3.553615517E+03  3.553615517E+03  0.000000000E+00  0.00000E+00  9.000E+00
      25     1     1     2     0     0 -6.346399389E+00 -4.096642891E+00 -3.197426895E+03  3.199878174E+03  1.249980791E+02  0.00000E+00  9.000E+00
       5     1     1     2   501     0 -1.249421616E-01  9.084205031E-02 -6.169048132E+01  6.187327249E+01  4.750000000E+00  0.00000E+00  9.000E+00
      -5     1     1     2     0   503  2.892712122E+00  2.004253400E+00 -2.801148890E+02  2.801772624E+02  4.750000000E+00  0.00000E+00  9.000E+00
      21     1     1     2   511   501  3.578629429E+00  2.001547441E+00 -1.271257610E+01  1.335748374E+01  6.307962682E-07  0.00000E+00  9.000E+00
#rwgt            1           9  -6.6358667561653336E-006          11      504914           0
</event>
<event>
      6   9999  3.45752E-01  9.40446E+00 -1.00000E+00  1.90047E-01
      21    -1     0     0   501   502  0.000000000E+00  0.000000000E+00  1.486767256E+01  1.486767256E+01  0.000000000E+00  0.00000E+00  9.000E+00
       1    -1     0     0   502     0  0.000000000E+00  0.000000000E+00 -1.086025174E+03  1.086025174E+03  0.000000000E+00  0.00000E+00  9.000E+00
      25     1     1     2     0     0 -2.689148859E+01  3.061025723E+00 -7.858676076E+02  7.962072140E+02  1.250020354E+02  0.00000E+00  9.000E+00
       5     1     1     2   501     0  8.948868677E-01  4.905273096E-01  8.157293779E+00  9.494492158E+00  4.750000000E+00  0.00000E+00  9.000E+00
      -5     1     1     2     0   503  1.715014793E+01 -3.603095441E-01 -1.041152711E+02  1.056257997E+02  4.750000000E+00  0.00000E+00  9.000E+00
       1     1     1     2   503     0  8.846453792E+00 -3.191243488E+00 -1.893319165E+02  1.895653406E+02  2.697398305E-06  0.00000E+00  9.000E+00
#rwgt            1           9   2.8475614300397202E-003          11      508685           0
</event>
<event>
      6   9999  3.45752E-01  9.91217E+01 -1.00000E+00  1.20598E-01
      -2    -1     0     0     0   511  0.000000000E+00  0.000000000E+00  5.878382003E+01  5.878382003E+01  0.000000000E+00  0.00000E+00  9.000E+00
       2    -1     0     0   501     0  0.000000000E+00  0.000000000E+00 -1.567784604E+03  1.567784604E+03  0.000000000E+00  0.00000E+00  9.000E+00
      25     1     1     2     0     0  1.123706959E+02  1.857386035E+02 -3.886936925E+02  4.624213084E+02  1.249987111E+02  0.00000E+00  9.000E+00
       5     1     1     2   501     0 -1.042363055E+02 -9.617231840E+01 -5.745779387E+02  5.918417798E+02  4.750000000E+00  0.00000E+00  9.000E+00
      -5     1     1     2     0   502 -5.142056058E+01 -3.955448183E-01 -3.404895629E+02  3.443834134E+02  4.750000000E+00  0.00000E+00  9.000E+00
      21     1     1     2   502   511  4.328617012E+01 -8.917074029E+01 -2.052395903E+02  2.279219228E+02  0.000000000E+00  0.00000E+00  9.000E+00
#rwgt            1           3   9.8206408169641588E-005          11      511850           0
</event>
<event>
      6   9999  3.45752E-01  3.04941E+01 -1.00000E+00  1.47381E-01
      21    -1     0     0   501   502  0.000000000E+00  0.000000000E+00  7.150260323E+01  7.150260323E+01  0.000000000E+00  0.00000E+00  9.000E+00
      21    -1     0     0   512   503  0.000000000E+00  0.000000000E+00 -1.563263306E+03  1.563263306E+03  0.000000000E+00  0.00000E+00  9.000E+00
      25     1     1     2     0     0 -3.008623963E+01 -2.667867376E+01 -4.869490340E+02  5.043393803E+02  1.249876606E+02  0.00000E+00  9.000E+00
       5     1     1     2   501     0  3.480724784E+00 -1.670338131E+01  5.963725647E+01  6.221160062E+01  4.750000000E+00  0.00000E+00  9.000E+00
      -5     1     1     2     0   503  5.825217424E+00  2.106452760E+01 -9.332823526E+02  9.335502984E+02  4.750000000E+00  0.00000E+00  9.000E+00
      21     1     1     2   512   502  2.078029742E+01  2.231752747E+01 -1.311665729E+02  1.346646303E+02  0.000000000E+00  0.00000E+00  9.000E+00
#rwgt            1           9   2.7253332125144828E-004          11      513457           0
</event>
<event>
      6   9999  3.45752E-01  1.69462E+01 -1.00000E+00  1.65904E-01
      21    -1     0     0   502   503  0.000000000E+00  0.000000000E+00  8.969794736E+02  8.969794736E+02  0.000000000E+00  0.00000E+00  9.000E+00
      -4    -1     0     0     0   502  0.000000000E+00  0.000000000E+00 -1.742207525E+01  1.742207525E+01  0.000000000E+00  0.00000E+00  9.000E+00
      25     1     1     2     0     0 -7.862371210E+00  3.574881538E+00  8.027076051E+02  8.124276692E+02  1.249984864E+02  0.00000E+00  9.000E+00
       5     1     1     2   501     0 -5.710166639E-01 -2.464422782E-02  1.736293350E+01  1.801001463E+01  4.750000000E+00  0.00000E+00  9.000E+00
      -5     1     1     2     0   503  1.371401052E+01  1.255225886E+01  6.367863945E+01  6.650687866E+01  4.750000000E+00  0.00000E+00  9.000E+00
      -4     1     1     2     0   501 -5.280622646E+00 -1.610249617E+01 -4.191779704E+00  1.745698644E+01  8.301966356E-07  0.00000E+00  9.000E+00
#rwgt            1           9   3.9890968188249576               11      516410           0
</event>
<event>
      6   9999 -3.45752E-01  9.60654E+00 -1.00000E+00  1.89049E-01
      21    -1     0     0   501   502  0.000000000E+00  0.000000000E+00  2.141724822E+01  2.141724822E+01  0.000000000E+00  0.00000E+00  9.000E+00
      21    -1     0     0   502   511  0.000000000E+00  0.000000000E+00 -1.696747216E+03  1.696747216E+03  0.000000000E+00  0.00000E+00  9.000E+00
      25     1     1     2     0     0  1.407974923E+02  3.598315279E+00 -7.375119201E+02  7.611744710E+02  1.250034452E+02  0.00000E+00  9.000E+00
       5     1     1     2   501     0  9.731170982E-01 -1.044059429E+00  2.818295730E+00  5.704586558E+00  4.750000000E+00  0.00000E+00  9.000E+00
      -5     1     1     2     0   503 -1.321791318E+02 -3.092075295E+00 -8.715567386E+02  8.815410342E+02  4.750000000E+00  0.00000E+00  9.000E+00
      21     1     1     2   503   511 -9.591477634E+00  5.378194452E-01 -6.907960500E+01  6.974437267E+01  9.536743164E-07  0.00000E+00  9.000E+00
#rwgt            1           9  -10.856246857557098               11      517751           0
</event>
<event>
      6   9999 -3.45752E-01  1.94021E+01 -1.00000E+00  1.61223E-01
      21    -1     0     0   501   512  0.000000000E+00  0.000000000E+00  1.272341541E+02  1.272341541E+02  0.000000000E+00  0.00000E+00  9.000E+00
      21    -1     0     0   502   503  0.000000000E+00  0.000000000E+00 -1.834124756E+02  1.834124756E+02  0.000000000E+00  0.00000E+00  9.000E+00
      25     1     1     2     0     0 -9.749574163E+01 -1.907360090E+01 -1.479438109E+01  1.603549433E+02  1.250024490E+02  0.00000E+00  9.000E+00
       5     1     1     2   501     0 -1.652120416E+00 -1.403416959E+00  2.514751173E+01  2.568382618E+01  4.750000000E+00  0.00000E+00  9.000E+00
      -5     1     1     2     0   503  8.058786279E+01  1.482302065E+01 -6.579211530E+01  1.051916846E+02  4.750000000E+00  0.00000E+00  9.000E+00
      21     1     1     2   502   512  1.855999926E+01  5.653997209E+00 -7.393368595E-01  1.941617563E+01  3.136331615E-07  0.00000E+00  9.000E+00
#rwgt            1           9  -6.6580992095948354E-004          11      521061           0
</event>
<event>
      6   9999  3.45752E-01  7.89565E+00 -1.00000E+00  1.98693E-01
      21    -1     0     0   511   502  0.000000000E+00  0.000000000E+00  9.310420469E+00  9.310420469E+00  0.000000000E+00  0.00000E+00  9.000E+00
      21    -1     0     0   502   503  0.000000000E+00  0.000000000E+00 -6.807122589E+02  6.807122589E+02  0.000000000E+00  0.00000E+00  9.000E+00
      25     1     1     2     0     0  3.454233981E+00  6.596859612E+00 -6.049902277E+02  6.178127649E+02  1.249959465E+02  0.00000E+00  9.000E+00
       5     1     1     2   501     0  1.442414072E-01  2.248457296E-01 -2.083527381E+01  2.137153472E+01  4.750000000E+00  0.00000E+00  9.000E+00
      -5     1     1     2     0   503  1.355549419E+00 -6.736172646E-01 -4.178194009E+01  4.207831143E+01  4.750000000E+00  0.00000E+00  9.000E+00
      21     1     1     2   511   501 -4.954024808E+00 -6.148088077E+00 -3.794396809E+00  8.760068261E+00  1.519626234E-07  0.00000E+00  9.000E+00
#rwgt            1           9   9.5249939923517713E-004          11      523287           0
</event>
<event>
      6   9999  3.45752E-01  2.35169E+01 -1.00000E+00  1.55020E-01
      21    -1     0     0   502   503  0.000000000E+00  0.000000000E+00  1.314742649E+03  1.314742649E+03  0.000000000E+00  0.00000E+00  9.000E+00
      21    -1     0     0   501   512  0.000000000E+00  0.000000000E+00 -5.736230306E+01  5.736230306E+01  0.000000000E+00  0.00000E+00  9.000E+00
      25     1     1     2     0     0  5.249019512E+01  1.307093370E+02  3.114271235E+02  3.639401276E+02  1.250016476E+02  0.00000E+00  9.000E+00
       5     1     1     2   501     0 -4.316178064E+00  4.606983121E+00 -7.335751779E+00  1.078097587E+01  4.750000000E+00  0.00000E+00  9.000E+00
      -5     1     1     2     0   503 -2.576711081E+01 -1.424561477E+02  9.615952123E+02  9.724431155E+02  4.750000000E+00  0.00000E+00  9.000E+00
      21     1     1     2   502   512 -2.240690625E+01  7.139827590E+00 -8.306237926E+00  2.494073323E+01  9.078709013E-07  0.00000E+00  9.000E+00
#rwgt            1           9   4.5666221711907944E-003          11      525751           0
</event>
<event>
      6   9999  3.45752E-01  3.32474E+01 -1.00000E+00  1.45008E-01
      21    -1     0     0   501   502  0.000000000E+00  0.000000000E+00  2.145497106E+01  2.145497106E+01  0.000000000E+00  0.00000E+00  9.000E+00
      21    -1     0     0   511   503  0.000000000E+00  0.000000000E+00 -1.111568635E+03  1.111568635E+03  0.000000000E+00  0.00000E+00  9.000E+00
      25     1     1     2     0     0 -2.027955900E+01 -1.525884282E+01 -3.038803859E+02  3.295634783E+02  1.249988179E+02  0.00000E+00  9.000E+00
       5     1     1     2   501     0 -3.624121408E+00  2.665829101E-02  3.924502906E+00  7.148369723E+00  4.750000000E+00  0.00000E+00  9.000E+00
      -5     1     1     2     0   503 -8.783778555E+00  9.156175065E+00 -1.414316494E+01  1.958524756E+01  4.750000000E+00  0.00000E+00  9.000E+00
      21     1     1     2   511   502  3.268745896E+01  6.076009463E+00 -7.760146164E+02  7.767265109E+02  0.000000000E+00  0.00000E+00  9.000E+00
#rwgt            1           9   4.7229525340331387E-004          11      528561           0
</event>
<event>
      6   9999  3.45752E-01  8.59006E+00 -1.00000E+00  1.94425E-01
      21    -1     0     0   501   502  0.000000000E+00  0.000000000E+00  1.845405126E+02  1.845405126E+02  0.000000000E+00  0.00000E+00  9.000E+00
      -1    -1     0     0     0   503  0.000000000E+00  0.000000000E+00 -5.134333675E+02  5.134333675E+02  0.000000000E+00  0.00000E+00  9.000E+00
      25     1     1     2     0     0  2.064309552E+01  3.474519013E+00 -1.515751705E+02  1.976000286E+02  1.250301136E+02  0.00000E+00  9.000E+00
       5     1     1     2   501     0 -1.135830571E+01 -8.366111205E-01  1.584799357E+02  1.589596286E+02  4.750000000E+00  0.00000E+00  9.000E+00
      -5     1     1     2     0   503 -1.682607357E+01  1.475258774E+00 -2.524905716E+01  3.074687834E+01  4.750000000E+00  0.00000E+00  9.000E+00
      -1     1     1     2     0   502  7.541283769E+00 -4.113166667E+00 -3.105485628E+02  3.106673446E+02  7.629394531E-06  0.00000E+00  9.000E+00
#rwgt            1           9   22.094706300793419               11      529977           0
</event>
<event>
      6   9999  3.45752E-01  1.00331E+01 -1.00000E+00  1.87043E-01
      21    -1     0     0   501   502  0.000000000E+00  0.000000000E+00  3.228162556E+02  3.228162556E+02  0.000000000E+00  0.00000E+00  9.000E+00
      21    -1     0     0   511   503  0.000000000E+00  0.000000000E+00 -3.902421327E+01  3.902421327E+01  0.000000000E+00  0.00000E+00  9.000E+00
      25     1     1     2     0     0 -4.657551505E+01  2.221590278E+01  2.329371019E+02  2.693478169E+02  1.250029124E+02  0.00000E+00  9.000E+00
       5     1     1     2   501     0 -7.419498286E-01 -4.932498044E-01  3.593401994E+01  3.625755196E+01  4.750000000E+00  0.00000E+00  9.000E+00
      -5     1     1     2     0   503  3.766847691E+01 -1.897303479E+01  1.744591806E+01  4.588913551E+01  4.750000000E+00  0.00000E+00  9.000E+00
      21     1     1     2   511   502  9.648987975E+00 -2.749618188E+00 -2.524997533E+00  1.034596451E+01  1.264405455E-07  0.00000E+00  9.000E+00
#rwgt            1           9   3.1928046197149782               11      534660           0
</event>
<event>
      6   9999  3.45752E-01  4.26408E+00 -1.00000E+00  2.42240E-01
      21    -1     0     0   501   512  0.000000000E+00  0.000000000E+00  4.926031596E+01  4.926031596E+01  0.000000000E+00  0.00000E+00  9.000E+00
      21    -1     0     0   502   503  0.000000000E+00  0.000000000E+00 -1.955778843E+02  1.955778843E+02  0.000000000E+00  0.00000E+00  9.000E+00
      25     1     1     2     0     0  2.986502908E+00 -2.997725175E-01 -1.610135874E+02  2.038613304E+02  1.250002306E+02  0.00000E+00  9.000E+00
       5     1     1     2   501     0 -2.515929409E-01 -1.345737435E+00  1.511903543E+01  1.590666655E+01  4.750000000E+00  0.00000E+00  9.000E+00
      -5     1     1     2     0   503  1.495475722E+00  2.180507040E+00 -1.176113455E+01  1.295676828E+01  4.750000000E+00  0.00000E+00  9.000E+00
      21     1     1     2   502   512 -4.230385690E+00 -5.349970877E-01  1.133811814E+01  1.211343502E+01  1.685873940E-07  0.00000E+00  9.000E+00
#rwgt            1           9  0.29479534941490287               11      537591           0
</event>
<event>
      6   9999  3.45752E-01  1.31430E+01 -1.00000E+00  1.75500E-01
      21    -1     0     0   501   502  0.000000000E+00  0.000000000E+00  1.262502794E+01  1.262502794E+01  0.000000000E+00  0.00000E+00  9.000E+00
      21    -1     0     0   502   511  0.000000000E+00  0.000000000E+00 -1.148429438E+03  1.148429438E+03  0.000000000E+00  0.00000E+00  9.000E+00
      25     1     1     2     0     0 -1.454742676E+01 -2.435856537E+01 -5.339059250E+02  5.490767180E+02  1.249989528E+02  0.00000E+00  9.000E+00
       5     1     1     2   501     0  1.117577637E+00 -8.815663889E-01  2.940608905E+00  5.765051588E+00  4.750000000E+00  0.00000E+00  9.000E+00
      -5     1     1     2     0   503  2.127260083E+01  1.469352491E+01 -3.232511979E+02  3.243182428E+02  4.750000000E+00  0.00000E+00  9.000E+00
      21     1     1     2   503   511 -7.842751703E+00  1.054660685E+01 -2.815878962E+02  2.818944536E+02  3.814697266E-06  0.00000E+00  9.000E+00
#rwgt            1           9   9.2626506022883429E-002          11      542126           0
</event>
<event>
      6   9999  3.45752E-01  3.12766E+00 -1.00000E+00  2.72262E-01
      21    -1     0     0   502   512  0.000000000E+00  0.000000000E+00  2.776322485E+02  2.776322485E+02  0.000000000E+00  0.00000E+00  9.000E+00
      21    -1     0     0   501   502  0.000000000E+00  0.000000000E+00 -6.446275058E+01  6.446275058E+01  0.000000000E+00  0.00000E+00  9.000E+00
      25     1     1     2     0     0 -2.683255284E+00 -1.804902598E+01 -3.929823341E-01  1.263266154E+02  1.250011685E+02  0.00000E+00  9.000E+00
       5     1     1     2   501     0 -3.297722592E-01 -1.876406558E-01  1.881325257E+01  1.940734219E+01  4.750000000E+00  0.00000E+00  9.000E+00
      -5     1     1     2     0   503  6.140690038E+00  1.823368462E+01  1.267486211E+02  1.282885450E+02  4.750000000E+00  0.00000E+00  9.000E+00
      21     1     1     2   503   512 -3.127662495E+00  2.982018690E-03  6.800060660E+01  6.807249650E+01  0.000000000E+00  0.00000E+00  9.000E+00
#rwgt            1           9   2.3861854468036046E-002          11      544269           0
</event>
<event>
      6   9999  3.45752E-01  3.88256E+01 -1.00000E+00  1.40941E-01
      21    -1     0     0   511   502  0.000000000E+00  0.000000000E+00  4.679490610E+02  4.679490610E+02  0.000000000E+00  0.00000E+00  9.000E+00
      21    -1     0     0   502   503  0.000000000E+00  0.000000000E+00 -1.914698794E+01  1.914698794E+01  0.000000000E+00  0.00000E+00  9.000E+00
      25     1     1     2     0     0 -5.328390523E-01  3.262976314E+01  2.439677748E+02  2.760625861E+02  1.250011638E+02  0.00000E+00  9.000E+00
       5     1     1     2   501     0  3.008901105E-01  2.688377839E+00  3.046243640E+01  3.094899743E+01  4.750000000E+00  0.00000E+00  9.000E+00
      -5     1     1     2     0   503 -1.211898619E+00  3.480585541E+00  1.863148791E+01  1.957748747E+01  4.750000000E+00  0.00000E+00  9.000E+00
      21     1     1     2   511   501  1.443847560E+00 -3.879872652E+01  1.557403739E+02  1.605069779E+02  3.303624740E-06  0.00000E+00  9.000E+00
#rwgt            1           9   5.5160339893918823E-004          11      551049           0
</event>
<event>
      6   9999  3.45752E-01  1.64968E+01 -1.00000E+00  1.66868E-01
      21    -1     0     0   501   502  0.000000000E+00  0.000000000E+00  1.022748743E+03  1.022748743E+03  0.000000000E+00  0.00000E+00  9.000E+00
      21    -1     0     0   502   512  0.000000000E+00  0.000000000E+00 -1.623897919E+02  1.623897919E+02  0.000000000E+00  0.00000E+00  9.000E+00
      25     1     1     2     0     0  9.945287284E+01 -9.058057893E+01  2.076605784E+02  2.772104139E+02  1.250079300E+02  0.00000E+00  9.000E+00
       5     1     1     2   501     0  4.834779712E+00 -7.432713644E+00  7.179485914E+02  7.180190546E+02  4.750000000E+00  0.00000E+00  9.000E+00
      -5     1     1     2     0   503 -1.113211644E+02  1.129355121E+02 -6.897980058E+01  1.729959737E+02  4.750000000E+00  0.00000E+00  9.000E+00
      21     1     1     2   503   512  7.033511829E+00 -1.492221951E+01  3.729581746E+00  1.691309267E+01  2.763753681E-07  0.00000E+00  9.000E+00
#rwgt            1           9   6.2139031849394984E-003          11      551736           0
</event>
<event>
      6   9999  3.45752E-01  1.28021E+01 -1.00000E+00  1.76559E-01
      21    -1     0     0   501   502  0.000000000E+00  0.000000000E+00  2.621660558E+03  2.621660558E+03  0.000000000E+00  0.00000E+00  9.000E+00
      21    -1     0     0   511   503  0.000000000E+00  0.000000000E+00 -4.061675317E+00  4.061675317E+00  0.000000000E+00  0.00000E+00  9.000E+00
      25     1     1     2     0     0  5.352260272E+00 -9.713503370E+00  1.329294016E+03  1.335204021E+03  1.249967916E+02  0.00000E+00  9.000E+00
       5     1     1     2   501     0  2.837697480E+00 -2.720673762E-01  1.207133809E+03  1.207146520E+03  4.750000000E+00  0.00000E+00  9.000E+00
      -5     1     1     2     0   503  2.797946387E-01  3.856672460E-01  3.925418764E+01  3.954340364E+01  4.750000000E+00  0.00000E+00  9.000E+00
      21     1     1     2   511   502 -8.469752390E+00  9.599903501E+00  4.191687028E+01  4.382828843E+01  6.743495762E-07  0.00000E+00  9.000E+00
#rwgt            1           9   3.4074364125719465E-002          11      554993           0
</event>
<event>
      6   9999  3.45752E-01  2.48818E+00 -1.00000E+00  3.00042E-01
      21    -1     0     0   501   502  0.000000000E+00  0.000000000E+00  2.069439489E+01  2.069439489E+01  0.000000000E+00  0.00000E+00  9.000E+00
      21    -1     0     0   512   503  0.000000000E+00  0.000000000E+00 -1.074064925E+03  1.074064925E+03  0.000000000E+00  0.00000E+00  9.000E+00
      25     1     1     2     0     0 -4.754097357E+00  5.706478027E+00 -8.198335017E+02  8.293419091E+02  1.250034652E+02  0.00000E+00  9.000E+00
       5     1     1     2   501     0  3.578494855E+00  1.283873864E+00  1.522985896E+01  1.640015431E+01  4.750000000E+00  0.00000E+00  9.000E+00
      -5     1     1     2     0   503 -1.312106073E+00 -6.941868568E+00 -1.727187588E+02  1.729284341E+02  4.750000000E+00  0.00000E+00  9.000E+00
      21     1     1     2   512   502  2.487708575E+00 -4.848332343E-02 -7.604812826E+01  7.608882215E+01  1.651812370E-06  0.00000E+00  9.000E+00
#rwgt            1           9   1.6727333714292747E-002          11      556998           0
</event>
<event>
      6   9999  3.45752E-01  6.32114E+00 -1.00000E+00  2.10952E-01
      21    -1     0     0   511   502  0.000000000E+00  0.000000000E+00  5.325828638E+02  5.325828638E+02  0.000000000E+00  0.00000E+00  9.000E+00
      21    -1     0     0   502   503  0.000000000E+00  0.000000000E+00 -1.000824542E+03  1.000824542E+03  0.000000000E+00  0.00000E+00  9.000E+00
      25     1     1     2     0     0  1.004466806E+00 -6.394313412E+00 -9.270588149E+02  9.354708604E+02  1.250031527E+02  0.00000E+00  9.000E+00
       5     1     1     2   501     0  5.089440893E+00  1.427416608E+00  4.881256105E+00  8.621431896E+00  4.750000000E+00  0.00000E+00  9.000E+00
      -5     1     1     2     0   503 -3.284594087E-02  6.761418655E+00 -6.741820347E+01  6.792270990E+01  4.750000000E+00  0.00000E+00  9.000E+00
      21     1     1     2   511   501 -6.061061758E+00 -1.794521851E+00  5.213540845E+02  5.213924033E+02  0.000000000E+00  0.00000E+00  9.000E+00
#rwgt            1           9   3.3469613739302525E-003          11      565826           0
</event>
<event>
      6   9999  3.45752E-01  6.52213E+00 -1.00000E+00  2.09132E-01
      21    -1     0     0   501   502  0.000000000E+00  0.000000000E+00  4.710422182E+01  4.710422182E+01  0.000000000E+00  0.00000E+00  9.000E+00
       2    -1     0     0   502     0  0.000000000E+00  0.000000000E+00 -2.397130662E+03  2.397130662E+03  0.000000000E+00  0.00000E+00  9.000E+00
      25     1     1     2     0     0 -3.850723281E+01 -2.884921367E+01 -7.584715018E+02  7.702073473E+02  1.250010188E+02  0.00000E+00  9.000E+00
       5     1     1     2   501     0  7.451824806E+00 -3.617092544E+00  3.976338594E+01  4.089379431E+01  4.750000000E+00  0.00000E+00  9.000E+00
      -5     1     1     2     0   503  2.602701601E+01  3.662002828E+01 -5.674898238E+02  5.692852490E+02  4.750000000E+00  0.00000E+00  9.000E+00
       2     1     1     2   503     0  5.028392003E+00 -4.153722063E+00 -1.063828501E+03  1.063848493E+03  0.000000000E+00  0.00000E+00  9.000E+00
#rwgt            1           9   4.5781180384608849E-006          11      569084           0
</event>
<event>
      6   9999  3.45752E-01  1.85958E+01 -1.00000E+00  1.62662E-01
      21    -1     0     0   501   511  0.000000000E+00  0.000000000E+00  6.602443717E+01  6.602443717E+01  0.000000000E+00  0.00000E+00  9.000E+00
      21    -1     0     0   502   503  0.000000000E+00  0.000000000E+00 -2.506929890E+03  2.506929890E+03  0.000000000E+00  0.00000E+00  9.000E+00
      25     1     1     2     0     0 -9.089404133E+00  3.785287703E+01 -6.156299657E+02  6.293691579E+02  1.248592195E+02  0.00000E+00  9.000E+00
       5     1     1     2   501     0 -3.740577184E+00 -1.508273578E+00  5.625455621E+01  5.659862544E+01  4.750000000E+00  0.00000E+00  9.000E+00
      -5     1     1     2     0   503  2.662641997E+01 -2.387609726E+01 -1.850211772E+03  1.850563481E+03  4.750000000E+00  0.00000E+00  9.000E+00
      21     1     1     2   502   511 -1.379643866E+01 -1.246850620E+01 -3.131827105E+01  3.642306231E+01  0.000000000E+00  0.00000E+00  9.000E+00
#rwgt            1           9   2.6529767001315274E-003          11      574204           0
</event>
<event>
      6   9999  3.45752E-01  4.02831E+01 -1.00000E+00  1.40008E-01
      21    -1     0     0   501   512  0.000000000E+00  0.000000000E+00  3.359132432E+02  3.359132432E+02  0.000000000E+00  0.00000E+00  9.000E+00
      21    -1     0     0   502   503  0.000000000E+00  0.000000000E+00 -1.378589269E+03  1.378589269E+03  0.000000000E+00  0.00000E+00  9.000E+00
      25     1     1     2     0     0  4.341008987E+00  7.762591638E+01 -3.964456134E+02  4.228968865E+02  1.250120991E+02  0.00000E+00  9.000E+00
       5     1     1     2   501     0  6.056685565E+01 -1.930427418E+02 -2.662366982E+02  3.344224665E+02  4.750000000E+00  0.00000E+00  9.000E+00
      -5     1     1     2     0   503 -2.925953996E+01  9.665720841E+01 -6.633336848E+02  6.709939467E+02  4.750000000E+00  0.00000E+00  9.000E+00
      21     1     1     2   502   512 -3.564832467E+01  1.875961704E+01  2.833399707E+02  2.861892124E+02  3.814697266E-06  0.00000E+00  9.000E+00
#rwgt            1           9  0.14761599238540959               11      577300           0
</event>
<event>
      6   9999  3.45752E-01  1.12184E+01 -1.00000E+00  1.82083E-01
      21    -1     0     0   501   502  0.000000000E+00  0.000000000E+00  9.443584877E+00  9.443584877E+00  0.000000000E+00  0.00000E+00  9.000E+00
       2    -1     0     0   502     0  0.000000000E+00  0.000000000E+00 -9.987425807E+02  9.987425807E+02  0.000000000E+00  0.00000E+00  9.000E+00
      25     1     1     2     0     0  2.259705679E+01  1.488517349E+01 -7.223960150E+02  7.336301325E+02  1.249998935E+02  0.00000E+00  9.000E+00
       5     1     1     2   501     0  6.435611508E-01  4.563446533E-01 -1.888364769E+00  5.172121702E+00  4.750000000E+00  0.00000E+00  9.000E+00
      -5     1     1     2     0   503 -1.549431493E+01 -7.226857964E+00 -3.640528456E+01  4.049948784E+01  4.750000000E+00  0.00000E+00  9.000E+00
       2     1     1     2   503     0 -7.746303004E+00 -8.114660181E+00 -2.286093314E+02  2.288844235E+02  3.814697266E-06  0.00000E+00  9.000E+00
#rwgt            1           9   3.6427132773041637E-003          11      578750           0
</event>
<event>
      6   9999 -3.45752E-01  3.06734E+00 -1.00000E+00  2.74414E-01
      21    -1     0     0   501   502  0.000000000E+00  0.000000000E+00  3.375371301E+01  3.375371301E+01  0.000000000E+00  0.00000E+00  9.000E+00
      21    -1     0     0   502   511  0.000000000E+00  0.000000000E+00 -1.144782907E+03  1.144782907E+03  0.000000000E+00  0.00000E+00  9.000E+00
      25     1     1     2     0     0 -3.940793274E+00 -1.018151627E+01 -1.396811520E+02  1.877669748E+02  1.250056779E+02  0.00000E+00  9.000E+00
       5     1     1     2   501     0  3.074836858E-03  7.408596111E-02 -2.554179170E+00  5.393684215E+00  4.750000000E+00  0.00000E+00  9.000E+00
      -5     1     1     2     0   503  2.947219550E+00  1.301044211E+01  2.240574019E+00  1.433667949E+01  4.750000000E+00  0.00000E+00  9.000E+00
      21     1     1     2   503   511  9.904988870E-01 -2.903011799E+00 -9.710344367E+02  9.710392813E+02  1.868812365E-05  0.00000E+00  9.000E+00
#rwgt            1           9  -1.5917111972890208E-004          11      580980           0
</event>
<event>
      6   9999 -3.45752E-01  1.29388E+01 -1.00000E+00  1.76130E-01
      21    -1     0     0   501   512  0.000000000E+00  0.000000000E+00  2.509778595E+01  2.509778595E+01  0.000000000E+00  0.00000E+00  9.000E+00
      21    -1     0     0   502   503  0.000000000E+00  0.000000000E+00 -9.345674093E+02  9.345674093E+02  0.000000000E+00  0.00000E+00  9.000E+00
      25     1     1     2     0     0  5.626045772E+00  7.771025121E-01 -8.331951492E+02  8.425460136E+02  1.250494787E+02  0.00000E+00  9.000E+00
       5     1     1     2   501     0  6.791285760E+00 -5.480181452E+00  9.695130844E+00  1.388207525E+01  4.750000000E+00  0.00000E+00  9.000E+00
      -5     1     1     2     0   503 -5.038200184E+00 -5.925194362E+00 -8.939041356E+01  8.985376968E+01  4.750000000E+00  0.00000E+00  9.000E+00
      21     1     1     2   502   512 -7.379131349E+00  1.062827330E+01  3.420808498E+00  1.338333679E+01  7.300048300E-08  0.00000E+00  9.000E+00
#rwgt            1           9  -5.0249445050730582E-005          11      586867           0
</event>
<event>
      6   9999  3.45752E-01  6.29226E+00 -1.00000E+00  2.11221E-01
      21    -1     0     0   501   511  0.000000000E+00  0.000000000E+00  1.667251964E+01  1.667251964E+01  0.000000000E+00  0.00000E+00  9.000E+00
      21    -1     0     0   502   503  0.000000000E+00  0.000000000E+00 -2.261697694E+03  2.261697694E+03  0.000000000E+00  0.00000E+00  9.000E+00
      25     1     1     2     0     0  3.453103995E+01 -7.801953089E+01 -1.442574178E+03  1.450491119E+03  1.249991456E+02  0.00000E+00  9.000E+00
       5     1     1     2   501     0  6.859855800E-01  1.548184019E+00  2.539906448E-01  5.049204019E+00  4.750000000E+00  0.00000E+00  9.000E+00
      -5     1     1     2     0   503 -3.069699760E+01  7.209391924E+01 -8.096567137E+02  8.134533763E+02  4.750000000E+00  0.00000E+00  9.000E+00
      21     1     1     2   502   511 -4.520027929E+00  4.377427640E+00  6.951726632E+00  9.376514725E+00  7.202056631E-07  0.00000E+00  9.000E+00
#rwgt            1           9   2.5152255175683289E-004          11      589335           0
</event>
<event>
      6   9999  3.45752E-01  3.58211E+00 -1.00000E+00  2.58205E-01
      21    -1     0     0   501   502  0.000000000E+00  0.000000000E+00  8.251650128E+02  8.251650128E+02  0.000000000E+00  0.00000E+00  9.000E+00
      21    -1     0     0   502   512  0.000000000E+00  0.000000000E+00 -3.611247333E+01  3.611247333E+01  0.000000000E+00  0.00000E+00  9.000E+00
      25     1     1     2     0     0  4.701292323E-02  6.838892151E-01  2.954329499E+02  3.207875570E+02  1.249942356E+02  0.00000E+00  9.000E+00
       5     1     1     2   501     0  2.455185735E-01  8.664084352E-01  4.991023125E+02  4.991257275E+02  4.750000000E+00  0.00000E+00  9.000E+00
      -5     1     1     2     0   503  9.666393031E-01  1.803204846E+00  1.742590855E+01  1.817720352E+01  4.750000000E+00  0.00000E+00  9.000E+00
      21     1     1     2   503   512 -1.259170800E+00 -3.353502497E+00 -2.290863146E+01  2.318699820E+01  8.920806376E-07  0.00000E+00  9.000E+00
#rwgt            1           9  0.46902121225042487               11      594098           0
</event>
<event>
      6   9999  3.45752E-01  1.05617E+01 -1.00000E+00  1.84728E-01
      21    -1     0     0   501   502  0.000000000E+00  0.000000000E+00  2.867566019E+03  2.867566019E+03  0.000000000E+00  0.00000E+00  9.000E+00
       1    -1     0     0   502     0  0.000000000E+00  0.000000000E+00 -5.053486375E+01  5.053486375E+01  0.000000000E+00  0.00000E+00  9.000E+00
      25     1     1     2     0     0  3.899692429E+00  3.506459140E+01  1.257909613E+03  1.264597347E+03  1.250004918E+02  0.00000E+00  9.000E+00
       5     1     1     2   501     0 -6.210047395E-01 -4.505791771E-01  3.730477723E+02  3.730788008E+02  4.750000000E+00  0.00000E+00  9.000E+00
      -5     1     1     2     0   503 -1.183144486E+01 -4.081069561E+01  1.232282677E+03  1.233024191E+03  4.750000000E+00  0.00000E+00  9.000E+00
       1     1     1     2   503     0  8.552757173E+00  6.196683385E+00 -4.620890683E+01  4.740054441E+01  3.693564745E-06  0.00000E+00  9.000E+00
#rwgt            1           9   1.1414678919287333E-002          11      599620           0
</event>
<event>
      6   9999  3.45752E-01  2.38325E+01 -1.00000E+00  1.54608E-01
      21    -1     0     0   501   511  0.000000000E+00  0.000000000E+00  6.673455805E+01  6.673455805E+01  0.000000000E+00  0.00000E+00  9.000E+00
      21    -1     0     0   502   503  0.000000000E+00  0.000000000E+00 -1.460433089E+03  1.460433089E+03  0.000000000E+00  0.00000E+00  9.000E+00
      25     1     1     2     0     0 -2.386943204E+01  1.770026563E+01 -1.410228379E+03  1.416069507E+03  1.250028726E+02  0.00000E+00  9.000E+00
       5     1     1     2   501     0  3.816998850E+00  1.132841753E-02  5.791237432E+01  5.823208058E+01  4.750000000E+00  0.00000E+00  9.000E+00
      -5     1     1     2     0   503  2.224105646E+00 -1.895888505E+00 -2.028255760E+01  2.103534364E+01  4.750000000E+00  0.00000E+00  9.000E+00
      21     1     1     2   502   511  1.782832754E+01 -1.581570554E+01 -2.109996881E+01  3.183071612E+01  2.384185791E-07  0.00000E+00  9.000E+00
#rwgt            1           9   2.1375300040318341E-004          11      601678           0
</event>
<event>
      6   9999  3.45752E-01  9.50358E+00 -1.00000E+00  1.89553E-01
      21    -1     0     0   501   512  0.000000000E+00  0.000000000E+00  4.338672984E+01  4.338672984E+01  0.000000000E+00  0.00000E+00  9.000E+00
      21    -1     0     0   502   503  0.000000000E+00  0.000000000E+00 -3.459308090E+02  3.459308090E+02  0.000000000E+00  0.00000E+00  9.000E+00
      25     1     1     2     0     0 -1.359791538E+01  1.321987039E+00 -3.168097549E+02  3.408514514E+02  1.249985607E+02  0.00000E+00  9.000E+00
       5     1     1     2   501     0  2.531531644E-01 -4.106335293E+00  3.789442624E+00  7.338150412E+00  4.750000000E+00  0.00000E+00  9.000E+00
      -5     1     1     2     0   503  1.459839264E+01 -6.636180299E+00 -9.336193135E+00  1.915408465E+01  4.750000000E+00  0.00000E+00  9.000E+00
      21     1     1     2   502   512 -1.253630422E+00  9.420528554E+00  1.981242633E+01  2.197385229E+01  7.152557373E-07  0.00000E+00  9.000E+00
#rwgt            1           9   1.6435421067443534E-005          11      604706           0
</event>
<event>
      6   9999  3.45752E-01  4.10842E+00 -1.00000E+00  2.45470E-01
      21    -1     0     0   511   502  0.000000000E+00  0.000000000E+00  2.117011257E+01  2.117011257E+01  0.000000000E+00  0.00000E+00  9.000E+00
      21    -1     0     0   502   503  0.000000000E+00  0.000000000E+00 -3.880954223E+02  3.880954223E+02  0.000000000E+00  0.00000E+00  9.000E+00
      25     1     1     2     0     0  7.367847785E+00 -3.932479864E+00 -3.617004650E+02  3.827827177E+02  1.250025321E+02  0.00000E+00  9.000E+00
       5     1     1     2   501     0 -2.473991652E-01  2.148056396E-01 -1.891820053E+00  5.123361291E+00  4.750000000E+00  0.00000E+00  9.000E+00
      -5     1     1     2     0   503 -9.984469392E+00  7.720842872E-01 -9.057092787E+00  1.431360098E+01  4.750000000E+00  0.00000E+00  9.000E+00
      21     1     1     2   511   501  2.864020772E+00  2.945589937E+00  5.724068117E+00  7.045854871E+00  3.153981341E-07  0.00000E+00  9.000E+00
#rwgt            1           9   3.4604625927219550E-005          11      606680           0
</event>
<event>
      6   9999  3.45752E-01  4.49188E+00 -1.00000E+00  2.37866E-01
      21    -1     0     0   512   502  0.000000000E+00  0.000000000E+00  1.332719387E+01  1.332719387E+01  0.000000000E+00  0.00000E+00  9.000E+00
      21    -1     0     0   502   503  0.000000000E+00  0.000000000E+00 -7.248724827E+02  7.248724827E+02  0.000000000E+00  0.00000E+00  9.000E+00
      25     1     1     2     0     0  3.425430224E+00 -8.738171847E+00 -6.182001175E+02  6.307816548E+02  1.250040860E+02  0.00000E+00  9.000E+00
       5     1     1     2   501     0  1.712960144E-01 -1.938136099E+00  9.706570726E-01  5.224020388E+00  4.750000000E+00  0.00000E+00  9.000E+00
      -5     1     1     2     0   503 -1.978273438E+00  6.486132099E+00 -9.673734787E+01  9.709099056E+01  4.750000000E+00  0.00000E+00  9.000E+00
      21     1     1     2   512   501 -1.618452800E+00  4.190175847E+00  2.421519466E+00  5.103010839E+00  5.161913656E-08  0.00000E+00  9.000E+00
#rwgt            1           9  0.50348068077250552               11      610975           0
</event>
<event>
      6   9999  3.45752E-01  1.68530E+01 -1.00000E+00  1.66101E-01
      21    -1     0     0   501   511  0.000000000E+00  0.000000000E+00  2.146156288E+01  2.146156288E+01  0.000000000E+00  0.00000E+00  9.000E+00
      21    -1     0     0   502   503  0.000000000E+00  0.000000000E+00 -1.078234167E+03  1.078234167E+03  0.000000000E+00  0.00000E+00  9.000E+00
      25     1     1     2     0     0 -1.585447640E+01 -8.661018822E+00 -9.536171651E+02  9.619447091E+02  1.250021922E+02  0.00000E+00  9.000E+00
       5     1     1     2   501     0 -2.688944786E+00 -8.284860510E-02  1.281069773E+01  1.392529226E+01  4.750000000E+00  0.00000E+00  9.000E+00
      -5     1     1     2     0   503  2.496381377E+00  3.594491979E+00 -1.012385600E+02  1.014443731E+02  4.750000000E+00  0.00000E+00  9.000E+00
      21     1     1     2   502   511  1.604703981E+01  5.149375448E+00 -1.472757657E+01  2.238135531E+01  2.384185791E-07  0.00000E+00  9.000E+00
#rwgt            1           9   1.0730934522925513               11      615640           0
</event>
<event>
      6   9999 -3.45752E-01  2.01196E+01 -1.00000E+00  1.60013E-01
      21    -1     0     0   501   502  0.000000000E+00  0.000000000E+00  2.070428931E+01  2.070428931E+01  0.000000000E+00  0.00000E+00  9.000E+00
      21    -1     0     0   502   512  0.000000000E+00  0.000000000E+00 -1.468832790E+03  1.468832790E+03  0.000000000E+00  0.00000E+00  9.000E+00
      25     1     1     2     0     0 -2.963044012E+00 -6.924542070E+01 -5.765786682E+02  5.940268277E+02  1.249848131E+02  0.00000E+00  9.000E+00
       5     1     1     2   501     0 -1.320623007E+00  2.754873677E+00  6.390802409E+00  8.528671030E+00  4.750000000E+00  0.00000E+00  9.000E+00
      -5     1     1     2     0   503  1.124417221E+01  8.536782474E+01 -4.285314547E+02  4.371222564E+02  4.750000000E+00  0.00000E+00  9.000E+00
      21     1     1     2   503   512 -6.960505193E+00 -1.887727772E+01 -4.494091802E+02  4.498593242E+02  5.394796609E-06  0.00000E+00  9.000E+00
#rwgt            1           9  -1.9535321367689809E-004          11      617557           0
</event>
<event>
      6   9999  3.45752E-01  1.45697E+01 -1.00000E+00  1.71474E-01
       3    -1     0     0   502     0  0.000000000E+00  0.000000000E+00  8.007467962E+01  8.007467962E+01  0.000000000E+00  0.00000E+00  9.000E+00
      21    -1     0     0   501   502  0.000000000E+00  0.000000000E+00 -8.836921204E+02  8.836921204E+02  0.000000000E+00  0.00000E+00  9.000E+00
      25     1     1     2     0     0 -5.035929854E+01  4.170739340E+01 -7.141430739E+02  7.279346911E+02  1.249520664E+02  0.00000E+00  9.000E+00
       5     1     1     2   501     0  5.383013722E+01 -2.787236972E+01 -1.319737425E+02  1.453072052E+02  4.750000000E+00  0.00000E+00  9.000E+00
      -5     1     1     2     0   503 -4.786488907E+00  6.751465638E-01 -2.271416783E+01  2.370363304E+01  4.750000000E+00  0.00000E+00  9.000E+00
       3     1     1     2   503     0  1.315650222E+00 -1.451017025E+01  6.521354343E+01  6.682127074E+01  1.348699152E-06  0.00000E+00  9.000E+00
#rwgt            1           9   6.2405810937771148E-003          11      619237           0
</event>
<event>
      6   9999  3.45752E-01  7.98119E+01 -1.00000E+00  1.24749E-01
      21    -1     0     0   501   502  0.000000000E+00  0.000000000E+00  1.795492296E+02  1.795492296E+02  0.000000000E+00  0.00000E+00  9.000E+00
      21    -1     0     0   511   503  0.000000000E+00  0.000000000E+00 -1.446346496E+03  1.446346496E+03  0.000000000E+00  0.00000E+00  9.000E+00
      25     1     1     2     0     0 -1.416523417E+02  1.295007464E+02 -4.074170323E+02  4.673860392E+02  1.250009686E+02  0.00000E+00  9.000E+00
       5     1     1     2   501     0  1.264916364E+01  7.767412349E+00  5.527600871E+01  5.743112113E+01  4.750000000E+00  0.00000E+00  9.000E+00
      -5     1     1     2     0   503  1.794103013E+02 -7.538869729E+01 -1.214212271E+01  1.950423173E+02  4.750000000E+00  0.00000E+00  9.000E+00
      21     1     1     2   511   502 -5.040712322E+01 -6.187946149E+01 -9.025141198E+02  9.060362478E+02  0.000000000E+00  0.00000E+00  9.000E+00
#rwgt            1           9   1.2321259053828958E-003          11      621286           0
</event>
<event>
      6   9999 -3.45752E-01  5.40999E+00 -1.00000E+00  2.20518E-01
      21    -1     0     0   502   503  0.000000000E+00  0.000000000E+00  1.360111799E+01  1.360111799E+01  0.000000000E+00  0.00000E+00  9.000E+00
      21    -1     0     0   501   512  0.000000000E+00  0.000000000E+00 -8.747591047E+02  8.747591047E+02  0.000000000E+00  0.00000E+00  9.000E+00
      25     1     1     2     0     0 -2.557806006E+00  1.351926023E+01 -2.945238437E+02  3.202455693E+02  1.249944694E+02  0.00000E+00  9.000E+00
       5     1     1     2   501     0  1.162229203E-01 -8.907148388E+00 -5.281480926E+02  5.282445655E+02  4.750000000E+00  0.00000E+00  9.000E+00
      -5     1     1     2     0   503  1.205428175E+00  6.547527105E-01 -1.625718345E+01  1.699235922E+01  4.750000000E+00  0.00000E+00  9.000E+00
      21     1     1     2   502   512  1.236154911E+00 -5.266864551E+00 -2.222886700E+01  2.287772867E+01  2.384185791E-07  0.00000E+00  9.000E+00
#rwgt            1           9  -3.0828837308501183E-005          11      622290           0
</event>
<event>
      6   9999  3.45752E-01  1.87081E+01 -1.00000E+00  1.62456E-01
      21    -1     0     0   511   502  0.000000000E+00  0.000000000E+00  3.121206857E+01  3.121206857E+01  0.000000000E+00  0.00000E+00  9.000E+00
      21    -1     0     0   502   503  0.000000000E+00  0.000000000E+00 -1.039948241E+03  1.039948241E+03  0.000000000E+00  0.00000E+00  9.000E+00
      25     1     1     2     0     0 -1.735840688E+01  5.164533205E+00 -9.191059440E+02  9.277442773E+02  1.250028844E+02  0.00000E+00  9.000E+00
       5     1     1     2   501     0 -3.668284348E+00  3.500353736E-01  2.084101154E+01  2.169076063E+01  4.750000000E+00  0.00000E+00  9.000E+00
      -5     1     1     2     0   503  3.033651932E+00 -3.916905641E-01 -1.002460823E+02  1.004051591E+02  4.750000000E+00  0.00000E+00  9.000E+00
      21     1     1     2   511   501  1.799303930E+01 -5.122878014E+00 -1.022515746E+01  2.132011228E+01  2.384185791E-07  0.00000E+00  9.000E+00
#rwgt            1           9  0.18141691290972953               11      626694           0
</event>
<event>
      6   9999  3.45752E-01  1.09765E+01 -1.00000E+00  1.83030E-01
      21    -1     0     0   501   512  0.000000000E+00  0.000000000E+00  3.479715487E+01  3.479715487E+01  0.000000000E+00  0.00000E+00  9.000E+00
      21    -1     0     0   502   503  0.000000000E+00  0.000000000E+00 -2.413926357E+03  2.413926357E+03  0.000000000E+00  0.00000E+00  9.000E+00
      25     1     1     2     0     0 -5.449772848E+00  6.696914695E+00 -2.354003970E+03  2.357336680E+03  1.250079424E+02  0.00000E+00  9.000E+00
       5     1     1     2   501     0 -1.215993734E+00  2.582550875E+00  5.806046079E-01  5.572056308E+00  4.750000000E+00  0.00000E+00  9.000E+00
      -5     1     1     2     0   503  2.310986026E+00  7.961915516E-01 -5.462343934E+01  5.488403413E+01  4.750000000E+00  0.00000E+00  9.000E+00
      21     1     1     2   502   512  4.354780556E+00 -1.007565712E+01  2.891760273E+01  3.093074082E+01  9.536743164E-07  0.00000E+00  9.000E+00
#rwgt            1           9   3.1324577822017100E-004          11      628729           0
</event>
<event>
      6   9999 -3.45752E-01  8.28027E+00 -1.00000E+00  1.96261E-01
      21    -1     0     0   501   502  0.000000000E+00  0.000000000E+00  8.898222536E+00  8.898222536E+00  0.000000000E+00  0.00000E+00  9.000E+00
      21    -1     0     0   511   503  0.000000000E+00  0.000000000E+00 -2.559528661E+03  2.559528661E+03  0.000000000E+00  0.00000E+00  9.000E+00
      25     1     1     2     0     0  2.739136382E+00  2.168514254E+01 -1.248772871E+03  1.255205770E+03  1.250203759E+02  0.00000E+00  9.000E+00
       5     1     1     2   501     0  1.238866497E+00 -1.619239124E+00  4.183350783E+00  6.649785659E+00  4.750000000E+00  0.00000E+00  9.000E+00
      -5     1     1     2     0   503  3.077470404E+00 -2.439985707E+01 -6.565300408E+02  6.570076718E+02  4.750000000E+00  0.00000E+00  9.000E+00
      21     1     1     2   511   502 -7.055473283E+00  4.333953662E+00 -6.495108776E+02  6.495636558E+02  7.629394531E-06  0.00000E+00  9.000E+00
#rwgt            1           9 -0.11667042960296839               11      631315           0
</event>
<event>
      6   9999 -3.45752E-01  1.01450E+01 -1.00000E+00  1.86538E-01
      21    -1     0     0   501   502  0.000000000E+00  0.000000000E+00  9.692205746E+00  9.692205746E+00  0.000000000E+00  0.00000E+00  9.000E+00
      21    -1     0     0   502   512  0.000000000E+00  0.000000000E+00 -9.354847663E+02  9.354847663E+02  0.000000000E+00  0.00000E+00  9.000E+00
      25     1     1     2     0     0  1.770057029E+00  8.061555659E+00 -7.230549521E+02  7.338234425E+02  1.249810354E+02  0.00000E+00  9.000E+00
       5     1     1     2   501     0 -1.232095865E+00  1.307422337E+00  2.281634186E+00  5.567384300E+00  4.750000000E+00  0.00000E+00  9.000E+00
      -5     1     1     2     0   503  2.493242652E-01  7.453824800E-01 -2.374211242E+01  2.422536191E+01  4.750000000E+00  0.00000E+00  9.000E+00
      21     1     1     2   503   512 -7.872854285E-01 -1.011436048E+01 -1.812771301E+02  1.815607833E+02  0.000000000E+00  0.00000E+00  9.000E+00
#rwgt            1           9  -5.4545685809048999E-006          11      634908           0
</event>
<event>
      6   9999  3.45752E-01  3.22739E+00 -1.00000E+00  2.68868E-01
      21    -1     0     0   501   502  0.000000000E+00  0.000000000E+00  1.281921451E+01  1.281921451E+01  0.000000000E+00  0.00000E+00  9.000E+00
      21    -1     0     0   511   503  0.000000000E+00  0.000000000E+00 -1.260804851E+03  1.260804851E+03  0.000000000E+00  0.00000E+00  9.000E+00
      25     1     1     2     0     0  1.553350266E+00  1.046837524E+00 -4.422463535E+02  4.595935005E+02  1.250633428E+02  0.00000E+00  9.000E+00
       5     1     1     2   501     0  1.640718003E+00  6.351362309E-01  2.567237142E+00  5.678781572E+00  4.750000000E+00  0.00000E+00  9.000E+00
      -5     1     1     2     0   503 -1.539433889E+00  1.088983487E+00 -4.027843491E+02  4.028167699E+02  4.750000000E+00  0.00000E+00  9.000E+00
      21     1     1     2   511   502 -1.654634380E+00 -2.770957241E+00 -4.055221709E+02  4.055350134E+02  5.394796609E-06  0.00000E+00  9.000E+00
#rwgt            1           9   4.0138900885904790E-005          11      637507           0
</event>
<event>
      6   9999  3.45752E-01  1.37130E+01 -1.00000E+00  1.73818E-01
      21    -1     0     0   501   502  0.000000000E+00  0.000000000E+00  4.966269005E+03  4.966269005E+03  0.000000000E+00  0.00000E+00  9.000E+00
      21    -1     0     0   512   503  0.000000000E+00  0.000000000E+00 -3.330380921E+00  3.330380921E+00  0.000000000E+00  0.00000E+00  9.000E+00
      25     1     1     2     0     0  1.390940451E+01 -6.591523931E+00  1.603339820E+03  1.608278613E+03  1.249984015E+02  0.00000E+00  9.000E+00
       5     1     1     2   501     0  2.265582769E+00  1.069731378E-01  3.197802289E+03  3.197806621E+03  4.750000000E+00  0.00000E+00  9.000E+00
      -5     1     1     2     0   503 -4.381232589E+00 -5.120875626E-01  1.002093074E+02  1.004187493E+02  4.750000000E+00  0.00000E+00  9.000E+00
      21     1     1     2   512   502 -1.179375469E+01  6.996638356E+00  6.158720811E+01  6.309540238E+01  3.932099939E-06  0.00000E+00  9.000E+00
#rwgt            1           9   1.3120968221501936E-004          11      643549           0
</event>
<event>
      6   9999  3.45752E-01  1.99028E+01 -1.00000E+00  1.60372E-01
      21    -1     0     0   501   502  0.000000000E+00  0.000000000E+00  4.094794876E+01  4.094794876E+01  0.000000000E+00  0.00000E+00  9.000E+00
      21    -1     0     0   502   511  0.000000000E+00  0.000000000E+00 -1.279702000E+03  1.279702000E+03  0.000000000E+00  0.00000E+00  9.000E+00
      25     1     1     2     0     0  1.962747212E+01 -3.781858885E+00 -1.184005062E+03  1.190751344E+03  1.249849455E+02  0.00000E+00  9.000E+00
       5     1     1     2   501     0 -4.054747162E+00 -8.617786789E+00  3.487510281E+01  3.646289237E+01  4.750000000E+00  0.00000E+00  9.000E+00
      -5     1     1     2     0   503 -3.025327240E+00 -3.049808326E+00 -2.563024252E+01  2.641828472E+01  4.750000000E+00  0.00000E+00  9.000E+00
      21     1     1     2   503   511 -1.254739772E+01  1.544945400E+01 -6.399384990E+01  6.701742791E+01  1.168007728E-06  0.00000E+00  9.000E+00
#rwgt            1           9   5.6825488265070732E-004          11      645339           0
</event>
<event>
      6   9999  3.45752E-01  6.58039E+00 -1.00000E+00  2.08621E-01
       2    -1     0     0   502     0  0.000000000E+00  0.000000000E+00  3.373907752E+03  3.373907752E+03  0.000000000E+00  0.00000E+00  9.000E+00
      21    -1     0     0   501   502  0.000000000E+00  0.000000000E+00 -4.736231859E+00  4.736231859E+00  0.000000000E+00  0.00000E+00  9.000E+00
      25     1     1     2     0     0  1.580913723E+01  4.390288999E+01  1.246043348E+03  1.253167298E+03  1.250074311E+02  0.00000E+00  9.000E+00
       5     1     1     2   501     0  1.431575088E+00 -1.738155352E+01  1.424273465E+02  1.435697717E+02  4.750000000E+00  0.00000E+00  9.000E+00
      -5     1     1     2     0   503 -1.156458238E+01 -2.985045290E+01  4.387115017E+02  4.399035500E+02  4.750000000E+00  0.00000E+00  9.000E+00
       2     1     1     2   503     0 -5.676129942E+00  3.329116424E+00  1.541989323E+03  1.542003364E+03  2.157918644E-05  0.00000E+00  9.000E+00
#rwgt            1           9   6.4024669831887898E-002          11      647646           0
</event>
<event>
      6   9999  3.45752E-01  1.00481E+01 -1.00000E+00  1.86974E-01
      21    -1     0     0   501   502  0.000000000E+00  0.000000000E+00  2.923028000E+02  2.923028000E+02  0.000000000E+00  0.00000E+00  9.000E+00
      21    -1     0     0   502   511  0.000000000E+00  0.000000000E+00 -2.754966177E+01  2.754966177E+01  0.000000000E+00  0.00000E+00  9.000E+00
      25     1     1     2     0     0 -5.164836003E+00 -7.780592965E+00  2.271155076E+02  2.594110432E+02  1.250016895E+02  0.00000E+00  9.000E+00
       5     1     1     2   501     0 -8.096917093E-01 -2.356305321E-01  3.092710300E+01  3.130110737E+01  4.750000000E+00  0.00000E+00  9.000E+00
      -5     1     1     2     0   503 -2.927733175E+00  3.356409205E+00  1.484629123E+01  1.621147641E+01  4.750000000E+00  0.00000E+00  9.000E+00
      21     1     1     2   503   511  8.902260887E+00  4.659814292E+00 -8.135763649E+00  1.292883476E+01  5.462855929E-07  0.00000E+00  9.000E+00
#rwgt            1           9  0.50427056109095081               11      650936           0
</event>
<event>
      6   9999  3.45752E-01  4.29866E+01 -1.00000E+00  1.38396E-01
      21    -1     0     0   501   502  0.000000000E+00  0.000000000E+00  1.870919881E+02  1.870919881E+02  0.000000000E+00  0.00000E+00  9.000E+00
      21    -1     0     0   502   512  0.000000000E+00  0.000000000E+00 -2.413750610E+03  2.413750610E+03  0.000000000E+00  0.00000E+00  9.000E+00
      25     1     1     2     0     0  1.245368221E+02  5.887822636E+01 -6.264613618E+02  6.534940817E+02  1.249984453E+02  0.00000E+00  9.000E+00
       5     1     1     2   501     0  5.212227263E+00  3.832495904E+01  1.676268399E+02  1.720967454E+02  4.750000000E+00  0.00000E+00  9.000E+00
      -5     1     1     2     0   503 -9.545402172E+01 -7.128603284E+01 -1.291438647E+03  1.296930804E+03  4.750000000E+00  0.00000E+00  9.000E+00
      21     1     1     2   503   512 -3.429502763E+01 -2.591715255E+01 -4.763854533E+02  4.783209674E+02  5.394796609E-06  0.00000E+00  9.000E+00
#rwgt            1           9   2.1554286715511621E-002          11      652993           0
</event>
<event>
      6   9999  3.45752E-01  7.38130E+00 -1.00000E+00  2.02246E-01
      21    -1     0     0   511   502  0.000000000E+00  0.000000000E+00  7.264662600E+01  7.264662600E+01  0.000000000E+00  0.00000E+00  9.000E+00
      21    -1     0     0   502   503  0.000000000E+00  0.000000000E+00 -1.482408392E+03  1.482408392E+03  0.000000000E+00  0.00000E+00  9.000E+00
      25     1     1     2     0     0  1.563680792E+01 -1.071218466E+01 -1.366196826E+03  1.372034345E+03  1.250008697E+02  0.00000E+00  9.000E+00
       5     1     1     2   501     0 -4.103477869E+00 -3.663711572E+00  6.529533920E+01  6.569859310E+01  4.750000000E+00  0.00000E+00  9.000E+00
      -5     1     1     2     0   503 -1.345832111E+01  7.250025478E+00 -1.087685494E+02  1.099402070E+02  4.750000000E+00  0.00000E+00  9.000E+00
      21     1     1     2   511   501  1.924991065E+00  7.125870750E+00 -9.172980512E-02  7.381872317E+00  2.261522767E-07  0.00000E+00  9.000E+00
#rwgt            1           9   1.9879124628056867E-003          11      655092           0
</event>
<event>
      6   9999  3.45752E-01  7.42977E+00 -1.00000E+00  2.01895E-01
      21    -1     0     0   501   512  0.000000000E+00  0.000000000E+00  8.335953891E+00  8.335953891E+00  0.000000000E+00  0.00000E+00  9.000E+00
      21    -1     0     0   502   503  0.000000000E+00  0.000000000E+00 -7.599694090E+02  7.599694090E+02  0.000000000E+00  0.00000E+00  9.000E+00
      25     1     1     2     0     0  4.605363068E+00  3.528878226E+00 -7.067148982E+02  7.177086759E+02  1.250045352E+02  0.00000E+00  9.000E+00
       5     1     1     2   501     0  4.631393372E+00 -2.625518141E+00 -7.586140282E+00  1.041418141E+01  4.750000000E+00  0.00000E+00  9.000E+00
      -5     1     1     2     0   503 -2.263749739E+00  1.661523166E+00 -6.789991610E+00  8.749383303E+00  4.750000000E+00  0.00000E+00  9.000E+00
      21     1     1     2   502   512 -6.973006701E+00 -2.564883251E+00 -3.054242506E+01  3.143312229E+01  3.371747881E-07  0.00000E+00  9.000E+00
#rwgt            1           9   9.2072196820302253E-006          11      660756           0
</event>
<event>
      6   9999  3.45752E-01  9.53118E+00 -1.00000E+00  1.89417E-01
      21    -1     0     0   501   502  0.000000000E+00  0.000000000E+00  2.813859296E+02  2.813859296E+02  0.000000000E+00  0.00000E+00  9.000E+00
      21    -1     0     0   511   503  0.000000000E+00  0.000000000E+00 -9.291003658E+01  9.291003658E+01  0.000000000E+00  0.00000E+00  9.000E+00
      25     1     1     2     0     0  7.208155376E+01  7.397262250E+00  1.544493175E+02  2.114941138E+02  1.249987945E+02  0.00000E+00  9.000E+00
       5     1     1     2   501     0  6.500155093E-01  2.568410609E+00  7.510646265E+01  7.530313728E+01  4.750000000E+00  0.00000E+00  9.000E+00
      -5     1     1     2     0   503 -6.373299739E+01 -6.824146846E+00 -4.356826718E+01  7.764805433E+01  4.750000000E+00  0.00000E+00  9.000E+00
      21     1     1     2   511   502 -8.998571883E+00 -3.141526013E+00  2.488380008E+00  9.850660723E+00  8.940696716E-08  0.00000E+00  9.000E+00
#rwgt            1           9   7.9485172751028094E-002          11      663635           0
</event>
<event>
      6   9999  3.45752E-01  1.48701E+01 -1.00000E+00  1.70699E-01
      21    -1     0     0   501   502  0.000000000E+00  0.000000000E+00  3.800698145E+01  3.800698145E+01  0.000000000E+00  0.00000E+00  9.000E+00
      21    -1     0     0   502   512  0.000000000E+00  0.000000000E+00 -1.301081059E+03  1.301081059E+03  0.000000000E+00  0.00000E+00  9.000E+00
      25     1     1     2     0     0 -1.215447028E+01  5.909697490E+00 -1.119867098E+03  1.126903292E+03  1.250042202E+02  0.00000E+00  9.000E+00
       5     1     1     2   501     0  1.155980835E-01 -8.973737963E-01  3.356997214E+01  3.391642924E+01  4.750000000E+00  0.00000E+00  9.000E+00
      -5     1     1     2     0   503 -2.798323906E+00 -4.023490432E+00 -8.708693016E+01  8.735396383E+01  4.750000000E+00  0.00000E+00  9.000E+00
      21     1     1     2   503   512  1.483719611E+01 -9.888332610E-01 -8.969002066E+01  9.091435522E+01  9.536743164E-07  0.00000E+00  9.000E+00
#rwgt            1           9   1.2718224081506497E-003          11      666829           0
</event>
<event>
      6   9999  3.45752E-01  1.33424E+01 -1.00000E+00  1.74900E-01
      21    -1     0     0   511   502  0.000000000E+00  0.000000000E+00  2.385015778E+01  2.385015778E+01  0.000000000E+00  0.00000E+00  9.000E+00
      21    -1     0     0   502   503  0.000000000E+00  0.000000000E+00 -7.031095165E+02  7.031095165E+02  0.000000000E+00  0.00000E+00  9.000E+00
      25     1     1     2     0     0  1.339688198E+00 -5.362735494E-01 -5.509609457E+02  5.649938867E+02  1.251321142E+02  0.00000E+00  9.000E+00
       5     1     1     2   501     0 -1.188946359E+01  1.120953993E+01 -8.041230528E+01  8.219315343E+01  4.750000000E+00  0.00000E+00  9.000E+00
      -5     1     1     2     0   503  1.085147688E+00 -1.269044938E+00 -6.091576618E+01  6.112349050E+01  4.750000000E+00  0.00000E+00  9.000E+00
      21     1     1     2   511   501  9.464627703E+00 -9.404221440E+00  1.302965845E+01  1.864914362E+01  0.000000000E+00  0.00000E+00  9.000E+00
#rwgt            1           9   7.8011100309518273               11      669801           0
</event>
<event>
      6   9999  3.45752E-01  2.73613E+01 -1.00000E+00  1.50472E-01
      21    -1     0     0   501   502  0.000000000E+00  0.000000000E+00  1.334373436E+03  1.334373436E+03  0.000000000E+00  0.00000E+00  9.000E+00
      21    -1     0     0   512   503  0.000000000E+00  0.000000000E+00 -1.808946152E+01  1.808946152E+01  0.000000000E+00  0.00000E+00  9.000E+00
      25     1     1     2     0     0  1.531901441E+00 -2.365111414E+01  8.965664546E+02  9.055484820E+02  1.249996948E+02  0.00000E+00  9.000E+00
       5     1     1     2   501     0  2.918843256E+00 -1.598280851E+00  2.520271658E+02  2.520938891E+02  4.750000000E+00  0.00000E+00  9.000E+00
      -5     1     1     2     0   503  1.985424446E+01  1.268329080E+01  1.656487607E+02  1.673831871E+02  4.750000000E+00  0.00000E+00  9.000E+00
      21     1     1     2   512   502 -2.430498915E+01  1.256610419E+01  2.041593065E+00  2.743733906E+01  9.014894642E-07  0.00000E+00  9.000E+00
#rwgt            1           9   1.0628098183780950E-003          11      671710           0
</event>
<event>
      6   9999  3.45752E-01  2.26147E+01 -1.00000E+00  1.56241E-01
      21    -1     0     0   501   511  0.000000000E+00  0.000000000E+00  1.443441769E+01  1.443441769E+01  0.000000000E+00  0.00000E+00  9.000E+00
      21    -1     0     0   502   503  0.000000000E+00  0.000000000E+00 -8.427747973E+02  8.427747973E+02  0.000000000E+00  0.00000E+00  9.000E+00
      25     1     1     2     0     0  1.400711200E+01 -9.822153739E+00 -7.857605496E+02  7.958248320E+02  1.249993920E+02  0.00000E+00  9.000E+00
       5     1     1     2   501     0  3.807386839E+00 -7.291544549E-01 -1.596434470E+00  6.335531847E+00  4.750000000E+00  0.00000E+00  9.000E+00
      -5     1     1     2     0   503  1.803848069E+00 -6.978696856E-01 -2.901040107E+01  2.946025730E+01  4.750000000E+00  0.00000E+00  9.000E+00
      21     1     1     2   502   511 -1.961834691E+01  1.124917788E+01 -1.197299444E+01  2.558859383E+01  6.951036328E-07  0.00000E+00  9.000E+00
#rwgt            1           9   4.1763251044814694E-004          11      672756           0
</event>
<event>
      6   9999  3.45752E-01  6.86546E+00 -1.00000E+00  2.06219E-01
      21    -1     0     0   512   502  0.000000000E+00  0.000000000E+00  1.003248960E+02  1.003248960E+02  0.000000000E+00  0.00000E+00  9.000E+00
      21    -1     0     0   502   503  0.000000000E+00  0.000000000E+00 -9.375257757E+02  9.375257757E+02  0.000000000E+00  0.00000E+00  9.000E+00
      25     1     1     2     0     0  4.117559403E+00  1.906804242E+00 -8.726013512E+02  8.815202953E+02  1.249972907E+02  0.00000E+00  9.000E+00
       5     1     1     2   501     0 -2.932852788E+00 -5.429106352E+00  1.629930457E+01  1.806396000E+01  4.750000000E+00  0.00000E+00  9.000E+00
      -5     1     1     2     0   503  3.334119653E+00 -1.646324605E+00 -5.927950418E+01  5.958564302E+01  4.750000000E+00  0.00000E+00  9.000E+00
      21     1     1     2   512   501 -4.518826268E+00  5.168626716E+00  7.838067115E+01  7.868077340E+01  2.336015456E-06  0.00000E+00  9.000E+00
#rwgt            1           9   1.5847009563882560E-004          11      674742           0
</event>
<event>
      6   9999 -3.45752E-01  1.39942E+01 -1.00000E+00  1.73026E-01
      21    -1     0     0   501   502  0.000000000E+00  0.000000000E+00  1.080294767E+01  1.080294767E+01  0.000000000E+00  0.00000E+00  9.000E+00
      21    -1     0     0   511   503  0.000000000E+00  0.000000000E+00 -9.060456237E+02  9.060456237E+02  0.000000000E+00  0.00000E+00  9.000E+00
      25     1     1     2     0     0 -1.101972281E+01 -7.751039089E+00 -7.646838863E+02  7.749506690E+02  1.250023215E+02  0.00000E+00  9.000E+00
       5     1     1     2   501     0 -4.162214377E+00 -4.748306506E-01  2.835997647E+00  6.939371392E+00  4.750000000E+00  0.00000E+00  9.000E+00
      -5     1     1     2     0   503  3.056922605E+00  1.238675531E+00 -2.477391364E+01  2.543989760E+01  4.750000000E+00  0.00000E+00  9.000E+00
      21     1     1     2   511   502  1.212501459E+01  6.987194209E+00 -1.086208737E+02  1.095186334E+02  0.000000000E+00  0.00000E+00  9.000E+00
#rwgt            1           9  -2.4742093868463641E-004          11      678538           0
</event>
<event>
      6   9999  3.45752E-01  6.06638E+00 -1.00000E+00  2.13394E-01
      21    -1     0     0   501   502  0.000000000E+00  0.000000000E+00  6.224158091E+01  6.224158091E+01  0.000000000E+00  0.00000E+00  9.000E+00
      21    -1     0     0   512   503  0.000000000E+00  0.000000000E+00 -3.629709474E+02  3.629709474E+02  0.000000000E+00  0.00000E+00  9.000E+00
      25     1     1     2     0     0  1.095575599E+01  5.262833740E+00 -2.602820411E+02  2.889787269E+02  1.249569434E+02  0.00000E+00  9.000E+00
       5     1     1     2   501     0 -3.108516291E+00  2.333985359E+00  4.713475782E+01  4.753270723E+01  4.750000000E+00  0.00000E+00  9.000E+00
      -5     1     1     2     0   503 -2.114539784E+00 -5.612593487E+00 -3.915029064E+01  3.989085411E+01  4.750000000E+00  0.00000E+00  9.000E+00
      21     1     1     2   512   502 -5.732699919E+00 -1.984225612E+00 -4.843179258E+01  4.881024004E+01  0.000000000E+00  0.00000E+00  9.000E+00
#rwgt            1           9   2.1096523110178417E-002          11      681000           0
</event>
<event>
      6   9999 -3.45752E-01  1.05482E+01 -1.00000E+00  1.84785E-01
      21    -1     0     0   501   502  0.000000000E+00  0.000000000E+00  1.700501032E+01  1.700501032E+01  0.000000000E+00  0.00000E+00  9.000E+00
      21    -1     0     0   502   511  0.000000000E+00  0.000000000E+00 -1.165301716E+03  1.165301716E+03  0.000000000E+00  0.00000E+00  9.000E+00
      25     1     1     2     0     0 -6.119388316E+01 -1.640480916E+01 -4.641624517E+02  4.848564862E+02  1.250008864E+02  0.00000E+00  9.000E+00
       5     1     1     2   501     0 -2.502247341E+00 -1.349628992E+00  3.154274690E+00  6.371396157E+00  4.750000000E+00  0.00000E+00  9.000E+00
      -5     1     1     2     0   503  5.592087277E+01  1.062634266E+01 -4.580394128E+02  4.615871850E+02  4.750000000E+00  0.00000E+00  9.000E+00
      21     1     1     2   503   511  7.775257727E+00  7.128095488E+00 -2.292491158E+02  2.294916589E+02  2.697398305E-06  0.00000E+00  9.000E+00
#rwgt            1           9  -8.3483902691759704E-004          11      684941           0
</event>
<event>
      6   9999 -3.45752E-01  2.18326E+01 -1.00000E+00  1.57358E-01
      21    -1     0     0   512   502  0.000000000E+00  0.000000000E+00  3.833415674E+02  3.833415674E+02  0.000000000E+00  0.00000E+00  9.000E+00
      21    -1     0     0   502   503  0.000000000E+00  0.000000000E+00 -9.281538649E+02  9.281538649E+02  0.000000000E+00  0.00000E+00  9.000E+00
      25     1     1     2     0     0 -3.063951502E+01 -6.094368258E-01 -3.823849788E+02  4.034642572E+02  1.250039343E+02  0.00000E+00  9.000E+00
       5     1     1     2   501     0  4.538838900E+00  2.431925423E+00  2.335319932E+00  7.384547313E+00  4.750000000E+00  0.00000E+00  9.000E+00
      -5     1     1     2     0   503  4.568978900E+01  7.817377222E+00 -5.313602768E+02  5.333994512E+02  4.750000000E+00  0.00000E+00  9.000E+00
      21     1     1     2   512   501 -1.958911288E+01 -9.639865819E+00  3.665976382E+02  3.672471766E+02  5.394796609E-06  0.00000E+00  9.000E+00
#rwgt            1           9  -4.5099219170986289E-003          11      687993           0
</event>
<event>
      6   9999 -3.45752E-01  3.12412E+01 -1.00000E+00  1.46708E-01
      21    -1     0     0   511   502  0.000000000E+00  0.000000000E+00  2.275272334E+02  2.275272334E+02  0.000000000E+00  0.00000E+00  9.000E+00
      21    -1     0     0   502   503  0.000000000E+00  0.000000000E+00 -1.611848256E+03  1.611848256E+03  0.000000000E+00  0.00000E+00  9.000E+00
      25     1     1     2     0     0  1.047168809E+01 -1.151784398E+02 -9.755710304E+02  9.903228010E+02  1.249987428E+02  0.00000E+00  9.000E+00
       5     1     1     2   501     0  2.682686878E+01  8.200119658E+00  8.558547047E+01  9.019067639E+01  4.750000000E+00  0.00000E+00  9.000E+00
      -5     1     1     2     0   503 -7.579803913E+00  9.734475364E+01 -6.208747358E+02  6.285232331E+02  4.750000000E+00  0.00000E+00  9.000E+00
      21     1     1     2   511   501 -2.971875295E+01  9.633566543E+00  1.265392726E+02  1.303387793E+02  4.862803949E-06  0.00000E+00  9.000E+00
#rwgt            1           9  -1.5937598714261527E-003          11      689615           0
</event>
<event>
      6   9999  3.45752E-01  6.75821E+00 -1.00000E+00  2.07104E-01
      21    -1     0     0   501   502  0.000000000E+00  0.000000000E+00  4.357266578E+02  4.357266578E+02  0.000000000E+00  0.00000E+00  9.000E+00
      21    -1     0     0   512   503  0.000000000E+00  0.000000000E+00 -4.249683623E+02  4.249683623E+02  0.000000000E+00  0.00000E+00  9.000E+00
      25     1     1     2     0     0 -9.170393742E+00  5.084908752E+00 -1.546059648E+02  1.990963090E+02  1.250055339E+02  0.00000E+00  9.000E+00
       5     1     1     2   501     0  1.921002707E+00 -2.898472641E+00  4.050497881E+02  4.050925632E+02  4.750000000E+00  0.00000E+00  9.000E+00
      -5     1     1     2     0   503  1.101082898E+01 -7.801144923E+00  2.245230597E+00  1.448101438E+01  4.750000000E+00  0.00000E+00  9.000E+00
      21     1     1     2   512   502 -3.761437949E+00  5.614708813E+00 -2.419307584E+02  2.420251335E+02  3.814697266E-06  0.00000E+00  9.000E+00
#rwgt            1           9   2.7501356685959079E-004          11      691694           0
</event>
<event>
      6   9999 -3.45752E-01  1.80901E+01 -1.00000E+00  1.63610E-01
      21    -1     0     0   501   502  0.000000000E+00  0.000000000E+00  2.536528593E+01  2.536528593E+01  0.000000000E+00  0.00000E+00  9.000E+00
      21    -1     0     0   502   511  0.000000000E+00  0.000000000E+00 -1.698528106E+03  1.698528106E+03  0.000000000E+00  0.00000E+00  9.000E+00
      25     1     1     2     0     0 -6.609156678E+01 -9.070634857E+01 -8.585215405E+02  8.748035452E+02  1.250050817E+02  0.00000E+00  9.000E+00
       5     1     1     2   501     0  1.779537882E+00  2.079198061E+00  4.362174090E+00  7.005774935E+00  4.750000000E+00  0.00000E+00  9.000E+00
      -5     1     1     2     0   503  5.895377153E+01  1.059054331E+02 -3.118926112E+02  3.346506707E+02  4.750000000E+00  0.00000E+00  9.000E+00
      21     1     1     2   503   511  5.358257362E+00 -1.727828262E+01 -5.071108425E+02  5.074334011E+02  7.629394531E-06  0.00000E+00  9.000E+00
#rwgt            1           9  -1.0348832193933805E-002          11      697099           0
</event>
<event>
      6   9999  3.45752E-01  3.29951E+01 -1.00000E+00  1.45213E-01
      21    -1     0     0   512   502  0.000000000E+00  0.000000000E+00  3.563949586E+01  3.563949586E+01  0.000000000E+00  0.00000E+00  9.000E+00
      21    -1     0     0   502   503  0.000000000E+00  0.000000000E+00 -3.735885055E+03  3.735885055E+03  0.000000000E+00  0.00000E+00  9.000E+00
      25     1     1     2     0     0 -1.377416655E+02  5.243065794E+01 -2.935111448E+03  2.941466705E+03  1.250016995E+02  0.00000E+00  9.000E+00
       5     1     1     2   501     0 -6.084947429E+00  1.061747143E+01  2.239918460E+01  2.596234302E+01  4.750000000E+00  0.00000E+00  9.000E+00
      -5     1     1     2     0   503  1.109547495E+02 -6.589690700E+01 -6.438405377E+02  6.566632008E+02  4.750000000E+00  0.00000E+00  9.000E+00
      21     1     1     2   512   501  3.287186345E+01  2.848777636E+00 -1.436927586E+02  1.474323025E+02  2.697398305E-06  0.00000E+00  9.000E+00
#rwgt            1           9   2.0325917347750123E-004          11      699194           0
</event>
<event>
      6   9999  3.45752E-01  1.67709E+01 -1.00000E+00  1.66276E-01
      21    -1     0     0   511   502  0.000000000E+00  0.000000000E+00  1.365932756E+02  1.365932756E+02  0.000000000E+00  0.00000E+00  9.000E+00
      21    -1     0     0   502   503  0.000000000E+00  0.000000000E+00 -5.597742892E+02  5.597742892E+02  0.000000000E+00  0.00000E+00  9.000E+00
      25     1     1     2     0     0  5.371374953E+00  1.342310687E+02 -4.243378421E+02  4.623141674E+02  1.249998146E+02  0.00000E+00  9.000E+00
       5     1     1     2   501     0 -3.780197654E-01  4.103207865E+00  6.268363933E+01  6.299825675E+01  4.750000000E+00  0.00000E+00  9.000E+00
      -5     1     1     2     0   503  1.130071929E+01 -1.423050480E+02 -5.542087007E+01  1.532072723E+02  4.750000000E+00  0.00000E+00  9.000E+00
      21     1     1     2   511   501 -1.629407448E+01  3.970771504E+00 -6.105940771E+00  1.784786828E+01  1.685873940E-07  0.00000E+00  9.000E+00
#rwgt            1           9   3.7999781889755667E-004          11      701059           0
</event>
<event>
      6   9999  3.45752E-01  4.56460E+01 -1.00000E+00  1.36939E-01
      21    -1     0     0   512   502  0.000000000E+00  0.000000000E+00  4.417914406E+01  4.417914406E+01  0.000000000E+00  0.00000E+00  9.000E+00
      21    -1     0     0   502   503  0.000000000E+00  0.000000000E+00 -1.027962216E+03  1.027962216E+03  0.000000000E+00  0.00000E+00  9.000E+00
      25     1     1     2     0     0 -4.997933188E+01  8.705552184E+00 -7.856183855E+02  7.971189598E+02  1.250146717E+02  0.00000E+00  9.000E+00
       5     1     1     2   501     0 -5.754974822E+00  1.227165468E+01  3.138037648E+00  1.470112323E+01  4.750000000E+00  0.00000E+00  9.000E+00
      -5     1     1     2     0   503  2.601431716E+01  1.366783205E+01 -2.114714866E+02  2.135563309E+02  4.750000000E+00  0.00000E+00  9.000E+00
      21     1     1     2   512   501  2.971998953E+01 -3.464503892E+01  1.016876214E+01  4.676494652E+01  1.815741803E-06  0.00000E+00  9.000E+00
#rwgt            1           9   5.3824743473889214E-002          11      704283           0
</event>
<event>
      6   9999  3.45752E-01  1.71949E+01 -1.00000E+00  1.65387E-01
      21    -1     0     0   501   502  0.000000000E+00  0.000000000E+00  8.580117728E+01  8.580117728E+01  0.000000000E+00  0.00000E+00  9.000E+00
      -1    -1     0     0     0   503  0.000000000E+00  0.000000000E+00 -1.857601223E+03  1.857601223E+03  0.000000000E+00  0.00000E+00  9.000E+00
      25     1     1     2     0     0 -3.742643338E+01  1.610520886E+02 -7.263781992E+02  7.553735625E+02  1.250016697E+02  0.00000E+00  9.000E+00
       5     1     1     2   501     0  4.481415220E+00  2.263992726E+00  6.385526824E+01  6.422823778E+01  4.750000000E+00  0.00000E+00  9.000E+00
      -5     1     1     2     0   503  1.977073963E+01 -1.522660464E+02 -8.369430426E+02  8.509242329E+02  4.750000000E+00  0.00000E+00  9.000E+00
      -1     1     1     2     0   502  1.317427853E+01 -1.105003492E+01 -2.723340726E+02  2.728763676E+02  3.814697266E-06  0.00000E+00  9.000E+00
#rwgt            1           9   1.8367225306079423E-004          11      705103           0
</event>
<event>
      6   9999  3.45752E-01  1.49282E+01 -1.00000E+00  1.70552E-01
      21    -1     0     0   501   502  0.000000000E+00  0.000000000E+00  1.078680352E+01  1.078680352E+01  0.000000000E+00  0.00000E+00  9.000E+00
      21    -1     0     0   502   511  0.000000000E+00  0.000000000E+00 -1.020139004E+03  1.020139004E+03  0.000000000E+00  0.00000E+00  9.000E+00
      25     1     1     2     0     0 -4.090688699E+00 -2.877112478E+01 -6.571122470E+02  6.695263200E+02  1.249979066E+02  0.00000E+00  9.000E+00
       5     1     1     2   501     0 -6.822583340E-01 -3.900526141E-01  4.272930977E-01  4.833497374E+00  4.750000000E+00  0.00000E+00  9.000E+00
      -5     1     1     2     0   503 -6.820935472E+00  1.975729906E+01 -6.362511753E+01  6.713861860E+01  4.750000000E+00  0.00000E+00  9.000E+00
      21     1     1     2   503   511  1.159388250E+01  9.403878338E+00 -2.890421289E+02  2.894273714E+02  0.000000000E+00  0.00000E+00  9.000E+00
#rwgt            1           9   1.2843366645837547E-004          11      707977           0
</event>
<event>
      6   9999  3.45752E-01  6.45516E+01 -1.00000E+00  1.29108E-01
      21    -1     0     0   512   503  0.000000000E+00  0.000000000E+00  8.593407740E+01  8.593407740E+01  0.000000000E+00  0.00000E+00  9.000E+00
      21    -1     0     0   501   502  0.000000000E+00  0.000000000E+00 -8.191738053E+02  8.191738053E+02  0.000000000E+00  0.00000E+00  9.000E+00
      25     1     1     2     0     0  1.995567134E+01  5.821412449E+01 -6.227270103E+02  6.381254178E+02  1.250120250E+02  0.00000E+00  9.000E+00
       5     1     1     2   501     0 -4.301524749E+00 -8.539258788E+00 -1.416803552E+02  1.420820454E+02  4.750000000E+00  0.00000E+00  9.000E+00
      -5     1     1     2     0   503  3.043332814E+00  1.210953526E+01 -3.194291045E+01  3.462390427E+01  4.750000000E+00  0.00000E+00  9.000E+00
      21     1     1     2   512   502 -1.869747940E+01 -6.178440097E+01  6.311054804E+01  9.027651529E+01  2.023048729E-06  0.00000E+00  9.000E+00
#rwgt            1           9  0.11934431945467833               11      709538           0
</event>
<event>
      6   9999  3.45752E-01  2.86872E+00 -1.00000E+00  2.82095E-01
      21    -1     0     0   511   502  0.000000000E+00  0.000000000E+00  3.789591365E+02  3.789591365E+02  0.000000000E+00  0.00000E+00  9.000E+00
      21    -1     0     0   502   503  0.000000000E+00  0.000000000E+00 -8.953383872E+01  8.953383872E+01  0.000000000E+00  0.00000E+00  9.000E+00
      25     1     1     2     0     0 -3.832564949E+00  6.389646596E+00 -3.050273408E+01  1.289289226E+02  1.250469278E+02  0.00000E+00  9.000E+00
       5     1     1     2   501     0 -1.644942316E+00 -2.044093249E+00  2.301213150E+02  2.301852869E+02  4.750000000E+00  0.00000E+00  9.000E+00
      -5     1     1     2     0   503  4.007308836E+00 -6.808898136E+00 -7.589202477E+00  1.194060770E+01  4.750000000E+00  0.00000E+00  9.000E+00
      21     1     1     2   511   501  1.470198430E+00  2.463344789E+00  9.739591933E+01  9.743815809E+01  0.000000000E+00  0.00000E+00  9.000E+00
#rwgt            1           9   8.9741298319903819E-003          11      710140           0
</event>
<event>
      6   9999 -3.45752E-01  6.37207E+00 -1.00000E+00  2.10482E-01
      21    -1     0     0   501   512  0.000000000E+00  0.000000000E+00  2.815926823E+01  2.815926823E+01  0.000000000E+00  0.00000E+00  9.000E+00
      21    -1     0     0   502   503  0.000000000E+00  0.000000000E+00 -9.027505117E+02  9.027505117E+02  0.000000000E+00  0.00000E+00  9.000E+00
      25     1     1     2     0     0  9.047030115E-01  1.412110271E+01 -7.302685568E+02  7.410239457E+02  1.249963958E+02  0.00000E+00  9.000E+00
       5     1     1     2   501     0  2.427464976E+00 -4.740267673E+00  8.113855032E+00  1.080554799E+01  4.750000000E+00  0.00000E+00  9.000E+00
      -5     1     1     2     0   503  1.663563158E+00 -1.333633538E+01 -1.646705188E+02  1.652863199E+02  4.750000000E+00  0.00000E+00  9.000E+00
      21     1     1     2   502   512 -4.995731146E+00  3.955500338E+00  1.223397710E+01  1.379396638E+01  9.830249847E-07  0.00000E+00  9.000E+00
#rwgt            1           9  -1.1550305123704016E-002          11      717183           0
</event>
<event>
      6   9999 -3.45752E-01  4.29022E+01 -1.00000E+00  1.38444E-01
      21    -1     0     0   501   511  0.000000000E+00  0.000000000E+00  4.941265078E+02  4.941265078E+02  0.000000000E+00  0.00000E+00  9.000E+00
      21    -1     0     0   502   503  0.000000000E+00  0.000000000E+00 -1.055767937E+03  1.055767937E+03  0.000000000E+00  0.00000E+00  9.000E+00
      25     1     1     2     0     0 -2.713985816E+01  9.918092890E+01 -7.924311781E+02  8.087930255E+02  1.250022299E+02  0.00000E+00  9.000E+00
       5     1     1     2   501     0 -1.001679525E+01 -1.174079034E+02 -2.085695887E+02  2.396013101E+02  4.750000000E+00  0.00000E+00  9.000E+00
      -5     1     1     2     0   503 -2.610606394E+00  2.128291227E+00 -2.980994875E+01  3.037335072E+01  4.750000000E+00  0.00000E+00  9.000E+00
      21     1     1     2   502   511  3.976725980E+01  1.609868332E+01  4.691692868E+02  4.711267581E+02  9.344061824E-06  0.00000E+00  9.000E+00
#rwgt            1           9  -4.6746571901425452E-004          11      721140           0
</event>
<event>
      6   9999  3.45752E-01  1.34130E+01 -1.00000E+00  1.74691E-01
      21    -1     0     0   501   512  0.000000000E+00  0.000000000E+00  4.348122443E+01  4.348122443E+01  0.000000000E+00  0.00000E+00  9.000E+00
      21    -1     0     0   502   503  0.000000000E+00  0.000000000E+00 -8.523146865E+02  8.523146865E+02  0.000000000E+00  0.00000E+00  9.000E+00
      25     1     1     2     0     0  3.105784515E+00 -2.502139852E+01 -6.248920982E+02  6.377708662E+02  1.250033083E+02  0.00000E+00  9.000E+00
       5     1     1     2   501     0  2.909395889E+00  8.583971203E-01  3.735768254E+00  6.761648800E+00  4.750000000E+00  0.00000E+00  9.000E+00
      -5     1     1     2     0   503  6.768045819E+00  2.822468656E+01 -2.170180985E+02  2.190019565E+02  4.750000000E+00  0.00000E+00  9.000E+00
      21     1     1     2   502   512 -1.278322622E+01 -4.061685165E+00  2.934096644E+01  3.226143938E+01  1.545128989E-06  0.00000E+00  9.000E+00
#rwgt            1           9   3.1631520435249219E-004          11      722205           0
</event>
<event>
      6   9999  3.45752E-01  4.74751E+01 -1.00000E+00  1.36003E-01
      21    -1     0     0   501   502  0.000000000E+00  0.000000000E+00  1.017107595E+02  1.017107595E+02  0.000000000E+00  0.00000E+00  9.000E+00
       2    -1     0     0   502     0  0.000000000E+00  0.000000000E+00 -2.428819774E+03  2.428819774E+03  0.000000000E+00  0.00000E+00  9.000E+00
      25     1     1     2     0     0  1.051950718E+02  5.459823701E+01 -8.421872884E+02  8.596224536E+02  1.249974534E+02  0.00000E+00  9.000E+00
       5     1     1     2   501     0 -8.454566898E+00 -1.814105581E+00  8.692280393E+01  8.748089519E+01  4.750000000E+00  0.00000E+00  9.000E+00
      -5     1     1     2     0   503 -1.264783199E+02 -1.577677618E+01 -7.981045472E+02  8.082320847E+02  4.750000000E+00  0.00000E+00  9.000E+00
       2     1     1     2   503     0  2.973781493E+01 -3.700735525E+01 -7.737399832E+02  7.751951003E+02  1.078959322E-05  0.00000E+00  9.000E+00
#rwgt            1           9   9.2867311872855954E-005          11      724194           0
</event>
<event>
      6   9999  3.45752E-01  2.22074E+01 -1.00000E+00  1.56816E-01
      21    -1     0     0   501   502  0.000000000E+00  0.000000000E+00  4.171319995E+01  4.171319995E+01  0.000000000E+00  0.00000E+00  9.000E+00
      21    -1     0     0   511   503  0.000000000E+00  0.000000000E+00 -1.450341710E+03  1.450341710E+03  0.000000000E+00  0.00000E+00  9.000E+00
      25     1     1     2     0     0  3.656391909E+01  1.183703681E+02 -7.752344320E+02  7.949608051E+02  1.250031712E+02  0.00000E+00  9.000E+00
       5     1     1     2   501     0 -1.456200726E+00  4.550566706E+00  2.189081251E+01  2.290411208E+01  4.750000000E+00  0.00000E+00  9.000E+00
      -5     1     1     2     0   503 -5.580558394E+01 -1.148730241E+02 -4.527579012E+02  4.704490987E+02  4.750000000E+00  0.00000E+00  9.000E+00
      21     1     1     2   511   502  2.069786557E+01 -8.047910668E+00 -2.025269898E+02  2.037408945E+02  0.000000000E+00  0.00000E+00  9.000E+00
#rwgt            1           9   2.4941099314304750E-004          11      726653           0
</event>
<event>
      6   9999  3.45752E-01  5.06141E+00 -1.00000E+00  2.24894E-01
      21    -1     0     0   501   502  0.000000000E+00  0.000000000E+00  2.090694361E+01  2.090694361E+01  0.000000000E+00  0.00000E+00  9.000E+00
      21    -1     0     0   512   503  0.000000000E+00  0.000000000E+00 -1.026842430E+03  1.026842430E+03  0.000000000E+00  0.00000E+00  9.000E+00
      25     1     1     2     0     0 -2.465223040E+00 -5.175930122E+01 -5.813006953E+02  5.968439987E+02  1.250086310E+02  0.00000E+00  9.000E+00
       5     1     1     2   501     0 -2.576935197E+00  1.232402147E+00  1.085756773E+01  1.219051628E+01  4.750000000E+00  0.00000E+00  9.000E+00
      -5     1     1     2     0   503  8.278029521E+00  4.663498250E+01 -4.072523533E+02  4.100248641E+02  4.750000000E+00  0.00000E+00  9.000E+00
      21     1     1     2   512   502 -3.235871284E+00  3.891916565E+00 -2.824000523E+01  2.868999430E+01  3.371747881E-07  0.00000E+00  9.000E+00
#rwgt            1           9   8.7156152444620773E-005          11      728660           0
</event>
<event>
      6   9999  3.45752E-01  7.75843E+00 -1.00000E+00  1.99605E-01
      21    -1     0     0   501   502  0.000000000E+00  0.000000000E+00  5.096474205E+03  5.096474205E+03  0.000000000E+00  0.00000E+00  9.000E+00
      21    -1     0     0   511   503  0.000000000E+00  0.000000000E+00 -8.761205289E+01  8.761205289E+01  0.000000000E+00  0.00000E+00  9.000E+00
      25     1     1     2     0     0 -7.427147612E+00  8.688744018E-02  1.631418002E+03  1.636216813E+03  1.250023757E+02  0.00000E+00  9.000E+00
       5     1     1     2   501     0  1.467442001E+00  1.833607056E+00  3.392227889E+03  3.392232028E+03  4.750000000E+00  0.00000E+00  9.000E+00
      -5     1     1     2     0   503  1.891384385E+00  4.685715164E+00  7.007872224E+01  7.042104140E+01  4.750000000E+00  0.00000E+00  9.000E+00
      21     1     1     2   511   502  4.068321227E+00 -6.606209660E+00 -8.486246130E+01  8.521637508E+01  3.932099939E-06  0.00000E+00  9.000E+00
#rwgt            1           9   9.7776665794505014E-004          11      733849           0
</event>
<event>
      6   9999 -3.45752E-01  2.38472E+00 -1.00000E+00  3.05879E-01
      21    -1     0     0   501   502  0.000000000E+00  0.000000000E+00  7.578310245E+01  7.578310245E+01  0.000000000E+00  0.00000E+00  9.000E+00
       2    -1     0     0   502     0  0.000000000E+00  0.000000000E+00 -6.141488398E+02  6.141488398E+02  0.000000000E+00  0.00000E+00  9.000E+00
      25     1     1     2     0     0  4.824308965E+00 -3.314103797E+00 -1.356795118E+02  1.845750687E+02  1.249990753E+02  0.00000E+00  9.000E+00
       5     1     1     2   501     0 -1.701386096E+00  2.519454593E+00  4.981920825E+01  5.013739499E+01  4.750000000E+00  0.00000E+00  9.000E+00
      -5     1     1     2     0   503 -2.049123986E+00 -1.334637948E+00 -3.916783125E+00  6.624489234E+00  4.750000000E+00  0.00000E+00  9.000E+00
       2     1     1     2   503     0 -1.073798883E+00  2.129287153E+00 -4.485886507E+02  4.485949893E+02  9.344061824E-06  0.00000E+00  9.000E+00
#rwgt            1           9  -2.8939613331342880E-002          11      737117           0
</event>
<event>
      6   9999  3.45752E-01  2.36018E+01 -1.00000E+00  1.54908E-01
      21    -1     0     0   501   511  0.000000000E+00  0.000000000E+00  1.176477113E+01  1.176477113E+01  0.000000000E+00  0.00000E+00  9.000E+00
      21    -1     0     0   502   503  0.000000000E+00  0.000000000E+00 -8.187375923E+02  8.187375923E+02  0.000000000E+00  0.00000E+00  9.000E+00
      25     1     1     2     0     0 -2.257647637E+01  3.378637950E+01 -5.360963087E+02  5.519744413E+02  1.250012593E+02  0.00000E+00  9.000E+00
       5     1     1     2   501     0 -2.164804947E+00 -6.687801118E+00 -7.352236813E+01  7.401023024E+01  4.750000000E+00  0.00000E+00  9.000E+00
      -5     1     1     2     0   503  2.163084484E+01 -3.702634966E+00 -1.493150149E+02  1.509938381E+02  4.750000000E+00  0.00000E+00  9.000E+00
      21     1     1     2   502   511  3.110436476E+00 -2.339594341E+01 -4.803912940E+01  5.352385390E+01  9.536743164E-07  0.00000E+00  9.000E+00
#rwgt            1           9   6.3185046937395264E-006          11      744396           0
</event>
<event>
      6   9999  3.45752E-01  9.43001E+00 -1.00000E+00  1.89919E-01
      21    -1     0     0   512   503  0.000000000E+00  0.000000000E+00  1.479230892E+01  1.479230892E+01  0.000000000E+00  0.00000E+00  9.000E+00
      21    -1     0     0   501   502  0.000000000E+00  0.000000000E+00 -8.652992495E+02  8.652992495E+02  0.000000000E+00  0.00000E+00  9.000E+00
      25     1     1     2     0     0  8.765410661E+00 -3.988178067E+01 -3.754393058E+02  3.978043582E+02  1.250049847E+02  0.00000E+00  9.000E+00
       5     1     1     2   501     0 -1.864141691E+01  4.552697236E+01 -4.406668978E+02  4.434299099E+02  4.750000000E+00  0.00000E+00  9.000E+00
      -5     1     1     2     0   503  8.854811920E-01 -2.799919015E+00 -2.471941816E+01  2.534237080E+01  4.750000000E+00  0.00000E+00  9.000E+00
      21     1     1     2   512   502  8.990525057E+00 -2.845272681E+00 -9.681318784E+00  1.351491956E+01  3.769728732E-07  0.00000E+00  9.000E+00
#rwgt            1           9   2.0993700434480475E-004          11      745794           0
</event>
<event>
      6   9999  3.45752E-01  1.72388E+01 -1.00000E+00  1.65297E-01
      21    -1     0     0   501   502  0.000000000E+00  0.000000000E+00  8.974987398E+00  8.974987398E+00  0.000000000E+00  0.00000E+00  9.000E+00
      21    -1     0     0   502   511  0.000000000E+00  0.000000000E+00 -9.769393804E+02  9.769393804E+02  0.000000000E+00  0.00000E+00  9.000E+00
      25     1     1     2     0     0 -9.604263166E+00  2.016913617E+01 -7.462817178E+02  7.570080166E+02  1.250027953E+02  0.00000E+00  9.000E+00
       5     1     1     2   501     0 -7.747901138E-01  1.105572163E+00 -7.267837492E-01  4.991322885E+00  4.750000000E+00  0.00000E+00  9.000E+00
      -5     1     1     2     0   503  1.124564532E-01 -7.426489410E+00 -1.627570178E+01  1.851016910E+01  4.750000000E+00  0.00000E+00  9.000E+00
      21     1     1     2   503   511  1.026659683E+01 -1.384821893E+01 -2.046801897E+02  2.054048593E+02  2.697398305E-06  0.00000E+00  9.000E+00
#rwgt            1           9   5.2443741395105271E-007          11      748627           0
</event>
<event>
      6   9999  3.45752E-01  4.19126E+01 -1.00000E+00  1.39020E-01
      21    -1     0     0   512   502  0.000000000E+00  0.000000000E+00  7.184911660E+01  7.184911660E+01  0.000000000E+00  0.00000E+00  9.000E+00
      21    -1     0     0   502   503  0.000000000E+00  0.000000000E+00 -1.623128655E+03  1.623128655E+03  0.000000000E+00  0.00000E+00  9.000E+00
      25     1     1     2     0     0  1.639141882E+02  6.092983674E+01 -1.129516653E+03  1.149787977E+03  1.249968711E+02  0.00000E+00  9.000E+00
       5     1     1     2   501     0  1.972853299E+00  2.431548675E+00  3.714625135E+01  3.757939686E+01  4.750000000E+00  0.00000E+00  9.000E+00
      -5     1     1     2     0   503 -1.447538602E+02 -2.716669140E+01 -4.351689614E+02  4.594412875E+02  4.750000000E+00  0.00000E+00  9.000E+00
      21     1     1     2   512   501 -2.113318137E+01 -3.619469401E+01 -2.374017582E+01  4.816911020E+01  8.259061849E-07  0.00000E+00  9.000E+00
#rwgt            1           9   1.2756132730943628E-004          11      750154           0
</event>
<event>
      6   9999  3.45752E-01  1.98183E+02 -1.00000E+00  1.09031E-01
      21    -1     0     0   511   502  0.000000000E+00  0.000000000E+00  7.781419160E+01  7.781419160E+01  0.000000000E+00  0.00000E+00  9.000E+00
      21    -1     0     0   502   503  0.000000000E+00  0.000000000E+00 -1.486145534E+03  1.486145534E+03  0.000000000E+00  0.00000E+00  9.000E+00
      25     1     1     2     0     0  9.813265390E+01  5.599115885E+01 -6.523362932E+02  6.737456198E+02  1.250019727E+02  0.00000E+00  9.000E+00
       5     1     1     2   501     0 -2.006902577E+01  1.457877769E+02 -1.711443982E+02  2.257649424E+02  4.750000000E+00  0.00000E+00  9.000E+00
      -5     1     1     2     0   503 -3.462280331E+00 -1.817342217E+01 -3.761810966E+02  3.766656881E+02  4.750000000E+00  0.00000E+00  9.000E+00
      21     1     1     2   511   501 -7.460134779E+01 -1.836055136E+02 -2.086695545E+02  2.877834754E+02  6.607249480E-06  0.00000E+00  9.000E+00
#rwgt            1           9   2.0366381714165143E-002          11      751794           0
</event>
<event>
      6   9999 -3.45752E-01  8.52260E+00 -1.00000E+00  1.94816E-01
      21    -1     0     0   501   502  0.000000000E+00  0.000000000E+00  7.737870195E+01  7.737870195E+01  0.000000000E+00  0.00000E+00  9.000E+00
      21    -1     0     0   502   512  0.000000000E+00  0.000000000E+00 -1.585327445E+02  1.585327445E+02  0.000000000E+00  0.00000E+00  9.000E+00
      25     1     1     2     0     0 -2.767777169E+00  1.562209408E-01 -1.011680902E+02  1.608354812E+02  1.250015382E+02  0.00000E+00  9.000E+00
       5     1     1     2   501     0 -4.437394794E+00 -3.568402298E+00  4.437648407E+01  4.499176376E+01  4.750000000E+00  0.00000E+00  9.000E+00
      -5     1     1     2     0   503 -4.517722832E-01 -3.302572424E-01 -5.764448994E-01  4.817463727E+00  4.750000000E+00  0.00000E+00  9.000E+00
      21     1     1     2   503   512  7.656944247E+00  3.742438600E+00 -2.378599157E+01  2.526673775E+01  3.371747881E-07  0.00000E+00  9.000E+00
#rwgt            1           9  -4.3831519091353437               11      752272           0
</event>
<event>
      6   9999  3.45752E-01  1.92453E+01 -1.00000E+00  1.61496E-01
      21    -1     0     0   501   502  0.000000000E+00  0.000000000E+00  3.864799467E+01  3.864799467E+01  0.000000000E+00  0.00000E+00  9.000E+00
      21    -1     0     0   502   511  0.000000000E+00  0.000000000E+00 -1.349704408E+03  1.349704408E+03  0.000000000E+00  0.00000E+00  9.000E+00
      25     1     1     2     0     0  1.135649037E+02 -2.832474850E+01 -2.268699798E+02  2.842423170E+02  1.249977133E+02  0.00000E+00  9.000E+00
       5     1     1     2   501     0  3.367220271E-01 -2.289044810E+00  5.641167819E+00  7.729060889E+00  4.750000000E+00  0.00000E+00  9.000E+00
      -5     1     1     2     0   503 -9.719770354E+01  2.105546933E+01 -8.585248851E+02  8.642790448E+02  4.750000000E+00  0.00000E+00  9.000E+00
      21     1     1     2   503   511 -1.670392216E+01  9.558323983E+00 -2.313027159E+02  2.321019797E+02  2.697398305E-06  0.00000E+00  9.000E+00
#rwgt            1           9   7.3346208362129396E-004          11      755371           0
</event>
<event>
      6   9999  3.45752E-01  1.16339E+01 -1.00000E+00  1.80526E-01
      21    -1     0     0   501   502  0.000000000E+00  0.000000000E+00  2.215772914E+01  2.215772914E+01  0.000000000E+00  0.00000E+00  9.000E+00
      21    -1     0     0   502   512  0.000000000E+00  0.000000000E+00 -9.754835015E+02  9.754835015E+02  0.000000000E+00  0.00000E+00  9.000E+00
      25     1     1     2     0     0 -3.383404441E+01 -1.678563228E+01 -4.224415993E+02  4.421628166E+02  1.249982062E+02  0.00000E+00  9.000E+00
       5     1     1     2   501     0  1.594769281E-01  4.093475822E-01  8.507526793E+00  9.753640882E+00  4.750000000E+00  0.00000E+00  9.000E+00
      -5     1     1     2     0   503  2.546222030E+01  2.461670698E+01 -1.002337765E+02  1.064127783E+02  4.750000000E+00  0.00000E+00  9.000E+00
      21     1     1     2   503   512  8.212347181E+00 -8.240422287E+00 -4.391579233E+02  4.393119948E+02  5.394796609E-06  0.00000E+00  9.000E+00
#rwgt            1           9   1.8398328663520001E-004          11      757404           0
</event>
<event>
      6   9999  3.45752E-01  2.28442E+01 -1.00000E+00  1.55924E-01
      21    -1     0     0   501   502  0.000000000E+00  0.000000000E+00  3.676237208E+01  3.676237208E+01  0.000000000E+00  0.00000E+00  9.000E+00
       1    -1     0     0   502     0  0.000000000E+00  0.000000000E+00 -1.926094234E+03  1.926094234E+03  0.000000000E+00  0.00000E+00  9.000E+00
      25     1     1     2     0     0  1.911576604E+01 -2.608842965E+01 -1.475393688E+02  1.960603076E+02  1.250030407E+02  0.00000E+00  9.000E+00
       5     1     1     2   501     0 -2.455947795E+00 -5.331854892E+00  1.070395105E+01  1.309952000E+01  4.750000000E+00  0.00000E+00  9.000E+00
      -5     1     1     2     0   503 -3.629041132E+01  1.973708976E+01 -1.029226091E+03  1.030065753E+03  4.750000000E+00  0.00000E+00  9.000E+00
       1     1     1     2   503     0  1.963059307E+01  1.168319478E+01 -7.232703535E+02  7.236310258E+02  7.629394531E-06  0.00000E+00  9.000E+00
#rwgt            1           9   1.8075739858484175E-003          11      760192           0
</event>
<event>
      6   9999 -3.45752E-01  1.00932E+01 -1.00000E+00  1.86770E-01
      21    -1     0     0   501   511  0.000000000E+00  0.000000000E+00  2.615094987E+01  2.615094987E+01  0.000000000E+00  0.00000E+00  9.000E+00
      21    -1     0     0   502   503  0.000000000E+00  0.000000000E+00 -7.155910977E+02  7.155910977E+02  0.000000000E+00  0.00000E+00  9.000E+00
      25     1     1     2     0     0 -1.736721704E+00  1.573160641E+01 -5.681119884E+02  5.819172222E+02  1.250036899E+02  0.00000E+00  9.000E+00
       5     1     1     2   501     0 -2.135009216E+00 -6.110996383E-02 -2.702550991E+00  5.867561729E+00  4.750000000E+00  0.00000E+00  9.000E+00
      -5     1     1     2     0   503  3.527976538E+00 -5.583121700E+00 -1.347169789E+02  1.349623828E+02  4.750000000E+00  0.00000E+00  9.000E+00
      21     1     1     2   502   511  3.437543811E-01 -1.008737475E+01  1.609137044E+01  1.899488087E+01  9.536743164E-07  0.00000E+00  9.000E+00
#rwgt            1           9 -0.16032209836366770               11      762054           0
</event>
<event>
      6   9999  3.45752E-01  4.38327E+00 -1.00000E+00  2.39902E-01
      21    -1     0     0   501   512  0.000000000E+00  0.000000000E+00  3.628538216E+01  3.628538216E+01  0.000000000E+00  0.00000E+00  9.000E+00
      21    -1     0     0   502   503  0.000000000E+00  0.000000000E+00 -2.344922293E+02  2.344922293E+02  0.000000000E+00  0.00000E+00  9.000E+00
      25     1     1     2     0     0  7.653581396E-01  8.312351889E+00 -2.061290013E+02  2.412144140E+02  1.250021895E+02  0.00000E+00  9.000E+00
       5     1     1     2   501     0 -1.810731381E+00  6.665439992E-01  1.512546945E+01  1.597076564E+01  4.750000000E+00  0.00000E+00  9.000E+00
      -5     1     1     2     0   503 -6.285014631E-01 -4.927824936E+00 -2.932818736E+00  7.472777156E+00  4.750000000E+00  0.00000E+00  9.000E+00
      21     1     1     2   502   512  1.673874705E+00 -4.051070952E+00 -4.270496516E+00  6.119654637E+00  8.429369702E-08  0.00000E+00  9.000E+00
#rwgt            1           9   1.0934232074800576E-002          11      764376           0
</event>
<event>
      6   9999  3.45752E-01  9.42043E+00 -1.00000E+00  1.89967E-01
      21    -1     0     0   501   502  0.000000000E+00  0.000000000E+00  1.094439566E+02  1.094439566E+02  0.000000000E+00  0.00000E+00  9.000E+00
      21    -1     0     0   502   511  0.000000000E+00  0.000000000E+00 -7.408607404E+02  7.408607404E+02  0.000000000E+00  0.00000E+00  9.000E+00
      25     1     1     2     0     0 -2.967127251E+00  2.281328171E+01 -6.047382669E+02  6.179507730E+02  1.250021466E+02  0.00000E+00  9.000E+00
       5     1     1     2   501     0 -1.867769986E+00 -9.854086463E+00  1.006114441E+02  1.012216220E+02  4.750000000E+00  0.00000E+00  9.000E+00
      -5     1     1     2     0   503  8.933628999E+00 -4.477160389E+00 -1.604958289E+01  1.949375036E+01  4.750000000E+00  0.00000E+00  9.000E+00
      21     1     1     2   503   511 -4.098731762E+00 -8.482034857E+00 -1.112403780E+02  1.116385517E+02  1.907348633E-06  0.00000E+00  9.000E+00
#rwgt            1           9   5.8703392497718926E-006          11      768994           0
</event>
<event>
      6   9999 -3.45752E-01  4.58468E+00 -1.00000E+00  2.36193E-01
      21    -1     0     0   501   512  0.000000000E+00  0.000000000E+00  5.246143355E+01  5.246143355E+01  0.000000000E+00  0.00000E+00  9.000E+00
      21    -1     0     0   502   503  0.000000000E+00  0.000000000E+00 -2.987811826E+03  2.987811826E+03  0.000000000E+00  0.00000E+00  9.000E+00
      25     1     1     2     0     0 -8.821960771E+01  8.488598000E-01 -3.825576117E+02  4.120175514E+02  1.249988664E+02  0.00000E+00  9.000E+00
       5     1     1     2   501     0 -7.863306792E-01  6.394157398E-01  3.518073524E+01  3.551441680E+01  4.750000000E+00  0.00000E+00  9.000E+00
      -5     1     1     2     0   503  8.631500884E+01  2.223619405E+00 -2.586471772E+03  2.587916926E+03  4.750000000E+00  0.00000E+00  9.000E+00
      21     1     1     2   502   512  2.690929556E+00 -3.711894945E+00 -1.501743696E+00  4.824365252E+00  6.322027277E-08  0.00000E+00  9.000E+00
#rwgt            1           9 -0.23587007782240221               11      773078           0
</event>
<event>
      6   9999  3.45752E-01  8.22323E+01 -1.00000E+00  1.24159E-01
      21    -1     0     0   501   511  0.000000000E+00  0.000000000E+00  1.324378299E+02  1.324378299E+02  0.000000000E+00  0.00000E+00  9.000E+00
      21    -1     0     0   502   503  0.000000000E+00  0.000000000E+00 -8.921340836E+02  8.921340836E+02  0.000000000E+00  0.00000E+00  9.000E+00
      25     1     1     2     0     0  6.547944686E+01 -6.117864356E+01 -1.143420900E+02  1.916481544E+02  1.249980685E+02  0.00000E+00  9.000E+00
       5     1     1     2   501     0  4.547303460E-01  4.996519350E+00 -4.568275297E+02  4.568797723E+02  4.750000000E+00  0.00000E+00  9.000E+00
      -5     1     1     2     0   503 -5.397669189E+01 -2.517618135E+01 -2.601930379E+02  2.669649843E+02  4.750000000E+00  0.00000E+00  9.000E+00
      21     1     1     2   502   511 -1.195748532E+01  8.135830556E+01  7.166640395E+01  1.090790025E+02  9.536743164E-07  0.00000E+00  9.000E+00
#rwgt            1           9   1.4259729897148276E-002          11      780174           0
</event>
<event>
      6   9999  3.45752E-01  6.26239E+00 -1.00000E+00  2.11501E-01
      21    -1     0     0   501   512  0.000000000E+00  0.000000000E+00  2.561538252E+01  2.561538252E+01  0.000000000E+00  0.00000E+00  9.000E+00
      21    -1     0     0   502   503  0.000000000E+00  0.000000000E+00 -2.396190955E+03  2.396190955E+03  0.000000000E+00  0.00000E+00  9.000E+00
      25     1     1     2     0     0 -3.722527986E+01 -1.973604324E+01 -1.215287476E+03  1.222425650E+03  1.250023453E+02  0.00000E+00  9.000E+00
       5     1     1     2   501     0  8.947544270E+00 -4.866948599E+00  1.261574680E+01  1.689571853E+01  4.750000000E+00  0.00000E+00  9.000E+00
      -5     1     1     2     0   503  3.336094711E+01  2.826066056E+01 -1.173357100E+03  1.174181019E+03  4.750000000E+00  0.00000E+00  9.000E+00
      21     1     1     2   502   512 -5.083211516E+00 -3.657668718E+00  5.453257186E+00  8.303950487E+00  2.230201594E-07  0.00000E+00  9.000E+00
#rwgt            1           9   9.3473497494053813E-004          11      781063           0
</event>
<event>
      6   9999  3.45752E-01  4.86264E+00 -1.00000E+00  2.31511E-01
      21    -1     0     0   502   503  0.000000000E+00  0.000000000E+00  1.208787928E+03  1.208787928E+03  0.000000000E+00  0.00000E+00  9.000E+00
      21    -1     0     0   501   511  0.000000000E+00  0.000000000E+00 -4.779541082E+01  4.779541082E+01  0.000000000E+00  0.00000E+00  9.000E+00
      25     1     1     2     0     0  1.881328340E+02  8.496269323E+01  5.784002323E+02  6.267252456E+02  1.250003290E+02  0.00000E+00  9.000E+00
       5     1     1     2   501     0 -1.936649914E+02 -5.208527394E+01  5.133093188E+02  5.511152547E+02  4.750000000E+00  0.00000E+00  9.000E+00
      -5     1     1     2     0   503  9.847305845E+00 -3.063581915E+01  5.917440446E+01  6.752551733E+01  4.750000000E+00  0.00000E+00  9.000E+00
      21     1     1     2   502   511 -4.315148416E+00 -2.241600140E+00  1.010856151E+01  1.121732111E+01  1.685873940E-07  0.00000E+00  9.000E+00
#rwgt            1           9   6.6828390002776996E-004          11      786093           0
</event>
<event>
      6   9999  3.45752E-01  1.95542E+01 -1.00000E+00  1.60961E-01
      21    -1     0     0   501   502  0.000000000E+00  0.000000000E+00  5.719528121E+02  5.719528121E+02  0.000000000E+00  0.00000E+00  9.000E+00
      21    -1     0     0   502   512  0.000000000E+00  0.000000000E+00 -5.633382769E+01  5.633382769E+01  0.000000000E+00  0.00000E+00  9.000E+00
      25     1     1     2     0     0 -6.184942738E+00  4.083796395E+01  2.178181462E+02  2.545067724E+02  1.249918379E+02  0.00000E+00  9.000E+00
       5     1     1     2   501     0 -6.561066131E-01 -6.146190809E+00  3.001476833E+02  3.002488974E+02  4.750000000E+00  0.00000E+00  9.000E+00
      -5     1     1     2     0   503  1.932043345E+01 -4.974603247E+01 -4.945391176E+00  5.380489094E+01  4.750000000E+00  0.00000E+00  9.000E+00
      21     1     1     2   503   512 -1.247938410E+01  1.505425933E+01  2.598546062E+00  1.972607901E+01  4.318766816E-07  0.00000E+00  9.000E+00
#rwgt            1           9   2.5179016494814770E-004          11      792024           0
</event>
<event>
      6   9999  3.45752E-01  1.29172E+01 -1.00000E+00  1.76197E-01
      21    -1     0     0   501   502  0.000000000E+00  0.000000000E+00  2.655856949E+02  2.655856949E+02  0.000000000E+00  0.00000E+00  9.000E+00
      21    -1     0     0   502   511  0.000000000E+00  0.000000000E+00 -9.654420794E+02  9.654420794E+02  0.000000000E+00  0.00000E+00  9.000E+00
      25     1     1     2     0     0 -6.768720576E+00 -1.329952044E+01  7.291083891E+01  1.454742052E+02  1.249962444E+02  0.00000E+00  9.000E+00
       5     1     1     2   501     0  1.831845409E+00 -3.587066294E+00  1.512965427E+02  1.514246645E+02  4.750000000E+00  0.00000E+00  9.000E+00
      -5     1     1     2     0   503  1.072615592E+00  4.560946606E+00  2.756252905E+00  7.218875829E+00  4.750000000E+00  0.00000E+00  9.000E+00
      21     1     1     2   503   511  3.864259574E+00  1.232564012E+01 -9.268200190E+02  9.269100288E+02  1.525878906E-05  0.00000E+00  9.000E+00
#rwgt            1           9   2.1266075893954195E-004          11      793914           0
</event>
<event>
      6   9999 -3.45752E-01  8.70440E+00 -1.00000E+00  1.93773E-01
      21    -1     0     0   501   502  0.000000000E+00  0.000000000E+00  8.279045610E+00  8.279045610E+00  0.000000000E+00  0.00000E+00  9.000E+00
      21    -1     0     0   502   512  0.000000000E+00  0.000000000E+00 -8.323379699E+02  8.323379699E+02  0.000000000E+00  0.00000E+00  9.000E+00
      25     1     1     2     0     0 -8.531348466E+00 -3.319509628E+00 -6.711023553E+02  6.827052919E+02  1.249973651E+02  0.00000E+00  9.000E+00
       5     1     1     2   501     0  6.584005733E+00  2.740064327E+00 -1.201844264E+01  1.476016760E+01  4.750000000E+00  0.00000E+00  9.000E+00
      -5     1     1     2     0   503  1.044052213E+01 -1.326463620E+00 -3.497976160E+01  3.683626243E+01  4.750000000E+00  0.00000E+00  9.000E+00
      21     1     1     2   503   512 -8.493179398E+00  1.905908921E+00 -1.059583648E+02  1.063152936E+02  0.000000000E+00  0.00000E+00  9.000E+00
#rwgt            1           9  -7.2020328045376081E-003          11      795985           0
</event>
<event>
      6   9999  3.45752E-01  5.32516E+00 -1.00000E+00  2.21540E-01
      21    -1     0     0   511   502  0.000000000E+00  0.000000000E+00  1.107032509E+01  1.107032509E+01  0.000000000E+00  0.00000E+00  9.000E+00
      21    -1     0     0   502   503  0.000000000E+00  0.000000000E+00 -4.116992618E+03  4.116992618E+03  0.000000000E+00  0.00000E+00  9.000E+00
      25     1     1     2     0     0  1.840292136E+01 -3.249439700E+00 -3.878531064E+03  3.880589932E+03  1.250031166E+02  0.00000E+00  9.000E+00
       5     1     1     2   501     0  3.481157554E+00 -1.521302124E-01 -6.850363579E+00  9.035019794E+00  4.750000000E+00  0.00000E+00  9.000E+00
      -5     1     1     2     0   503 -1.656126643E+01  3.243402441E+00 -2.283302526E+02  2.290023187E+02  4.750000000E+00  0.00000E+00  9.000E+00
      21     1     1     2   511   501 -5.322812486E+00  1.581674716E-01  7.789387705E+00  9.435672235E+00  1.476944887E-06  0.00000E+00  9.000E+00
#rwgt            1           9   2.7919289994604151E-004          11      798367           0
</event>
<event>
      6   9999 -3.45752E-01  1.10962E+01 -1.00000E+00  1.82557E-01
      21    -1     0     0   501   502  0.000000000E+00  0.000000000E+00  1.830611775E+01  1.830611775E+01  0.000000000E+00  0.00000E+00  9.000E+00
      -1    -1     0     0     0   503  0.000000000E+00  0.000000000E+00 -1.021934206E+03  1.021934206E+03  0.000000000E+00  0.00000E+00  9.000E+00
      25     1     1     2     0     0 -2.900805910E+01 -5.126675920E+00 -8.356781057E+02  8.454878602E+02  1.249963002E+02  0.00000E+00  9.000E+00
       5     1     1     2   501     0 -2.009882855E+00 -2.385884409E+00  8.747663558E+00  1.043149995E+01  4.750000000E+00  0.00000E+00  9.000E+00
      -5     1     1     2     0   503  3.701582841E+01 -1.822947790E+00 -9.865531616E+01  1.054937373E+02  4.750000000E+00  0.00000E+00  9.000E+00
      -1     1     1     2     0   502 -5.997886454E+00  9.335508119E+00 -7.804232960E+01  7.882722603E+01  9.536743164E-07  0.00000E+00  9.000E+00
#rwgt            1           9  -7.0325410299353606E-004          11      801574           0
</event>
<event>
      6   9999  3.45752E-01  9.58618E+00 -1.00000E+00  1.89148E-01
      21    -1     0     0   501   502  0.000000000E+00  0.000000000E+00  3.949797029E+03  3.949797029E+03  0.000000000E+00  0.00000E+00  9.000E+00
      21    -1     0     0   502   511  0.000000000E+00  0.000000000E+00 -4.955490473E+00  4.955490473E+00  0.000000000E+00  0.00000E+00  9.000E+00
      25     1     1     2     0     0 -5.102660146E+00 -1.668936857E+00  1.214663232E+03  1.221091010E+03  1.250106645E+02  0.00000E+00  9.000E+00
       5     1     1     2   501     0 -3.202208306E+00 -5.430911057E+00  2.688860646E+03  2.688872233E+03  4.750000000E+00  0.00000E+00  9.000E+00
      -5     1     1     2     0   503 -3.425811048E-01  2.962643447E+00  2.688016638E+01  2.745906886E+01  4.750000000E+00  0.00000E+00  9.000E+00
      21     1     1     2   503   511  8.647449558E+00  4.137204467E+00  1.443749427E+01  1.733020731E+01  5.057621821E-07  0.00000E+00  9.000E+00
#rwgt            1           9   1.3599855665474556               11      804229           0
</event>
<event>
      6   9999  3.45752E-01  1.86640E+01 -1.00000E+00  1.62536E-01
      21    -1     0     0   501   502  0.000000000E+00  0.000000000E+00  7.241961840E+00  7.241961840E+00  0.000000000E+00  0.00000E+00  9.000E+00
      21    -1     0     0   502   512  0.000000000E+00  0.000000000E+00 -8.873131080E+02  8.873131080E+02  0.000000000E+00  0.00000E+00  9.000E+00
      25     1     1     2     0     0  1.608487641E-02  2.107623449E+01 -6.722304211E+02  6.840778759E+02  1.249983736E+02  0.00000E+00  9.000E+00
       5     1     1     2   501     0 -1.607494181E-01  6.886380817E-01 -1.324547919E+01  1.408919024E+01  4.750000000E+00  0.00000E+00  9.000E+00
      -5     1     1     2     0   503 -4.777744179E+00 -3.761679858E+00 -6.477730165E+01  6.523525415E+01  4.750000000E+00  0.00000E+00  9.000E+00
      21     1     1     2   503   512  4.922408721E+00 -1.800319272E+01 -1.298179442E+02  1.311527495E+02  1.907348633E-06  0.00000E+00  9.000E+00
#rwgt            1           9   4.4993899374010382E-003          11      806645           0
</event>
<event>
      6   9999  3.45752E-01  4.71952E+00 -1.00000E+00  2.33862E-01
      21    -1     0     0   511   502  0.000000000E+00  0.000000000E+00  1.235864718E+02  1.235864718E+02  0.000000000E+00  0.00000E+00  9.000E+00
      21    -1     0     0   502   503  0.000000000E+00  0.000000000E+00 -7.836132810E+02  7.836132810E+02  0.000000000E+00  0.00000E+00  9.000E+00
      25     1     1     2     0     0 -9.049713754E-01  2.327549209E+00 -7.491205257E+02  7.594777304E+02  1.249744952E+02  0.00000E+00  9.000E+00
       5     1     1     2   501     0  1.242911835E+00  1.123547316E+00  4.593193943E+00  6.816679470E+00  4.750000000E+00  0.00000E+00  9.000E+00
      -5     1     1     2     0   503 -4.764811314E+00 -1.815042535E+00 -2.772159132E+01  2.858403281E+01  4.750000000E+00  0.00000E+00  9.000E+00
      21     1     1     2   511   501  4.426870855E+00 -1.636053991E+00  1.122221139E+02  1.123213101E+02  0.000000000E+00  0.00000E+00  9.000E+00
#rwgt            1           9   2.5726535781347840E-004          11      808446           0
</event>
<event>
      6   9999  3.45752E-01  2.30703E+01 -1.00000E+00  1.55616E-01
      21    -1     0     0   501   512  0.000000000E+00  0.000000000E+00  3.529089531E+02  3.529089531E+02  0.000000000E+00  0.00000E+00  9.000E+00
      21    -1     0     0   502   503  0.000000000E+00  0.000000000E+00 -7.092475265E+01  7.092475265E+01  0.000000000E+00  0.00000E+00  9.000E+00
      25     1     1     2     0     0 -1.378214133E+01  8.920907570E+00 -3.176036556E+00  1.261119510E+02  1.249984279E+02  0.00000E+00  9.000E+00
       5     1     1     2   501     0 -1.152683767E+01 -2.056721139E+00  2.556909652E+02  2.560029888E+02  4.750000000E+00  0.00000E+00  9.000E+00
      -5     1     1     2     0   503  2.469025966E+00 -3.611935675E+00  6.261661838E+00  8.995169677E+00  4.750000000E+00  0.00000E+00  9.000E+00
      21     1     1     2   502   512  2.283995303E+01 -3.252250757E+00  2.320760993E+01  3.272359620E+01  0.000000000E+00  0.00000E+00  9.000E+00
#rwgt            1           9   6.0117516793285236E-005          11      813123           0
</event>
<event>
      6   9999  3.45752E-01  2.37943E+00 -1.00000E+00  3.06191E-01
      21    -1     0     0   501   502  0.000000000E+00  0.000000000E+00  5.636418037E+00  5.636418037E+00  0.000000000E+00  0.00000E+00  9.000E+00
      21    -1     0     0   502   511  0.000000000E+00  0.000000000E+00 -9.987485575E+02  9.987485575E+02  0.000000000E+00  0.00000E+00  9.000E+00
      25     1     1     2     0     0 -5.551222986E+00 -4.123886394E+00 -9.366300727E+02  9.449600465E+02  1.250030958E+02  0.00000E+00  9.000E+00
       5     1     1     2   501     0  2.509523250E-01 -2.183206274E-01 -5.011284869E+00  6.912750321E+00  4.750000000E+00  0.00000E+00  9.000E+00
      -5     1     1     2     0   503  2.954911716E+00  3.940973374E+00 -2.453138434E+01  2.546790317E+01  4.750000000E+00  0.00000E+00  9.000E+00
      21     1     1     2   503   511  2.345358945E+00  4.012336477E-01 -2.693939752E+01  2.704427547E+01  4.768371582E-07  0.00000E+00  9.000E+00
#rwgt            1           9   1.6688633403274195E-003          11      814829           0
</event>
<event>
      6   9999 -3.45752E-01  3.59757E+00 -1.00000E+00  2.57784E-01
      21    -1     0     0   501   502  0.000000000E+00  0.000000000E+00  2.097551813E+01  2.097551813E+01  0.000000000E+00  0.00000E+00  9.000E+00
       1    -1     0     0   502     0  0.000000000E+00  0.000000000E+00 -9.433477762E+02  9.433477762E+02  0.000000000E+00  0.00000E+00  9.000E+00
      25     1     1     2     0     0 -1.305352522E+00 -1.212483458E+00 -2.564116970E+02  2.852608355E+02  1.249944472E+02  0.00000E+00  9.000E+00
       5     1     1     2   501     0 -4.262367057E-01 -1.291830088E+00  5.150170231E+00  7.137034126E+00  4.750000000E+00  0.00000E+00  9.000E+00
      -5     1     1     2     0   503  7.316963630E-01 -9.515103637E-01 -1.450943724E+01  1.531427506E+01  4.750000000E+00  0.00000E+00  9.000E+00
       1     1     1     2   503     0  9.998928652E-01  3.455823910E+00 -6.566012941E+02  6.566111497E+02  0.000000000E+00  0.00000E+00  9.000E+00
#rwgt            1           9  -7.2364765300238672E-003          11      820889           0
</event>
<event>
      6   9999  3.45752E-01  1.03803E+01 -1.00000E+00  1.85502E-01
      21    -1     0     0   501   502  0.000000000E+00  0.000000000E+00  5.729787281E+01  5.729787281E+01  0.000000000E+00  0.00000E+00  9.000E+00
      21    -1     0     0   502   511  0.000000000E+00  0.000000000E+00 -4.758902954E+02  4.758902954E+02  0.000000000E+00  0.00000E+00  9.000E+00
      25     1     1     2     0     0  1.834308163E+01 -1.176612818E+01 -3.087834134E+02  3.338397355E+02  1.250074485E+02  0.00000E+00  9.000E+00
       5     1     1     2   501     0  9.249001956E-02  1.321810631E+00  3.746034291E+01  3.778353515E+01  4.750000000E+00  0.00000E+00  9.000E+00
      -5     1     1     2     0   503 -1.919964307E+01  9.214823074E-02 -7.104161882E+00  2.101586071E+01  4.750000000E+00  0.00000E+00  9.000E+00
      21     1     1     2   503   511  7.640714209E-01  1.035216932E+01 -1.401651902E+02  1.405490369E+02  1.907348633E-06  0.00000E+00  9.000E+00
#rwgt            1           9   3.5197300219969767E-004          11      825920           0
</event>
<event>
      6   9999 -3.45752E-01  5.86425E+00 -1.00000E+00  2.15452E-01
      21    -1     0     0   501   502  0.000000000E+00  0.000000000E+00  4.247624255E+01  4.247624255E+01  0.000000000E+00  0.00000E+00  9.000E+00
      21    -1     0     0   512   503  0.000000000E+00  0.000000000E+00 -1.310609163E+03  1.310609163E+03  0.000000000E+00  0.00000E+00  9.000E+00
      25     1     1     2     0     0  1.355760967E+01  1.039763174E+02 -2.349143332E+02  2.860152668E+02  1.250004222E+02  0.00000E+00  9.000E+00
       5     1     1     2   501     0 -3.473029283E+00 -1.572886650E+00  1.362569595E+01  1.492507939E+01  4.750000000E+00  0.00000E+00  9.000E+00
      -5     1     1     2     0   503 -1.256219663E+01 -9.708828117E+01 -9.292531079E+02  9.344077504E+02  4.750000000E+00  0.00000E+00  9.000E+00
      21     1     1     2   512   502  2.477616238E+00 -5.315149526E+00 -1.175911751E+02  1.177373087E+02  0.000000000E+00  0.00000E+00  9.000E+00
#rwgt            1           9  -7.2287516396210951E-003          11      828811           0
</event>
<event>
      6   9999  3.45752E-01  7.60637E+01 -1.00000E+00  1.25710E-01
      21    -1     0     0   511   502  0.000000000E+00  0.000000000E+00  5.261027942E+01  5.261027942E+01  0.000000000E+00  0.00000E+00  9.000E+00
       3    -1     0     0   501     0  0.000000000E+00  0.000000000E+00 -4.763210210E+02  4.763210210E+02  0.000000000E+00  0.00000E+00  9.000E+00
      25     1     1     2     0     0 -1.460367359E+01  6.015124922E+01 -3.344095121E+02  3.623298621E+02  1.249870678E+02  0.00000E+00  9.000E+00
       5     1     1     2   501     0  4.512211015E+00  2.189024843E+01  1.421095923E+01  2.690830516E+01  4.750000000E+00  0.00000E+00  9.000E+00
      -5     1     1     2     0   502  1.552144689E+01 -6.171901002E+00 -1.462868835E+01  2.270613790E+01  4.750000000E+00  0.00000E+00  9.000E+00
       3     1     1     2   511     0 -5.429984320E+00 -7.586959664E+01 -8.888350040E+01  1.169869953E+02  9.536743164E-07  0.00000E+00  9.000E+00
#rwgt            1           7   1.3115425454347753E-005          11      834696           0
</event>
<event>
      6   9999  3.45752E-01  9.46435E+01 -1.00000E+00  1.21460E-01
      21    -1     0     0   502   503  0.000000000E+00  0.000000000E+00  6.988547753E+02  6.988547753E+02  0.000000000E+00  0.00000E+00  9.000E+00
       4    -1     0     0   501     0  0.000000000E+00  0.000000000E+00 -1.778276002E+02  1.778276002E+02  0.000000000E+00  0.00000E+00  9.000E+00
      25     1     1     2     0     0 -1.619574161E+01  5.062402715E+01  3.028514624E+02  3.319188279E+02  1.250040234E+02  0.00000E+00  9.000E+00
       5     1     1     2   501     0  1.974757713E+01  1.136213028E+02  2.224815043E+02  2.506398801E+02  4.750000000E+00  0.00000E+00  9.000E+00
      -5     1     1     2     0   503 -4.507583698E+00 -6.960660803E+01  1.194016669E+02  1.383644418E+02  4.750000000E+00  0.00000E+00  9.000E+00
       4     1     1     2   502     0  9.557481756E-01 -9.463872190E+01 -1.237074584E+02  1.557592258E+02  4.264961200E-06  0.00000E+00  9.000E+00
#rwgt            1           9   1403.3566481472342               11      835237           0
</event>
<event>
      6   9999  3.45752E-01  8.22075E+01 -1.00000E+00  1.24165E-01
      21    -1     0     0   502   511  0.000000000E+00  0.000000000E+00  1.077879703E+02  1.077879703E+02  0.000000000E+00  0.00000E+00  9.000E+00
      21    -1     0     0   501   502  0.000000000E+00  0.000000000E+00 -1.659296999E+03  1.659296999E+03  0.000000000E+00  0.00000E+00  9.000E+00
      25     1     1     2     0     0 -1.853629227E+01  2.452714419E+02 -2.263477099E+02  3.568763571E+02  1.250030968E+02  0.00000E+00  9.000E+00
       5     1     1     2   501     0  9.766107464E+01  3.165887442E+01 -5.589428226E+02  5.683129519E+02  4.750000000E+00  0.00000E+00  9.000E+00
      -5     1     1     2     0   503 -4.258203743E+01 -2.032913224E+02 -7.160688642E+02  7.455989354E+02  4.750000000E+00  0.00000E+00  9.000E+00
      21     1     1     2   503   511 -3.654274494E+01 -7.363899389E+01 -5.014963182E+01  9.629672476E+01  2.132480600E-06  0.00000E+00  9.000E+00
#rwgt            1           9   2.4024913719550238E-004          11      835876           0
</event>
<event>
      6   9999  3.45752E-01  1.10006E+01 -1.00000E+00  1.82934E-01
      21    -1     0     0   512   502  0.000000000E+00  0.000000000E+00  8.957383129E+01  8.957383129E+01  0.000000000E+00  0.00000E+00  9.000E+00
      21    -1     0     0   502   503  0.000000000E+00  0.000000000E+00 -6.541291250E+01  6.541291250E+01  0.000000000E+00  0.00000E+00  9.000E+00
      25     1     1     2     0     0 -2.879849866E+00  2.036979481E+00  9.640093091E+00  1.254215525E+02  1.250007665E+02  0.00000E+00  9.000E+00
       5     1     1     2   501     0 -5.267191749E-01  1.301048414E-01  5.290994751E+00  7.131022775E+00  4.750000000E+00  0.00000E+00  9.000E+00
      -5     1     1     2     0   503 -7.469675783E+00 -5.179897701E-01  1.509285334E+00  8.994710219E+00  4.750000000E+00  0.00000E+00  9.000E+00
      21     1     1     2   512   501  1.087624482E+01 -1.649094552E+00  7.720545609E+00  1.343945828E+01  3.371747881E-07  0.00000E+00  9.000E+00
#rwgt            1           9   9.4815096063066267E-005          11      836769           0
</event>
<event>
      6   9999  3.45752E-01  4.01768E+01 -1.00000E+00  1.40075E-01
      21    -1     0     0   501   511  0.000000000E+00  0.000000000E+00  1.351101667E+02  1.351101667E+02  0.000000000E+00  0.00000E+00  9.000E+00
      21    -1     0     0   502   503  0.000000000E+00  0.000000000E+00 -1.610138239E+03  1.610138239E+03  0.000000000E+00  0.00000E+00  9.000E+00
      25     1     1     2     0     0  1.076423316E+02 -3.470455452E+01 -4.746766666E+02  5.037188416E+02  1.249938237E+02  0.00000E+00  9.000E+00
       5     1     1     2   501     0  2.171397040E+00 -1.940576398E+01  4.550211939E+01  4.974237640E+01  4.750000000E+00  0.00000E+00  9.000E+00
      -5     1     1     2     0   503 -1.183988559E+02  1.486145254E+01 -1.109832555E+03  1.116239228E+03  4.750000000E+00  0.00000E+00  9.000E+00
      21     1     1     2   502   511  8.585127227E+00  3.924886595E+01  6.397902999E+01  7.554795938E+01  1.651812370E-06  0.00000E+00  9.000E+00
#rwgt            1           9   4.7139742447650512E-003          11      838594           0
</event>
<event>
      6   9999  3.45752E-01  3.77082E+01 -1.00000E+00  1.41688E-01
      21    -1     0     0   512   503  0.000000000E+00  0.000000000E+00  5.743243750E+01  5.743243750E+01  0.000000000E+00  0.00000E+00  9.000E+00
      21    -1     0     0   501   502  0.000000000E+00  0.000000000E+00 -1.361859644E+03  1.361859644E+03  0.000000000E+00  0.00000E+00  9.000E+00
      25     1     1     2     0     0 -1.873694732E+02  5.950865361E+01 -8.159310000E+02  8.485381373E+02  1.249998970E+02  0.00000E+00  9.000E+00
       5     1     1     2   501     0  1.987704423E+02 -8.189462880E+01 -3.443404498E+02  4.059671500E+02  4.750000000E+00  0.00000E+00  9.000E+00
      -5     1     1     2     0   503 -2.367085968E+01 -1.327017736E+01 -1.116601839E+02  1.150085491E+02  4.750000000E+00  0.00000E+00  9.000E+00
      21     1     1     2   512   502  1.226989053E+01  3.565615255E+01 -3.249557246E+01  4.977824483E+01  6.743495762E-07  0.00000E+00  9.000E+00
#rwgt            1           9   6.1992098894862106E-004          11      840447           0
</event>
<event>
      6   9999  3.45752E-01  1.32605E+01 -1.00000E+00  1.75145E-01
      21    -1     0     0   501   511  0.000000000E+00  0.000000000E+00  2.125845638E+02  2.125845638E+02  0.000000000E+00  0.00000E+00  9.000E+00
      21    -1     0     0   502   503  0.000000000E+00  0.000000000E+00 -1.187596220E+03  1.187596220E+03  0.000000000E+00  0.00000E+00  9.000E+00
      25     1     1     2     0     0  3.090703721E+00  1.753506467E+00 -1.104251386E+03  1.111309655E+03  1.250015879E+02  0.00000E+00  9.000E+00
       5     1     1     2   501     0 -4.661168626E+00  8.964510844E+00  3.049016988E+01  3.247001550E+01  4.750000000E+00  0.00000E+00  9.000E+00
      -5     1     1     2     0   503 -9.485306206E+00 -3.396146249E+00 -7.818294002E+01  7.897239678E+01  4.750000000E+00  0.00000E+00  9.000E+00
      21     1     1     2   502   511  1.105577111E+01 -7.321871062E+00  1.769325004E+02  1.774287169E+02  7.387129490E-06  0.00000E+00  9.000E+00
#rwgt            1           9   1.6837085441959339E-004          11      841978           0
</event>
<event>
      6   9999  3.45752E-01  7.01355E+00 -1.00000E+00  2.05032E-01
      21    -1     0     0   502   503  0.000000000E+00  0.000000000E+00  7.755241374E+00  7.755241374E+00  0.000000000E+00  0.00000E+00  9.000E+00
      21    -1     0     0   512   502  0.000000000E+00  0.000000000E+00 -1.097020499E+03  1.097020499E+03  0.000000000E+00  0.00000E+00  9.000E+00
      25     1     1     2     0     0  1.333435533E+01 -1.578924425E+01 -6.297952160E+02  6.424130895E+02  1.250018329E+02  0.00000E+00  9.000E+00
       5     1     1     2   501     0 -4.381814437E+00  6.209734949E+00 -2.366737903E+01  2.530747787E+01  4.750000000E+00  0.00000E+00  9.000E+00
      -5     1     1     2     0   503 -2.686663895E+00  6.428527072E+00 -2.923005469E+01  3.042207620E+01  4.750000000E+00  0.00000E+00  9.000E+00
      21     1     1     2   512   501 -6.265876997E+00  3.150982231E+00 -4.065726081E+02  4.066330970E+02  5.394796609E-06  0.00000E+00  9.000E+00
#rwgt            1           9   4.0069806137700548               11      845116           0
</event>
<event>
      6   9999 -3.45752E-01  7.34792E+00 -1.00000E+00  2.02490E-01
      21    -1     0     0   501   502  0.000000000E+00  0.000000000E+00  1.186731425E+02  1.186731425E+02  0.000000000E+00  0.00000E+00  9.000E+00
      21    -1     0     0   511   503  0.000000000E+00  0.000000000E+00 -2.087355836E+02  2.087355836E+02  0.000000000E+00  0.00000E+00  9.000E+00
      25     1     1     2     0     0  4.984339190E+01  1.386660234E+01 -1.030541318E+02  1.700650661E+02  1.250013050E+02  0.00000E+00  9.000E+00
       5     1     1     2   501     0 -2.222570864E+00  4.291792796E+00  5.260811448E+01  5.304277062E+01  4.750000000E+00  0.00000E+00  9.000E+00
      -5     1     1     2     0   503 -5.041130693E+01 -1.136096442E+01  1.108964391E+01  5.306518709E+01  4.750000000E+00  0.00000E+00  9.000E+00
      21     1     1     2   511   502  2.790485886E+00 -6.797430717E+00 -5.070606771E+01  5.123570219E+01  0.000000000E+00  0.00000E+00  9.000E+00
#rwgt            1           9  -1.1618398807576537E-003          11      848050           0
</event>
<event>
      6   9999  3.45752E-01  1.08060E+01 -1.00000E+00  1.83716E-01
      21    -1     0     0   502   503  0.000000000E+00  0.000000000E+00  9.045309495E+02  9.045309495E+02  0.000000000E+00  0.00000E+00  9.000E+00
      21    -1     0     0   512   502  0.000000000E+00  0.000000000E+00 -2.051339156E+01  2.051339156E+01  0.000000000E+00  0.00000E+00  9.000E+00
      25     1     1     2     0     0  5.305755340E+01 -3.359122789E+01  5.458313499E+02  5.634719204E+02  1.250010718E+02  0.00000E+00  9.000E+00
       5     1     1     2   501     0  1.624869481E+01  1.692817352E+01  1.171968530E+01  2.665514331E+01  4.750000000E+00  0.00000E+00  9.000E+00
      -5     1     1     2     0   503 -5.955135579E+01  1.201416421E+01  3.032129348E+02  3.092755251E+02  4.750000000E+00  0.00000E+00  9.000E+00
      21     1     1     2   512   501 -9.754892419E+00  4.648890164E+00  2.325358791E+01  2.564175221E+01  3.371747881E-07  0.00000E+00  9.000E+00
#rwgt            1           9  0.19687753877419104               11      851789           0
</event>
<event>
      6   9999  3.45752E-01  1.61412E+01 -1.00000E+00  1.67657E-01
      21    -1     0     0   511   502  0.000000000E+00  0.000000000E+00  5.725873509E+01  5.725873509E+01  0.000000000E+00  0.00000E+00  9.000E+00
      21    -1     0     0   502   503  0.000000000E+00  0.000000000E+00 -1.330766597E+03  1.330766597E+03  0.000000000E+00  0.00000E+00  9.000E+00
      25     1     1     2     0     0 -3.234260549E+01 -6.451274072E+01 -4.455695691E+02  4.683636051E+02  1.249971513E+02  0.00000E+00  9.000E+00
       5     1     1     2   501     0 -3.199784203E+00 -5.229352004E+00  2.810853855E+01  2.915882681E+01  4.750000000E+00  0.00000E+00  9.000E+00
      -5     1     1     2     0   503  4.068517038E+01  5.444209038E+01 -8.678414182E+02  8.705116392E+02  4.750000000E+00  0.00000E+00  9.000E+00
      21     1     1     2   511   501 -5.142780682E+00  1.530000235E+01  1.179458642E+01  1.999126143E+01  5.331201500E-07  0.00000E+00  9.000E+00
#rwgt            1           9   4.5529800722639756E-002          11      854812           0
</event>
<event>
      6   9999  3.45752E-01  9.64735E+00 -1.00000E+00  1.88851E-01
      21    -1     0     0   501   502  0.000000000E+00  0.000000000E+00  1.211878171E+01  1.211878171E+01  0.000000000E+00  0.00000E+00  9.000E+00
      21    -1     0     0   502   512  0.000000000E+00  0.000000000E+00 -9.583024718E+02  9.583024718E+02  0.000000000E+00  0.00000E+00  9.000E+00
      25     1     1     2     0     0 -2.196490274E+01 -1.871112332E+01 -5.637392786E+02  5.781524647E+02  1.250029405E+02  0.00000E+00  9.000E+00
       5     1     1     2   501     0 -3.208323760E+00  8.907931942E-01  2.185106928E+00  6.198713266E+00  4.750000000E+00  0.00000E+00  9.000E+00
      -5     1     1     2     0   503  1.554918772E+01  1.715008680E+01 -2.816190427E+02  2.826088294E+02  4.750000000E+00  0.00000E+00  9.000E+00
      21     1     1     2   503   512  9.624038786E+00  6.702433291E-01 -1.030104757E+02  1.034612462E+02  1.348699152E-06  0.00000E+00  9.000E+00
#rwgt            1           9   2.5934501459260882E-004          11      857385           0
</event>
<event>
      6   9999 -3.45752E-01  8.12640E+00 -1.00000E+00  1.97213E-01
      -1    -1     0     0     0   502  0.000000000E+00  0.000000000E+00  6.530508247E+02  6.530508247E+02  0.000000000E+00  0.00000E+00  9.000E+00
      21    -1     0     0   502   503  0.000000000E+00  0.000000000E+00 -9.644778826E+01  9.644778826E+01  0.000000000E+00  0.00000E+00  9.000E+00
      25     1     1     2     0     0  1.568999058E+01  3.535335694E+01 -4.240024217E+01  1.375432846E+02  1.249973558E+02  0.00000E+00  9.000E+00
       5     1     1     2   501     0 -2.621409608E+00 -1.274405633E+00  1.232966926E+02  1.234225782E+02  4.750000000E+00  0.00000E+00  9.000E+00
      -5     1     1     2     0   503 -1.439669127E+01 -4.209609025E+01  7.216883893E+01  8.491318712E+01  4.750000000E+00  0.00000E+00  9.000E+00
      -1     1     1     2     0   501  1.328110302E+00  8.017138949E+00  4.035377471E+02  4.036195631E+02  0.000000000E+00  0.00000E+00  9.000E+00
#rwgt            1           9  -6.2749662940055559E-002          11      859987           0
</event>
<event>
      6   9999  3.45752E-01  5.21022E+00 -1.00000E+00  2.22968E-01
      21    -1     0     0   501   502  0.000000000E+00  0.000000000E+00  7.295723250E+00  7.295723250E+00  0.000000000E+00  0.00000E+00  9.000E+00
      21    -1     0     0   502   511  0.000000000E+00  0.000000000E+00 -8.504630090E+02  8.504630090E+02  0.000000000E+00  0.00000E+00  9.000E+00
      25     1     1     2     0     0  2.552277125E+00  6.931186830E-01 -6.632025614E+02  6.748855210E+02  1.250033379E+02  0.00000E+00  9.000E+00
       5     1     1     2   501     0 -3.643432010E-01 -3.289285383E-01 -4.979076143E+00  6.898886808E+00  4.750000000E+00  0.00000E+00  9.000E+00
      -5     1     1     2     0   503 -2.771063518E+00 -5.541678748E+00 -3.369469832E+01  3.458734149E+01  4.750000000E+00  0.00000E+00  9.000E+00
      21     1     1     2   503   511  5.831295948E-01  5.177488604E+00 -1.412909500E+02  1.413869830E+02  1.907348633E-06  0.00000E+00  9.000E+00
#rwgt            1           9   1.2195504768264644E-005          11      863233           0
</event>
<event>
      6   9999  3.45752E-01  7.65050E+00 -1.00000E+00  2.00340E-01
      21    -1     0     0   512   502  0.000000000E+00  0.000000000E+00  1.561673341E+01  1.561673341E+01  0.000000000E+00  0.00000E+00  9.000E+00
      21    -1     0     0   502   503  0.000000000E+00  0.000000000E+00 -1.003767783E+03  1.003767783E+03  0.000000000E+00  0.00000E+00  9.000E+00
      25     1     1     2     0     0  1.332489271E+00  9.462349512E+00 -9.448456038E+02  9.531271357E+02  1.250072405E+02  0.00000E+00  9.000E+00
       5     1     1     2   501     0  6.267655722E-01  3.790465878E-01 -2.367353546E+00  5.357553006E+00  4.750000000E+00  0.00000E+00  9.000E+00
      -5     1     1     2     0   503 -3.281674392E+00 -2.306052745E+00 -4.922810719E+01  4.961911228E+01  4.750000000E+00  0.00000E+00  9.000E+00
      21     1     1     2   512   501  1.322419549E+00 -7.535343355E+00  8.290014948E+00  1.128071544E+01  7.152557373E-07  0.00000E+00  9.000E+00
#rwgt            1           9   2.5025443276760814E-002          11      866793           0
</event>
<event>
      6   9999  3.45752E-01  1.37865E+01 -1.00000E+00  1.73609E-01
      21    -1     0     0   511   502  0.000000000E+00  0.000000000E+00  2.125208805E+02  2.125208805E+02  0.000000000E+00  0.00000E+00  9.000E+00
      21    -1     0     0   502   503  0.000000000E+00  0.000000000E+00 -7.090180945E+02  7.090180945E+02  0.000000000E+00  0.00000E+00  9.000E+00
      25     1     1     2     0     0 -2.672737027E+00  1.633671533E+01 -6.151593504E+02  6.279492661E+02  1.250008907E+02  0.00000E+00  9.000E+00
       5     1     1     2   501     0 -9.069346428E+00 -2.205159791E+00 -4.406611427E+01  4.529349513E+01  4.750000000E+00  0.00000E+00  9.000E+00
      -5     1     1     2     0   503  1.633973489E+00 -4.756464821E+00 -4.227129367E+01  4.283361525E+01  4.750000000E+00  0.00000E+00  9.000E+00
      21     1     1     2   511   501  1.010810997E+01 -9.375090720E+00  2.049995443E+02  2.054625985E+02  6.031565972E-06  0.00000E+00  9.000E+00
#rwgt            1           9   1.7048093500322736E-003          11      869370           0
</event>
<event>
      6   9999  3.45752E-01  7.87865E+00 -1.00000E+00  1.98804E-01
      21    -1     0     0   512   502  0.000000000E+00  0.000000000E+00  2.282521758E+01  2.282521758E+01  0.000000000E+00  0.00000E+00  9.000E+00
      21    -1     0     0   502   503  0.000000000E+00  0.000000000E+00 -4.544835540E+02  4.544835540E+02  0.000000000E+00  0.00000E+00  9.000E+00
      25     1     1     2     0     0 -2.484965432E+00 -3.216120018E+00 -3.257409944E+02  3.489305749E+02  1.250153278E+02  0.00000E+00  9.000E+00
       5     1     1     2   501     0  8.602150057E-01  1.201650893E+00 -3.631191882E+01  3.665108297E+01  4.750000000E+00  0.00000E+00  9.000E+00
      -5     1     1     2     0   503  6.484633455E+00 -4.186707177E+00 -7.897042461E+01  7.948880079E+01  4.750000000E+00  0.00000E+00  9.000E+00
      21     1     1     2   512   501 -4.859883029E+00  6.201176302E+00  9.365001431E+00  1.223831289E+01  5.462855929E-07  0.00000E+00  9.000E+00
#rwgt            1           9   8.0258979288353773E-003          11      870879           0
</event>
<event>
      6   9999  3.45752E-01  1.24056E+01 -1.00000E+00  1.77843E-01
      21    -1     0     0   501   502  0.000000000E+00  0.000000000E+00  3.255509771E+01  3.255509771E+01  0.000000000E+00  0.00000E+00  9.000E+00
      21    -1     0     0   502   511  0.000000000E+00  0.000000000E+00 -1.122383695E+03  1.122383695E+03  0.000000000E+00  0.00000E+00  9.000E+00
      25     1     1     2     0     0 -6.650687801E+01 -1.232489354E+02 -5.266186904E+02  5.590794473E+02  1.250164726E+02  0.00000E+00  9.000E+00
       5     1     1     2   501     0  4.177624130E+01 -5.870090200E+00 -4.915304148E+01  6.494841248E+01  4.750000000E+00  0.00000E+00  9.000E+00
      -5     1     1     2     0   503  1.908150110E+01  1.180742360E+02 -4.490000477E+02  4.646818635E+02  4.750000000E+00  0.00000E+00  9.000E+00
      21     1     1     2   503   511  5.649135600E+00  1.104478955E+01 -6.505681734E+01  6.622906908E+01  9.536743164E-07  0.00000E+00  9.000E+00
#rwgt            1           9   1.6721286160136550E-003          11      873426           0
</event>
<event>
      6   9999  3.45752E-01  3.46294E+01 -1.00000E+00  1.43916E-01
       3    -1     0     0   501     0  0.000000000E+00  0.000000000E+00  1.052407482E+02  1.052407482E+02  0.000000000E+00  0.00000E+00  9.000E+00
      21    -1     0     0   502   503  0.000000000E+00  0.000000000E+00 -1.469103110E+03  1.469103110E+03  0.000000000E+00  0.00000E+00  9.000E+00
      25     1     1     2     0     0  8.858677931E+01  1.138199079E+02 -5.273666434E+02  5.608413886E+02  1.249995907E+02  0.00000E+00  9.000E+00
       5     1     1     2   501     0 -1.991975213E+01 -4.070636035E+01  3.531162895E+01  5.764787886E+01  4.750000000E+00  0.00000E+00  9.000E+00
      -5     1     1     2     0   503 -9.829956491E+01 -5.519413440E+01 -9.025331519E+02  9.095591512E+02  4.750000000E+00  0.00000E+00  9.000E+00
       3     1     1     2   502     0  2.963253773E+01 -1.791941318E+01  3.072580443E+01  4.629543950E+01  1.305872339E-06  0.00000E+00  9.000E+00
#rwgt            1           9  0.10499574098991592               11      876213           0
</event>
<event>
      6   9999  3.45752E-01  3.12795E+01 -1.00000E+00  1.46674E-01
      21    -1     0     0   511   503  0.000000000E+00  0.000000000E+00  1.429701895E+01  1.429701895E+01  0.000000000E+00  0.00000E+00  9.000E+00
      21    -1     0     0   501   502  0.000000000E+00  0.000000000E+00 -9.055551481E+02  9.055551481E+02  0.000000000E+00  0.00000E+00  9.000E+00
      25     1     1     2     0     0 -3.502271802E+01 -1.828219561E+01 -6.490929829E+02  6.621974915E+02  1.249919512E+02  0.00000E+00  9.000E+00
       5     1     1     2   501     0  1.990488184E-01 -1.088709929E+00 -8.711486972E+01  8.725129189E+01  4.750000000E+00  0.00000E+00  9.000E+00
      -5     1     1     2     0   503  9.614381992E+00  3.788844899E+01 -8.388745121E+01  9.266950889E+01  4.750000000E+00  0.00000E+00  9.000E+00
      21     1     1     2   511   502  2.520928721E+01 -1.851754345E+01 -7.116282532E+01  7.773387476E+01  1.348699152E-06  0.00000E+00  9.000E+00
#rwgt            1           9  0.64169456951623915               11      878310           0
</event>
<event>
      6   9999  3.45752E-01  1.24014E+01 -1.00000E+00  1.77857E-01
      21    -1     0     0   501   502  0.000000000E+00  0.000000000E+00  1.048201418E+01  1.048201418E+01  0.000000000E+00  0.00000E+00  9.000E+00
      21    -1     0     0   512   503  0.000000000E+00  0.000000000E+00 -2.313227595E+03  2.313227595E+03  0.000000000E+00  0.00000E+00  9.000E+00
      25     1     1     2     0     0 -1.353238862E+01 -1.644565236E+01 -1.676476443E+03  1.681264938E+03  1.249997722E+02  0.00000E+00  9.000E+00
       5     1     1     2   501     0  5.089474856E-01  1.103898157E-01  6.272087549E+00  7.884972776E+00  4.750000000E+00  0.00000E+00  9.000E+00
      -5     1     1     2     0   503  7.949943853E-01  1.427119421E+01 -5.925391436E+01  6.113826844E+01  4.750000000E+00  0.00000E+00  9.000E+00
      21     1     1     2   512   502  1.222844675E+01  2.064068335E+00 -5.732873117E+02  5.734214306E+02  7.629394531E-06  0.00000E+00  9.000E+00
#rwgt            1           9   2.2017672703243189E-008          11      879260           0
</event>
<event>
      6   9999 -3.45752E-01  8.18640E+01 -1.00000E+00  1.24248E-01
      21    -1     0     0   511   503  0.000000000E+00  0.000000000E+00  1.401203418E+02  1.401203418E+02  0.000000000E+00  0.00000E+00  9.000E+00
      21    -1     0     0   501   502  0.000000000E+00  0.000000000E+00 -1.588608736E+03  1.588608736E+03  0.000000000E+00  0.00000E+00  9.000E+00
      25     1     1     2     0     0  7.832339958E+01  7.817333620E+01 -2.295753005E+02  2.838567515E+02  1.249968454E+02  0.00000E+00  9.000E+00
       5     1     1     2   501     0 -1.144851222E+02  1.373802581E+02 -1.127376568E+03  1.141481785E+03  4.750000000E+00  0.00000E+00  9.000E+00
      -5     1     1     2     0   503 -3.938447960E+01 -1.840180132E+02 -1.119515667E+02  2.190193650E+02  4.750000000E+00  0.00000E+00  9.000E+00
      21     1     1     2   511   502  7.554620218E+01 -3.153558103E+01  2.041504022E+01  8.437117637E+01  2.500555153E-06  0.00000E+00  9.000E+00
#rwgt            1           9  -1.2568943409142077               11      881555           0
</event>
<event>
      6   9999  3.45752E-01  2.42047E+00 -1.00000E+00  3.03807E-01
      21    -1     0     0   501   512  0.000000000E+00  0.000000000E+00  3.942944081E+01  3.942944081E+01  0.000000000E+00  0.00000E+00  9.000E+00
      21    -1     0     0   502   503  0.000000000E+00  0.000000000E+00 -8.535108955E+02  8.535108955E+02  0.000000000E+00  0.00000E+00  9.000E+00
      25     1     1     2     0     0 -1.403768699E+00  4.361183563E+00 -7.904014018E+02  8.002389592E+02  1.250081011E+02  0.00000E+00  9.000E+00
       5     1     1     2   501     0 -1.663094043E+00  2.449313278E+00  6.437989429E+00  8.530839655E+00  4.750000000E+00  0.00000E+00  9.000E+00
      -5     1     1     2     0   503  5.223476868E+00 -5.711554110E+00 -5.672822145E+01  5.745050191E+01  4.750000000E+00  0.00000E+00  9.000E+00
      21     1     1     2   502   512 -2.156614127E+00 -1.098942730E+00  2.661017920E+01  2.672003549E+01  1.581489940E-06  0.00000E+00  9.000E+00
#rwgt            1           9   1.4087263989887293E-003          11      882432           0
</event>
<event>
      6   9999  3.45752E-01  3.20144E+01 -1.00000E+00  1.46035E-01
      21    -1     0     0   501   511  0.000000000E+00  0.000000000E+00  1.219907083E+02  1.219907083E+02  0.000000000E+00  0.00000E+00  9.000E+00
      21    -1     0     0   502   503  0.000000000E+00  0.000000000E+00 -1.687448916E+03  1.687448916E+03  0.000000000E+00  0.00000E+00  9.000E+00
      25     1     1     2     0     0  1.885660971E+02 -1.242366670E+02 -3.416509047E+02  4.281883176E+02  1.250118884E+02  0.00000E+00  9.000E+00
       5     1     1     2   501     0  2.816480582E+00 -9.192891635E-01  4.968482737E+01  4.999922226E+01  4.750000000E+00  0.00000E+00  9.000E+00
      -5     1     1     2     0   503 -2.124084300E+02  1.492979191E+02 -1.273019944E+03  1.299234217E+03  4.750000000E+00  0.00000E+00  9.000E+00
      21     1     1     2   502   511  2.102585235E+01 -2.414196289E+01 -4.721854912E-01  3.201786686E+01  4.436068430E-07  0.00000E+00  9.000E+00
#rwgt            1           9   1.4412745952006487E-004          11      889633           0
</event>
<event>
      6   9999  3.45752E-01  6.75556E+00 -1.00000E+00  2.07126E-01
      21    -1     0     0   501   512  0.000000000E+00  0.000000000E+00  1.682384388E+01  1.682384388E+01  0.000000000E+00  0.00000E+00  9.000E+00
      21    -1     0     0   502   503  0.000000000E+00  0.000000000E+00 -8.340693646E+02  8.340693646E+02  0.000000000E+00  0.00000E+00  9.000E+00
      25     1     1     2     0     0  1.798018765E+01  4.353695055E+01 -7.142050124E+02  7.265898560E+02  1.250010634E+02  0.00000E+00  9.000E+00
       5     1     1     2   501     0  1.214530203E-01  3.342803987E-01 -2.404392685E-01  4.769361096E+00  4.750000000E+00  0.00000E+00  9.000E+00
      -5     1     1     2     0   503 -2.455525638E+01 -4.586832655E+01 -9.858155334E+01  1.115694813E+02  4.750000000E+00  0.00000E+00  9.000E+00
      21     1     1     2   502   512  6.453615714E+00  1.997095604E+00 -4.218515702E+00  7.964510115E+00  1.192092896E-07  0.00000E+00  9.000E+00
#rwgt            1           9   5.8715271622064721E-005          11      891686           0
</event>
<event>
      6   9999  3.45752E-01  4.14085E+00 -1.00000E+00  2.44780E-01
      21    -1     0     0   511   502  0.000000000E+00  0.000000000E+00  4.067379719E+01  4.067379719E+01  0.000000000E+00  0.00000E+00  9.000E+00
      21    -1     0     0   502   503  0.000000000E+00  0.000000000E+00 -8.479998487E+02  8.479998487E+02  0.000000000E+00  0.00000E+00  9.000E+00
      25     1     1     2     0     0 -2.562039454E+01  1.778283248E+01 -7.158433702E+02  7.273439572E+02  1.249994707E+02  0.00000E+00  9.000E+00
       5     1     1     2   501     0 -8.708488154E-01 -4.860129669E-01  2.771299183E+00  5.589023656E+00  4.750000000E+00  0.00000E+00  9.000E+00
      -5     1     1     2     0   503  2.342492729E+01 -1.451394882E+01 -1.232846436E+02  1.264161690E+02  4.750000000E+00  0.00000E+00  9.000E+00
      21     1     1     2   511   501  3.066316062E+00 -2.782870692E+00  2.903066315E+01  2.932449602E+01  1.651812370E-06  0.00000E+00  9.000E+00
#rwgt            1           9   3.5058367925149774E-005          11      895618           0
</event>
<event>
      6   9999  3.45752E-01  4.62375E+00 -1.00000E+00  2.35505E-01
      21    -1     0     0   501   502  0.000000000E+00  0.000000000E+00  8.848052222E+01  8.848052222E+01  0.000000000E+00  0.00000E+00  9.000E+00
      21    -1     0     0   512   503  0.000000000E+00  0.000000000E+00 -7.098330742E+01  7.098330742E+01  0.000000000E+00  0.00000E+00  9.000E+00
      25     1     1     2     0     0  5.163264131E+00  1.166049254E+01  1.074800843E+01  1.261081307E+02  1.250004583E+02  0.00000E+00  9.000E+00
       5     1     1     2   501     0 -1.643722314E-01 -1.696602496E-01  1.358734580E+01  1.439563366E+01  4.750000000E+00  0.00000E+00  9.000E+00
      -5     1     1     2     0   503 -4.380538980E+00 -6.908616514E+00  1.351342913E+00  9.555455592E+00  4.750000000E+00  0.00000E+00  9.000E+00
      21     1     1     2   512   502 -6.183529191E-01 -4.582215778E+00 -8.189482343E+00  9.404609658E+00  1.192092896E-07  0.00000E+00  9.000E+00
#rwgt            1           9   3.0990609104729335E-002          11      900505           0
</event>
<event>
      6   9999 -3.45752E-01  1.20954E+01 -1.00000E+00  1.78891E-01
      21    -1     0     0   511   502  0.000000000E+00  0.000000000E+00  2.566060379E+01  2.566060379E+01  0.000000000E+00  0.00000E+00  9.000E+00
      21    -1     0     0   502   503  0.000000000E+00  0.000000000E+00 -7.250477943E+02  7.250477943E+02  0.000000000E+00  0.00000E+00  9.000E+00
      25     1     1     2     0     0 -5.500674446E+00 -5.799953676E+00 -6.110483144E+02  6.237547684E+02  1.250042870E+02  0.00000E+00  9.000E+00
       5     1     1     2   501     0 -5.234373266E-01  1.630345496E-01 -7.109966025E+00  8.568236912E+00  4.750000000E+00  0.00000E+00  9.000E+00
      -5     1     1     2     0   503 -5.765979233E+00  2.936664139E+00 -9.765620596E+01  9.798554779E+01  4.750000000E+00  0.00000E+00  9.000E+00
      21     1     1     2   511   501  1.179009101E+01  2.700254988E+00  1.642729588E+01  2.039984492E+01  1.238859277E-06  0.00000E+00  9.000E+00
#rwgt            1           9  -1.0254605448947916E-004          11      904336           0
</event>
<event>
      6   9999  3.45752E-01  4.11226E+00 -1.00000E+00  2.45388E-01
      21    -1     0     0   501   502  0.000000000E+00  0.000000000E+00  4.312279265E+01  4.312279265E+01  0.000000000E+00  0.00000E+00  9.000E+00
      21    -1     0     0   502   512  0.000000000E+00  0.000000000E+00 -1.639255633E+03  1.639255633E+03  0.000000000E+00  0.00000E+00  9.000E+00
      25     1     1     2     0     0  1.170872447E+02  1.376218994E+02 -4.724471219E+02  5.210376964E+02  1.249991521E+02  0.00000E+00  9.000E+00
       5     1     1     2   501     0 -1.212268002E+00  2.455029288E-01  6.032792358E+00  7.777335600E+00  4.750000000E+00  0.00000E+00  9.000E+00
      -5     1     1     2     0   503 -1.178534866E+02 -1.414724278E+02 -7.000740730E+02  7.238992764E+02  4.750000000E+00  0.00000E+00  9.000E+00
      21     1     1     2   503   512  1.978509912E+00  3.605025461E+00 -4.296444376E+02  4.296641171E+02  5.394796609E-06  0.00000E+00  9.000E+00
#rwgt            1           9   1.5942385650267990E-004          11      906017           0
</event>
<event>
      6   9999  3.45752E-01  5.93542E+01 -1.00000E+00  1.30920E-01
      21    -1     0     0   501   502  0.000000000E+00  0.000000000E+00  2.951310454E+02  2.951310454E+02  0.000000000E+00  0.00000E+00  9.000E+00
      21    -1     0     0   511   503  0.000000000E+00  0.000000000E+00 -1.222429081E+03  1.222429081E+03  0.000000000E+00  0.00000E+00  9.000E+00
      25     1     1     2     0     0  2.226742413E+01 -6.344463714E+01 -4.495835087E+02  4.714566169E+02  1.249998004E+02  0.00000E+00  9.000E+00
       5     1     1     2   501     0  9.381070475E+00 -8.357248720E+00  2.791742135E+02  2.794971415E+02  4.750000000E+00  0.00000E+00  9.000E+00
      -5     1     1     2     0   503 -2.744903441E+01  1.259642230E+01 -6.140854461E+01  6.859804075E+01  4.750000000E+00  0.00000E+00  9.000E+00
      21     1     1     2   511   502 -4.199460196E+00  5.920546356E+01 -6.954801961E+02  6.980083277E+02  1.078959322E-05  0.00000E+00  9.000E+00
#rwgt            1           9   3.9931298755714936E-003          11      912231           0
</event>
<event>
      6   9999  3.45752E-01  4.41449E+00 -1.00000E+00  2.39308E-01
      21    -1     0     0   502   503  0.000000000E+00  0.000000000E+00  6.483562586E+00  6.483562586E+00  0.000000000E+00  0.00000E+00  9.000E+00
      21    -1     0     0   512   502  0.000000000E+00  0.000000000E+00 -1.476932379E+03  1.476932379E+03  0.000000000E+00  0.00000E+00  9.000E+00
      25     1     1     2     0     0  6.047725777E+00  1.799156599E+01 -6.757410545E+02  6.874665118E+02  1.249958424E+02  0.00000E+00  9.000E+00
       5     1     1     2   501     0 -8.391658415E+00 -1.541227201E+01 -2.887364437E+02  2.893082344E+02  4.750000000E+00  0.00000E+00  9.000E+00
      -5     1     1     2     0   503  1.906827666E+00  1.813497675E+00 -2.236709844E+01  2.301682772E+01  4.750000000E+00  0.00000E+00  9.000E+00
      21     1     1     2   512   501  4.371049729E-01 -4.392791658E+00 -4.836042198E+02  4.836243678E+02  0.000000000E+00  0.00000E+00  9.000E+00
#rwgt            1           9   1.8081345123095462E-003          11      913970           0
</event>
<event>
      6   9999  3.45752E-01  2.95534E+00 -1.00000E+00  2.78626E-01
      21    -1     0     0   511   502  0.000000000E+00  0.000000000E+00  6.603044630E+01  6.603044630E+01  0.000000000E+00  0.00000E+00  9.000E+00
      21    -1     0     0   502   503  0.000000000E+00  0.000000000E+00 -2.418615685E+02  2.418615685E+02  0.000000000E+00  0.00000E+00  9.000E+00
      25     1     1     2     0     0  3.895368770E+00  2.487169313E-01 -2.055220742E+02  2.405825796E+02  1.250016755E+02  0.00000E+00  9.000E+00
       5     1     1     2   501     0 -2.193116091E+00 -1.622338634E+00  4.620717163E+01  4.653070977E+01  4.750000000E+00  0.00000E+00  9.000E+00
      -5     1     1     2     0   503  1.230431294E+00  1.738887051E+00 -1.700432799E+01  1.778334501E+01  4.750000000E+00  0.00000E+00  9.000E+00
      21     1     1     2   511   501 -2.932683974E+00 -3.652653484E-01  4.881083222E-01  2.995380410E+00  8.592428710E-08  0.00000E+00  9.000E+00
#rwgt            1           9   29.697840736269402               11      918111           0
</event>
<event>
      6   9999  3.45752E-01  3.37538E+01 -1.00000E+00  1.44601E-01
      21    -1     0     0   502   512  0.000000000E+00  0.000000000E+00  8.616821416E+00  8.616821416E+00  0.000000000E+00  0.00000E+00  9.000E+00
      21    -1     0     0   501   502  0.000000000E+00  0.000000000E+00 -8.831897984E+02  8.831897984E+02  0.000000000E+00  0.00000E+00  9.000E+00
      25     1     1     2     0     0  2.025317852E+01 -2.878341591E+01 -6.601128616E+02  6.727653874E+02  1.250024007E+02  0.00000E+00  9.000E+00
       5     1     1     2   501     0 -2.111292027E+00  2.166338665E+00 -2.127469707E+01  2.200740359E+01  4.750000000E+00  0.00000E+00  9.000E+00
      -5     1     1     2     0   503  7.006441446E-01 -1.387886851E+00 -2.464880606E+01  2.515041296E+01  4.750000000E+00  0.00000E+00  9.000E+00
      21     1     1     2   503   512 -1.884253063E+01  2.800496410E+01 -1.685366123E+02  1.718834159E+02  3.814697266E-06  0.00000E+00  9.000E+00
#rwgt            1           9   2.9816864256245676E-003          11      925533           0
</event>
<event>
      6   9999  3.45752E-01  1.26550E+01 -1.00000E+00  1.77028E-01
      21    -1     0     0   501   511  0.000000000E+00  0.000000000E+00  3.918705951E+01  3.918705951E+01  0.000000000E+00  0.00000E+00  9.000E+00
      21    -1     0     0   502   503  0.000000000E+00  0.000000000E+00 -1.139067468E+03  1.139067468E+03  0.000000000E+00  0.00000E+00  9.000E+00
      25     1     1     2     0     0  4.439286416E+01  7.944637197E+01 -5.073498251E+02  5.303834055E+02  1.249810363E+02  0.00000E+00  9.000E+00
       5     1     1     2   501     0 -5.475161384E+00  2.249052955E+00  2.033012999E+01  2.170051420E+01  4.750000000E+00  0.00000E+00  9.000E+00
      -5     1     1     2     0   503 -5.054364675E+01 -8.669400297E+01 -5.991415280E+02  6.075060851E+02  4.750000000E+00  0.00000E+00  9.000E+00
      21     1     1     2   502   511  1.162594397E+01  4.998578047E+00 -1.371918516E+01  1.866452242E+01  2.384185791E-07  0.00000E+00  9.000E+00
#rwgt            1           9   4.9956496274248989E-003          11      926099           0
</event>
<event>
      6   9999  3.45752E-01  7.34930E+00 -1.00000E+00  2.02480E-01
      21    -1     0     0   501   512  0.000000000E+00  0.000000000E+00  3.201834163E+01  3.201834163E+01  0.000000000E+00  0.00000E+00  9.000E+00
      21    -1     0     0   502   503  0.000000000E+00  0.000000000E+00 -1.053059168E+03  1.053059168E+03  0.000000000E+00  0.00000E+00  9.000E+00
      25     1     1     2     0     0  4.771289990E+00  2.610736200E+01 -7.845568238E+02  7.948959586E+02  1.250032625E+02  0.00000E+00  9.000E+00
       5     1     1     2   501     0  8.566663086E+00  3.093115289E-01  1.726155247E+01  1.984961168E+01  4.750000000E+00  0.00000E+00  9.000E+00
      -5     1     1     2     0   503 -7.016348179E+00 -2.266840295E+01 -2.597295768E+02  2.608545595E+02  4.750000000E+00  0.00000E+00  9.000E+00
      21     1     1     2   502   512 -6.321604896E+00 -3.748270573E+00  5.984021514E+00  9.477380135E+00  5.717076687E-07  0.00000E+00  9.000E+00
#rwgt            1           9   3.3569033779730203E-005          11      929233           0
</event>
<event>
      6   9999  3.45752E-01  2.02672E+01 -1.00000E+00  1.59772E-01
      21    -1     0     0   511   502  0.000000000E+00  0.000000000E+00  8.554047576E+02  8.554047576E+02  0.000000000E+00  0.00000E+00  9.000E+00
      21    -1     0     0   502   503  0.000000000E+00  0.000000000E+00 -2.143183755E+02  2.143183755E+02  0.000000000E+00  0.00000E+00  9.000E+00
      25     1     1     2     0     0  3.479998959E+01 -6.765257197E+01 -1.160421920E+02  1.867580439E+02  1.249994675E+02  0.00000E+00  9.000E+00
       5     1     1     2   501     0 -2.049470665E+01 -7.990419589E+00  7.704660836E+02  7.707946733E+02  4.750000000E+00  0.00000E+00  9.000E+00
      -5     1     1     2     0   503 -2.628800143E+01  5.929753253E+01 -4.173945687E+01  7.727872374E+01  4.750000000E+00  0.00000E+00  9.000E+00
      21     1     1     2   511   501  1.198271849E+01  1.634545902E+01  2.840194731E+01  3.489169219E+01  3.371747881E-07  0.00000E+00  9.000E+00
#rwgt            1           9   7.4365815161622502               11      933284           0
</event>
<event>
      6   9999  3.45752E-01  1.88834E+01 -1.00000E+00  1.62138E-01
      21    -1     0     0   501   512  0.000000000E+00  0.000000000E+00  1.494051020E+01  1.494051020E+01  0.000000000E+00  0.00000E+00  9.000E+00
      21    -1     0     0   502   503  0.000000000E+00  0.000000000E+00 -8.618828349E+02  8.618828349E+02  0.000000000E+00  0.00000E+00  9.000E+00
      25     1     1     2     0     0 -2.148591121E+01  7.491930657E+00 -8.146105445E+02  8.244603011E+02  1.250067017E+02  0.00000E+00  9.000E+00
       5     1     1     2   501     0 -2.891813553E+00  2.851733776E-01  2.205820366E+00  5.989328257E+00  4.750000000E+00  0.00000E+00  9.000E+00
      -5     1     1     2     0   503  9.111738071E+00  3.337409629E+00 -1.926308190E+01  2.208598873E+01  4.750000000E+00  0.00000E+00  9.000E+00
      21     1     1     2   502   512  1.526598670E+01 -1.111451366E+01 -1.527451870E+01  2.428772705E+01  6.307962682E-07  0.00000E+00  9.000E+00
#rwgt            1           9   7.5624926257977852E-004          11      936512           0
</event>
<event>
      6   9999  3.45752E-01  9.79986E+00 -1.00000E+00  1.88123E-01
      21    -1     0     0   511   502  0.000000000E+00  0.000000000E+00  1.723211289E+01  1.723211289E+01  0.000000000E+00  0.00000E+00  9.000E+00
      21    -1     0     0   502   503  0.000000000E+00  0.000000000E+00 -4.820305265E+02  4.820305265E+02  0.000000000E+00  0.00000E+00  9.000E+00
      25     1     1     2     0     0  3.314141097E+01 -7.655390481E+00 -3.166283557E+02  3.421031859E+02  1.249964642E+02  0.00000E+00  9.000E+00
       5     1     1     2   501     0  4.619984869E-01  2.659351442E-02 -1.189585613E+00  4.918512351E+00  4.750000000E+00  0.00000E+00  9.000E+00
      -5     1     1     2     0   503 -2.547230749E+01  2.158651869E+00 -1.305152759E+02  1.330800435E+02  4.750000000E+00  0.00000E+00  9.000E+00
      21     1     1     2   511   501 -8.131101973E+00  5.470145097E+00 -1.646519640E+01  1.916089766E+01  0.000000000E+00  0.00000E+00  9.000E+00
#rwgt            1           9   1.6558587908956050E-004          11      938087           0
</event>
<event>
      6   9999  3.45752E-01  5.93001E+00 -1.00000E+00  2.14770E-01
      21    -1     0     0   501   502  0.000000000E+00  0.000000000E+00  6.526143986E+02  6.526143986E+02  0.000000000E+00  0.00000E+00  9.000E+00
      21    -1     0     0   502   512  0.000000000E+00  0.000000000E+00 -1.515927410E+02  1.515927410E+02  0.000000000E+00  0.00000E+00  9.000E+00
      25     1     1     2     0     0  2.792169759E+00  5.030762650E+00  4.609953215E+02  4.776779372E+02  1.250056819E+02  0.00000E+00  9.000E+00
       5     1     1     2   501     0 -5.701395528E-01 -9.908535778E-01  1.643908985E+02  1.644634819E+02  4.750000000E+00  0.00000E+00  9.000E+00
      -5     1     1     2     0   503  1.788942678E+00 -8.407643870E+00  1.750526657E+01  2.007201159E+01  4.750000000E+00  0.00000E+00  9.000E+00
      21     1     1     2   503   512 -4.010972884E+00  4.367734798E+00 -1.418698290E+02  1.419937090E+02  1.907348633E-06  0.00000E+00  9.000E+00
#rwgt            1           9   4.0173871755132913E-003          11      940347           0
</event>
<event>
      6   9999  3.45752E-01  9.22873E+00 -1.00000E+00  1.90942E-01
      21    -1     0     0   501   502  0.000000000E+00  0.000000000E+00  1.621710017E+03  1.621710017E+03  0.000000000E+00  0.00000E+00  9.000E+00
      21    -1     0     0   502   511  0.000000000E+00  0.000000000E+00 -2.828066293E+01  2.828066293E+01  0.000000000E+00  0.00000E+00  9.000E+00
      25     1     1     2     0     0  1.292205967E+01  2.456777577E+00  1.335927662E+03  1.341828361E+03  1.250104573E+02  0.00000E+00  9.000E+00
       5     1     1     2   501     0  8.077895819E-01  8.417570431E-02  1.753053342E+02  1.753715550E+02  4.750000000E+00  0.00000E+00  9.000E+00
      -5     1     1     2     0   503 -4.845871912E+00 -5.039818649E+00  1.064787825E+02  1.068137438E+02  4.750000000E+00  0.00000E+00  9.000E+00
      21     1     1     2   503   511 -8.883977342E+00  2.498865367E+00 -2.428242555E+01  2.597702008E+01  2.261837239E-06  0.00000E+00  9.000E+00
#rwgt            1           9   1.5112624602169834E-003          11      943628           0
</event>
<event>
      6   9999  3.45752E-01  1.47308E+01 -1.00000E+00  1.71056E-01
      21    -1     0     0   501   502  0.000000000E+00  0.000000000E+00  2.144467779E+01  2.144467779E+01  0.000000000E+00  0.00000E+00  9.000E+00
      21    -1     0     0   502   512  0.000000000E+00  0.000000000E+00 -1.166619694E+03  1.166619694E+03  0.000000000E+00  0.00000E+00  9.000E+00
      25     1     1     2     0     0 -7.906351063E+00  1.732329108E+01 -8.434759872E+02  8.529001833E+02  1.249974994E+02  0.00000E+00  9.000E+00
       5     1     1     2   501     0  3.895163063E-01  4.319842298E-01  1.600677282E+01  1.670681327E+01  4.750000000E+00  0.00000E+00  9.000E+00
      -5     1     1     2     0   503  7.605712239E-02 -5.041900472E+00 -8.224090527E+01  8.253214855E+01  4.750000000E+00  0.00000E+00  9.000E+00
      21     1     1     2   503   512  7.440777634E+00 -1.271337484E+01 -2.354648963E+02  2.359252264E+02  2.697398305E-06  0.00000E+00  9.000E+00
#rwgt            1           9   5.5021362238881608E-004          11      945681           0
</event>
<event>
      6   9999  3.45752E-01  2.58658E+01 -1.00000E+00  1.52128E-01
      21    -1     0     0   502   511  0.000000000E+00  0.000000000E+00  1.262434347E+02  1.262434347E+02  0.000000000E+00  0.00000E+00  9.000E+00
      21    -1     0     0   501   502  0.000000000E+00  0.000000000E+00 -1.482113782E+03  1.482113782E+03  0.000000000E+00  0.00000E+00  9.000E+00
      25     1     1     2     0     0  1.208501110E+02  1.882828926E+02 -2.542156206E+02  3.609778536E+02  1.249969282E+02  0.00000E+00  9.000E+00
       5     1     1     2   501     0  1.220857751E+01 -5.055041601E+01 -1.396977357E+02  1.491389077E+02  4.750000000E+00  0.00000E+00  9.000E+00
      -5     1     1     2     0   503 -1.573376135E+02 -1.466529162E+02 -1.015892712E+03  1.038423212E+03  4.750000000E+00  0.00000E+00  9.000E+00
      21     1     1     2   503   511  2.427892504E+01  8.920439629E+00  5.393572170E+01  5.981724266E+01  6.743495762E-07  0.00000E+00  9.000E+00
#rwgt            1           9   1.9616722784451579E-004          11      948096           0
</event>
<event>
      6   9999  3.45752E-01  1.59279E+01 -1.00000E+00  1.68143E-01
      21    -1     0     0   501   502  0.000000000E+00  0.000000000E+00  2.836918341E+01  2.836918341E+01  0.000000000E+00  0.00000E+00  9.000E+00
      21    -1     0     0   512   503  0.000000000E+00  0.000000000E+00 -1.208241373E+03  1.208241373E+03  0.000000000E+00  0.00000E+00  9.000E+00
      25     1     1     2     0     0 -3.297690051E+01  1.372291395E+02 -6.077835024E+02  6.363543219E+02  1.250068980E+02  0.00000E+00  9.000E+00
       5     1     1     2   501     0 -2.471857973E+00  1.104765801E+00  3.055026660E+00  6.263088472E+00  4.750000000E+00  0.00000E+00  9.000E+00
      -5     1     1     2     0   503  2.388702047E+01 -1.273783351E+02 -4.666017426E+02  4.842887349E+02  4.750000000E+00  0.00000E+00  9.000E+00
      21     1     1     2   512   502  1.156173801E+01 -1.095557017E+01 -1.085419713E+02  1.097044112E+02  1.348699152E-06  0.00000E+00  9.000E+00
#rwgt            1           9   6.0059870400373848E-006          11      950696           0
</event>
<event>
      6   9999  3.45752E-01  2.03755E+00 -1.00000E+00  3.29792E-01
      21    -1     0     0   501   502  0.000000000E+00  0.000000000E+00  2.287329352E+01  2.287329352E+01  0.000000000E+00  0.00000E+00  9.000E+00
      21    -1     0     0   502   511  0.000000000E+00  0.000000000E+00 -2.096625393E+02  2.096625393E+02  0.000000000E+00  0.00000E+00  9.000E+00
      25     1     1     2     0     0 -1.230778523E-01  3.985763149E-02 -1.690669629E+02  2.102646681E+02  1.250103035E+02  0.00000E+00  9.000E+00
       5     1     1     2   501     0 -1.980632902E-01  5.530560952E-02 -2.962044345E+00  5.601651049E+00  4.750000000E+00  0.00000E+00  9.000E+00
      -5     1     1     2     0   503 -1.665677897E+00  3.566763589E-01 -6.892954443E+00  8.542658944E+00  4.750000000E+00  0.00000E+00  9.000E+00
      21     1     1     2   503   511  1.986819040E+00 -4.518395999E-01 -7.867284105E+00  8.126854749E+00  0.000000000E+00  0.00000E+00  9.000E+00
#rwgt            1           9   6.5925351927446484E-003          11      953121           0
</event>
<event>
      6   9999  3.45752E-01  2.27052E+01 -1.00000E+00  1.56116E-01
      21    -1     0     0   501   512  0.000000000E+00  0.000000000E+00  3.244565390E+01  3.244565390E+01  0.000000000E+00  0.00000E+00  9.000E+00
      21    -1     0     0   502   503  0.000000000E+00  0.000000000E+00 -3.615800858E+02  3.615800858E+02  0.000000000E+00  0.00000E+00  9.000E+00
      25     1     1     2     0     0  6.375382677E-01  1.675121208E+01 -1.572087865E+02  2.015456480E+02  1.250001445E+02  0.00000E+00  9.000E+00
       5     1     1     2   501     0 -1.827742311E+00 -1.018017727E+00  2.186049233E+00  5.631901393E+00  4.750000000E+00  0.00000E+00  9.000E+00
      -5     1     1     2     0   503 -1.504601874E+01 -3.160484127E+01 -1.484003190E+02  1.525466023E+02  4.750000000E+00  0.00000E+00  9.000E+00
      21     1     1     2   502   512  1.623622278E+01  1.587164691E+01 -2.571137558E+01  3.430158802E+01  3.371747881E-07  0.00000E+00  9.000E+00
#rwgt            1           9   4.8601834674537736E-005          11      959883           0
</event>
<event>
      6   9999  3.45752E-01  1.09286E+02 -1.00000E+00  1.18819E-01
       3    -1     0     0   501     0  0.000000000E+00  0.000000000E+00  1.375000423E+03  1.375000423E+03  0.000000000E+00  0.00000E+00  9.000E+00
      21    -1     0     0   502   503  0.000000000E+00  0.000000000E+00 -1.817218075E+03  1.817218075E+03  0.000000000E+00  0.00000E+00  9.000E+00
      25     1     1     2     0     0 -1.968875860E+02 -1.321751706E+02 -2.701681027E+02  3.805912953E+02  1.249957322E+02  0.00000E+00  9.000E+00
       5     1     1     2   501     0 -1.627593371E+01 -2.113866800E+01  6.087203602E+01  6.663119819E+01  4.750000000E+00  0.00000E+00  9.000E+00
      -5     1     1     2     0   503  1.157493150E+02  1.037773784E+02 -1.482505759E+03  1.490641988E+03  4.750000000E+00  0.00000E+00  9.000E+00
       3     1     1     2   502     0  9.741420475E+01  4.953646021E+01  1.249584175E+03  1.254354016E+03  2.157918644E-05  0.00000E+00  9.000E+00
#rwgt            1           9   8.1475878436047984E-004          11      961443           0
</event>
<event>
      6   9999  3.45752E-01  2.28066E+01 -1.00000E+00  1.55976E-01
      21    -1     0     0   511   503  0.000000000E+00  0.000000000E+00  2.159347139E+02  2.159347139E+02  0.000000000E+00  0.00000E+00  9.000E+00
      21    -1     0     0   501   502  0.000000000E+00  0.000000000E+00 -7.130288223E+02  7.130288223E+02  0.000000000E+00  0.00000E+00  9.000E+00
      25     1     1     2     0     0  1.455459642E+01 -5.512717034E-01 -6.618280394E+02  6.736855463E+02  1.249948853E+02  0.00000E+00  9.000E+00
       5     1     1     2   501     0 -3.132738281E-01 -2.462072388E+00 -1.430165387E+01  1.527284336E+01  4.750000000E+00  0.00000E+00  9.000E+00
      -5     1     1     2     0   503  7.331751562E+00 -4.385616799E+00 -2.906182592E+01  3.066170969E+01  4.750000000E+00  0.00000E+00  9.000E+00
      21     1     1     2   511   502 -2.157307415E+01  7.398960890E+00  2.080974109E+02  2.093434369E+02  2.697398305E-06  0.00000E+00  9.000E+00
#rwgt            1           9   6.2489577130366375E-002          11      962557           0
</event>
<event>
      6   9999  3.45752E-01  9.10803E+01 -1.00000E+00  1.22185E-01
      21    -1     0     0   512   502  0.000000000E+00  0.000000000E+00  5.189423625E+02  5.189423625E+02  0.000000000E+00  0.00000E+00  9.000E+00
      21    -1     0     0   502   503  0.000000000E+00  0.000000000E+00 -1.472185042E+03  1.472185042E+03  0.000000000E+00  0.00000E+00  9.000E+00
      25     1     1     2     0     0 -9.059220145E+01  1.637804207E+02 -1.384456549E+03  1.402632275E+03  1.250055593E+02  0.00000E+00  9.000E+00
       5     1     1     2   501     0  8.325993971E+01 -7.102687195E+01  7.963581361E+01  1.354306443E+02  4.750000000E+00  0.00000E+00  9.000E+00
      -5     1     1     2     0   503  5.614166646E+00 -1.689453274E+00 -4.527210805E+01  4.589661628E+01  4.750000000E+00  0.00000E+00  9.000E+00
      21     1     1     2   512   501  1.718095090E+00 -9.106409551E+01  3.968501636E+02  4.071678692E+02  7.629394531E-06  0.00000E+00  9.000E+00
#rwgt            1           9   2.6110123276986402E-003          11      964041           0
</event>
<event>
      6   9999  3.45752E-01  9.08253E+00 -1.00000E+00  1.91706E-01
      21    -1     0     0   511   502  0.000000000E+00  0.000000000E+00  3.188205812E+02  3.188205812E+02  0.000000000E+00  0.00000E+00  9.000E+00
      21    -1     0     0   502   503  0.000000000E+00  0.000000000E+00 -1.098467826E+03  1.098467826E+03  0.000000000E+00  0.00000E+00  9.000E+00
      25     1     1     2     0     0 -3.037742285E+01  8.269463999E-01 -1.045050842E+03  1.052938544E+03  1.249993764E+02  0.00000E+00  9.000E+00
       5     1     1     2   501     0  4.607162334E+00 -1.257685828E+00  2.884286309E+01  2.961892924E+01  4.750000000E+00  0.00000E+00  9.000E+00
      -5     1     1     2     0   503  1.668777996E+01  4.609282863E-01 -4.747587808E+01  5.054914395E+01  4.750000000E+00  0.00000E+00  9.000E+00
      21     1     1     2   511   501  9.082480559E+00 -3.018885807E-02  2.840366123E+02  2.841817895E+02  3.814697266E-06  0.00000E+00  9.000E+00
#rwgt            1           9   6.9784433385351795E-004          11      965644           0
</event>
<event>
      6   9999  3.45752E-01  1.58704E+01 -1.00000E+00  1.68275E-01
      21    -1     0     0   501   502  0.000000000E+00  0.000000000E+00  7.199464990E+01  7.199464990E+01  0.000000000E+00  0.00000E+00  9.000E+00
      21    -1     0     0   502   512  0.000000000E+00  0.000000000E+00 -8.179142567E+02  8.179142567E+02  0.000000000E+00  0.00000E+00  9.000E+00
      25     1     1     2     0     0  1.406168891E+01 -8.332896234E+01 -1.315451769E+02  2.001782963E+02  1.250030786E+02  0.00000E+00  9.000E+00
       5     1     1     2   501     0 -3.866487972E-01  6.689233219E-01  2.472930826E+01  2.519321620E+01  4.750000000E+00  0.00000E+00  9.000E+00
      -5     1     1     2     0   503 -2.908564959E+01  7.886757114E+01 -1.281249737E+02  1.533122310E+02  4.750000000E+00  0.00000E+00  9.000E+00
      21     1     1     2   503   512  1.541060947E+01  3.792467883E+00 -5.109787644E+02  5.112251631E+02  5.394796609E-06  0.00000E+00  9.000E+00
#rwgt            1           9   1.1529455313681850E-004          11      969691           0
</event>
<event>
      6   9999  3.45752E-01  2.34861E+01 -1.00000E+00  1.55061E-01
      21    -1     0     0   501   502  0.000000000E+00  0.000000000E+00  3.305805902E+01  3.305805902E+01  0.000000000E+00  0.00000E+00  9.000E+00
      21    -1     0     0   502   511  0.000000000E+00  0.000000000E+00 -1.330583576E+03  1.330583576E+03  0.000000000E+00  0.00000E+00  9.000E+00
      25     1     1     2     0     0 -7.307253127E+00  5.365183497E+00 -1.045385917E+03  1.052871000E+03  1.249937865E+02  0.00000E+00  9.000E+00
       5     1     1     2   501     0 -4.495086480E+00  6.871588827E-01  2.784767778E+01  2.861352211E+01  4.750000000E+00  0.00000E+00  9.000E+00
      -5     1     1     2     0   503 -9.428724150E+00  3.989568880E+00 -1.036522506E+02  1.042648985E+02  4.750000000E+00  0.00000E+00  9.000E+00
      21     1     1     2   503   511  2.123106376E+01 -1.004191126E+01 -1.763350269E+02  1.778922139E+02  1.907348633E-06  0.00000E+00  9.000E+00
#rwgt            1           9   1.1596043032428319E-003          11      972039           0
</event>
<event>
      6   9999  3.45752E-01  1.58158E+01 -1.00000E+00  1.68402E-01
      -2    -1     0     0     0   503  0.000000000E+00  0.000000000E+00  2.314429110E+01  2.314429110E+01  0.000000000E+00  0.00000E+00  9.000E+00
      21    -1     0     0   501   502  0.000000000E+00  0.000000000E+00 -8.425953596E+02  8.425953596E+02  0.000000000E+00  0.00000E+00  9.000E+00
      25     1     1     2     0     0 -9.137218231E+00 -6.044846998E+01 -7.296212100E+02  7.427719810E+02  1.250023975E+02  0.00000E+00  9.000E+00
       5     1     1     2   501     0 -9.373334956E+00  5.020827087E+01 -7.925354530E+01  9.440559738E+01  4.750000000E+00  0.00000E+00  9.000E+00
      -5     1     1     2     0   503  5.814768916E+00  8.084785989E-01 -1.026454344E+01  1.274317571E+01  4.750000000E+00  0.00000E+00  9.000E+00
      -2     1     1     2     0   502  1.269578427E+01  9.431720504E+00 -3.117697644E-01  1.581889662E+01  2.294004607E-07  0.00000E+00  9.000E+00
#rwgt            1           9   8.4275602233881107E-003          11      974059           0
</event>
<event>
      6   9999  3.45752E-01  1.37693E+02 -1.00000E+00  1.14814E-01
      21    -1     0     0   511   503  0.000000000E+00  0.000000000E+00  1.220221615E+02  1.220221615E+02  0.000000000E+00  0.00000E+00  9.000E+00
      21    -1     0     0   501   502  0.000000000E+00  0.000000000E+00 -1.866336761E+03  1.866336761E+03  0.000000000E+00  0.00000E+00  9.000E+00
      25     1     1     2     0     0  1.247557413E+02 -3.798067729E+02 -1.223850821E+03  1.293542738E+03  1.249992190E+02  0.00000E+00  9.000E+00
       5     1     1     2   501     0 -8.770167065E+01  1.230394063E+02 -2.323569262E+02  2.772049461E+02  4.750000000E+00  0.00000E+00  9.000E+00
      -5     1     1     2     0   503  5.149832784E+01  1.513259637E+02 -1.178980729E+02  1.986810086E+02  4.750000000E+00  0.00000E+00  9.000E+00
      21     1     1     2   511   502 -8.855239849E+01  1.054414030E+02 -1.702087801E+02  2.189302299E+02  0.000000000E+00  0.00000E+00  9.000E+00
#rwgt            1           9   1.7129021485224398E-005          11      975943           0
</event>
<event>
      6   9999  3.45752E-01  8.42718E+00 -1.00000E+00  1.95378E-01
      21    -1     0     0   512   502  0.000000000E+00  0.000000000E+00  1.403714119E+01  1.403714119E+01  0.000000000E+00  0.00000E+00  9.000E+00
      21    -1     0     0   502   503  0.000000000E+00  0.000000000E+00 -8.925097892E+02  8.925097892E+02  0.000000000E+00  0.00000E+00  9.000E+00
      25     1     1     2     0     0 -2.426249946E+00  3.140780636E+00 -8.226607229E+02  8.321125212E+02  1.249993267E+02  0.00000E+00  9.000E+00
       5     1     1     2   501     0  1.193510815E+00  6.657709415E-01  7.052503923E+00  8.612086309E+00  4.750000000E+00  0.00000E+00  9.000E+00
      -5     1     1     2     0   503 -5.254300156E+00  1.572634010E+00 -4.945713602E+01  4.998651469E+01  4.750000000E+00  0.00000E+00  9.000E+00
      21     1     1     2   512   501  6.487039287E+00 -5.379185587E+00 -1.340729302E+01  1.583580823E+01  2.384185791E-07  0.00000E+00  9.000E+00
#rwgt            1           9   1.5621700122769503E-004          11      976702           0
</event>
<event>
      6   9999  3.45752E-01  3.15810E+00 -1.00000E+00  2.71205E-01
      21    -1     0     0   511   502  0.000000000E+00  0.000000000E+00  4.784917605E+00  4.784917605E+00  0.000000000E+00  0.00000E+00  9.000E+00
      21    -1     0     0   502   503  0.000000000E+00  0.000000000E+00 -1.206285950E+03  1.206285950E+03  0.000000000E+00  0.00000E+00  9.000E+00
      25     1     1     2     0     0  5.590347962E+00  2.610631469E+00 -1.143706252E+03  1.150533233E+03  1.249986435E+02  0.00000E+00  9.000E+00
       5     1     1     2   501     0  5.698253900E-02 -3.568484838E-01 -8.202921274E+00  9.485831818E+00  4.750000000E+00  0.00000E+00  9.000E+00
      -5     1     1     2     0   503 -3.276000134E+00 -1.680321708E-01 -4.558955388E+01  4.595356716E+01  4.750000000E+00  0.00000E+00  9.000E+00
      21     1     1     2   511   501 -2.371330366E+00 -2.085750814E+00 -4.002305230E+00  5.098236099E+00  1.884864366E-07  0.00000E+00  9.000E+00
#rwgt            1           9   5.9903403345693939E-004          11      979776           0
</event>
<event>
      6   9999  3.45752E-01  1.72078E+01 -1.00000E+00  1.65360E-01
      21    -1     0     0   512   503  0.000000000E+00  0.000000000E+00  1.165661827E+02  1.165661827E+02  0.000000000E+00  0.00000E+00  9.000E+00
      21    -1     0     0   501   502  0.000000000E+00  0.000000000E+00 -1.015777919E+03  1.015777919E+03  0.000000000E+00  0.00000E+00  9.000E+00
      25     1     1     2     0     0 -5.427052227E+01 -8.036900093E+01 -6.052419483E+02  6.255755868E+02  1.249901314E+02  0.00000E+00  9.000E+00
       5     1     1     2   501     0 -1.608133576E-01  1.518132532E-01 -1.776135427E+02  1.776771847E+02  4.750000000E+00  0.00000E+00  9.000E+00
      -5     1     1     2     0   503  4.195366317E+01  9.206684486E+01 -2.103871442E+02  2.334988795E+02  4.750000000E+00  0.00000E+00  9.000E+00
      21     1     1     2   512   502  1.247767246E+01 -1.184965717E+01  9.403089885E+01  9.559245066E+01  3.814697266E-06  0.00000E+00  9.000E+00
#rwgt            1           9   1.4964413873487909E-003          11      984601           0
</event>
<event>
      6   9999 -3.45752E-01  3.90601E+00 -1.00000E+00  2.50007E-01
      -2    -1     0     0     0   502  0.000000000E+00  0.000000000E+00  4.873391315E+01  4.873391315E+01  0.000000000E+00  0.00000E+00  9.000E+00
      21    -1     0     0   502   503  0.000000000E+00  0.000000000E+00 -5.669218883E+02  5.669218883E+02  0.000000000E+00  0.00000E+00  9.000E+00
      25     1     1     2     0     0 -1.048171086E+01 -3.067906709E+01 -5.266093707E+02  5.422120532E+02  1.250016396E+02  0.00000E+00  9.000E+00
       5     1     1     2   501     0 -1.650449420E+00 -2.245284567E+00  2.721969192E+01  2.777119757E+01  4.750000000E+00  0.00000E+00  9.000E+00
      -5     1     1     2     0   503  8.893873390E+00  3.074022663E+01 -2.318293178E+01  3.980041888E+01  4.750000000E+00  0.00000E+00  9.000E+00
      -2     1     1     2     0   501  3.238286886E+00  2.184125022E+00  4.384635418E+00  5.872131795E+00  2.149076030E-07  0.00000E+00  9.000E+00
#rwgt            1           9  -8.7393470356935462E-004          11      987038           0
</event>
<event>
      6   9999  3.45752E-01  3.30920E+01 -1.00000E+00  1.45134E-01
      21    -1     0     0   501   511  0.000000000E+00  0.000000000E+00  1.815601109E+02  1.815601109E+02  0.000000000E+00  0.00000E+00  9.000E+00
      21    -1     0     0   502   503  0.000000000E+00  0.000000000E+00 -1.462534964E+03  1.462534964E+03  0.000000000E+00  0.00000E+00  9.000E+00
      25     1     1     2     0     0  1.403800614E+02  1.590019412E+01 -5.533755711E+02  5.846430069E+02  1.249941799E+02  0.00000E+00  9.000E+00
       5     1     1     2   501     0 -9.013552196E+01 -1.035534654E+02 -5.752455810E+01  1.489273977E+02  4.750000000E+00  0.00000E+00  9.000E+00
      -5     1     1     2     0   503 -4.338089723E+01  1.200256321E+02 -7.827449066E+02  7.930953322E+02  4.750000000E+00  0.00000E+00  9.000E+00
      21     1     1     2   502   511 -6.863642209E+00 -3.237236079E+01  1.126701828E+02  1.174293380E+02  1.907348633E-06  0.00000E+00  9.000E+00
#rwgt            1           9   7.8760385954657827E-003          11      993138           0
</event>
<event>
      6   9999  3.45752E-01  1.40016E+01 -1.00000E+00  1.73005E-01
      21    -1     0     0   501   502  0.000000000E+00  0.000000000E+00  2.179131477E+01  2.179131477E+01  0.000000000E+00  0.00000E+00  9.000E+00
      21    -1     0     0   512   503  0.000000000E+00  0.000000000E+00 -1.757512597E+03  1.757512597E+03  0.000000000E+00  0.00000E+00  9.000E+00
      25     1     1     2     0     0 -3.394558326E+01 -9.536615799E+00 -5.615011521E+02  5.763254931E+02  1.249971220E+02  0.00000E+00  9.000E+00
       5     1     1     2   501     0 -4.206731061E-01  1.257741395E-01  1.361469247E+01  1.442619618E+01  4.750000000E+00  0.00000E+00  9.000E+00
      -5     1     1     2     0   503  2.224169666E+01  2.407910280E+00 -4.466379526E+02  4.472231147E+02  4.750000000E+00  0.00000E+00  9.000E+00
      21     1     1     2   512   502  1.212455970E+01  7.002931380E+00 -7.411968705E+02  7.413291083E+02  1.525878906E-05  0.00000E+00  9.000E+00
#rwgt            1           9   1.6979684931455553E-002          11      995148           0
</event>
<event>
      6   9999  3.45752E-01  5.00156E+00 -1.00000E+00  2.25695E-01
      21    -1     0     0   511   502  0.000000000E+00  0.000000000E+00  1.828822860E+01  1.828822860E+01  0.000000000E+00  0.00000E+00  9.000E+00
      21    -1     0     0   502   503  0.000000000E+00  0.000000000E+00 -9.723784440E+02  9.723784440E+02  0.000000000E+00  0.00000E+00  9.000E+00
      25     1     1     2     0     0  4.068033866E+00  3.843880066E+00 -6.421106435E+02  6.541897637E+02  1.250073765E+02  0.00000E+00  9.000E+00
       5     1     1     2   501     0 -9.327765518E-01  2.199900701E+00  8.627292138E+00  1.013421456E+01  4.750000000E+00  0.00000E+00  9.000E+00
      -5     1     1     2     0   503 -3.019221032E+00 -1.104399294E+01 -3.210796603E+02  3.213188389E+02  4.750000000E+00  0.00000E+00  9.000E+00
      21     1     1     2   511   501 -1.160362824E-01  5.000212171E+00  4.727963017E-01  5.023855344E+00  2.451908987E-07  0.00000E+00  9.000E+00
#rwgt            1           9   6.5036761480822349               11      998112           0
</event>
<event>
      6   9999  3.45752E-01  2.87018E+00 -1.00000E+00  2.82035E-01
      21    -1     0     0   501   502  0.000000000E+00  0.000000000E+00  6.756628501E+02  6.756628501E+02  0.000000000E+00  0.00000E+00  9.000E+00
      21    -1     0     0   512   503  0.000000000E+00  0.000000000E+00 -1.889370671E+01  1.889370671E+01  0.000000000E+00  0.00000E+00  9.000E+00
      25     1     1     2     0     0 -3.629346746E+00 -8.264077402E-01  2.695289249E+02  2.971269490E+02  1.249989093E+02  0.00000E+00  9.000E+00
       5     1     1     2   501     0  1.958317427E+00 -2.398880394E+00  3.815962398E+02  3.816383660E+02  4.750000000E+00  0.00000E+00  9.000E+00
      -5     1     1     2     0   503  3.550119507E-01  6.745924629E-01  9.697059700E+00  1.082481295E+01  4.750000000E+00  0.00000E+00  9.000E+00
      21     1     1     2   512   502  1.316017369E+00  2.550695671E+00 -4.053081047E+00  4.966428908E+00  4.420398764E-07  0.00000E+00  9.000E+00
#rwgt            1           9   3.2214824517429247E-003          11     1002843           0
</event>
<event>
      6   9999  3.45752E-01  4.34570E+00 -1.00000E+00  2.40627E-01
      -1    -1     0     0     0   502  0.000000000E+00  0.000000000E+00  3.420850336E+01  3.420850336E+01  0.000000000E+00  0.00000E+00  9.000E+00
       1    -1     0     0   511     0  0.000000000E+00  0.000000000E+00 -1.264097569E+03  1.264097569E+03  0.000000000E+00  0.00000E+00  9.000E+00
      25     1     1     2     0     0 -1.110891203E+01 -1.381078848E+02 -2.963067319E+02  3.501671868E+02  1.249887339E+02  0.00000E+00  9.000E+00
       5     1     1     2   501     0  1.320792777E+00  1.386305716E+02 -6.904057715E+02  7.042037147E+02  4.750000000E+00  0.00000E+00  9.000E+00
      -5     1     1     2     0   502  1.021398519E+01 -4.847472641E+00 -2.208145023E+02  2.211547658E+02  4.750000000E+00  0.00000E+00  9.000E+00
      21     1     1     2   511   501 -4.258659439E-01  4.324785837E+00 -2.236205961E+01  2.278040483E+01  3.371747881E-07  0.00000E+00  9.000E+00
#rwgt            1           1   3.3893692651489410E-005          11     1009867           0
</event>
<event>
      6   9999  3.45752E-01  7.72667E+00 -1.00000E+00  1.99820E-01
      21    -1     0     0   501   502  0.000000000E+00  0.000000000E+00  4.385990010E+03  4.385990010E+03  0.000000000E+00  0.00000E+00  9.000E+00
      21    -1     0     0   502   512  0.000000000E+00  0.000000000E+00 -4.323082797E+00  4.323082797E+00  0.000000000E+00  0.00000E+00  9.000E+00
      25     1     1     2     0     0 -5.220454489E+01  5.823748867E+00  1.619856442E+03  1.625520042E+03  1.249851254E+02  0.00000E+00  9.000E+00
       5     1     1     2   501     0  4.101607823E+01 -3.877010084E+01  2.454462296E+03  2.455115713E+03  4.750000000E+00  0.00000E+00  9.000E+00
      -5     1     1     2     0   503  1.416205183E+01  2.581478916E+01  2.596580225E+02  2.613652965E+02  4.750000000E+00  0.00000E+00  9.000E+00
      21     1     1     2   503   512 -2.973585174E+00  7.131562816E+00  4.769016675E+01  4.831204199E+01  1.348699152E-06  0.00000E+00  9.000E+00
#rwgt            1           9  0.21894499695260600               11     1011110           0
</event>
<event>
      6   9999  3.45752E-01  1.52020E+01 -1.00000E+00  1.69869E-01
      21    -1     0     0   501   511  0.000000000E+00  0.000000000E+00  1.286196455E+02  1.286196455E+02  0.000000000E+00  0.00000E+00  9.000E+00
      21    -1     0     0   502   503  0.000000000E+00  0.000000000E+00 -9.517816202E+01  9.517816202E+01  0.000000000E+00  0.00000E+00  9.000E+00
      25     1     1     2     0     0  1.766606924E+01  8.650041671E+00 -1.564660088E+01  1.275036257E+02  1.250017808E+02  0.00000E+00  9.000E+00
       5     1     1     2   501     0  1.376674767E+00  1.442319147E+00  6.105411850E+01  6.127106498E+01  4.750000000E+00  0.00000E+00  9.000E+00
      -5     1     1     2     0   503 -3.909736420E+00 -8.645636867E+00 -1.608795721E+01  1.927220649E+01  4.750000000E+00  0.00000E+00  9.000E+00
      21     1     1     2   502   511 -1.513300759E+01 -1.446723950E+00  4.121923089E+00  1.575091041E+01  1.976862425E-07  0.00000E+00  9.000E+00
#rwgt            1           9   1.0255379154068879E-003          11     1014267           0
</event>
<event>
      6   9999  3.45752E-01  6.86079E+01 -1.00000E+00  1.27825E-01
      21    -1     0     0   512   502  0.000000000E+00  0.000000000E+00  1.200232719E+02  1.200232719E+02  0.000000000E+00  0.00000E+00  9.000E+00
      21    -1     0     0   502   503  0.000000000E+00  0.000000000E+00 -1.338976248E+03  1.338976248E+03  0.000000000E+00  0.00000E+00  9.000E+00
      25     1     1     2     0     0  3.150857463E+00  2.498103755E+01 -9.939720107E+02  1.002113622E+03  1.249694912E+02  0.00000E+00  9.000E+00
       5     1     1     2   501     0 -1.425198112E+00  4.324249304E+01  3.344410693E+01  5.489093899E+01  4.750000000E+00  0.00000E+00  9.000E+00
      -5     1     1     2     0   503  9.037793611E-02  3.603096561E-01 -3.137949432E+02  3.138311120E+02  4.750000000E+00  0.00000E+00  9.000E+00
      21     1     1     2   512   501 -1.816037287E+00 -6.858384025E+01  5.536987129E+01  8.816384623E+01  2.780414531E-06  0.00000E+00  9.000E+00
#rwgt            1           9   2.2473785772095237E-004          11     1016305           0
</event>
<event>
      6   9999  3.45752E-01  7.88960E+00 -1.00000E+00  1.98732E-01
      21    -1     0     0   501   511  0.000000000E+00  0.000000000E+00  9.638878780E+01  9.638878780E+01  0.000000000E+00  0.00000E+00  9.000E+00
      21    -1     0     0   502   503  0.000000000E+00  0.000000000E+00 -1.220611747E+02  1.220611747E+02  0.000000000E+00  0.00000E+00  9.000E+00
      25     1     1     2     0     0  6.527283990E-01 -6.956875363E+00 -8.000488879E+01  1.485765036E+02  1.250014840E+02  0.00000E+00  9.000E+00
       5     1     1     2   501     0  1.060111787E-01 -2.311768495E-01 -9.775999666E-01  4.856221041E+00  4.750000000E+00  0.00000E+00  9.000E+00
      -5     1     1     2     0   503  1.196693771E+00 -4.553857977E-01 -3.270678867E+00  5.907562311E+00  4.750000000E+00  0.00000E+00  9.000E+00
      21     1     1     2   502   511 -1.955433348E+00  7.643438011E+00  5.858078077E+01  5.910967552E+01  1.348699152E-06  0.00000E+00  9.000E+00
#rwgt            1           9   8.3440705610238522E-004          11     1017179           0
</event>
<event>
      6   9999  3.45752E-01  3.68967E+00 -1.00000E+00  2.55340E-01
      21    -1     0     0   501   502  0.000000000E+00  0.000000000E+00  7.218190675E+00  7.218190675E+00  0.000000000E+00  0.00000E+00  9.000E+00
      21    -1     0     0   502   512  0.000000000E+00  0.000000000E+00 -7.040115485E+02  7.040115485E+02  0.000000000E+00  0.00000E+00  9.000E+00
      25     1     1     2     0     0  8.679725821E-01 -1.283415046E+00 -6.231077674E+02  6.355236418E+02  1.249984357E+02  0.00000E+00  9.000E+00
       5     1     1     2   501     0  2.970909704E-01  3.600296436E-02 -8.785764840E+00  9.992083020E+00  4.750000000E+00  0.00000E+00  9.000E+00
      -5     1     1     2     0   503  3.799314463E-01  4.598035107E+00 -4.207433337E+01  4.259223290E+01  4.750000000E+00  0.00000E+00  9.000E+00
      21     1     1     2   503   512 -1.544994999E+00 -3.350623025E+00 -2.282549215E+01  2.312178142E+01  4.768371582E-07  0.00000E+00  9.000E+00
#rwgt            1           9   1.7486412145457581E-004          11     1019429           0
</event>
<event>
      6   9999  3.45752E-01  3.70586E+00 -1.00000E+00  2.54922E-01
      21    -1     0     0   501   511  0.000000000E+00  0.000000000E+00  7.099887839E+01  7.099887839E+01  0.000000000E+00  0.00000E+00  9.000E+00
      21    -1     0     0   502   503  0.000000000E+00  0.000000000E+00 -1.047574160E+03  1.047574160E+03  0.000000000E+00  0.00000E+00  9.000E+00
      25     1     1     2     0     0  1.372103951E+00  4.320897691E+00 -1.013623982E+03  1.021312135E+03  1.249973915E+02  0.00000E+00  9.000E+00
       5     1     1     2   501     0 -5.722763105E+00 -1.701724978E+00  1.923615564E+01  2.069391382E+01  4.750000000E+00  0.00000E+00  9.000E+00
      -5     1     1     2     0   503  7.239138828E-01 -3.380840222E+00 -2.900953863E+01  2.959847907E+01  4.750000000E+00  0.00000E+00  9.000E+00
      21     1     1     2   502   511  3.626745272E+00  7.616675087E-01  4.682208362E+01  4.696851002E+01  2.431401974E-06  0.00000E+00  9.000E+00
#rwgt            1           9   2.4151780679671845E-004          11     1023852           0
</event>
<event>
      6   9999  3.45752E-01  1.88616E+01 -1.00000E+00  1.62178E-01
      21    -1     0     0   501   502  0.000000000E+00  0.000000000E+00  1.204450559E+01  1.204450559E+01  0.000000000E+00  0.00000E+00  9.000E+00
       2    -1     0     0   502     0  0.000000000E+00  0.000000000E+00 -2.154568059E+03  2.154568059E+03  0.000000000E+00  0.00000E+00  9.000E+00
      25     1     1     2     0     0  1.200370531E+01 -3.975030333E+00 -6.090242395E+02  6.218483036E+02  1.249995946E+02  0.00000E+00  9.000E+00
       5     1     1     2   501     0 -3.118040981E-01 -3.057039984E+00  3.814890831E+00  6.823386792E+00  4.750000000E+00  0.00000E+00  9.000E+00
      -5     1     1     2     0   503 -3.839970468E+00 -1.011753604E+01 -1.395874966E+02  1.400869073E+02  4.750000000E+00  0.00000E+00  9.000E+00
       2     1     1     2   503     0 -7.851930749E+00  1.714960636E+01 -1.397726708E+03  1.397853967E+03  2.642899792E-05  0.00000E+00  9.000E+00
#rwgt            1           9   2.9290568151577544E-004          11     1030242           0
</event>
<event>
      6   9999  3.45752E-01  4.82176E+00 -1.00000E+00  2.32170E-01
      21    -1     0     0   501   502  0.000000000E+00  0.000000000E+00  6.111385237E+02  6.111385237E+02  0.000000000E+00  0.00000E+00  9.000E+00
      21    -1     0     0   511   503  0.000000000E+00  0.000000000E+00 -1.415304059E+01  1.415304059E+01  0.000000000E+00  0.00000E+00  9.000E+00
      25     1     1     2     0     0 -5.378753925E+00 -1.326645411E+01  4.396490547E+02  4.573042508E+02  1.250238248E+02  0.00000E+00  9.000E+00
       5     1     1     2   501     0  8.290839677E-01  3.087820356E-01  1.335712947E+02  1.336586548E+02  4.750000000E+00  0.00000E+00  9.000E+00
      -5     1     1     2     0   503  7.746351792E+00  1.656746328E+01  1.426771436E+01  2.367735159E+01  4.750000000E+00  0.00000E+00  9.000E+00
      21     1     1     2   511   502 -3.196681835E+00 -3.609791203E+00  9.497419385E+00  1.065130707E+01  2.064765462E-07  0.00000E+00  9.000E+00
#rwgt            1           9   3.9974737009235227E-002          11     1032002           0
</event>
<event>
      6   9999  3.45752E-01  7.96236E+00 -1.00000E+00  1.98258E-01
      21    -1     0     0   501   502  0.000000000E+00  0.000000000E+00  1.445104541E+02  1.445104541E+02  0.000000000E+00  0.00000E+00  9.000E+00
      21    -1     0     0   512   503  0.000000000E+00  0.000000000E+00 -1.019932089E+02  1.019932089E+02  0.000000000E+00  0.00000E+00  9.000E+00
      25     1     1     2     0     0  2.696527849E-01  1.236603188E+00 -4.241748889E+01  1.320176901E+02  1.250113005E+02  0.00000E+00  9.000E+00
       5     1     1     2   501     0 -6.371708154E+00  1.949282052E+00  9.623676681E+01  9.658403673E+01  4.750000000E+00  0.00000E+00  9.000E+00
      -5     1     1     2     0   503 -1.828539491E+00 -2.475325076E+00 -6.435091267E+00  8.569929435E+00  4.750000000E+00  0.00000E+00  9.000E+00
      21     1     1     2   512   502  7.930594860E+00 -7.105601632E-01 -4.866941462E+00  9.332006739E+00  0.000000000E+00  0.00000E+00  9.000E+00
#rwgt            1           9   4.1527626101082224E-002          11     1035941           0
</event>
<event>
      6   9999  3.45752E-01  6.60159E+00 -1.00000E+00  2.08436E-01
      21    -1     0     0   501   502  0.000000000E+00  0.000000000E+00  1.347151032E+03  1.347151032E+03  0.000000000E+00  0.00000E+00  9.000E+00
      21    -1     0     0   511   503  0.000000000E+00  0.000000000E+00 -1.223149276E+01  1.223149276E+01  0.000000000E+00  0.00000E+00  9.000E+00
      25     1     1     2     0     0 -7.046774014E+00 -3.623606672E+00  3.491152110E+02  3.709037321E+02  1.250014414E+02  0.00000E+00  9.000E+00
       5     1     1     2   501     0  5.796527423E+00 -6.689237433E-02  9.264509761E+02  9.264812885E+02  4.750000000E+00  0.00000E+00  9.000E+00
      -5     1     1     2     0   503  5.963120505E+00  8.313251296E+00  3.918892798E+01  4.077994029E+01  4.750000000E+00  0.00000E+00  9.000E+00
      21     1     1     2   511   502 -4.712873914E+00 -4.622752250E+00  2.016442404E+01  2.121756385E+01  5.331201500E-07  0.00000E+00  9.000E+00
#rwgt            1           9   6.4315038298934550E-005          11     1039052           0
</event>
<event>
      6   9999 -3.45752E-01  1.13278E+01 -1.00000E+00  1.81665E-01
      21    -1     0     0   501   502  0.000000000E+00  0.000000000E+00  1.178700008E+01  1.178700008E+01  0.000000000E+00  0.00000E+00  9.000E+00
      21    -1     0     0   512   503  0.000000000E+00  0.000000000E+00 -1.304480169E+03  1.304480169E+03  0.000000000E+00  0.00000E+00  9.000E+00
      25     1     1     2     0     0 -8.865325993E+00  2.266718430E+01 -6.297177107E+02  6.424629226E+02  1.249872657E+02  0.00000E+00  9.000E+00
       5     1     1     2   501     0 -2.994545175E+00 -1.501179812E+00  2.131384713E+00  6.190811128E+00  4.750000000E+00  0.00000E+00  9.000E+00
      -5     1     1     2     0   503  2.031263537E+00 -2.679780794E+01 -1.552316250E+02  1.576123994E+02  4.750000000E+00  0.00000E+00  9.000E+00
      21     1     1     2   512   502  9.828607631E+00  5.631803458E+00 -5.098752184E+02  5.100010363E+02  5.394796609E-06  0.00000E+00  9.000E+00
#rwgt            1           9  -2.4019158428982535E-004          11     1042837           0
</event>
<event>
      6   9999  3.45752E-01  3.19962E+01 -1.00000E+00  1.46051E-01
      21    -1     0     0   501   502  0.000000000E+00  0.000000000E+00  6.975954522E+01  6.975954522E+01  0.000000000E+00  0.00000E+00  9.000E+00
      21    -1     0     0   511   503  0.000000000E+00  0.000000000E+00 -1.874892757E+03  1.874892757E+03  0.000000000E+00  0.00000E+00  9.000E+00
      25     1     1     2     0     0 -1.606087394E+02  1.980071889E+02 -4.623462621E+02  5.425787212E+02  1.250023545E+02  0.00000E+00  9.000E+00
       5     1     1     2   501     0 -7.996062692E-01  1.021900679E+00  1.567826761E+01  1.643332670E+01  4.750000000E+00  0.00000E+00  9.000E+00
      -5     1     1     2     0   503  1.368545048E+02 -1.785141021E+02 -9.651833992E+02  9.910590279E+02  4.750000000E+00  0.00000E+00  9.000E+00
      21     1     1     2   511   502  2.455384088E+01 -2.051498745E+01 -3.932818184E+02  3.945812268E+02  0.000000000E+00  0.00000E+00  9.000E+00
#rwgt            1           9   4.4343955503849198E-005          11     1045362           0
</event>
<event>
      6   9999 -3.45752E-01  1.40143E+01 -1.00000E+00  1.72970E-01
      21    -1     0     0   501   502  0.000000000E+00  0.000000000E+00  1.760474592E+01  1.760474592E+01  0.000000000E+00  0.00000E+00  9.000E+00
      21    -1     0     0   502   512  0.000000000E+00  0.000000000E+00 -1.035988422E+03  1.035988422E+03  0.000000000E+00  0.00000E+00  9.000E+00
      25     1     1     2     0     0  2.426629287E+01  3.422698671E+01 -8.284958995E+02  8.389221071E+02  1.249980271E+02  0.00000E+00  9.000E+00
       5     1     1     2   501     0 -4.991816466E-02 -7.809271296E-01  3.059904246E+00  5.704196087E+00  4.750000000E+00  0.00000E+00  9.000E+00
      -5     1     1     2     0   503 -1.231123825E+01 -4.083990730E+01 -5.244967695E+01  6.777164398E+01  4.750000000E+00  0.00000E+00  9.000E+00
      21     1     1     2   503   512 -1.190513645E+01  7.393847723E+00 -1.404980044E+02  1.411952212E+02  0.000000000E+00  0.00000E+00  9.000E+00
#rwgt            1           9  -6.2184156229790369E-006          11     1047318           0
</event>
<event>
      6   9999  3.45752E-01  1.39453E+01 -1.00000E+00  1.73162E-01
      21    -1     0     0   501   502  0.000000000E+00  0.000000000E+00  1.180545895E+01  1.180545895E+01  0.000000000E+00  0.00000E+00  9.000E+00
      21    -1     0     0   502   511  0.000000000E+00  0.000000000E+00 -1.750930880E+03  1.750930880E+03  0.000000000E+00  0.00000E+00  9.000E+00
      25     1     1     2     0     0  5.507721209E+00  1.307609230E+01 -6.974070739E+02  7.086625668E+02  1.249987507E+02  0.00000E+00  9.000E+00
       5     1     1     2   501     0 -3.754689693E-01  1.026746465E+00  4.745279622E+00  6.802599793E+00  4.750000000E+00  0.00000E+00  9.000E+00
      -5     1     1     2     0   503 -6.799703904E+00 -2.576120005E-01 -4.813086805E+01  4.884102063E+01  4.750000000E+00  0.00000E+00  9.000E+00
      21     1     1     2   503   511  1.667451665E+00 -1.384522677E+01 -9.983327592E+02  9.984301521E+02  1.078959322E-05  0.00000E+00  9.000E+00
#rwgt            1           9   2.2989370790534331E-003          11     1049655           0
</event>
<event>
      6   9999  3.45752E-01  1.20790E+02 -1.00000E+00  1.17049E-01
      21    -1     0     0   512   503  0.000000000E+00  0.000000000E+00  7.760598504E+01  7.760598504E+01  0.000000000E+00  0.00000E+00  9.000E+00
      21    -1     0     0   501   502  0.000000000E+00  0.000000000E+00 -1.344366325E+03  1.344366325E+03  0.000000000E+00  0.00000E+00  9.000E+00
      25     1     1     2     0     0  2.389664238E+02 -1.455377009E+02 -6.656041157E+02  7.327616916E+02  1.249987349E+02  0.00000E+00  9.000E+00
       5     1     1     2   501     0 -1.507671855E+02  7.283590969E+01 -4.370916106E+02  4.680891502E+02  4.750000000E+00  0.00000E+00  9.000E+00
      -5     1     1     2     0   503  3.097664883E+00 -6.387061875E+00 -6.314744932E+01  6.372246812E+01  4.750000000E+00  0.00000E+00  9.000E+00
      21     1     1     2   512   502 -9.129690314E+01  7.908885305E+01 -1.009171644E+02  1.573990002E+02  0.000000000E+00  0.00000E+00  9.000E+00
#rwgt            1           9   4.1026985970404828E-002          11     1051872           0
</event>
<event>
      6   9999  3.45752E-01  6.75549E+00 -1.00000E+00  2.07126E-01
      21    -1     0     0   511   502  0.000000000E+00  0.000000000E+00  1.630792049E+01  1.630792049E+01  0.000000000E+00  0.00000E+00  9.000E+00
      21    -1     0     0   502   503  0.000000000E+00  0.000000000E+00 -9.966964475E+02  9.966964475E+02  0.000000000E+00  0.00000E+00  9.000E+00
      25     1     1     2     0     0  8.690200262E+00  1.051496413E+01 -9.633922197E+02  9.715633649E+02  1.249988761E+02  0.00000E+00  9.000E+00
       5     1     1     2   501     0  1.281023825E+00  6.225501998E-01 -3.704461746E+00  6.189840678E+00  4.750000000E+00  0.00000E+00  9.000E+00
      -5     1     1     2     0   503 -4.016611606E+00 -7.947017302E+00 -2.201502175E+01  2.421800850E+01  4.750000000E+00  0.00000E+00  9.000E+00
      21     1     1     2   511   501 -5.954612480E+00 -3.190497033E+00  8.723176207E+00  1.103315387E+01  6.951036328E-07  0.00000E+00  9.000E+00
#rwgt            1           9   1.8820724687202201E-005          11     1052369           0
</event>
<event>
      6   9999  3.45752E-01  8.54481E+00 -1.00000E+00  1.94687E-01
      21    -1     0     0   501   502  0.000000000E+00  0.000000000E+00  1.478056890E+01  1.478056890E+01  0.000000000E+00  0.00000E+00  9.000E+00
      21    -1     0     0   512   503  0.000000000E+00  0.000000000E+00 -1.031924905E+03  1.031924905E+03  0.000000000E+00  0.00000E+00  9.000E+00
      25     1     1     2     0     0 -2.001693996E+01 -3.782238954E+01 -5.306180244E+02  5.468202974E+02  1.250029551E+02  0.00000E+00  9.000E+00
       5     1     1     2   501     0  4.306656578E-02  6.123817171E-01  4.722886142E+00  6.726441824E+00  4.750000000E+00  0.00000E+00  9.000E+00
      -5     1     1     2     0   503  1.516882488E+01  3.014422531E+01 -3.513397795E+02  3.529886269E+02  4.750000000E+00  0.00000E+00  9.000E+00
      21     1     1     2   512   502  4.805048515E+00  7.065782517E+00 -1.399094185E+02  1.401701079E+02  0.000000000E+00  0.00000E+00  9.000E+00
#rwgt            1           9   5.2431366094370482E-004          11     1055347           0
</event>
<event>
      6   9999  3.45752E-01  9.14354E+00 -1.00000E+00  1.91385E-01
      21    -1     0     0   511   502  0.000000000E+00  0.000000000E+00  8.061199492E+01  8.061199492E+01  0.000000000E+00  0.00000E+00  9.000E+00
      21    -1     0     0   502   503  0.000000000E+00  0.000000000E+00 -3.051286694E+02  3.051286694E+02  0.000000000E+00  0.00000E+00  9.000E+00
      25     1     1     2     0     0 -2.134932327E+01  7.756415274E+00 -1.058966304E+02  1.653858482E+02  1.249897071E+02  0.00000E+00  9.000E+00
       5     1     1     2   501     0 -3.193728686E+00 -6.038671230E+00  4.342559296E+01  4.421549589E+01  4.750000000E+00  0.00000E+00  9.000E+00
      -5     1     1     2     0   503  1.726576132E+01 -7.253572670E+00 -1.653064858E+02  1.664317205E+02  4.750000000E+00  0.00000E+00  9.000E+00
      21     1     1     2   511   501  7.277290635E+00  5.535828627E+00  3.260848763E+00  9.707599715E+00  1.519626234E-07  0.00000E+00  9.000E+00
#rwgt            1           9   7.2985232205899917E-004          11     1058460           0
</event>
<event>
      6   9999  3.45752E-01  1.02258E+01 -1.00000E+00  1.86178E-01
      21    -1     0     0   502   512  0.000000000E+00  0.000000000E+00  4.246217685E+01  4.246217685E+01  0.000000000E+00  0.00000E+00  9.000E+00
      21    -1     0     0   501   502  0.000000000E+00  0.000000000E+00 -7.496549994E+02  7.496549994E+02  0.000000000E+00  0.00000E+00  9.000E+00
      25     1     1     2     0     0  3.264818306E+00  1.388809381E+01 -5.840611997E+02  5.974582612E+02  1.250014027E+02  0.00000E+00  9.000E+00
       5     1     1     2   501     0 -3.158040799E+00  4.030725691E+00 -1.017503519E+02  1.019897867E+02  4.750000000E+00  0.00000E+00  9.000E+00
      -5     1     1     2     0   503 -1.023669290E+01 -1.652208955E+01 -5.447411219E+01  5.803241097E+01  4.750000000E+00  0.00000E+00  9.000E+00
      21     1     1     2   503   512  1.012991539E+01 -1.396729947E+00  3.309284134E+01  3.463671734E+01  1.261592536E-06  0.00000E+00  9.000E+00
#rwgt            1           9   2.2726951234956411E-004          11     1061871           0
</event>
<event>
      6   9999  3.45752E-01  4.75022E+00 -1.00000E+00  2.33348E-01
       2    -1     0     0   502     0  0.000000000E+00  0.000000000E+00  4.224429918E+02  4.224429918E+02  0.000000000E+00  0.00000E+00  9.000E+00
      21    -1     0     0   501   502  0.000000000E+00  0.000000000E+00 -1.293398236E+03  1.293398236E+03  0.000000000E+00  0.00000E+00  9.000E+00
      25     1     1     2     0     0 -6.680813736E+00  1.782723947E+02 -3.201375079E+02  3.872185219E+02  1.249979190E+02  0.00000E+00  9.000E+00
       5     1     1     2   501     0 -3.453357008E+01 -1.078649389E+02 -6.887873770E+02  6.980530250E+02  4.750000000E+00  0.00000E+00  9.000E+00
      -5     1     1     2     0   503  4.262990235E+01 -7.494187079E+01 -2.387164216E+02  2.538536685E+02  4.750000000E+00  0.00000E+00  9.000E+00
       2     1     1     2   503     0 -1.415518538E+00  4.534414977E+00  3.766860622E+02  3.767160125E+02  7.629394531E-06  0.00000E+00  9.000E+00
#rwgt            1           9   5.6939747931489867E-004          11     1064097           0
</event>
<event>
      6   9999  3.45752E-01  1.36290E+01 -1.00000E+00  1.74060E-01
       2    -1     0     0   501     0  0.000000000E+00  0.000000000E+00  1.517481528E+03  1.517481528E+03  0.000000000E+00  0.00000E+00  9.000E+00
      -2    -1     0     0     0   511  0.000000000E+00  0.000000000E+00 -2.829060722E+01  2.829060722E+01  0.000000000E+00  0.00000E+00  9.000E+00
      25     1     1     2     0     0  8.751959007E+01  3.518563890E+00  1.331910000E+03  1.340626964E+03  1.249973992E+02  0.00000E+00  9.000E+00
       5     1     1     2   501     0 -3.977363297E+01 -3.315397340E+01  5.376457161E+01  7.479518361E+01  4.750000000E+00  0.00000E+00  9.000E+00
      -5     1     1     2     0   502 -4.856123440E+01  4.323996107E+01  8.035711863E+01  1.034780978E+02  4.750000000E+00  0.00000E+00  9.000E+00
      21     1     1     2   502   511  8.152773045E-01 -1.360455156E+01  2.315923129E+01  2.687189041E+01  3.371747881E-07  0.00000E+00  9.000E+00
#rwgt            1           4   2.6206504812114006E-003          11     1070459           0
</event>
<event>
      6   9999  3.45752E-01  1.84094E+01 -1.00000E+00  1.63007E-01
      21    -1     0     0   501   502  0.000000000E+00  0.000000000E+00  5.402578508E+01  5.402578508E+01  0.000000000E+00  0.00000E+00  9.000E+00
      21    -1     0     0   502   512  0.000000000E+00  0.000000000E+00 -1.556432758E+03  1.556432758E+03  0.000000000E+00  0.00000E+00  9.000E+00
      25     1     1     2     0     0  1.992649260E+02 -9.344217670E+01 -4.319712699E+02  5.006614786E+02  1.249991480E+02  0.00000E+00  9.000E+00
       5     1     1     2   501     0  6.129953065E-01 -2.511284327E+00  6.442848788E+00  8.411605835E+00  4.750000000E+00  0.00000E+00  9.000E+00
      -5     1     1     2     0   503 -1.889646658E+02  8.112756673E+01 -8.833612452E+02  9.069944758E+02  4.750000000E+00  0.00000E+00  9.000E+00
      21     1     1     2   503   512 -1.091325553E+01  1.482589429E+01 -1.935173062E+02  1.943909825E+02  0.000000000E+00  0.00000E+00  9.000E+00
#rwgt            1           9   3.1840737413395439E-003          11     1071050           0
</event>
<event>
      6   9999  3.45752E-01  8.21371E+00 -1.00000E+00  1.96669E-01
      21    -1     0     0   511   502  0.000000000E+00  0.000000000E+00  9.130876492E+01  9.130876492E+01  0.000000000E+00  0.00000E+00  9.000E+00
      21    -1     0     0   502   503  0.000000000E+00  0.000000000E+00 -1.016036676E+03  1.016036676E+03  0.000000000E+00  0.00000E+00  9.000E+00
      25     1     1     2     0     0  6.183490607E+01  2.606520720E+01 -8.907894823E+02  9.020172696E+02  1.250052088E+02  0.00000E+00  9.000E+00
       5     1     1     2   501     0 -8.669691331E-01  4.168221588E+00  1.102117781E+01  1.273399258E+01  4.750000000E+00  0.00000E+00  9.000E+00
      -5     1     1     2     0   503 -5.426435757E+01 -2.548715803E+01 -1.108931571E+02  1.261509830E+02  4.750000000E+00  0.00000E+00  9.000E+00
      21     1     1     2   511   501 -6.703579365E+00 -4.746270763E+00  6.593355095E+01  6.644319531E+01  2.861022949E-06  0.00000E+00  9.000E+00
#rwgt            1           9   1.9412009574353687E-004          11     1073881           0
</event>
<event>
      6   9999 -3.45752E-01  7.45454E+00 -1.00000E+00  2.01717E-01
      21    -1     0     0   501   502  0.000000000E+00  0.000000000E+00  4.376838937E+00  4.376838937E+00  0.000000000E+00  0.00000E+00  9.000E+00
      21    -1     0     0   512   503  0.000000000E+00  0.000000000E+00 -2.713683573E+03  2.713683573E+03  0.000000000E+00  0.00000E+00  9.000E+00
      25     1     1     2     0     0 -2.464977988E+00 -4.985239318E+00 -1.818490418E+03  1.822789956E+03  1.249995693E+02  0.00000E+00  9.000E+00
       5     1     1     2   501     0  2.202227914E+00 -3.097971051E+00 -2.173746940E+00  6.460256045E+00  4.750000000E+00  0.00000E+00  9.000E+00
      -5     1     1     2     0   503  6.875702707E-01  6.407835357E-01 -8.812681269E+01  8.825973585E+01  4.750000000E+00  0.00000E+00  9.000E+00
      21     1     1     2   512   502 -4.248201967E-01  7.442426833E+00 -8.005157559E+02  8.005504641E+02  0.000000000E+00  0.00000E+00  9.000E+00
#rwgt            1           9  -7.6607832336434551E-005          11     1077430           0
</event>
<event>
      6   9999  3.45752E-01  1.55084E+01 -1.00000E+00  1.69126E-01
      -1    -1     0     0     0   503  0.000000000E+00  0.000000000E+00  7.154325023E+01  7.154325023E+01  0.000000000E+00  0.00000E+00  9.000E+00
      21    -1     0     0   501   502  0.000000000E+00  0.000000000E+00 -7.862554828E+02  7.862554828E+02  0.000000000E+00  0.00000E+00  9.000E+00
      25     1     1     2     0     0  1.984511336E+01 -2.070680081E+00 -4.745058102E+02  4.910998717E+02  1.250008153E+02  0.00000E+00  9.000E+00
       5     1     1     2   501     0 -1.080511169E+01 -1.380769105E+01 -2.921050646E+02  2.926693254E+02  4.750000000E+00  0.00000E+00  9.000E+00
      -5     1     1     2     0   503  1.921693880E+00  4.907825454E+00 -8.844012920E+00  1.133837389E+01  4.750000000E+00  0.00000E+00  9.000E+00
      -1     1     1     2     0   502 -1.096169555E+01  1.097054567E+01  6.074265515E+01  6.269116203E+01  2.236564522E-06  0.00000E+00  9.000E+00
#rwgt            1           9  0.51918867046381456               11     1080057           0
</event>
<event>
      6   9999 -3.45752E-01  2.84599E+02 -1.00000E+00  1.03844E-01
      21    -1     0     0   502   511  0.000000000E+00  0.000000000E+00  2.576023421E+02  2.576023421E+02  0.000000000E+00  0.00000E+00  9.000E+00
      21    -1     0     0   501   502  0.000000000E+00  0.000000000E+00 -2.320987919E+03  2.320987919E+03  0.000000000E+00  0.00000E+00  9.000E+00
      25     1     1     2     0     0 -1.312490785E+02  3.232343371E+02 -4.507269005E+02  5.835091977E+02  1.249859500E+02  0.00000E+00  9.000E+00
       5     1     1     2   501     0 -4.107701595E+01 -6.786289213E+01 -4.608906546E+02  4.676916200E+02  4.750000000E+00  0.00000E+00  9.000E+00
      -5     1     1     2     0   503 -1.012946107E+02 -1.770873823E+02 -1.218171920E+03  1.235146116E+03  4.750000000E+00  0.00000E+00  9.000E+00
      21     1     1     2   503   511  2.736207051E+02 -7.828406261E+01  6.640389809E+01  2.922433274E+02  5.046370146E-06  0.00000E+00  9.000E+00
#rwgt            1           9  -3.7982353280550383               11     1081471           0
</event>
<event>
      6   9999  3.45752E-01  4.86887E+00 -1.00000E+00  2.31411E-01
      21    -1     0     0   512   502  0.000000000E+00  0.000000000E+00  3.638828507E+01  3.638828507E+01  0.000000000E+00  0.00000E+00  9.000E+00
      21    -1     0     0   502   503  0.000000000E+00  0.000000000E+00 -1.899207740E+03  1.899207740E+03  0.000000000E+00  0.00000E+00  9.000E+00
      25     1     1     2     0     0  1.385433711E+01  9.135476409E+00 -1.618168365E+03  1.623074325E+03  1.250040256E+02  0.00000E+00  9.000E+00
       5     1     1     2   501     0 -3.936115800E+00  4.313711293E+00  2.285699989E+00  7.866895013E+00  4.750000000E+00  0.00000E+00  9.000E+00
      -5     1     1     2     0   503 -1.148975582E+01 -8.840913957E+00 -2.753777957E+02  2.758000527E+02  4.750000000E+00  0.00000E+00  9.000E+00
      21     1     1     2   512   501  1.571534515E+00 -4.608273746E+00  2.844100603E+01  2.885475232E+01  3.371747881E-07  0.00000E+00  9.000E+00
#rwgt            1           9   1.9095984437191668E-002          11     1082014           0
</event>
<event>
      6   9999 -3.45752E-01  1.32306E+01 -1.00000E+00  1.75235E-01
      21    -1     0     0   501   511  0.000000000E+00  0.000000000E+00  2.432199278E+01  2.432199278E+01  0.000000000E+00  0.00000E+00  9.000E+00
      21    -1     0     0   502   503  0.000000000E+00  0.000000000E+00 -9.878523836E+02  9.878523836E+02  0.000000000E+00  0.00000E+00  9.000E+00
      25     1     1     2     0     0 -1.655884341E+01 -2.438630072E+01 -9.196901242E+02  9.286142850E+02  1.250027149E+02  0.00000E+00  9.000E+00
       5     1     1     2   501     0 -2.540353468E+00 -3.122002072E-02  1.233410989E+01  1.345909124E+01  4.750000000E+00  0.00000E+00  9.000E+00
      -5     1     1     2     0   503  1.797198753E+01  1.123500377E+01 -5.179411836E+01  5.616414196E+01  4.750000000E+00  0.00000E+00  9.000E+00
      21     1     1     2   502   511  1.127209350E+00  1.318251697E+01 -4.380258119E+00  1.393685817E+01  4.616955931E-07  0.00000E+00  9.000E+00
#rwgt            1           9  -9.9527295145620561E-005          11     1086649           0
</event>
<event>
      6   9999  3.45752E-01  8.96444E+00 -1.00000E+00  1.92337E-01
      21    -1     0     0   512   502  0.000000000E+00  0.000000000E+00  1.142727123E+02  1.142727123E+02  0.000000000E+00  0.00000E+00  9.000E+00
      21    -1     0     0   502   503  0.000000000E+00  0.000000000E+00 -1.624836811E+03  1.624836811E+03  0.000000000E+00  0.00000E+00  9.000E+00
      25     1     1     2     0     0 -1.348585714E+02  1.088301970E+02 -1.452939377E+02  2.583940700E+02  1.250052838E+02  0.00000E+00  9.000E+00
       5     1     1     2   501     0  2.394186676E+00  2.091984764E+00  3.037654285E+01  3.090963257E+01  4.750000000E+00  0.00000E+00  9.000E+00
      -5     1     1     2     0   503  1.246776645E+02 -1.064805440E+02 -1.417096579E+03  1.426558062E+03  4.750000000E+00  0.00000E+00  9.000E+00
      21     1     1     2   512   501  7.786720229E+00 -4.441637814E+00  2.144987527E+01  2.324775919E+01  7.539457465E-07  0.00000E+00  9.000E+00
#rwgt            1           9   5.0183684411551682E-004          11     1089021           0
</event>
<event>
      6   9999  3.45752E-01  1.88685E+01 -1.00000E+00  1.62165E-01
      21    -1     0     0   502   503  0.000000000E+00  0.000000000E+00  4.703069075E+01  4.703069075E+01  0.000000000E+00  0.00000E+00  9.000E+00
      21    -1     0     0   501   511  0.000000000E+00  0.000000000E+00 -2.971563635E+02  2.971563635E+02  0.000000000E+00  0.00000E+00  9.000E+00
      25     1     1     2     0     0 -1.304781986E+01  7.757167038E+00 -7.732690047E+01  1.477655372E+02  1.249991408E+02  0.00000E+00  9.000E+00
       5     1     1     2   501     0  2.088004715E+01 -2.841873114E+01 -2.291977090E+01  4.232586735E+01  4.750000000E+00  0.00000E+00  9.000E+00
      -5     1     1     2     0   503 -5.243384968E-01  3.265737390E+00 -4.081916528E+00  7.082691162E+00  4.750000000E+00  0.00000E+00  9.000E+00
      21     1     1     2   502   511 -7.307888798E+00  1.739582671E+01 -1.457970848E+02  1.470129585E+02  1.907348633E-06  0.00000E+00  9.000E+00
#rwgt            1           9  0.14898132373596235               11     1093628           0
</event>
<event>
      6   9999  3.45752E-01  7.25491E+00 -1.00000E+00  2.03179E-01
      21    -1     0     0   501   502  0.000000000E+00  0.000000000E+00  1.047209932E+01  1.047209932E+01  0.000000000E+00  0.00000E+00  9.000E+00
       2    -1     0     0   502     0  0.000000000E+00  0.000000000E+00 -1.650575532E+03  1.650575532E+03  0.000000000E+00  0.00000E+00  9.000E+00
      25     1     1     2     0     0 -4.319445258E+00  1.093952573E+00 -5.986109896E+02  6.115396267E+02  1.250029754E+02  0.00000E+00  9.000E+00
       5     1     1     2   501     0  9.254433813E-01 -2.425339617E-02  2.562666154E-01  4.846153759E+00  4.750000000E+00  0.00000E+00  9.000E+00
      -5     1     1     2     0   503  6.779805842E+00  5.346691657E+00 -1.537276023E+01  1.826026112E+01  4.750000000E+00  0.00000E+00  9.000E+00
       2     1     1     2   503     0 -3.385803966E+00 -6.416390834E+00 -1.026375949E+03  1.026401590E+03  0.000000000E+00  0.00000E+00  9.000E+00
#rwgt            1           9   4.3163775957769839E-004          11     1095092           0
</event>
<event>
      6   9999  3.45752E-01  2.50610E+01 -1.00000E+00  1.53076E-01
      21    -1     0     0   501   502  0.000000000E+00  0.000000000E+00  1.517545037E+01  1.517545037E+01  0.000000000E+00  0.00000E+00  9.000E+00
      21    -1     0     0   502   511  0.000000000E+00  0.000000000E+00 -2.452464568E+03  2.452464568E+03  0.000000000E+00  0.00000E+00  9.000E+00
      25     1     1     2     0     0  2.600947334E+00  3.242851508E+01 -6.817342614E+02  6.938620904E+02  1.249984954E+02  0.00000E+00  9.000E+00
       5     1     1     2   501     0 -1.521234159E+01 -1.246876691E+01 -2.884610295E+01  3.523557351E+01  4.750000000E+00  0.00000E+00  9.000E+00
      -5     1     1     2     0   503  2.977851706E+01 -3.821746377E+01 -9.597004235E+01  1.076110875E+02  4.750000000E+00  0.00000E+00  9.000E+00
      21     1     1     2   503   511 -1.716712280E+01  1.825771560E+01 -1.630738711E+03  1.630931267E+03  0.000000000E+00  0.00000E+00  9.000E+00
#rwgt            1           9   7.2265409545057873               11     1097724           0
</event>
<event>
      6   9999  3.45752E-01  1.35258E+01 -1.00000E+00  1.74359E-01
      21    -1     0     0   512   503  0.000000000E+00  0.000000000E+00  9.814082364E+00  9.814082364E+00  0.000000000E+00  0.00000E+00  9.000E+00
      21    -1     0     0   501   502  0.000000000E+00  0.000000000E+00 -7.268866951E+02  7.268866951E+02  0.000000000E+00  0.00000E+00  9.000E+00
      25     1     1     2     0     0  3.245108615E+00  1.331882315E+01 -5.858904468E+02  5.992344811E+02  1.250057035E+02  0.00000E+00  9.000E+00
       5     1     1     2   501     0  4.102103923E-01 -1.745043927E+00 -1.038789107E+02  1.040029040E+02  4.750000000E+00  0.00000E+00  9.000E+00
      -5     1     1     2     0   503  9.878174871E-01  1.130062609E+00 -1.226090219E+01  1.323423770E+01  4.750000000E+00  0.00000E+00  9.000E+00
      21     1     1     2   512   502 -4.643136495E+00 -1.270384183E+01 -1.504235308E+01  2.022915470E+01  0.000000000E+00  0.00000E+00  9.000E+00
#rwgt            1           9  0.38786069912055277               11     1099032           0
</event>
<event>
      6   9999  3.45752E-01  2.76213E+00 -1.00000E+00  2.86644E-01
      21    -1     0     0   501   502  0.000000000E+00  0.000000000E+00  2.355445363E+01  2.355445363E+01  0.000000000E+00  0.00000E+00  9.000E+00
      21    -1     0     0   502   511  0.000000000E+00  0.000000000E+00 -1.130131483E+03  1.130131483E+03  0.000000000E+00  0.00000E+00  9.000E+00
      25     1     1     2     0     0 -1.665918670E+01  1.400169993E+00 -9.949031382E+02  1.002864186E+03  1.249993297E+02  0.00000E+00  9.000E+00
       5     1     1     2   501     0  6.588787567E+00  1.660365366E+00  1.809825938E+01  1.990674327E+01  4.750000000E+00  0.00000E+00  9.000E+00
      -5     1     1     2     0   503  8.052085677E+00 -1.174864029E+00 -3.978639625E+01  4.088687094E+01  4.750000000E+00  0.00000E+00  9.000E+00
      21     1     1     2   503   511  2.018313458E+00 -1.885671330E+00 -8.998575456E+01  9.002813655E+01  1.651812370E-06  0.00000E+00  9.000E+00
#rwgt            1           9   1.8054625503560701E-002          11     1101235           0
</event>
<event>
      6   9999  3.45752E-01  9.23578E+00 -1.00000E+00  1.90905E-01
      21    -1     0     0   512   502  0.000000000E+00  0.000000000E+00  8.474840423E+01  8.474840423E+01  0.000000000E+00  0.00000E+00  9.000E+00
      21    -1     0     0   502   503  0.000000000E+00  0.000000000E+00 -6.926466193E+02  6.926466193E+02  0.000000000E+00  0.00000E+00  9.000E+00
      25     1     1     2     0     0  1.911326502E+02  3.227215813E+00 -4.943110580E+02  5.445273038E+02  1.249978307E+02  0.00000E+00  9.000E+00
       5     1     1     2   501     0 -1.823335231E+02 -1.682580051E+00 -9.157869466E+01  2.041018485E+02  4.750000000E+00  0.00000E+00  9.000E+00
      -5     1     1     2     0   503  3.919698493E-01 -2.452076845E+00 -1.784947178E+01  1.863685768E+01  4.750000000E+00  0.00000E+00  9.000E+00
      21     1     1     2   512   501 -9.191096957E+00  9.074410830E-01 -4.158990680E+00  1.012901358E+01  1.576990671E-07  0.00000E+00  9.000E+00
#rwgt            1           9   6.2514542858513170E-004          11     1109007           0
</event>
<event>
      6   9999  3.45752E-01  7.46776E+00 -1.00000E+00  2.01622E-01
      21    -1     0     0   502   511  0.000000000E+00  0.000000000E+00  6.983956649E+00  6.983956649E+00  0.000000000E+00  0.00000E+00  9.000E+00
      21    -1     0     0   501   502  0.000000000E+00  0.000000000E+00 -2.708944116E+03  2.708944116E+03  0.000000000E+00  0.00000E+00  9.000E+00
      25     1     1     2     0     0  1.073549947E+01 -1.097710972E+01 -2.554669445E+03  2.557771808E+03  1.249996068E+02  0.00000E+00  9.000E+00
       5     1     1     2   501     0 -1.607955658E+01  1.518861149E+01 -8.176188299E+01  8.483403838E+01  4.750000000E+00  0.00000E+00  9.000E+00
      -5     1     1     2     0   503  1.030675320E+00  1.884577520E+00 -6.564686914E+01  6.585353333E+01  4.750000000E+00  0.00000E+00  9.000E+00
      21     1     1     2   503   511  4.313381791E+00 -6.096079292E+00  1.180373197E-01  7.468693194E+00  8.235746137E-07  0.00000E+00  9.000E+00
#rwgt            1           9   1.3214194279672310E-004          11     1113315           0
</event>
<event>
      6   9999  3.45752E-01  2.40438E+01 -1.00000E+00  1.54337E-01
      21    -1     0     0   512   502  0.000000000E+00  0.000000000E+00  3.143079890E+01  3.143079890E+01  0.000000000E+00  0.00000E+00  9.000E+00
      21    -1     0     0   502   503  0.000000000E+00  0.000000000E+00 -9.363781894E+02  9.363781894E+02  0.000000000E+00  0.00000E+00  9.000E+00
      25     1     1     2     0     0  8.462216651E+00 -2.575385347E+01 -4.860669665E+02  5.026155148E+02  1.250055591E+02  0.00000E+00  9.000E+00
       5     1     1     2   501     0 -5.740311032E+01  4.430180696E-02 -2.234831809E+02  2.307865110E+02  4.750000000E+00  0.00000E+00  9.000E+00
      -5     1     1     2     0   503  5.593110150E+01  4.871482447E+01 -1.967550468E+02  2.103248277E+02  4.750000000E+00  0.00000E+00  9.000E+00
      21     1     1     2   512   501 -6.990207824E+00 -2.300527282E+01  1.357803568E+00  2.408213473E+01  6.963802246E-07  0.00000E+00  9.000E+00
#rwgt            1           9  0.15022194604482145               11     1116021           0
</event>
<event>
      6   9999  3.45752E-01  1.70245E+01 -1.00000E+00  1.65740E-01
      21    -1     0     0   511   502  0.000000000E+00  0.000000000E+00  1.677959231E+01  1.677959231E+01  0.000000000E+00  0.00000E+00  9.000E+00
      21    -1     0     0   502   503  0.000000000E+00  0.000000000E+00 -7.251220399E+02  7.251220399E+02  0.000000000E+00  0.00000E+00  9.000E+00
      25     1     1     2     0     0 -4.996641942E+01 -1.472491333E+01 -4.547292342E+02  4.744647103E+02  1.249984750E+02  0.00000E+00  9.000E+00
       5     1     1     2   501     0  4.925511783E+01  1.786750970E+01 -1.700831327E+02  1.780341233E+02  4.750000000E+00  0.00000E+00  9.000E+00
      -5     1     1     2     0   503 -3.132185808E+00  1.344236497E+01 -4.414504059E+01  4.649575112E+01  4.750000000E+00  0.00000E+00  9.000E+00
      21     1     1     2   511   501  3.843487400E+00 -1.658496134E+01 -3.938504010E+01  4.290704746E+01  4.768371582E-07  0.00000E+00  9.000E+00
#rwgt            1           9   8130.5566919394596               11     1117581           0
</event>
<event>
      6   9999  3.45752E-01  9.62459E+00 -1.00000E+00  1.88961E-01
      21    -1     0     0   501   502  0.000000000E+00  0.000000000E+00  2.625177038E+03  2.625177038E+03  0.000000000E+00  0.00000E+00  9.000E+00
      21    -1     0     0   512   503  0.000000000E+00  0.000000000E+00 -6.309697669E+00  6.309697669E+00  0.000000000E+00  0.00000E+00  9.000E+00
      25     1     1     2     0     0 -8.996422101E+00  2.198030524E+00  6.940133864E+02  7.052416338E+02  1.250016587E+02  0.00000E+00  9.000E+00
       5     1     1     2   501     0  1.322993364E+00  2.231541161E+00  1.849361949E+03  1.849369869E+03  4.750000000E+00  0.00000E+00  9.000E+00
      -5     1     1     2     0   503 -1.615852839E-01  1.160170240E+00  2.510048732E+01  2.557281894E+01  4.750000000E+00  0.00000E+00  9.000E+00
      21     1     1     2   512   502  7.835014021E+00 -5.589741925E+00  5.039151721E+01  5.130241384E+01  6.743495762E-07  0.00000E+00  9.000E+00
#rwgt            1           9   2.8524289456699917E-003          11     1119155           0
</event>
<event>
      6   9999  3.45752E-01  1.67527E+01 -1.00000E+00  1.66314E-01
      21    -1     0     0   501   502  0.000000000E+00  0.000000000E+00  1.984044099E+01  1.984044099E+01  0.000000000E+00  0.00000E+00  9.000E+00
      21    -1     0     0   502   511  0.000000000E+00  0.000000000E+00 -1.328802336E+03  1.328802336E+03  0.000000000E+00  0.00000E+00  9.000E+00
      25     1     1     2     0     0 -3.710745887E+01 -2.736030043E+01 -1.037654977E+03  1.046173211E+03  1.249999461E+02  0.00000E+00  9.000E+00
       5     1     1     2   501     0  6.968339135E-01  4.707225320E+00  6.170343749E+00  9.125743241E+00  4.750000000E+00  0.00000E+00  9.000E+00
      -5     1     1     2     0   503  3.258708819E+01  3.896362095E+01 -7.823769793E+01  9.340118817E+01  4.750000000E+00  0.00000E+00  9.000E+00
      21     1     1     2   503   511  3.823536767E+00 -1.631054584E+01 -1.992395636E+02  1.999426344E+02  2.697398305E-06  0.00000E+00  9.000E+00
#rwgt            1           9   7.1702660664580727E-005          11     1121755           0
</event>
<event>
      6   9999  3.45752E-01  1.08952E+01 -1.00000E+00  1.83355E-01
      21    -1     0     0   501   502  0.000000000E+00  0.000000000E+00  4.400463360E+01  4.400463360E+01  0.000000000E+00  0.00000E+00  9.000E+00
      21    -1     0     0   512   503  0.000000000E+00  0.000000000E+00 -3.753758447E+02  3.753758447E+02  0.000000000E+00  0.00000E+00  9.000E+00
      25     1     1     2     0     0  7.023726872E+00  3.794412450E+00 -2.215564846E+02  2.545103010E+02  1.249979486E+02  0.00000E+00  9.000E+00
       5     1     1     2   501     0 -8.704936366E-01 -6.649338979E-01  1.976980741E+01  2.036191743E+01  4.750000000E+00  0.00000E+00  9.000E+00
      -5     1     1     2     0   503 -1.520346652E+01  2.936633621E+00 -1.841003355E+00  1.630095103E+01  4.750000000E+00  0.00000E+00  9.000E+00
      21     1     1     2   512   502  9.050233284E+00 -6.066112173E+00 -1.277435305E+02  1.282073088E+02  1.348699152E-06  0.00000E+00  9.000E+00
#rwgt            1           9   1.7414414624563154E-004          11     1123848           0
</event>
<event>
      6   9999  3.45752E-01  1.37108E+01 -1.00000E+00  1.73825E-01
      21    -1     0     0   502   503  0.000000000E+00  0.000000000E+00  8.312616848E+01  8.312616848E+01  0.000000000E+00  0.00000E+00  9.000E+00
      21    -1     0     0   501   511  0.000000000E+00  0.000000000E+00 -1.541768418E+02  1.541768418E+02  0.000000000E+00  0.00000E+00  9.000E+00
      25     1     1     2     0     0  1.940883306E+01 -5.653478995E+01 -2.982668646E+01  1.417262806E+02  1.249952884E+02  0.00000E+00  9.000E+00
       5     1     1     2   501     0 -2.906462387E+00  5.805982863E+01 -1.249620929E+01  5.964988659E+01  4.750000000E+00  0.00000E+00  9.000E+00
      -5     1     1     2     0   503 -2.800003086E+00 -1.045360936E+00 -2.129103698E+00  6.002364478E+00  4.750000000E+00  0.00000E+00  9.000E+00
      21     1     1     2   502   511 -1.370236759E+01 -4.796777432E-01 -2.659867391E+01  2.992447864E+01  4.768371582E-07  0.00000E+00  9.000E+00
#rwgt            1           9   9.7015480041057860E-003          11     1126924           0
</event>
<event>
      6   9999  3.45752E-01  1.77365E+01 -1.00000E+00  1.64297E-01
      21    -1     0     0   512   502  0.000000000E+00  0.000000000E+00  6.180956195E+00  6.180956195E+00  0.000000000E+00  0.00000E+00  9.000E+00
      21    -1     0     0   502   503  0.000000000E+00  0.000000000E+00 -1.345910591E+03  1.345910591E+03  0.000000000E+00  0.00000E+00  9.000E+00
      25     1     1     2     0     0  4.975855420E+00 -7.716255893E+00 -1.251413691E+03  1.257674977E+03  1.250032843E+02  0.00000E+00  9.000E+00
       5     1     1     2   501     0  2.970234584E+00 -3.800436000E+00 -1.156405740E+01  1.339983324E+01  4.750000000E+00  0.00000E+00  9.000E+00
      -5     1     1     2     0   503  2.487774804E+00 -2.826235523E+00 -3.692207995E+01  3.741629483E+01  4.750000000E+00  0.00000E+00  9.000E+00
      21     1     1     2   512   501 -1.043386481E+01  1.434292742E+01 -3.982980617E+01  4.360044221E+01  1.168007728E-06  0.00000E+00  9.000E+00
#rwgt            1           9   2.1782876509328830E-004          11     1128772           0
</event>
<event>
      6   9999  3.45752E-01  9.75392E+00 -1.00000E+00  1.88341E-01
      21    -1     0     0   501   511  0.000000000E+00  0.000000000E+00  5.489566645E+02  5.489566645E+02  0.000000000E+00  0.00000E+00  9.000E+00
      21    -1     0     0   502   503  0.000000000E+00  0.000000000E+00 -1.172538909E+03  1.172538909E+03  0.000000000E+00  0.00000E+00  9.000E+00
      25     1     1     2     0     0  3.167839958E+01 -1.972040199E+01 -1.483731804E+02  1.975652388E+02  1.250000306E+02  0.00000E+00  9.000E+00
       5     1     1     2   501     0 -2.212959142E+00 -2.256628734E+00  7.946056195E+00  9.782222164E+00  4.750000000E+00  0.00000E+00  9.000E+00
      -5     1     1     2     0   503 -3.603245545E+01  1.476500975E+01 -9.982201786E+02  9.989907061E+02  4.750000000E+00  0.00000E+00  9.000E+00
      21     1     1     2   502   511  6.567015012E+00  7.212020975E+00  5.150650584E+02  5.151574064E+02  7.629394531E-06  0.00000E+00  9.000E+00
#rwgt            1           9   5.5539853359249554E-003          11     1130467           0
</event>
<event>
      6   9999  3.45752E-01  8.76369E+00 -1.00000E+00  1.93440E-01
       2    -1     0     0   501     0  0.000000000E+00  0.000000000E+00  5.403563324E+03  5.403563324E+03  0.000000000E+00  0.00000E+00  9.000E+00
      21    -1     0     0   502   503  0.000000000E+00  0.000000000E+00 -3.531085638E+00  3.531085638E+00  0.000000000E+00  0.00000E+00  9.000E+00
      25     1     1     2     0     0 -9.204342913E+01 -3.683617085E+01  2.722338217E+03  2.727009084E+03  1.249971121E+02  0.00000E+00  9.000E+00
       5     1     1     2   501     0  3.471929875E+01  2.761690265E+01  1.334315416E+03  1.335061165E+03  4.750000000E+00  0.00000E+00  9.000E+00
      -5     1     1     2     0   503  5.040091728E+01  3.846063134E+00  8.188834525E+02  8.204557977E+02  4.750000000E+00  0.00000E+00  9.000E+00
       2     1     1     2   502     0  6.923213106E+00  5.373205066E+00  5.244951531E+02  5.245683634E+02  1.321449896E-05  0.00000E+00  9.000E+00
#rwgt            1           9   1.2985126838233471E-003          11     1134240           0
</event>
<event>
      6   9999  3.45752E-01  3.14091E+02 -1.00000E+00  1.02517E-01
      21    -1     0     0   501   511  0.000000000E+00  0.000000000E+00  1.468117634E+03  1.468117634E+03  0.000000000E+00  0.00000E+00  9.000E+00
      21    -1     0     0   502   503  0.000000000E+00  0.000000000E+00 -1.642092858E+03  1.642092858E+03  0.000000000E+00  0.00000E+00  9.000E+00
      25     1     1     2     0     0  4.828992709E+01 -1.421480322E+02 -1.243848281E+03  1.259095690E+03  1.250017201E+02  0.00000E+00  9.000E+00
       5     1     1     2   501     0 -1.453628271E+02 -1.475800331E+02 -1.032803505E+02  2.315158979E+02  4.750000000E+00  0.00000E+00  9.000E+00
      -5     1     1     2     0   503  1.027678064E+01 -1.213264641E+01 -2.052211886E+02  2.058910199E+02  4.750000000E+00  0.00000E+00  9.000E+00
      21     1     1     2   502   511  8.679611939E+01  3.018607117E+02  1.378374596E+03  1.413707885E+03  1.525878906E-05  0.00000E+00  9.000E+00
#rwgt            1           9   1.1496899452093734E-003          11     1136844           0
</event>
<event>
      6   9999  3.45752E-01  1.87306E+01 -1.00000E+00  1.62415E-01
      21    -1     0     0   502   503  0.000000000E+00  0.000000000E+00  1.765515613E+01  1.765515613E+01  0.000000000E+00  0.00000E+00  9.000E+00
      21    -1     0     0   501   512  0.000000000E+00  0.000000000E+00 -1.070255857E+03  1.070255857E+03  0.000000000E+00  0.00000E+00  9.000E+00
      25     1     1     2     0     0 -6.287487244E+01  4.913058938E+01 -3.904691835E+02  4.176821839E+02  1.250006364E+02  0.00000E+00  9.000E+00
       5     1     1     2   501     0  5.345218795E+01 -7.436394755E+00 -4.653446795E+02  4.684876408E+02  4.750000000E+00  0.00000E+00  9.000E+00
      -5     1     1     2     0   503  1.532329693E+00 -2.470662104E+01 -9.766512900E+01  1.008652818E+02  4.750000000E+00  0.00000E+00  9.000E+00
      21     1     1     2   502   512  7.890354801E+00 -1.698757359E+01 -9.912170845E+01  1.008759062E+02  1.907348633E-06  0.00000E+00  9.000E+00
#rwgt            1           9   683.96915379400821               11     1137354           0
</event>
<event>
      6   9999  3.45752E-01  1.15930E+01 -1.00000E+00  1.80676E-01
      21    -1     0     0   501   502  0.000000000E+00  0.000000000E+00  1.185337118E+01  1.185337118E+01  0.000000000E+00  0.00000E+00  9.000E+00
      21    -1     0     0   502   511  0.000000000E+00  0.000000000E+00 -1.044458377E+03  1.044458377E+03  0.000000000E+00  0.00000E+00  9.000E+00
      25     1     1     2     0     0  8.242253243E+00  3.573657291E+00 -5.178860178E+02  5.328350466E+02  1.250062147E+02  0.00000E+00  9.000E+00
       5     1     1     2   501     0 -2.747438891E+00  3.119022946E-01  1.950195562E+00  5.831935033E+00  4.750000000E+00  0.00000E+00  9.000E+00
      -5     1     1     2     0   503 -1.569280560E+01 -9.399009952E+00 -2.447530964E+02  2.454816617E+02  4.750000000E+00  0.00000E+00  9.000E+00
      21     1     1     2   503   511  1.019799124E+01  5.513450367E+00 -2.719160871E+02  2.721631047E+02  0.000000000E+00  0.00000E+00  9.000E+00
#rwgt            1           9   8.8185328163691069E-005          11     1139230           0
</event>
<event>
      6   9999  3.45752E-01  1.29921E+01 -1.00000E+00  1.75964E-01
      21    -1     0     0   501   512  0.000000000E+00  0.000000000E+00  1.216579814E+02  1.216579814E+02  0.000000000E+00  0.00000E+00  9.000E+00
      21    -1     0     0   502   503  0.000000000E+00  0.000000000E+00 -1.304914899E+03  1.304914899E+03  0.000000000E+00  0.00000E+00  9.000E+00
      25     1     1     2     0     0  6.283269614E+01  6.603658507E+00 -9.704785938E+02  9.805331534E+02  1.250000310E+02  0.00000E+00  9.000E+00
       5     1     1     2   501     0 -9.637592819E+00 -1.293238056E+00  2.515726239E+01  2.738623762E+01  4.750000000E+00  0.00000E+00  9.000E+00
      -5     1     1     2     0   503 -5.811981934E+01 -1.733294703E+01 -3.249900433E+02  3.306348971E+02  4.750000000E+00  0.00000E+00  9.000E+00
      21     1     1     2   502   512  4.924716025E+00  1.202252658E+01  8.705445746E+01  8.801859199E+01  4.573661350E-06  0.00000E+00  9.000E+00
#rwgt            1           9   3.3547551438701563E-003          11     1141451           0
</event>
<event>
      6   9999  3.45752E-01  3.07341E+01 -1.00000E+00  1.47162E-01
      21    -1     0     0   501   502  0.000000000E+00  0.000000000E+00  3.877210025E+01  3.877210025E+01  0.000000000E+00  0.00000E+00  9.000E+00
      21    -1     0     0   511   503  0.000000000E+00  0.000000000E+00 -1.187197816E+03  1.187197816E+03  0.000000000E+00  0.00000E+00  9.000E+00
      25     1     1     2     0     0  1.206995602E+02 -8.545875105E+01 -5.663597354E+02  5.985478829E+02  1.249985450E+02  0.00000E+00  9.000E+00
       5     1     1     2   501     0 -2.082328097E+00  3.070416714E+00  5.337242458E+00  8.050602844E+00  4.750000000E+00  0.00000E+00  9.000E+00
      -5     1     1     2     0   503 -1.209595309E+02  1.130330744E+02 -4.898230424E+02  5.170656239E+02  4.750000000E+00  0.00000E+00  9.000E+00
      21     1     1     2   511   502  2.342298812E+00 -3.064474005E+01 -9.758017992E+01  1.023058061E+02  1.907348633E-06  0.00000E+00  9.000E+00
#rwgt            1           9   3.1203930405188937E-003          11     1144814           0
</event>
<event>
      6   9999  3.45752E-01  1.44055E+02 -1.00000E+00  1.14063E-01
      21    -1     0     0   512   502  0.000000000E+00  0.000000000E+00  1.841481483E+01  1.841481483E+01  0.000000000E+00  0.00000E+00  9.000E+00
       2    -1     0     0   501     0  0.000000000E+00  0.000000000E+00 -2.884316826E+03  2.884316826E+03  0.000000000E+00  0.00000E+00  9.000E+00
      25     1     1     2     0     0 -5.960303627E+01  2.642299055E+01 -7.316361558E+02  7.450954960E+02  1.250005491E+02  0.00000E+00  9.000E+00
       5     1     1     2   501     0 -7.280782981E+00  9.328162920E+00 -1.438137196E+01  1.922006201E+01  4.750000000E+00  0.00000E+00  9.000E+00
      -5     1     1     2     0   502 -2.307675512E+01  7.676121632E+01 -2.411468150E+02  2.541636675E+02  4.750000000E+00  0.00000E+00  9.000E+00
       2     1     1     2   512     0  8.996057437E+01 -1.125123698E+02 -1.878737668E+03  1.884252415E+03  2.157918644E-05  0.00000E+00  9.000E+00
#rwgt            1           3   8.4270055612326557E-005          11     1146116           0
</event>
<event>
      6   9999 -3.45752E-01  1.80208E+01 -1.00000E+00  1.63743E-01
      21    -1     0     0   502   511  0.000000000E+00  0.000000000E+00  3.313204222E+01  3.313204222E+01  0.000000000E+00  0.00000E+00  9.000E+00
      21    -1     0     0   501   502  0.000000000E+00  0.000000000E+00 -6.139846799E+02  6.139846799E+02  0.000000000E+00  0.00000E+00  9.000E+00
      25     1     1     2     0     0  1.660158855E+01  4.434417534E+01 -1.402113902E+02  1.937176665E+02  1.250011270E+02  0.00000E+00  9.000E+00
       5     1     1     2   501     0 -8.975091791E+00  1.777506912E+00 -2.315228522E+02  2.317522500E+02  4.750000000E+00  0.00000E+00  9.000E+00
      -5     1     1     2     0   503  5.389945177E+00 -3.365889281E+01 -1.968741672E+02  1.998598829E+02  4.750000000E+00  0.00000E+00  9.000E+00
      21     1     1     2   503   511 -1.301644194E+01 -1.246278944E+01 -1.224422816E+01  2.178692279E+01  1.685873940E-07  0.00000E+00  9.000E+00
#rwgt            1           9  -1.1620281317674421E-002          11     1146591           0
</event>
<event>
      6   9999  3.45752E-01  7.02099E+00 -1.00000E+00  2.04973E-01
      21    -1     0     0   501   502  0.000000000E+00  0.000000000E+00  3.134693185E+00  3.134693185E+00  0.000000000E+00  0.00000E+00  9.000E+00
      21    -1     0     0   502   512  0.000000000E+00  0.000000000E+00 -3.216382210E+03  3.216382210E+03  0.000000000E+00  0.00000E+00  9.000E+00
      25     1     1     2     0     0 -1.219598601E+01  4.681643040E+00 -2.857837730E+03  2.860600040E+03  1.250017565E+02  0.00000E+00  9.000E+00
       5     1     1     2   501     0 -6.287622158E-01 -1.303728394E+00 -2.478919766E+00  5.550008365E+00  4.750000000E+00  0.00000E+00  9.000E+00
      -5     1     1     2     0   503  7.091081060E+00  6.741620693E-01 -1.092856498E+02  1.096204985E+02  4.750000000E+00  0.00000E+00  9.000E+00
      21     1     1     2   503   512  5.733667160E+00 -4.052076716E+00 -2.436452174E+02  2.437463563E+02  5.394796609E-06  0.00000E+00  9.000E+00
#rwgt            1           9   3.0471811259371584E-006          11     1148709           0
</event>
<event>
      6   9999  3.45752E-01  3.27798E+01 -1.00000E+00  1.45391E-01
      21    -1     0     0   511   502  0.000000000E+00  0.000000000E+00  1.949240454E+02  1.949240454E+02  0.000000000E+00  0.00000E+00  9.000E+00
      21    -1     0     0   502   503  0.000000000E+00  0.000000000E+00 -5.839377863E+02  5.839377863E+02  0.000000000E+00  0.00000E+00  9.000E+00
      25     1     1     2     0     0 -4.326215951E+01  3.956773253E+01 -5.332733010E+02  5.508586195E+02  1.250103404E+02  0.00000E+00  9.000E+00
       5     1     1     2   501     0  1.834971277E+00  6.691000054E+00  1.594688461E+02  1.596903629E+02  4.750000000E+00  0.00000E+00  9.000E+00
      -5     1     1     2     0   503  1.255401498E+01 -3.073932875E+01 -1.079965672E+01  3.523783066E+01  4.750000000E+00  0.00000E+00  9.000E+00
      21     1     1     2   511   501  2.887317325E+01 -1.551940383E+01 -4.409629325E+00  3.307501866E+01  6.307962682E-07  0.00000E+00  9.000E+00
#rwgt            1           9   3.3590624014570740E-002          11     1151669           0
</event>
<event>
      6   9999  3.45752E-01  3.91868E+01 -1.00000E+00  1.40705E-01
      21    -1     0     0   512   502  0.000000000E+00  0.000000000E+00  6.499014415E+01  6.499014415E+01  0.000000000E+00  0.00000E+00  9.000E+00
      21    -1     0     0   502   503  0.000000000E+00  0.000000000E+00 -1.128713009E+03  1.128713009E+03  0.000000000E+00  0.00000E+00  9.000E+00
      25     1     1     2     0     0  1.726991125E+01  8.715873716E+01 -8.013468443E+02  8.158899185E+02  1.249987958E+02  0.00000E+00  9.000E+00
       5     1     1     2   501     0  1.580113048E+01  3.688592598E+00  1.313363905E+01  2.140879293E+01  4.750000000E+00  0.00000E+00  9.000E+00
      -5     1     1     2     0   503  2.503431383E+00 -7.441369746E+01 -3.007014725E+02  3.098186625E+02  4.750000000E+00  0.00000E+00  9.000E+00
      21     1     1     2   512   501 -3.557447312E+01 -1.643363230E+01  2.519181280E+01  4.658577938E+01  1.581489940E-06  0.00000E+00  9.000E+00
#rwgt            1           9   7.2486655229474041E-005          11     1153837           0
</event>
<event>
      6   9999  3.45752E-01  2.70953E+01 -1.00000E+00  1.50757E-01
       3    -1     0     0   501     0  0.000000000E+00  0.000000000E+00  2.555181877E+02  2.555181877E+02  0.000000000E+00  0.00000E+00  9.000E+00
      21    -1     0     0   502   503  0.000000000E+00  0.000000000E+00 -9.463846108E+02  9.463846108E+02  0.000000000E+00  0.00000E+00  9.000E+00
      25     1     1     2     0     0 -8.935981896E+01 -3.599910070E+01 -3.949139403E+02  4.252833621E+02  1.250112208E+02  0.00000E+00  9.000E+00
       5     1     1     2   501     0  8.777898586E+01  6.317212570E+01 -4.941328376E+02  5.058514520E+02  4.750000000E+00  0.00000E+00  9.000E+00
      -5     1     1     2     0   503 -7.965783441E-01 -1.822358671E-01 -3.534695630E+01  3.567404612E+01  4.750000000E+00  0.00000E+00  9.000E+00
       3     1     1     2   502     0  2.377411444E+00 -2.699078914E+01  2.335273111E+02  2.350939383E+02  3.814697266E-06  0.00000E+00  9.000E+00
#rwgt            1           9   2.4290377255038585E-004          11     1155076           0
</event>
<event>
      6   9999 -3.45752E-01  1.88506E+01 -1.00000E+00  1.62198E-01
      21    -1     0     0   501   511  0.000000000E+00  0.000000000E+00  1.047466111E+02  1.047466111E+02  0.000000000E+00  0.00000E+00  9.000E+00
      21    -1     0     0   502   503  0.000000000E+00  0.000000000E+00 -1.600200554E+03  1.600200554E+03  0.000000000E+00  0.00000E+00  9.000E+00
      25     1     1     2     0     0  2.362151617E+02 -2.452135568E+02 -7.930262785E+02  8.720310144E+02  1.249804808E+02  0.00000E+00  9.000E+00
       5     1     1     2   501     0 -5.233959598E-01 -2.409109497E+00  1.775173653E+01  1.854088460E+01  4.750000000E+00  0.00000E+00  9.000E+00
      -5     1     1     2     0   503 -2.184308138E+02  2.551992371E+02 -7.210850688E+02  7.955029289E+02  4.750000000E+00  0.00000E+00  9.000E+00
      21     1     1     2   502   511 -1.726095203E+01 -7.576570872E+00  9.056675634E-01  1.887233756E+01  3.268079787E-07  0.00000E+00  9.000E+00
#rwgt            1           9  -1.8707209352993677E-005          11     1156498           0
</event>
<event>
      6   9999  3.45752E-01  1.63251E+01 -1.00000E+00  1.67246E-01
      21    -1     0     0   501   512  0.000000000E+00  0.000000000E+00  8.914348767E+01  8.914348767E+01  0.000000000E+00  0.00000E+00  9.000E+00
      21    -1     0     0   502   503  0.000000000E+00  0.000000000E+00 -1.587803180E+03  1.587803180E+03  0.000000000E+00  0.00000E+00  9.000E+00
      25     1     1     2     0     0 -9.396294253E+00 -1.588200375E-01 -1.303133434E+03  1.309148527E+03  1.249992090E+02  0.00000E+00  9.000E+00
       5     1     1     2   501     0  9.611922759E+00 -9.300404089E+00  7.715177915E+01  7.844645372E+01  4.750000000E+00  0.00000E+00  9.000E+00
      -5     1     1     2     0   503 -1.519591758E+01  2.970794327E+00 -2.725452628E+02  2.730260506E+02  4.750000000E+00  0.00000E+00  9.000E+00
      21     1     1     2   502   512  1.498028908E+01  6.488429799E+00 -1.327745190E-01  1.632563662E+01  3.948456258E-07  0.00000E+00  9.000E+00
#rwgt            1           9   6.3482235462230402E-005          11     1159417           0
</event>
<event>
      6   9999 -3.45752E-01  2.06151E+01 -1.00000E+00  1.59213E-01
       2    -1     0     0   501     0  0.000000000E+00  0.000000000E+00  2.524334738E+01  2.524334738E+01  0.000000000E+00  0.00000E+00  9.000E+00
      21    -1     0     0   502   503  0.000000000E+00  0.000000000E+00 -2.322956676E+03  2.322956676E+03  0.000000000E+00  0.00000E+00  9.000E+00
      25     1     1     2     0     0 -1.067466112E+01 -6.965149243E+00 -2.226859386E+03  2.230401556E+03  1.250036614E+02  0.00000E+00  9.000E+00
       5     1     1     2   501     0 -3.619629741E+00 -8.771424707E+00 -4.695077112E+00  1.160370027E+01  4.750000000E+00  0.00000E+00  9.000E+00
      -5     1     1     2     0   503  1.589278004E+00 -4.981603617E-01 -8.077008180E+01  8.092677296E+01  4.750000000E+00  0.00000E+00  9.000E+00
       2     1     1     2   502     0  1.270501285E+01  1.623473431E+01  1.461121535E+01  2.526799485E+01  1.400392070E-06  0.00000E+00  9.000E+00
#rwgt            1           9  -9.2370629389869647E-005          11     1162810           0
</event>
<event>
      6   9999  3.45752E-01  9.37512E+00 -1.00000E+00  1.90195E-01
      21    -1     0     0   511   502  0.000000000E+00  0.000000000E+00  4.744423595E+01  4.744423595E+01  0.000000000E+00  0.00000E+00  9.000E+00
      21    -1     0     0   502   503  0.000000000E+00  0.000000000E+00 -1.262827902E+02  1.262827902E+02  0.000000000E+00  0.00000E+00  9.000E+00
      25     1     1     2     0     0  3.857880249E-01 -3.173555446E+00 -7.467961023E+01  1.456476762E+02  1.250039244E+02  0.00000E+00  9.000E+00
       5     1     1     2   501     0 -3.766098163E-01 -7.860374045E-01  4.041621663E+00  6.297372105E+00  4.750000000E+00  0.00000E+00  9.000E+00
      -5     1     1     2     0   503  8.614059383E-01 -5.375020994E+00 -9.898215945E+00  1.225438900E+01  4.750000000E+00  0.00000E+00  9.000E+00
      21     1     1     2   511   501 -8.705841469E-01  9.334613845E+00  1.697650244E+00  9.527588821E+00  1.413648275E-07  0.00000E+00  9.000E+00
#rwgt            1           9   5.8200729705544692E-002          11     1164236           0
</event>
<event>
      6   9999  3.45752E-01  4.39260E+00 -1.00000E+00  2.39724E-01
      21    -1     0     0   501   502  0.000000000E+00  0.000000000E+00  1.821514820E+02  1.821514820E+02  0.000000000E+00  0.00000E+00  9.000E+00
      21    -1     0     0   502   512  0.000000000E+00  0.000000000E+00 -5.863279049E+01  5.863279049E+01  0.000000000E+00  0.00000E+00  9.000E+00
      25     1     1     2     0     0 -6.213191865E+00 -5.679173112E+00  8.332008804E+01  1.504659514E+02  1.250076346E+02  0.00000E+00  9.000E+00
       5     1     1     2   501     0  5.459747922E-01  4.574187884E-01  4.299332354E+01  4.326078697E+01  4.750000000E+00  0.00000E+00  9.000E+00
      -5     1     1     2     0   503  2.312503496E+00  8.057397355E+00  2.087099673E+01  2.298761251E+01  4.750000000E+00  0.00000E+00  9.000E+00
      21     1     1     2   503   512  3.354713576E+00 -2.835643031E+00 -2.366571679E+01  2.406992160E+01  0.000000000E+00  0.00000E+00  9.000E+00
#rwgt            1           9   2.1474422682124062E-002          11     1166636           0
</event>
<event>
      6   9999 -3.45752E-01  4.61468E+00 -1.00000E+00  2.35664E-01
      21    -1     0     0   501   511  0.000000000E+00  0.000000000E+00  1.009816937E+02  1.009816937E+02  0.000000000E+00  0.00000E+00  9.000E+00
      21    -1     0     0   502   503  0.000000000E+00  0.000000000E+00 -1.557566477E+03  1.557566477E+03  0.000000000E+00  0.00000E+00  9.000E+00
      25     1     1     2     0     0  1.074013245E+01  1.442896969E+01 -1.216514697E+03  1.223052305E+03  1.250015485E+02  0.00000E+00  9.000E+00
       5     1     1     2   501     0 -3.449096185E+00  3.252508184E+00  7.733979594E+01  7.763041678E+01  4.750000000E+00  0.00000E+00  9.000E+00
      -5     1     1     2     0   503 -8.261562992E+00 -1.317001051E+01 -3.371760736E+02  3.375677261E+02  4.750000000E+00  0.00000E+00  9.000E+00
      21     1     1     2   502   511  9.705267310E-01 -4.511467363E+00  1.976619104E+01  2.029772323E+01  8.596304120E-07  0.00000E+00  9.000E+00
#rwgt            1           9  -1.1859917446421190E-003          11     1170891           0
</event>
<event>
      6   9999  3.45752E-01  2.60021E+01 -1.00000E+00  1.51971E-01
      21    -1     0     0   501   502  0.000000000E+00  0.000000000E+00  1.328776263E+01  1.328776263E+01  0.000000000E+00  0.00000E+00  9.000E+00
       2    -1     0     0   502     0  0.000000000E+00  0.000000000E+00 -2.184993023E+03  2.184993023E+03  0.000000000E+00  0.00000E+00  9.000E+00
      25     1     1     2     0     0  4.282009664E+01  3.772941327E+01 -5.531690597E+02  5.699806715E+02  1.249995520E+02  0.00000E+00  9.000E+00
       5     1     1     2   501     0 -1.497586033E+00 -5.913050942E-01 -1.616568613E+00  5.269554034E+00  4.750000000E+00  0.00000E+00  9.000E+00
      -5     1     1     2     0   503 -2.515588028E+01 -5.750353885E+01 -3.358822572E+02  3.417293205E+02  4.750000000E+00  0.00000E+00  9.000E+00
       2     1     1     2   503     0 -1.616663032E+01  2.036543067E+01 -1.281037374E+03  1.281301239E+03  1.525878906E-05  0.00000E+00  9.000E+00
#rwgt            1           9   1.0611173648768523E-002          11     1178552           0
</event>
<event>
      6   9999 -3.45752E-01  1.56211E+01 -1.00000E+00  1.68858E-01
      -1    -1     0     0     0   502  0.000000000E+00  0.000000000E+00  8.155390623E+01  8.155390623E+01  0.000000000E+00  0.00000E+00  9.000E+00
      21    -1     0     0   502   503  0.000000000E+00  0.000000000E+00 -1.334842114E+03  1.334842114E+03  0.000000000E+00  0.00000E+00  9.000E+00
      25     1     1     2     0     0  2.553839064E+01 -2.084284120E+01 -1.324327287E+03  1.330622173E+03  1.250038835E+02  0.00000E+00  9.000E+00
       5     1     1     2   501     0 -7.768843205E-01  1.161663151E+00  3.324021006E+01  3.360694980E+01  4.750000000E+00  0.00000E+00  9.000E+00
      -5     1     1     2     0   503 -1.176413103E+01  1.101585974E+01  8.194048426E+00  1.869355168E+01  4.750000000E+00  0.00000E+00  9.000E+00
      -1     1     1     2     0   501 -1.299737529E+01  8.665318315E+00  2.960482040E+01  3.347334606E+01  1.261592536E-06  0.00000E+00  9.000E+00
#rwgt            1           9  -2.8225632251715826E-004          11     1179698           0
</event>
<event>
      6   9999 -3.45752E-01  1.01639E+01 -1.00000E+00  1.86453E-01
      21    -1     0     0   501   511  0.000000000E+00  0.000000000E+00  1.846638179E+01  1.846638179E+01  0.000000000E+00  0.00000E+00  9.000E+00
      21    -1     0     0   502   503  0.000000000E+00  0.000000000E+00 -6.479765742E+02  6.479765742E+02  0.000000000E+00  0.00000E+00  9.000E+00
      25     1     1     2     0     0 -2.845672491E+00 -1.046379441E+01 -6.029063914E+02  6.158242823E+02  1.250033641E+02  0.00000E+00  9.000E+00
       5     1     1     2   501     0  1.768469488E+00  4.364076638E-02 -8.841973923E+00  1.019178059E+01  4.750000000E+00  0.00000E+00  9.000E+00
      -5     1     1     2     0   503 -3.929734748E-01  3.630985962E-01 -2.655829683E+01  2.698503102E+01  4.750000000E+00  0.00000E+00  9.000E+00
      21     1     1     2   502   511  1.470176478E+00  1.005705505E+01  8.796469771E+00  1.344186206E+01  2.920019320E-07  0.00000E+00  9.000E+00
#rwgt            1           9  -2.3612236554815453E-003          11     1182603           0
</event>
<event>
      6   9999 -3.45752E-01  5.36164E+01 -1.00000E+00  1.33185E-01
      21    -1     0     0   501   502  0.000000000E+00  0.000000000E+00  9.985735166E+01  9.985735166E+01  0.000000000E+00  0.00000E+00  9.000E+00
      21    -1     0     0   502   512  0.000000000E+00  0.000000000E+00 -1.420174888E+03  1.420174888E+03  0.000000000E+00  0.00000E+00  9.000E+00
      25     1     1     2     0     0  1.397942879E+01 -2.227276860E+01 -9.978007396E+02  1.005943337E+03  1.249967213E+02  0.00000E+00  9.000E+00
       5     1     1     2   501     0 -3.963326601E+00 -1.195039713E+01  6.723454090E+01  6.856796584E+01  4.750000000E+00  0.00000E+00  9.000E+00
      -5     1     1     2     0   503 -5.475050572E+01  4.667183207E+00 -3.176260502E+00  5.524537634E+01  4.750000000E+00  0.00000E+00  9.000E+00
      21     1     1     2   503   512  4.473440353E+01  2.955598252E+01 -3.865750772E+02  3.902755606E+02  5.394796609E-06  0.00000E+00  9.000E+00
#rwgt            1           9  -9.7185178001600134E-002          11     1184408           0
</event>
<event>
      6   9999  3.45752E-01  2.64268E+00 -1.00000E+00  2.92157E-01
      -1    -1     0     0     0   502  0.000000000E+00  0.000000000E+00  3.072406827E+01  3.072406827E+01  0.000000000E+00  0.00000E+00  9.000E+00
      21    -1     0     0   502   503  0.000000000E+00  0.000000000E+00 -1.146071789E+03  1.146071789E+03  0.000000000E+00  0.00000E+00  9.000E+00
      25     1     1     2     0     0  1.338953078E+00  5.953407767E+00 -1.080201828E+03  1.087419146E+03  1.249286827E+02  0.00000E+00  9.000E+00
       5     1     1     2   501     0  4.432861578E-01 -6.865877549E-01  1.888891901E+00  5.176709184E+00  4.750000000E+00  0.00000E+00  9.000E+00
      -5     1     1     2     0   503 -7.279181047E-01 -2.843567879E+00 -6.041420785E+01  6.067169647E+01  4.750000000E+00  0.00000E+00  9.000E+00
      -1     1     1     2     0   501 -1.054321131E+00 -2.423252134E+00  2.337942272E+01  2.352830531E+01  1.261592536E-06  0.00000E+00  9.000E+00
#rwgt            1           9  0.24944829188374060               11     1186092           0
</event>
<event>
      6   9999  3.45752E-01  1.24464E+02 -1.00000E+00  1.16530E-01
      21    -1     0     0   502   503  0.000000000E+00  0.000000000E+00  2.120947198E+02  2.120947198E+02  0.000000000E+00  0.00000E+00  9.000E+00
       2    -1     0     0   501     0  0.000000000E+00  0.000000000E+00 -8.970338657E+02  8.970338657E+02  0.000000000E+00  0.00000E+00  9.000E+00
      25     1     1     2     0     0  1.003608621E+02 -1.020338973E+02 -8.328808060E+00  1.902008090E+02  1.249950394E+02  0.00000E+00  9.000E+00
       5     1     1     2   501     0 -3.670820673E+01 -2.920026617E-02  4.159970738E+01  5.568295474E+01  4.750000000E+00  0.00000E+00  9.000E+00
      -5     1     1     2     0   503  7.894810400E-01 -4.419716525E+00  6.746064115E+01  6.777652823E+01  4.750000000E+00  0.00000E+00  9.000E+00
       2     1     1     2   502     0 -6.444213637E+01  1.064828141E+02 -7.856706863E+02  7.954682935E+02  0.000000000E+00  0.00000E+00  9.000E+00
#rwgt            1           9   2.6598672430721786               11     1192222           0
</event>
<event>
      6   9999  3.45752E-01  1.48652E+01 -1.00000E+00  1.70712E-01
      21    -1     0     0   501   502  0.000000000E+00  0.000000000E+00  5.875705463E+01  5.875705463E+01  0.000000000E+00  0.00000E+00  9.000E+00
      21    -1     0     0   511   503  0.000000000E+00  0.000000000E+00 -1.464575091E+02  1.464575091E+02  0.000000000E+00  0.00000E+00  9.000E+00
      25     1     1     2     0     0 -1.307927473E+01  5.798266856E+00 -2.724909920E+01  1.287311716E+02  1.249980552E+02  0.00000E+00  9.000E+00
       5     1     1     2   501     0  1.290538592E+01 -1.646878765E+01 -4.114908881E+01  4.640668015E+01  4.750000000E+00  0.00000E+00  9.000E+00
      -5     1     1     2     0   503  3.559059340E+00 -3.804103619E+00 -1.095739766E+01  1.302939643E+01  4.750000000E+00  0.00000E+00  9.000E+00
      21     1     1     2   511   502 -3.385170534E+00  1.447462442E+01 -8.344868772E+00  1.704731552E+01  3.576278687E-07  0.00000E+00  9.000E+00
#rwgt            1           9  0.13913228153917728               11     1192824           0
</event>
<event>
      6   9999  3.45752E-01  9.80806E+00 -1.00000E+00  1.88085E-01
      21    -1     0     0   501   502  0.000000000E+00  0.000000000E+00  3.062591575E+01  3.062591575E+01  0.000000000E+00  0.00000E+00  9.000E+00
      21    -1     0     0   502   512  0.000000000E+00  0.000000000E+00 -1.434685951E+03  1.434685951E+03  0.000000000E+00  0.00000E+00  9.000E+00
      25     1     1     2     0     0  1.667353829E+01  7.249516111E+00 -9.332495848E+02  9.417596492E+02  1.250035482E+02  0.00000E+00  9.000E+00
       5     1     1     2   501     0  1.205426819E+01  1.496373182E+00  2.422128710E+01  2.750959402E+01  4.750000000E+00  0.00000E+00  9.000E+00
      -5     1     1     2     0   503 -1.997928185E+01 -4.311787267E+00 -2.788036854E+02  2.795922401E+02  4.750000000E+00  0.00000E+00  9.000E+00
      21     1     1     2   503   512 -8.748524640E+00 -4.434102026E+00 -2.162280523E+02  2.164503835E+02  2.697398305E-06  0.00000E+00  9.000E+00
#rwgt            1           9   3.2287288591093398E-003          11     1194853           0
</event>
<event>
      6   9999  3.45752E-01  6.49431E+00 -1.00000E+00  2.09378E-01
      21    -1     0     0   511   502  0.000000000E+00  0.000000000E+00  3.450032415E+01  3.450032415E+01  0.000000000E+00  0.00000E+00  9.000E+00
      21    -1     0     0   502   503  0.000000000E+00  0.000000000E+00 -8.808892870E+02  8.808892870E+02  0.000000000E+00  0.00000E+00  9.000E+00
      25     1     1     2     0     0  1.535637990E+00  1.141192304E+00 -8.399639116E+02  8.492163611E+02  1.250015783E+02  0.00000E+00  9.000E+00
       5     1     1     2   501     0  2.183649651E+00  4.664209186E+00  7.912782075E+00  1.056871767E+01  4.750000000E+00  0.00000E+00  9.000E+00
      -5     1     1     2     0   503  1.739190458E+00 -2.286717163E+00 -3.423096405E+01  3.467816688E+01  4.750000000E+00  0.00000E+00  9.000E+00
      21     1     1     2   511   501 -5.458478099E+00 -3.518684328E+00  1.989313076E+01  2.092636552E+01  4.129530925E-07  0.00000E+00  9.000E+00
#rwgt            1           9   3.3862199969719076E-005          11     1198873           0
</event>
<event>
      6   9999  3.45752E-01  3.20975E+01 -1.00000E+00  1.45964E-01
      21    -1     0     0   501   502  0.000000000E+00  0.000000000E+00  1.115237931E+03  1.115237931E+03  0.000000000E+00  0.00000E+00  9.000E+00
      21    -1     0     0   512   503  0.000000000E+00  0.000000000E+00 -6.504435256E+01  6.504435256E+01  0.000000000E+00  0.00000E+00  9.000E+00
      25     1     1     2     0     0  1.852205266E+02  5.889094355E+01  4.219393721E+02  4.810736510E+02  1.249969490E+02  0.00000E+00  9.000E+00
       5     1     1     2   501     0  3.913018329E+00  3.893365339E+00  3.827121305E+02  3.827814093E+02  4.750000000E+00  0.00000E+00  9.000E+00
      -5     1     1     2     0   503 -1.578416964E+02 -5.563789071E+01  2.030862108E+02  2.632036237E+02  4.750000000E+00  0.00000E+00  9.000E+00
      21     1     1     2   512   502 -3.129184853E+01 -7.146418182E+00  4.245586533E+01  5.322359983E+01  8.259061849E-07  0.00000E+00  9.000E+00
#rwgt            1           9  0.44341704300995521               11     1203005           0
</event>
<event>
      6   9999  3.45752E-01  5.54038E+00 -1.00000E+00  2.18995E-01
      21    -1     0     0   501   502  0.000000000E+00  0.000000000E+00  3.903827836E+01  3.903827836E+01  0.000000000E+00  0.00000E+00  9.000E+00
      21    -1     0     0   502   511  0.000000000E+00  0.000000000E+00 -1.037025895E+03  1.037025895E+03  0.000000000E+00  0.00000E+00  9.000E+00
      25     1     1     2     0     0  3.725694807E+01 -4.330867944E+01 -1.999609349E+02  2.426386495E+02  1.250016675E+02  0.00000E+00  9.000E+00
       5     1     1     2   501     0  1.271054850E+00  4.920695793E+00  1.575926326E+01  1.722630855E+01  4.750000000E+00  0.00000E+00  9.000E+00
      -5     1     1     2     0   503 -3.470932983E+01  4.240214827E+01 -6.511306451E+02  6.534495843E+02  4.750000000E+00  0.00000E+00  9.000E+00
      21     1     1     2   503   511 -3.818673083E+00 -4.014164621E+00 -1.626552997E+02  1.627496307E+02  2.697398305E-06  0.00000E+00  9.000E+00
#rwgt            1           9   38.493260293668044               11     1205267           0
</event>
<event>
      6   9999  3.45752E-01  1.34175E+01 -1.00000E+00  1.74677E-01
      21    -1     0     0   501   512  0.000000000E+00  0.000000000E+00  1.775138646E+02  1.775138646E+02  0.000000000E+00  0.00000E+00  9.000E+00
      21    -1     0     0   502   503  0.000000000E+00  0.000000000E+00 -8.600306305E+01  8.600306305E+01  0.000000000E+00  0.00000E+00  9.000E+00
      25     1     1     2     0     0  2.258385300E+00  5.327326940E+00 -3.072935283E+01  1.287830024E+02  1.249291313E+02  0.00000E+00  9.000E+00
       5     1     1     2   501     0  5.278664239E-03  3.790048630E+00  3.630400236E-01  6.087593494E+00  4.750000000E+00  0.00000E+00  9.000E+00
      -5     1     1     2     0   503 -5.721445699E-01  4.193047202E+00  3.399700624E-01  6.370798529E+00  4.750000000E+00  0.00000E+00  9.000E+00
      21     1     1     2   502   512 -1.691519395E+00 -1.331042277E+01  1.215371443E+02  1.222755333E+02  0.000000000E+00  0.00000E+00  9.000E+00
#rwgt            1           9   2.4907353119386296E-002          11     1210622           0
</event>
<event>
      6   9999  3.45752E-01  5.79521E+00 -1.00000E+00  2.16180E-01
      21    -1     0     0   501   511  0.000000000E+00  0.000000000E+00  1.178588379E+01  1.178588379E+01  0.000000000E+00  0.00000E+00  9.000E+00
      21    -1     0     0   502   503  0.000000000E+00  0.000000000E+00 -7.476598819E+02  7.476598819E+02  0.000000000E+00  0.00000E+00  9.000E+00
      25     1     1     2     0     0  4.868552039E-01  1.549642896E-01 -6.937753642E+02  7.049471514E+02  1.250038766E+02  0.00000E+00  9.000E+00
       5     1     1     2   501     0  1.246785751E-01 -1.220677427E+00  3.527274874E+00  6.042331186E+00  4.750000000E+00  0.00000E+00  9.000E+00
      -5     1     1     2     0   503  4.725036996E+00  3.325249631E+00 -3.874373425E+01  3.945912700E+01  4.750000000E+00  0.00000E+00  9.000E+00
      21     1     1     2   502   511 -5.336570775E+00 -2.259536493E+00 -6.882174526E+00  8.997156163E+00  8.429369702E-08  0.00000E+00  9.000E+00
#rwgt            1           9   2.8151228736701130E-004          11     1212149           0
</event>
<event>
      6   9999  3.45752E-01  4.97790E+00 -1.00000E+00  2.29701E-01
      21    -1     0     0   501   512  0.000000000E+00  0.000000000E+00  6.054033176E+01  6.054033176E+01  0.000000000E+00  0.00000E+00  9.000E+00
      21    -1     0     0   502   503  0.000000000E+00  0.000000000E+00 -3.750836840E+02  3.750836840E+02  0.000000000E+00  0.00000E+00  9.000E+00
      25     1     1     2     0     0  4.463423452E+00  6.685044705E+00 -3.358579552E+02  3.584519696E+02  1.249905456E+02  0.00000E+00  9.000E+00
       5     1     1     2   501     0 -5.064441666E-01 -5.956734992E+00  4.244219080E+01  4.312355780E+01  4.750000000E+00  0.00000E+00  9.000E+00
      -5     1     1     2     0   503  7.805414479E-01 -2.256506564E+00 -2.632225477E+01  2.685376441E+01  4.750000000E+00  0.00000E+00  9.000E+00
      21     1     1     2   502   512 -4.737520733E+00  1.528196852E+00  5.194666891E+00  7.194723930E+00  0.000000000E+00  0.00000E+00  9.000E+00
#rwgt            1           9   3.3561930627165143E-002          11     1216074           0
</event>
<event>
      6   9999  3.45752E-01  5.48986E+00 -1.00000E+00  2.19578E-01
      21    -1     0     0   501   502  0.000000000E+00  0.000000000E+00  2.651533903E+01  2.651533903E+01  0.000000000E+00  0.00000E+00  9.000E+00
      -1    -1     0     0     0   503  0.000000000E+00  0.000000000E+00 -7.654057659E+02  7.654057659E+02  0.000000000E+00  0.00000E+00  9.000E+00
      25     1     1     2     0     0  3.653273332E+00 -1.982159660E+00 -1.786153608E+02  2.180529065E+02  1.250053901E+02  0.00000E+00  9.000E+00
       5     1     1     2   501     0  1.161748233E+00  2.706241850E-01  4.919235903E+00  6.941489630E+00  4.750000000E+00  0.00000E+00  9.000E+00
      -5     1     1     2     0   503  7.895497838E-03 -9.110689922E-01 -6.005426840E+00  7.710885849E+00  4.750000000E+00  0.00000E+00  9.000E+00
      -1     1     1     2     0   502 -4.822917063E+00  2.622604467E+00 -5.591888751E+02  5.592158229E+02  1.078959322E-05  0.00000E+00  9.000E+00
#rwgt            1           9   2.8150440372423386E-004          11     1221603           0
</event>
<event>
      6   9999  3.45752E-01  4.59555E+00 -1.00000E+00  2.36001E-01
      21    -1     0     0   501   511  0.000000000E+00  0.000000000E+00  8.090684006E+00  8.090684006E+00  0.000000000E+00  0.00000E+00  9.000E+00
      21    -1     0     0   502   503  0.000000000E+00  0.000000000E+00 -7.478607370E+02  7.478607370E+02  0.000000000E+00  0.00000E+00  9.000E+00
      25     1     1     2     0     0 -1.362179554E+01  7.151629237E+00 -6.624820164E+02  6.743879011E+02  1.252194873E+02  0.00000E+00  9.000E+00
       5     1     1     2   501     0  6.763979286E+00 -1.622335470E+00 -1.423388452E+01  1.653932758E+01  4.750000000E+00  0.00000E+00  9.000E+00
      -5     1     1     2     0   503  9.954584907E+00 -2.133841031E+00 -4.220856931E+01  4.367805926E+01  4.750000000E+00  0.00000E+00  9.000E+00
      21     1     1     2   502   511 -3.096768652E+00 -3.395452736E+00 -2.084558281E+01  2.134613309E+01  5.331201500E-07  0.00000E+00  9.000E+00
#rwgt            1           9   2.8690404673405146E-004          11     1224805           0
</event>
<event>
      6   9999  3.45752E-01  2.76427E+00 -1.00000E+00  2.86550E-01
      21    -1     0     0   501   502  0.000000000E+00  0.000000000E+00  2.903449547E+02  2.903449547E+02  0.000000000E+00  0.00000E+00  9.000E+00
      21    -1     0     0   502   512  0.000000000E+00  0.000000000E+00 -5.044001761E+01  5.044001761E+01  0.000000000E+00  0.00000E+00  9.000E+00
      25     1     1     2     0     0 -4.472415690E+00  3.842141187E-01  1.979784643E+02  2.341724200E+02  1.249843984E+02  0.00000E+00  9.000E+00
       5     1     1     2   501     0  7.098254354E-01 -4.178917032E-01  5.495557181E+01  5.516661906E+01  4.750000000E+00  0.00000E+00  9.000E+00
      -5     1     1     2     0   503  6.291005207E+00  1.150944414E+00  1.831898235E+01  1.997621170E+01  4.750000000E+00  0.00000E+00  9.000E+00
      21     1     1     2   503   512 -2.528414952E+00 -1.117266830E+00 -3.134808138E+01  3.146972154E+01  9.536743164E-07  0.00000E+00  9.000E+00
#rwgt            1           9   1.5938302565155372E-002          11     1228856           0
</event>
<event>
      6   9999  3.45752E-01  3.87688E+01 -1.00000E+00  1.40978E-01
      21    -1     0     0   502   511  0.000000000E+00  0.000000000E+00  1.855096218E+01  1.855096218E+01  0.000000000E+00  0.00000E+00  9.000E+00
      21    -1     0     0   501   502  0.000000000E+00  0.000000000E+00 -1.021603864E+03  1.021603864E+03  0.000000000E+00  0.00000E+00  9.000E+00
      25     1     1     2     0     0 -2.701890752E+01 -3.767515689E+01 -4.066576315E+02  4.279535676E+02  1.249975519E+02  0.00000E+00  9.000E+00
       5     1     1     2   501     0  2.883297648E+00  4.367173883E-01 -1.747456584E+02  1.748345267E+02  4.750000000E+00  0.00000E+00  9.000E+00
      -5     1     1     2     0   503  3.077091057E+01 -9.583038958E-01 -3.767919249E+02  3.780773525E+02  4.750000000E+00  0.00000E+00  9.000E+00
      21     1     1     2   503   511 -6.635300701E+00  3.819674339E+01 -4.485768737E+01  5.928937964E+01  8.259061849E-07  0.00000E+00  9.000E+00
#rwgt            1           9   24.190783148651395               11     1234753           0
</event>
<event>
      6   9999  3.45752E-01  2.37029E+00 -1.00000E+00  3.06734E-01
      21    -1     0     0   501   502  0.000000000E+00  0.000000000E+00  4.995085935E+00  4.995085935E+00  0.000000000E+00  0.00000E+00  9.000E+00
      21    -1     0     0   512   503  0.000000000E+00  0.000000000E+00 -1.020536449E+03  1.020536449E+03  0.000000000E+00  0.00000E+00  9.000E+00
      25     1     1     2     0     0 -2.233220525E+00  2.031550525E+00 -8.719143817E+02  8.808342198E+02  1.250004767E+02  0.00000E+00  9.000E+00
       5     1     1     2   501     0 -2.128937553E-02 -9.792917948E-02 -1.416326200E+01  1.493889333E+01  4.750000000E+00  0.00000E+00  9.000E+00
      -5     1     1     2     0   503 -6.933235958E-02 -1.466704900E+00 -4.731131035E+01  4.757182588E+01  4.750000000E+00  0.00000E+00  9.000E+00
      21     1     1     2   512   502  2.323842260E+00 -4.669164452E-01 -8.215240866E+01  8.218659564E+01  1.907348633E-06  0.00000E+00  9.000E+00
#rwgt            1           9   5.5265394085760051E-003          11     1235850           0
</event>
<event>
      6   9999  3.45752E-01  6.38889E+00 -1.00000E+00  2.10328E-01
      21    -1     0     0   501   502  0.000000000E+00  0.000000000E+00  1.231550527E+01  1.231550527E+01  0.000000000E+00  0.00000E+00  9.000E+00
       1    -1     0     0   502     0  0.000000000E+00  0.000000000E+00 -9.258282892E+02  9.258282892E+02  0.000000000E+00  0.00000E+00  9.000E+00
      25     1     1     2     0     0 -2.144847318E+00 -2.292794233E+01 -4.680960386E+02  4.850452452E+02  1.249987906E+02  0.00000E+00  9.000E+00
       5     1     1     2   501     0  1.078872307E+00 -5.517893091E-03 -8.872003678E-01  4.951123145E+00  4.750000000E+00  0.00000E+00  9.000E+00
      -5     1     1     2     0   503  7.454607493E+00  2.299078567E+01 -8.339856140E+01  8.695993297E+01  4.750000000E+00  0.00000E+00  9.000E+00
       1     1     1     2   503     0 -6.388632481E+00 -5.732545029E-02 -3.611309835E+02  3.611874931E+02  3.814697266E-06  0.00000E+00  9.000E+00
#rwgt            1           9   1.5793693937989794E-002          11     1242025           0
</event>
<event>
      6   9999  3.45752E-01  3.88296E+00 -1.00000E+00  2.50550E-01
      21    -1     0     0   501   511  0.000000000E+00  0.000000000E+00  8.918287417E+00  8.918287417E+00  0.000000000E+00  0.00000E+00  9.000E+00
      21    -1     0     0   502   503  0.000000000E+00  0.000000000E+00 -7.691950472E+02  7.691950472E+02  0.000000000E+00  0.00000E+00  9.000E+00
      25     1     1     2     0     0  2.786089188E+00 -7.255937538E+00 -7.169064294E+02  7.277645382E+02  1.250039344E+02  0.00000E+00  9.000E+00
       5     1     1     2   501     0  2.602610217E-01  7.886678156E-01  7.994124079E-01  4.887872024E+00  4.750000000E+00  0.00000E+00  9.000E+00
      -5     1     1     2     0   503 -4.140397692E+00  2.741619199E+00 -2.770497377E+01  2.854448178E+01  4.750000000E+00  0.00000E+00  9.000E+00
      21     1     1     2   502   511  1.094047483E+00  3.725650524E+00 -1.646476903E+01  1.691644262E+01  2.384185791E-07  0.00000E+00  9.000E+00
#rwgt            1           9   1.5823482915214288E-004          11     1245274           0
</event>
<event>
      6   9999  3.45752E-01  8.46163E+01 -1.00000E+00  1.23601E-01
      21    -1     0     0   501   502  0.000000000E+00  0.000000000E+00  5.505780704E+02  5.505780704E+02  0.000000000E+00  0.00000E+00  9.000E+00
      21    -1     0     0   512   503  0.000000000E+00  0.000000000E+00 -1.560137826E+03  1.560137826E+03  0.000000000E+00  0.00000E+00  9.000E+00
      25     1     1     2     0     0 -1.357124894E+02 -2.754235182E+01 -6.933742176E+02  7.180395346E+02  1.250460181E+02  0.00000E+00  9.000E+00
       5     1     1     2   501     0  2.477050005E+00  7.171544282E+00  5.245058171E+02  5.245821971E+02  4.750000000E+00  0.00000E+00  9.000E+00
      -5     1     1     2     0   503  7.981088374E+01  8.598893612E+01 -3.261445801E+02  3.466362992E+02  4.750000000E+00  0.00000E+00  9.000E+00
      21     1     1     2   512   502  5.342455569E+01 -6.561812858E+01 -5.145467753E+02  5.214578659E+02  7.629394531E-06  0.00000E+00  9.000E+00
#rwgt            1           9   1.8786767660622291E-004          11     1249654           0
</event>
<event>
      6   9999  3.45752E-01  3.30513E+00 -1.00000E+00  2.66353E-01
      21    -1     0     0   502   503  0.000000000E+00  0.000000000E+00  9.563847597E+00  9.563847597E+00  0.000000000E+00  0.00000E+00  9.000E+00
      21    -1     0     0   511   502  0.000000000E+00  0.000000000E+00 -1.088034918E+03  1.088034918E+03  0.000000000E+00  0.00000E+00  9.000E+00
      25     1     1     2     0     0 -3.391679981E+00 -1.194278613E+01 -4.281272227E+02  4.461859340E+02  1.250393346E+02  0.00000E+00  9.000E+00
       5     1     1     2   501     0  6.922841276E+00  9.185804966E+00 -3.235270287E+02  3.237662823E+02  4.750000000E+00  0.00000E+00  9.000E+00
      -5     1     1     2     0   503 -1.872209336E+00 -1.016477876E-01 -1.564827614E+01  1.646045401E+01  4.750000000E+00  0.00000E+00  9.000E+00
      21     1     1     2   511   501 -1.658951960E+00  2.858628956E+00 -3.111685432E+02  3.111860957E+02  5.394796609E-06  0.00000E+00  9.000E+00
#rwgt            1           9   1.5913241591972921E-003          11     1251375           0
</event>
<event>
      6   9999  3.45752E-01  3.00956E+00 -1.00000E+00  2.76551E-01
      21    -1     0     0   501   512  0.000000000E+00  0.000000000E+00  4.892025835E+01  4.892025835E+01  0.000000000E+00  0.00000E+00  9.000E+00
      21    -1     0     0   502   503  0.000000000E+00  0.000000000E+00 -2.053165877E+02  2.053165877E+02  0.000000000E+00  0.00000E+00  9.000E+00
      25     1     1     2     0     0  3.836725878E+00  3.511007628E+00 -1.750708633E+02  2.151782685E+02  1.249993297E+02  0.00000E+00  9.000E+00
       5     1     1     2   501     0 -1.163363980E+00  9.816040378E-01  2.642298270E+01  2.688965371E+01  4.750000000E+00  0.00000E+00  9.000E+00
      -5     1     1     2     0   503 -8.746975492E-01 -2.079673009E+00 -7.485399654E+00  9.147887385E+00  4.750000000E+00  0.00000E+00  9.000E+00
      21     1     1     2   502   512 -1.798664350E+00 -2.412938657E+00 -2.630491354E-01  3.021036453E+00  8.067640598E-08  0.00000E+00  9.000E+00
#rwgt            1           9   1.6638791322313315E-004          11     1256403           0
</event>
<event>
      6   9999  3.45752E-01  7.37318E+00 -1.00000E+00  2.02305E-01
      21    -1     0     0   511   503  0.000000000E+00  0.000000000E+00  3.751291278E+02  3.751291278E+02  0.000000000E+00  0.00000E+00  9.000E+00
      21    -1     0     0   501   502  0.000000000E+00  0.000000000E+00 -5.097644304E+03  5.097644304E+03  0.000000000E+00  0.00000E+00  9.000E+00
      25     1     1     2     0     0  4.371883611E-01 -7.571145039E+00 -4.699426116E+03  4.701094298E+03  1.249970666E+02  0.00000E+00  9.000E+00
       5     1     1     2   501     0  1.254694740E+00  6.218390319E-01 -2.516262441E+02  2.516749693E+02  4.750000000E+00  0.00000E+00  9.000E+00
      -5     1     1     2     0   503  1.269294746E+00  1.968879312E-01 -1.456556275E+02  1.457387189E+02  4.750000000E+00  0.00000E+00  9.000E+00
      21     1     1     2   511   502 -2.961177847E+00  6.752418076E+00  3.741928113E+02  3.742654456E+02  1.321449896E-05  0.00000E+00  9.000E+00
#rwgt            1           9   8.0112792009268856E-004          11     1262768           0
</event>
<event>
      6   9999  3.45752E-01  6.74955E+00 -1.00000E+00  2.07176E-01
      21    -1     0     0   501   502  0.000000000E+00  0.000000000E+00  7.416515434E+00  7.416515434E+00  0.000000000E+00  0.00000E+00  9.000E+00
      21    -1     0     0   502   512  0.000000000E+00  0.000000000E+00 -7.810917231E+02  7.810917231E+02  0.000000000E+00  0.00000E+00  9.000E+00
      25     1     1     2     0     0 -9.260563992E-01  2.147897888E+00 -5.485330864E+02  5.626003435E+02  1.250005143E+02  0.00000E+00  9.000E+00
       5     1     1     2   501     0 -6.904173794E-01 -7.812635364E-01 -5.585838589E+01  5.606967829E+01  4.750000000E+00  0.00000E+00  9.000E+00
      -5     1     1     2     0   503 -1.428040508E+00  4.657261125E+00 -9.787878715E+01  9.811497773E+01  4.750000000E+00  0.00000E+00  9.000E+00
      21     1     1     2   503   512  3.044514287E+00 -6.023895477E+00 -7.140494818E+01  7.172323897E+01  9.536743164E-07  0.00000E+00  9.000E+00
#rwgt            1           9   2.7128065948644383E-006          11     1264980           0
</event>
<event>
      6   9999  3.45752E-01  6.85483E+00 -1.00000E+00  2.06305E-01
      21    -1     0     0   501   502  0.000000000E+00  0.000000000E+00  1.877305529E+01  1.877305529E+01  0.000000000E+00  0.00000E+00  9.000E+00
      21    -1     0     0   502   511  0.000000000E+00  0.000000000E+00 -1.014836700E+03  1.014836700E+03  0.000000000E+00  0.00000E+00  9.000E+00
      25     1     1     2     0     0 -2.948993921E+01 -4.191123287E+01 -6.846514456E+02  6.978513052E+02  1.249905368E+02  0.00000E+00  9.000E+00
       5     1     1     2   501     0  4.266816067E+00 -2.648800627E+00  8.488962634E+00  1.094745864E+01  4.750000000E+00  0.00000E+00  9.000E+00
      -5     1     1     2     0   503  2.928893183E+01  3.904117259E+01 -2.667712065E+02  2.712406566E+02  4.750000000E+00  0.00000E+00  9.000E+00
      21     1     1     2   503   511 -4.065808686E+00  5.518860901E+00 -5.312995506E+01  5.357033461E+01  6.743495762E-07  0.00000E+00  9.000E+00
#rwgt            1           9   7.6826570788946348E-004          11     1267441           0
</event>
<event>
      6   9999 -3.45752E-01  1.78267E+01 -1.00000E+00  1.64120E-01
      21    -1     0     0   501   502  0.000000000E+00  0.000000000E+00  1.296458548E+03  1.296458548E+03  0.000000000E+00  0.00000E+00  9.000E+00
      21    -1     0     0   502   512  0.000000000E+00  0.000000000E+00 -7.583273490E+01  7.583273490E+01  0.000000000E+00  0.00000E+00  9.000E+00
      25     1     1     2     0     0 -7.372966403E+01 -6.153325218E+00  7.869872405E+01  1.652029634E+02  1.249984127E+02  0.00000E+00  9.000E+00
       5     1     1     2   501     0 -8.944364439E-01 -3.751440465E-01  9.397768639E+02  9.397893685E+02  4.750000000E+00  0.00000E+00  9.000E+00
      -5     1     1     2     0   503  5.741124923E+01  1.890768849E+00  2.284042800E+02  2.355646496E+02  4.750000000E+00  0.00000E+00  9.000E+00
      21     1     1     2   503   512  1.721285125E+01  4.637700415E+00 -2.625405462E+01  3.173430159E+01  1.430511475E-06  0.00000E+00  9.000E+00
#rwgt            1           9  -7.1099054900681646E-004          11     1271309           0
</event>
<event>
      6   9999  3.45752E-01  6.03070E+00 -1.00000E+00  2.13750E-01
      21    -1     0     0   501   511  0.000000000E+00  0.000000000E+00  2.259140493E+01  2.259140493E+01  0.000000000E+00  0.00000E+00  9.000E+00
      21    -1     0     0   502   503  0.000000000E+00  0.000000000E+00 -2.207348032E+03  2.207348032E+03  0.000000000E+00  0.00000E+00  9.000E+00
      25     1     1     2     0     0 -2.268929629E+01  5.634383958E+01 -1.021155080E+03  1.030568142E+03  1.249942599E+02  0.00000E+00  9.000E+00
       5     1     1     2   501     0 -2.645421768E+00 -1.136500357E+00  1.635456356E+01  1.727206238E+01  4.750000000E+00  0.00000E+00  9.000E+00
      -5     1     1     2     0   503  2.829545710E+01 -4.995344636E+01 -1.154585040E+03  1.156021262E+03  4.750000000E+00  0.00000E+00  9.000E+00
      21     1     1     2   502   511 -2.960739041E+00 -5.253892868E+00 -2.537107006E+01  2.607797082E+01  3.371747881E-07  0.00000E+00  9.000E+00
#rwgt            1           9   7.2756991395059017E-003          11     1273764           0
</event>
<event>
      6   9999 -3.45752E-01  1.48153E+01 -1.00000E+00  1.70839E-01
      21    -1     0     0   501   502  0.000000000E+00  0.000000000E+00  2.109612091E+01  2.109612091E+01  0.000000000E+00  0.00000E+00  9.000E+00
      21    -1     0     0   512   503  0.000000000E+00  0.000000000E+00 -1.526042166E+03  1.526042166E+03  0.000000000E+00  0.00000E+00  9.000E+00
      25     1     1     2     0     0 -1.731635492E+01  4.891529362E+00 -9.623706481E+02  9.706208001E+02  1.249947600E+02  0.00000E+00  9.000E+00
       5     1     1     2   501     0  2.794230527E-01 -2.227543406E+00  1.622723033E+01  1.705653924E+01  4.750000000E+00  0.00000E+00  9.000E+00
      -5     1     1     2     0   503  2.237492540E+00 -1.979709955E+00 -3.484765248E+01  3.529655802E+01  4.750000000E+00  0.00000E+00  9.000E+00
      21     1     1     2   512   502  1.479943933E+01 -6.842760011E-01 -5.239549744E+02  5.241643892E+02  7.629394531E-06  0.00000E+00  9.000E+00
#rwgt            1           9  -3.1738755545141495E-003          11     1279063           0
</event>
<event>
      6   9999  3.45752E-01  1.41053E+01 -1.00000E+00  1.72719E-01
      21    -1     0     0   501   502  0.000000000E+00  0.000000000E+00  6.682619928E+02  6.682619928E+02  0.000000000E+00  0.00000E+00  9.000E+00
      21    -1     0     0   511   503  0.000000000E+00  0.000000000E+00 -6.753248690E+01  6.753248690E+01  0.000000000E+00  0.00000E+00  9.000E+00
      25     1     1     2     0     0 -7.298067633E-01  2.445026641E+00  6.772092888E+01  1.421868896E+02  1.249979063E+02  0.00000E+00  9.000E+00
       5     1     1     2   501     0 -8.538045185E+00 -3.342951930E+00  5.577452196E+02  5.578408070E+02  4.750000000E+00  0.00000E+00  9.000E+00
      -5     1     1     2     0   503 -2.201382130E+00 -7.312746521E+00 -2.330746309E+00  9.290706287E+00  4.750000000E+00  0.00000E+00  9.000E+00
      21     1     1     2   511   502  1.146923408E+01  8.210671810E+00 -2.240589620E+01  2.647607687E+01  8.596304120E-07  0.00000E+00  9.000E+00
#rwgt            1           9   1.1825452670081356E-003          11     1281776           0
</event>
<event>
      6   9999  3.45752E-01  1.00549E+01 -1.00000E+00  1.86944E-01
      21    -1     0     0   501   502  0.000000000E+00  0.000000000E+00  7.216406042E+02  7.216406042E+02  0.000000000E+00  0.00000E+00  9.000E+00
      21    -1     0     0   502   512  0.000000000E+00  0.000000000E+00 -4.532437708E+01  4.532437708E+01  0.000000000E+00  0.00000E+00  9.000E+00
      25     1     1     2     0     0  2.197047621E+01 -5.461169001E+01  2.101082865E+02  2.514683028E+02  1.250027071E+02  0.00000E+00  9.000E+00
       5     1     1     2   501     0  3.238240228E+00 -3.418331000E+00  3.943299137E+02  3.943866307E+02  4.750000000E+00  0.00000E+00  9.000E+00
      -5     1     1     2     0   503 -1.554200363E+01  6.079683425E+01  8.425530335E+01  1.051633376E+02  4.750000000E+00  0.00000E+00  9.000E+00
      21     1     1     2   503   512 -9.666712803E+00 -2.766813243E+00 -1.237727639E+01  1.594671009E+01  3.769728732E-07  0.00000E+00  9.000E+00
#rwgt            1           9  0.12992572333321406               11     1284345           0
</event>
<event>
      6   9999  3.45752E-01  7.98188E+00 -1.00000E+00  1.98132E-01
      21    -1     0     0   511   502  0.000000000E+00  0.000000000E+00  7.561721980E+00  7.561721980E+00  0.000000000E+00  0.00000E+00  9.000E+00
      21    -1     0     0   502   503  0.000000000E+00  0.000000000E+00 -8.201504577E+02  8.201504577E+02  0.000000000E+00  0.00000E+00  9.000E+00
      25     1     1     2     0     0  9.791597246E+00  3.317188541E+00 -7.529752371E+02  7.633478259E+02  1.249852655E+02  0.00000E+00  9.000E+00
       5     1     1     2   501     0  2.696134956E-02  2.902302572E-01 -2.828375737E+00  5.535988604E+00  4.750000000E+00  0.00000E+00  9.000E+00
      -5     1     1     2     0   503 -4.947605587E+00  2.715885322E+00 -2.616535381E+01  2.718534668E+01  4.750000000E+00  0.00000E+00  9.000E+00
      21     1     1     2   511   501 -4.870953008E+00 -6.323304120E+00 -3.061976912E+01  3.164301849E+01  4.768371582E-07  0.00000E+00  9.000E+00
#rwgt            1           9   6.8446458832463170E-002          11     1287528           0
</event>
<event>
      6   9999 -3.45752E-01  5.69794E+00 -1.00000E+00  2.17231E-01
      21    -1     0     0   501   502  0.000000000E+00  0.000000000E+00  1.595386107E+01  1.595386107E+01  0.000000000E+00  0.00000E+00  9.000E+00
      21    -1     0     0   512   503  0.000000000E+00  0.000000000E+00 -1.069057269E+03  1.069057269E+03  0.000000000E+00  0.00000E+00  9.000E+00
      25     1     1     2     0     0 -1.660441290E+00  9.261387589E+00 -6.747943087E+02  6.863392299E+02  1.250025964E+02  0.00000E+00  9.000E+00
       5     1     1     2   501     0 -1.219759390E+00  1.419066663E+00  9.248772773E+00  1.056427286E+01  4.750000000E+00  0.00000E+00  9.000E+00
      -5     1     1     2     0   503 -2.069891242E+00 -1.350236066E+01 -2.360327105E+02  2.364753711E+02  4.750000000E+00  0.00000E+00  9.000E+00
      21     1     1     2   512   502  4.950091922E+00  2.821906411E+00 -1.515251614E+02  1.516322561E+02  1.907348633E-06  0.00000E+00  9.000E+00
#rwgt            1           9  -3.3107673128542747E-003          11     1290645           0
</event>
<event>
      6   9999  3.45752E-01  1.54861E+01 -1.00000E+00  1.69180E-01
      21    -1     0     0   501   502  0.000000000E+00  0.000000000E+00  1.076147222E+01  1.076147222E+01  0.000000000E+00  0.00000E+00  9.000E+00
      21    -1     0     0   502   511  0.000000000E+00  0.000000000E+00 -9.248645418E+02  9.248645418E+02  0.000000000E+00  0.00000E+00  9.000E+00
      25     1     1     2     0     0  1.631160206E+01 -1.833021319E+01 -4.854168010E+02  5.018527952E+02  1.249987694E+02  0.00000E+00  9.000E+00
       5     1     1     2   501     0  1.353583827E+01 -3.112935956E+00 -3.916965722E+01  4.182981992E+01  4.750000000E+00  0.00000E+00  9.000E+00
      -5     1     1     2     0   503 -1.436960879E+01  2.195036966E+01 -1.954950728E+02  1.973048159E+02  4.750000000E+00  0.00000E+00  9.000E+00
      21     1     1     2   503   511 -1.547783155E+01 -5.072205179E-01 -1.940215386E+02  1.946385830E+02  2.697398305E-06  0.00000E+00  9.000E+00
#rwgt            1           9   8.7146855277772640E-004          11     1295014           0
</event>
<event>
      6   9999 -3.45752E-01  5.65958E+00 -1.00000E+00  2.17653E-01
      21    -1     0     0   501   502  0.000000000E+00  0.000000000E+00  7.548036601E+00  7.548036601E+00  0.000000000E+00  0.00000E+00  9.000E+00
      21    -1     0     0   512   503  0.000000000E+00  0.000000000E+00 -1.935211230E+03  1.935211230E+03  0.000000000E+00  0.00000E+00  9.000E+00
      25     1     1     2     0     0 -1.612055891E+01 -9.028157380E+00 -1.815554192E+03  1.819945894E+03  1.249986171E+02  0.00000E+00  9.000E+00
       5     1     1     2   501     0  1.355990939E+00 -2.256188690E+00  1.712040123E+00  5.694091694E+00  4.750000000E+00  0.00000E+00  9.000E+00
      -5     1     1     2     0   503  9.876227944E+00  8.432159988E+00 -2.919340821E+01  3.230261264E+01  4.750000000E+00  0.00000E+00  9.000E+00
      21     1     1     2   512   502  4.888340026E+00  2.852186082E+00 -8.462763362E+01  8.481666821E+01  1.348699152E-06  0.00000E+00  9.000E+00
#rwgt            1           9  -1.2694081946310577E-004          11     1296724           0
</event>
<event>
      6   9999  3.45752E-01  7.41517E+01 -1.00000E+00  1.26225E-01
      21    -1     0     0   501   511  0.000000000E+00  0.000000000E+00  3.551809100E+01  3.551809100E+01  0.000000000E+00  0.00000E+00  9.000E+00
      21    -1     0     0   502   503  0.000000000E+00  0.000000000E+00 -9.934035546E+02  9.934035546E+02  0.000000000E+00  0.00000E+00  9.000E+00
      25     1     1     2     0     0 -9.540973444E+01 -8.174994458E+01 -7.371345172E+02  7.581416573E+02  1.250016209E+02  0.00000E+00  9.000E+00
       5     1     1     2   501     0  3.114244189E+01  2.470036099E+01 -6.732263059E+01  7.832533824E+01  4.750000000E+00  0.00000E+00  9.000E+00
      -5     1     1     2     0   503 -4.522049084E+00  2.936376767E+01 -8.993244800E+01  9.483189065E+01  4.750000000E+00  0.00000E+00  9.000E+00
      21     1     1     2   502   511  6.878934163E+01  2.768581592E+01 -6.349586780E+01  9.762275940E+01  2.431401974E-06  0.00000E+00  9.000E+00
#rwgt            1           9   1.5351089541177081E-004          11     1300759           0
</event>
<event>
      6   9999  3.45752E-01  5.80737E+00 -1.00000E+00  2.16051E-01
      21    -1     0     0   501   512  0.000000000E+00  0.000000000E+00  1.642373703E+02  1.642373703E+02  0.000000000E+00  0.00000E+00  9.000E+00
      21    -1     0     0   502   503  0.000000000E+00  0.000000000E+00 -1.341924170E+03  1.341924170E+03  0.000000000E+00  0.00000E+00  9.000E+00
      25     1     1     2     0     0  1.591036342E+01  3.468059195E+01 -6.421388149E+02  6.553038658E+02  1.250000629E+02  0.00000E+00  9.000E+00
       5     1     1     2   501     0 -8.476381313E+00  4.424479261E-01  4.367046534E+01  4.474055032E+01  4.750000000E+00  0.00000E+00  9.000E+00
      -5     1     1     2     0   503 -1.232896789E+01 -3.199819574E+01 -6.921605888E+02  6.930257796E+02  4.750000000E+00  0.00000E+00  9.000E+00
      21     1     1     2   502   512  4.894985783E+00 -3.124844130E+00  1.129421387E+02  1.130913447E+02  4.473129043E-06  0.00000E+00  9.000E+00
#rwgt            1           9   4.5000400602425829E-003          11     1301286           0
</event>
<event>
      6   9999  3.45752E-01  1.63513E+01 -1.00000E+00  1.67188E-01
      21    -1     0     0   501   502  0.000000000E+00  0.000000000E+00  2.793980111E+01  2.793980111E+01  0.000000000E+00  0.00000E+00  9.000E+00
      21    -1     0     0   502   511  0.000000000E+00  0.000000000E+00 -1.411117891E+03  1.411117891E+03  0.000000000E+00  0.00000E+00  9.000E+00
      25     1     1     2     0     0  1.830963318E+01  4.037163906E+00 -1.075324985E+03  1.082728116E+03  1.249992334E+02  0.00000E+00  9.000E+00
       5     1     1     2   501     0 -1.476188062E+00  3.064851875E+00  2.333487736E+01  2.405517511E+01  4.750000000E+00  0.00000E+00  9.000E+00
      -5     1     1     2     0   503 -2.746949047E+00  1.200820551E+00 -2.387974493E+01  2.453145770E+01  4.750000000E+00  0.00000E+00  9.000E+00
      21     1     1     2   503   511 -1.408649607E+01 -8.302836332E+00 -3.073082373E+02  3.077429433E+02  3.814697266E-06  0.00000E+00  9.000E+00
#rwgt            1           9   4.2558793327486828E-005          11     1306899           0
</event>
<event>
      6   9999  3.45752E-01  3.31577E+00 -1.00000E+00  2.66017E-01
      21    -1     0     0   501   512  0.000000000E+00  0.000000000E+00  2.778862984E+01  2.778862984E+01  0.000000000E+00  0.00000E+00  9.000E+00
      21    -1     0     0   502   503  0.000000000E+00  0.000000000E+00 -7.530122840E+02  7.530122840E+02  0.000000000E+00  0.00000E+00  9.000E+00
      25     1     1     2     0     0 -1.238439393E+00 -4.076121589E+00 -6.870548670E+02  6.983445823E+02  1.249904671E+02  0.00000E+00  9.000E+00
       5     1     1     2   501     0 -1.123149426E+00  1.532473546E+00  4.456340147E+00  6.784644966E+00  4.750000000E+00  0.00000E+00  9.000E+00
      -5     1     1     2     0   503  7.134146949E-01 -3.334816688E-01 -5.888280215E+01  5.907932853E+01  4.750000000E+00  0.00000E+00  9.000E+00
      21     1     1     2   502   512  1.648174124E+00  2.877129712E+00  1.625767486E+01  1.659235803E+01  7.152557373E-07  0.00000E+00  9.000E+00
#rwgt            1           9   1.6969918488183504E-004          11     1309121           0
</event>
<event>
      6   9999  3.45752E-01  7.11758E+00 -1.00000E+00  2.04221E-01
      21    -1     0     0   501   511  0.000000000E+00  0.000000000E+00  4.240556116E+01  4.240556116E+01  0.000000000E+00  0.00000E+00  9.000E+00
      21    -1     0     0   502   503  0.000000000E+00  0.000000000E+00 -8.713549086E+02  8.713549086E+02  0.000000000E+00  0.00000E+00  9.000E+00
      25     1     1     2     0     0 -1.684719600E+00 -3.438852439E+00 -8.220464492E+02  8.315041690E+02  1.249966177E+02  0.00000E+00  9.000E+00
       5     1     1     2   501     0 -4.917420870E+00 -1.721224296E+00  5.851198533E+00  9.162022996E+00  4.750000000E+00  0.00000E+00  9.000E+00
      -5     1     1     2     0   503 -5.151916571E-01  5.101264089E+00 -4.221300972E+01  4.278772029E+01  4.750000000E+00  0.00000E+00  9.000E+00
      21     1     1     2   502   511  7.117332127E+00  5.881264657E-02  2.945891294E+01  3.030655749E+01  1.846782373E-06  0.00000E+00  9.000E+00
#rwgt            1           9   7.2084558641074452E-004          11     1315574           0
</event>
<event>
      6   9999  3.45752E-01  2.47938E+01 -1.00000E+00  1.53400E-01
      21    -1     0     0   502   503  0.000000000E+00  0.000000000E+00  3.353153155E+03  3.353153155E+03  0.000000000E+00  0.00000E+00  9.000E+00
      21    -1     0     0   512   502  0.000000000E+00  0.000000000E+00 -2.022092933E+01  2.022092933E+01  0.000000000E+00  0.00000E+00  9.000E+00
      25     1     1     2     0     0 -1.160204582E+00 -1.622443619E+01  7.485222154E+02  7.590613135E+02  1.249959689E+02  0.00000E+00  9.000E+00
       5     1     1     2   501     0  6.254209406E+01  1.263059752E+02  4.009274353E+02  4.250059809E+02  4.750000000E+00  0.00000E+00  9.000E+00
      -5     1     1     2     0   503 -7.105250416E+01 -8.725143329E+01  2.073840212E+03  2.076896015E+03  4.750000000E+00  0.00000E+00  9.000E+00
      21     1     1     2   512   501  9.670614683E+00 -2.283010568E+01  1.096423627E+02  1.124107744E+02  1.348699152E-06  0.00000E+00  9.000E+00
#rwgt            1           9   447.70191439446279               11     1319577           0
</event>
<event>
      6   9999  3.45752E-01  7.69684E+00 -1.00000E+00  2.00023E-01
      21    -1     0     0   502   511  0.000000000E+00  0.000000000E+00  8.873248897E+01  8.873248897E+01  0.000000000E+00  0.00000E+00  9.000E+00
      21    -1     0     0   501   502  0.000000000E+00  0.000000000E+00 -7.170962328E+02  7.170962328E+02  0.000000000E+00  0.00000E+00  9.000E+00
      25     1     1     2     0     0 -2.018015250E+00  2.948364966E+00 -5.580678102E+02  5.719056528E+02  1.249945184E+02  0.00000E+00  9.000E+00
       5     1     1     2   501     0 -3.051998899E+00 -8.902322028E+00 -1.082318790E+02  1.087440489E+02  4.750000000E+00  0.00000E+00  9.000E+00
      -5     1     1     2     0   503  5.350393453E+00 -1.737772322E+00 -4.312726426E+01  4.375122839E+01  4.750000000E+00  0.00000E+00  9.000E+00
      21     1     1     2   503   511 -2.803793048E-01  7.691729384E+00  8.106320963E+01  8.142779175E+01  2.336015456E-06  0.00000E+00  9.000E+00
#rwgt            1           9   4.5822225022137211E-005          11     1321661           0
</event>
<event>
      6   9999  3.45752E-01  1.73920E+01 -1.00000E+00  1.64984E-01
      21    -1     0     0   501   502  0.000000000E+00  0.000000000E+00  4.773184951E+01  4.773184951E+01  0.000000000E+00  0.00000E+00  9.000E+00
      21    -1     0     0   512   503  0.000000000E+00  0.000000000E+00 -4.766080130E+02  4.766080130E+02  0.000000000E+00  0.00000E+00  9.000E+00
      25     1     1     2     0     0  8.687208508E+00  1.007884089E+01 -3.923792341E+02  4.120228849E+02  1.249973749E+02  0.00000E+00  9.000E+00
       5     1     1     2   501     0  3.571165344E+00 -8.850354271E+00  3.288490808E+01  3.456966404E+01  4.750000000E+00  0.00000E+00  9.000E+00
      -5     1     1     2     0   503  1.657329629E+00 -1.166091652E+01 -1.090631135E+01  1.674018646E+01  4.750000000E+00  0.00000E+00  9.000E+00
      21     1     1     2   512   502 -1.391570348E+01  1.043242991E+01 -5.847552617E+01  6.100712711E+01  6.743495762E-07  0.00000E+00  9.000E+00
#rwgt            1           9   8.4989406767329410E-005          11     1324086           0
</event>
<event>
      6   9999  3.45752E-01  1.18674E+01 -1.00000E+00  1.79687E-01
      21    -1     0     0   511   502  0.000000000E+00  0.000000000E+00  7.639058518E+01  7.639058518E+01  0.000000000E+00  0.00000E+00  9.000E+00
      21    -1     0     0   502   503  0.000000000E+00  0.000000000E+00 -9.890132841E+02  9.890132841E+02  0.000000000E+00  0.00000E+00  9.000E+00
      25     1     1     2     0     0 -1.207182086E+01 -9.399742022E+00 -9.532670423E+02  9.615499327E+02  1.250045410E+02  0.00000E+00  9.000E+00
       5     1     1     2   501     0 -9.624659458E+00 -6.565127413E-01  1.319325988E+01  1.702027276E+01  4.750000000E+00  0.00000E+00  9.000E+00
      -5     1     1     2     0   503  1.016732257E+01  7.243201741E+00 -2.752326342E+01  3.059298856E+01  4.750000000E+00  0.00000E+00  9.000E+00
      21     1     1     2   511   501  1.152915775E+01  2.813053022E+00  5.497434683E+01  5.624067527E+01  2.611744678E-06  0.00000E+00  9.000E+00
#rwgt            1           9   1.0913793110553272E-004          11     1326347           0
</event>
<event>
      6   9999  3.45752E-01  5.30124E+00 -1.00000E+00  2.21833E-01
      21    -1     0     0   512   502  0.000000000E+00  0.000000000E+00  2.664315206E+01  2.664315206E+01  0.000000000E+00  0.00000E+00  9.000E+00
      21    -1     0     0   502   503  0.000000000E+00  0.000000000E+00 -9.237569991E+02  9.237569991E+02  0.000000000E+00  0.00000E+00  9.000E+00
      25     1     1     2     0     0  6.301364280E+00 -1.036762082E+01 -4.047493560E+02  4.237854707E+02  1.249995570E+02  0.00000E+00  9.000E+00
       5     1     1     2   501     0  2.876762559E+00  1.408654499E+00  4.317904506E+00  7.174041374E+00  4.750000000E+00  0.00000E+00  9.000E+00
      -5     1     1     2     0   503 -4.273682615E+00  1.097131743E+01 -5.073603337E+02  5.075191670E+02  4.750000000E+00  0.00000E+00  9.000E+00
      21     1     1     2   512   501 -4.904444224E+00 -2.012351100E+00  1.067793821E+01  1.192147200E+01  6.529361695E-07  0.00000E+00  9.000E+00
#rwgt            1           9   1.3361991941113698E-004          11     1329101           0
</event>
<event>
      6   9999  3.45752E-01  2.32660E+00 -1.00000E+00  3.09383E-01
      21    -1     0     0   501   511  0.000000000E+00  0.000000000E+00  1.792083823E+02  1.792083823E+02  0.000000000E+00  0.00000E+00  9.000E+00
      21    -1     0     0   502   503  0.000000000E+00  0.000000000E+00 -6.440205960E+01  6.440205960E+01  0.000000000E+00  0.00000E+00  9.000E+00
      25     1     1     2     0     0 -2.235975205E+01  7.089978408E+00  3.683589187E+01  1.324101832E+02  1.250013895E+02  0.00000E+00  9.000E+00
       5     1     1     2   501     0  1.564853563E+00 -2.310743317E+00  7.135300352E+01  7.156536811E+01  4.750000000E+00  0.00000E+00  9.000E+00
      -5     1     1     2     0   503  2.268944025E+01 -6.129702957E+00 -7.657899723E+00  2.517121144E+01  4.750000000E+00  0.00000E+00  9.000E+00
      21     1     1     2   502   511 -1.894541757E+00  1.350467866E+00  1.427532699E+01  1.446367908E+01  0.000000000E+00  0.00000E+00  9.000E+00
#rwgt            1           9   2.7830645676711128               11     1332803           0
</event>
<event>
      6   9999 -3.45752E-01  1.29205E+01 -1.00000E+00  1.76187E-01
      21    -1     0     0   512   503  0.000000000E+00  0.000000000E+00  6.292458628E+02  6.292458628E+02  0.000000000E+00  0.00000E+00  9.000E+00
      21    -1     0     0   501   502  0.000000000E+00  0.000000000E+00 -6.371470443E+02  6.371470443E+02  0.000000000E+00  0.00000E+00  9.000E+00
      25     1     1     2     0     0  3.807391189E+01 -3.873668438E+01 -1.733612219E+02  2.205212339E+02  1.250013914E+02  0.00000E+00  9.000E+00
       5     1     1     2   501     0  1.151019429E+00 -1.410269225E+00 -3.000843097E+02  3.001274215E+02  4.750000000E+00  0.00000E+00  9.000E+00
      -5     1     1     2     0   503 -4.222005364E+01  2.757843476E+01 -1.354499692E+02  1.446110634E+02  4.750000000E+00  0.00000E+00  9.000E+00
      21     1     1     2   512   502  2.995122323E+00  1.256851885E+01  6.009943193E+02  6.011331884E+02  1.321449896E-05  0.00000E+00  9.000E+00
#rwgt            1           9 -0.26712158805433384               11     1339888           0
</event>
<event>
      6   9999  3.45752E-01  2.40782E+01 -1.00000E+00  1.54293E-01
      21    -1     0     0   501   511  0.000000000E+00  0.000000000E+00  1.937046505E+02  1.937046505E+02  0.000000000E+00  0.00000E+00  9.000E+00
      21    -1     0     0   502   503  0.000000000E+00  0.000000000E+00 -1.041682465E+03  1.041682465E+03  0.000000000E+00  0.00000E+00  9.000E+00
      25     1     1     2     0     0 -1.505614158E+01  1.954695166E+01 -2.616302439E+02  2.910047022E+02  1.249983258E+02  0.00000E+00  9.000E+00
       5     1     1     2   501     0  2.129258101E+00  4.225272528E+00  7.278340776E+00  9.895625925E+00  4.750000000E+00  0.00000E+00  9.000E+00
      -5     1     1     2     0   503  8.563246476E+00 -9.268671356E-02 -7.631743416E+02  7.632371688E+02  4.750000000E+00  0.00000E+00  9.000E+00
      21     1     1     2   502   511  4.363637001E+00 -2.367953748E+01  1.695484300E+02  1.712496188E+02  1.907348633E-06  0.00000E+00  9.000E+00
#rwgt            1           9   2.9710660242842158E-003          11     1342186           0
</event>
<event>
      6   9999  3.45752E-01  7.63540E+00 -1.00000E+00  2.00444E-01
      21    -1     0     0   501   502  0.000000000E+00  0.000000000E+00  6.348931008E+01  6.348931008E+01  0.000000000E+00  0.00000E+00  9.000E+00
      21    -1     0     0   512   503  0.000000000E+00  0.000000000E+00 -1.487525474E+03  1.487525474E+03  0.000000000E+00  0.00000E+00  9.000E+00
      25     1     1     2     0     0  3.816201232E+01  1.540392055E+01 -1.051592533E+03  1.059795383E+03  1.250031188E+02  0.00000E+00  9.000E+00
       5     1     1     2   501     0 -7.688886126E+00 -8.178006354E+00  5.808838325E+01  5.935336155E+01  4.750000000E+00  0.00000E+00  9.000E+00
      -5     1     1     2     0   503 -2.324718582E+01 -4.759112558E+00 -3.789547729E+02  3.797266954E+02  4.750000000E+00  0.00000E+00  9.000E+00
      21     1     1     2   512   502 -7.225940380E+00 -2.466801640E+00 -5.157724181E+01  5.213934404E+01  6.743495762E-07  0.00000E+00  9.000E+00
#rwgt            1           9   1.0692953060062785E-004          11     1344068           0
</event>
<event>
      6   9999  3.45752E-01  1.39905E+02 -1.00000E+00  1.14547E-01
      21    -1     0     0   501   511  0.000000000E+00  0.000000000E+00  6.257771869E+01  6.257771869E+01  0.000000000E+00  0.00000E+00  9.000E+00
      21    -1     0     0   502   503  0.000000000E+00  0.000000000E+00 -2.043418882E+03  2.043418882E+03  0.000000000E+00  0.00000E+00  9.000E+00
      25     1     1     2     0     0 -1.297316989E+02 -1.527601429E+02 -1.217344522E+03  1.240046940E+03  1.249910127E+02  0.00000E+00  9.000E+00
       5     1     1     2   501     0  1.741670697E+01  1.958776887E+01  7.913539883E+00  2.778864848E+01  4.750000000E+00  0.00000E+00  9.000E+00
      -5     1     1     2     0   503 -1.682520963E+01  1.869879965E+02 -4.507793472E+02  4.883361351E+02  4.750000000E+00  0.00000E+00  9.000E+00
      21     1     1     2   502   511  1.291402015E+02 -5.381562244E+01 -3.206308334E+02  3.498248764E+02  0.000000000E+00  0.00000E+00  9.000E+00
#rwgt            1           9   1.4786347727957750E-003          11     1349217           0
</event>
<event>
      6   9999  3.45752E-01  3.36169E+00 -1.00000E+00  2.64590E-01
      21    -1     0     0   501   512  0.000000000E+00  0.000000000E+00  1.626418260E+01  1.626418260E+01  0.000000000E+00  0.00000E+00  9.000E+00
      21    -1     0     0   502   503  0.000000000E+00  0.000000000E+00 -8.060953180E+02  8.060953180E+02  0.000000000E+00  0.00000E+00  9.000E+00
      25     1     1     2     0     0 -6.496982032E+00 -1.308017665E+01 -7.260993131E+02  7.369249327E+02  1.249993686E+02  0.00000E+00  9.000E+00
       5     1     1     2   501     0  1.102053644E+00  2.306862183E+00  9.088007833E+00  1.056837366E+01  4.750000000E+00  0.00000E+00  9.000E+00
      -5     1     1     2     0   503  4.006559543E+00  7.711711827E+00 -6.928054096E+01  6.998484746E+01  4.750000000E+00  0.00000E+00  9.000E+00
      21     1     1     2   502   512  1.388368845E+00  3.061602645E+00 -3.539289226E+00  4.881346846E+00  9.424321831E-08  0.00000E+00  9.000E+00
#rwgt            1           9  0.22462484820057574               11     1350079           0
</event>
<event>
      6   9999  3.45752E-01  5.65137E+00 -1.00000E+00  2.17744E-01
      -3    -1     0     0     0   502  0.000000000E+00  0.000000000E+00  2.112525150E+02  2.112525150E+02  0.000000000E+00  0.00000E+00  9.000E+00
      21    -1     0     0   502   503  0.000000000E+00  0.000000000E+00 -1.348315868E+03  1.348315868E+03  0.000000000E+00  0.00000E+00  9.000E+00
      25     1     1     2     0     0 -6.816161753E+00  4.734909785E-01 -1.227690060E+03  1.234056078E+03  1.249993357E+02  0.00000E+00  9.000E+00
       5     1     1     2   501     0  2.583462573E+00 -4.802427930E+00  4.849840457E+01  4.903463407E+01  4.750000000E+00  0.00000E+00  9.000E+00
      -5     1     1     2     0   503  6.317869879E+00 -9.236850293E-01 -1.169893415E+02  1.172596998E+02  4.750000000E+00  0.00000E+00  9.000E+00
      -3     1     1     2     0   501 -2.085170699E+00  5.252621980E+00  1.591176440E+02  1.592179720E+02  3.303624740E-06  0.00000E+00  9.000E+00
#rwgt            1           9   6.4145844613577307E-002          11     1355665           0
</event>
<event>
      6   9999  3.45752E-01  1.12360E+02 -1.00000E+00  1.18323E-01
      21    -1     0     0   511   502  0.000000000E+00  0.000000000E+00  2.583419108E+01  2.583419108E+01  0.000000000E+00  0.00000E+00  9.000E+00
       1    -1     0     0   501     0  0.000000000E+00  0.000000000E+00 -2.162484513E+03  2.162484513E+03  0.000000000E+00  0.00000E+00  9.000E+00
      25     1     1     2     0     0  1.681236389E+02  6.917043235E+01 -6.228912509E+02  6.608094356E+02  1.250019723E+02  0.00000E+00  9.000E+00
       5     1     1     2   501     0 -7.644749440E+01  2.061488783E+00 -3.955298239E+02  4.028832005E+02  4.750000000E+00  0.00000E+00  9.000E+00
      -5     1     1     2     0   502 -4.775956252E+00 -5.275696538E-03 -4.060405249E+01  4.115897672E+01  4.750000000E+00  0.00000E+00  9.000E+00
       1     1     1     2   511     0 -8.690018826E+01 -7.122664544E+01 -1.077625195E+03  1.083467092E+03  1.525878906E-05  0.00000E+00  9.000E+00
#rwgt            1           1   3.7333259350200160E-004          11     1361709           0
</event>
<event>
      6   9999 -3.45752E-01  6.88759E+00 -1.00000E+00  2.06039E-01
      21    -1     0     0   501   502  0.000000000E+00  0.000000000E+00  2.364656863E+02  2.364656863E+02  0.000000000E+00  0.00000E+00  9.000E+00
      21    -1     0     0   502   512  0.000000000E+00  0.000000000E+00 -2.560329251E+02  2.560329251E+02  0.000000000E+00  0.00000E+00  9.000E+00
      25     1     1     2     0     0  1.810890030E+01  1.669387820E+01 -9.438480997E+01  1.585267050E+02  1.249624184E+02  0.00000E+00  9.000E+00
       5     1     1     2   501     0 -6.679050493E+00 -8.107203008E-01  1.659524132E+02  1.661566518E+02  4.750000000E+00  0.00000E+00  9.000E+00
      -5     1     1     2     0   503 -1.341776205E+01 -2.247762810E+01  3.361821189E+01  4.287221448E+01  4.750000000E+00  0.00000E+00  9.000E+00
      21     1     1     2   503   512  1.987912246E+00  6.594470195E+00 -1.247530538E+02  1.249430401E+02  1.348699152E-06  0.00000E+00  9.000E+00
#rwgt            1           9  -1.2634633699548162E-003          11     1361778           0
</event>
<event>
      6   9999  3.45752E-01  1.02588E+01 -1.00000E+00  1.86033E-01
      21    -1     0     0   501   511  0.000000000E+00  0.000000000E+00  1.267444263E+01  1.267444263E+01  0.000000000E+00  0.00000E+00  9.000E+00
      21    -1     0     0   502   503  0.000000000E+00  0.000000000E+00 -8.044060313E+02  8.044060313E+02  0.000000000E+00  0.00000E+00  9.000E+00
      25     1     1     2     0     0  7.022416034E+00  3.975091893E+01 -5.910610021E+02  6.054804240E+02  1.249959430E+02  0.00000E+00  9.000E+00
       5     1     1     2   501     0 -5.328980790E-02  9.281223430E-01 -5.791792538E-01  4.874648654E+00  4.750000000E+00  0.00000E+00  9.000E+00
      -5     1     1     2     0   503 -1.142900196E+01 -3.144043766E+01 -1.873246314E+02  1.903475854E+02  4.750000000E+00  0.00000E+00  9.000E+00
      21     1     1     2   502   511  4.459875736E+00 -9.238603613E+00 -1.276677595E+01  1.637781598E+01  0.000000000E+00  0.00000E+00  9.000E+00
#rwgt            1           9   7.9774292745806150E-002          11     1366272           0
</event>
<event>
      6   9999  3.45752E-01  5.08038E+00 -1.00000E+00  2.24644E-01
      21    -1     0     0   501   502  0.000000000E+00  0.000000000E+00  2.506127522E+01  2.506127522E+01  0.000000000E+00  0.00000E+00  9.000E+00
      21    -1     0     0   502   512  0.000000000E+00  0.000000000E+00 -3.981416929E+02  3.981416929E+02  0.000000000E+00  0.00000E+00  9.000E+00
      25     1     1     2     0     0 -4.422610035E+00 -1.637230930E+01 -2.595072524E+02  2.885420266E+02  1.249995004E+02  0.00000E+00  9.000E+00
       5     1     1     2   501     0  9.254555693E+00  1.849607963E+01 -1.459098989E+00  2.127071302E+01  4.750000000E+00  0.00000E+00  9.000E+00
      -5     1     1     2     0   503 -1.766228183E-01 -8.950982083E-02 -9.244715680E+00  1.039550266E+01  4.750000000E+00  0.00000E+00  9.000E+00
      21     1     1     2   503   512 -4.655322840E+00 -2.034260505E+00 -1.028693506E+02  1.029947258E+02  0.000000000E+00  0.00000E+00  9.000E+00
#rwgt            1           9   2.8545268671036393E-003          11     1368610           0
</event>
<event>
      6   9999  3.45752E-01  5.10245E+01 -1.00000E+00  1.34318E-01
      21    -1     0     0   511   503  0.000000000E+00  0.000000000E+00  6.695285282E+02  6.695285282E+02  0.000000000E+00  0.00000E+00  9.000E+00
      21    -1     0     0   501   502  0.000000000E+00  0.000000000E+00 -7.080886447E+01  7.080886447E+01  0.000000000E+00  0.00000E+00  9.000E+00
      25     1     1     2     0     0 -9.719743331E+01  7.604153155E+01  9.472453366E+01  1.995691748E+02  1.250018508E+02  0.00000E+00  9.000E+00
       5     1     1     2   501     0  1.100075867E+01  4.311461918E+00  1.806847044E+01  2.210514689E+01  4.750000000E+00  0.00000E+00  9.000E+00
      -5     1     1     2     0   503  9.834116287E+01 -3.079482314E+01  1.715923204E+02  2.002143660E+02  4.750000000E+00  0.00000E+00  9.000E+00
      21     1     1     2   511   502 -1.214448823E+01 -4.955817033E+01  3.143343393E+02  3.184487050E+02  5.394796609E-06  0.00000E+00  9.000E+00
#rwgt            1           9   34.744749074265393               11     1372556           0
</event>
<event>
      6   9999 -3.45752E-01  4.04045E+01 -1.00000E+00  1.39933E-01
      21    -1     0     0   502   503  0.000000000E+00  0.000000000E+00  3.361064668E+01  3.361064668E+01  0.000000000E+00  0.00000E+00  9.000E+00
      21    -1     0     0   512   502  0.000000000E+00  0.000000000E+00 -2.130668511E+03  2.130668511E+03  0.000000000E+00  0.00000E+00  9.000E+00
      25     1     1     2     0     0 -4.046976228E+01 -7.568415776E+01 -1.809097625E+02  2.360689524E+02  1.250372533E+02  0.00000E+00  9.000E+00
       5     1     1     2   501     0  1.886009409E+01  6.956009011E+01 -1.706565662E+03  1.708093449E+03  4.750000000E+00  0.00000E+00  9.000E+00
      -5     1     1     2     0   503 -7.728492387E+00 -2.165714794E+01 -4.635103665E+01  5.195904878E+01  4.750000000E+00  0.00000E+00  9.000E+00
      21     1     1     2   512   501  2.933816058E+01  2.778121560E+01 -1.632314031E+02  1.681577074E+02  1.907348633E-06  0.00000E+00  9.000E+00
#rwgt            1           9  -79.515357301929683               11     1373360           0
</event>
<event>
      6   9999  3.45752E-01  2.84603E+01 -1.00000E+00  1.49334E-01
      21    -1     0     0   501   502  0.000000000E+00  0.000000000E+00  2.919997691E+01  2.919997691E+01  0.000000000E+00  0.00000E+00  9.000E+00
      21    -1     0     0   511   503  0.000000000E+00  0.000000000E+00 -2.821576717E+03  2.821576717E+03  0.000000000E+00  0.00000E+00  9.000E+00
      25     1     1     2     0     0 -7.309897403E+01  4.860253547E+01 -2.153095568E+03  2.158506658E+03  1.249992181E+02  0.00000E+00  9.000E+00
       5     1     1     2   501     0 -1.033351354E+01 -5.131309437E+00  2.142693949E+01  2.479492034E+01  4.750000000E+00  0.00000E+00  9.000E+00
      -5     1     1     2     0   503  5.984851043E+01 -2.754061035E+01 -4.849563727E+02  4.894339336E+02  4.750000000E+00  0.00000E+00  9.000E+00
      21     1     1     2   511   502  2.358397714E+01 -1.593061569E+01 -1.757517396E+02  1.780411819E+02  2.697398305E-06  0.00000E+00  9.000E+00
#rwgt            1           9   1.6973957419727473E-002          11     1375528           0
</event>
<event>
      6   9999  3.45752E-01  7.92405E+00 -1.00000E+00  1.98507E-01
      21    -1     0     0   512   502  0.000000000E+00  0.000000000E+00  3.506722744E+01  3.506722744E+01  0.000000000E+00  0.00000E+00  9.000E+00
      21    -1     0     0   502   503  0.000000000E+00  0.000000000E+00 -3.365786828E+03  3.365786828E+03  0.000000000E+00  0.00000E+00  9.000E+00
      25     1     1     2     0     0 -5.364306104E+01 -2.842237215E+01 -4.567682315E+02  4.774268621E+02  1.249551207E+02  0.00000E+00  9.000E+00
       5     1     1     2   501     0  5.236962763E+00 -8.279280452E+00  2.275038866E+01  2.522131931E+01  4.750000000E+00  0.00000E+00  9.000E+00
      -5     1     1     2     0   503  4.088242902E+01  3.918862198E+01 -2.863782853E+03  2.864346682E+03  4.750000000E+00  0.00000E+00  9.000E+00
      21     1     1     2   512   501  7.523669260E+00 -2.486969370E+00 -3.291890494E+01  3.385919252E+01  0.000000000E+00  0.00000E+00  9.000E+00
#rwgt            1           9   8.2501665030684269E-003          11     1377674           0
</event>
<event>
      6   9999  3.45752E-01  1.04453E+01 -1.00000E+00  1.85222E-01
      21    -1     0     0   501   502  0.000000000E+00  0.000000000E+00  1.159993229E+01  1.159993229E+01  0.000000000E+00  0.00000E+00  9.000E+00
      21    -1     0     0   502   511  0.000000000E+00  0.000000000E+00 -9.721947926E+02  9.721947926E+02  0.000000000E+00  0.00000E+00  9.000E+00
      25     1     1     2     0     0 -4.023314586E+01 -5.029959837E+00 -6.721240504E+02  6.848511604E+02  1.250054648E+02  0.00000E+00  9.000E+00
       5     1     1     2   501     0  4.377487159E+01  1.751998666E+01 -1.230328005E+02  1.318439297E+02  4.750000000E+00  0.00000E+00  9.000E+00
      -5     1     1     2     0   503  2.106464845E+00 -3.703555062E+00 -1.501756747E+01  1.631696500E+01  4.750000000E+00  0.00000E+00  9.000E+00
      21     1     1     2   503   511 -5.648190576E+00 -8.786471755E+00 -1.504204420E+02  1.507826698E+02  3.303624740E-06  0.00000E+00  9.000E+00
#rwgt            1           9   2.9941332171379315E-002          11     1382827           0
</event>
<event>
      6   9999  3.45752E-01  1.08453E+01 -1.00000E+00  1.83556E-01
      21    -1     0     0   501   502  0.000000000E+00  0.000000000E+00  6.164986054E+01  6.164986054E+01  0.000000000E+00  0.00000E+00  9.000E+00
      21    -1     0     0   512   503  0.000000000E+00  0.000000000E+00 -1.305299391E+02  1.305299391E+02  0.000000000E+00  0.00000E+00  9.000E+00
      25     1     1     2     0     0 -7.903175369E+00  1.557555480E+01 -6.917951993E+01  1.439310535E+02  1.250011364E+02  0.00000E+00  9.000E+00
       5     1     1     2   501     0 -1.705614019E+00  5.683771954E-01  1.961367921E+01  2.026057956E+01  4.750000000E+00  0.00000E+00  9.000E+00
      -5     1     1     2     0   503  4.905394693E+00 -6.371601886E+00 -7.772551147E+00  1.215052505E+01  4.750000000E+00  0.00000E+00  9.000E+00
      21     1     1     2   512   502  4.703394696E+00 -9.772330111E+00 -1.154168667E+01  1.583764151E+01  0.000000000E+00  0.00000E+00  9.000E+00
#rwgt            1           9   5.4493424709122669E-005          11     1384908           0
</event>
<event>
      6   9999 -3.45752E-01  4.24053E+01 -1.00000E+00  1.38731E-01
      21    -1     0     0   511   503  0.000000000E+00  0.000000000E+00  3.459347165E+02  3.459347165E+02  0.000000000E+00  0.00000E+00  9.000E+00
      21    -1     0     0   501   502  0.000000000E+00  0.000000000E+00 -1.266689437E+03  1.266689437E+03  0.000000000E+00  0.00000E+00  9.000E+00
      25     1     1     2     0     0 -1.029975865E+02  4.236597014E+01 -1.083733752E+03  1.096589231E+03  1.250028749E+02  0.00000E+00  9.000E+00
       5     1     1     2   501     0  1.886620097E+01 -5.955260628E+00 -1.933866852E+01  2.807036281E+01  4.750000000E+00  0.00000E+00  9.000E+00
      -5     1     1     2     0   503  1.263141484E+02 -4.074962877E+01 -1.222201211E+02  1.804885504E+02  4.750000000E+00  0.00000E+00  9.000E+00
      21     1     1     2   511   502 -4.218276279E+01  4.338919261E+00  3.045378211E+02  3.074760091E+02  0.000000000E+00  0.00000E+00  9.000E+00
#rwgt            1           9  -1.2401666045163242E-002          11     1387143           0
</event>
<event>
      6   9999  3.45752E-01  1.11645E+02 -1.00000E+00  1.18437E-01
      21    -1     0     0   501   512  0.000000000E+00  0.000000000E+00  2.051687849E+02  2.051687849E+02  0.000000000E+00  0.00000E+00  9.000E+00
      21    -1     0     0   502   503  0.000000000E+00  0.000000000E+00 -1.718777193E+03  1.718777193E+03  0.000000000E+00  0.00000E+00  9.000E+00
      25     1     1     2     0     0  4.987152263E+01  2.615520472E+01 -1.256316203E+03  1.263774420E+03  1.249964791E+02  0.00000E+00  9.000E+00
       5     1     1     2   501     0  1.123557429E+02 -7.183019523E+01  4.197257065E+01  1.398844134E+02  4.750000000E+00  0.00000E+00  9.000E+00
      -5     1     1     2     0   503 -9.627563955E+01 -4.440864149E+01 -3.721297741E+02  3.869680316E+02  4.750000000E+00  0.00000E+00  9.000E+00
      21     1     1     2   502   512 -6.595162600E+01  9.008363200E+01  7.286499863E+01  1.333191125E+02  3.438521648E-06  0.00000E+00  9.000E+00
#rwgt            1           9   7.6920558061020165E-004          11     1388573           0
</event>
<event>
      6   9999 -3.45752E-01  1.70233E+01 -1.00000E+00  1.65743E-01
      21    -1     0     0   502   503  0.000000000E+00  0.000000000E+00  1.882019091E+03  1.882019091E+03  0.000000000E+00  0.00000E+00  9.000E+00
       3    -1     0     0   501     0  0.000000000E+00  0.000000000E+00 -1.955392153E+02  1.955392153E+02  0.000000000E+00  0.00000E+00  9.000E+00
      25     1     1     2     0     0 -1.730864051E+01 -1.051855709E+01  1.796669693E+03  1.801126934E+03  1.250040624E+02  0.00000E+00  9.000E+00
       5     1     1     2   501     0  1.030932691E-01 -2.484598387E+01  3.082206499E+01  3.987349662E+01  4.750000000E+00  0.00000E+00  9.000E+00
      -5     1     1     2     0   503  1.997796464E+01  1.856852428E+01  4.333662852E+01  5.142504289E+01  4.750000000E+00  0.00000E+00  9.000E+00
       3     1     1     2   502     0 -2.772417396E+00  1.679601667E+01 -1.843485109E+02  1.851328333E+02  3.814697266E-06  0.00000E+00  9.000E+00
#rwgt            1           9  -8.4251384517653025E-004          11     1389544           0
</event>
<event>
      6   9999  3.45752E-01  2.46695E+01 -1.00000E+00  1.53552E-01
      21    -1     0     0   501   511  0.000000000E+00  0.000000000E+00  5.253569083E+01  5.253569083E+01  0.000000000E+00  0.00000E+00  9.000E+00
      21    -1     0     0   502   503  0.000000000E+00  0.000000000E+00 -1.227377509E+03  1.227377509E+03  0.000000000E+00  0.00000E+00  9.000E+00
      25     1     1     2     0     0  8.202396450E+01 -4.453308479E+01 -8.862792727E+02  8.999060842E+02  1.250155378E+02  0.00000E+00  9.000E+00
       5     1     1     2   501     0 -1.568334134E+00  4.783832897E+00  2.526016937E+01  2.619128454E+01  4.750000000E+00  0.00000E+00  9.000E+00
      -5     1     1     2     0   503 -1.050106284E+02  4.212370924E+01 -3.084318354E+02  3.285641468E+02  4.750000000E+00  0.00000E+00  9.000E+00
      21     1     1     2   502   511  2.455499807E+01 -2.374457350E+00 -5.390879361E+00  2.525168427E+01  5.960464478E-08  0.00000E+00  9.000E+00
#rwgt            1           9   3.5611500429658292E-005          11     1391662           0
</event>
<event>
      6   9999 -3.45752E-01  5.85182E+00 -1.00000E+00  2.15582E-01
      21    -1     0     0   501   512  0.000000000E+00  0.000000000E+00  2.041641152E+01  2.041641152E+01  0.000000000E+00  0.00000E+00  9.000E+00
      21    -1     0     0   502   503  0.000000000E+00  0.000000000E+00 -1.055084334E+03  1.055084334E+03  0.000000000E+00  0.00000E+00  9.000E+00
      25     1     1     2     0     0  2.362736119E+01 -8.917396491E+00 -9.751674019E+02  9.834706275E+02  1.250009655E+02  0.00000E+00  9.000E+00
       5     1     1     2   501     0  6.075997063E+00 -2.073251256E+00  1.035123264E+01  1.307389109E+01  4.750000000E+00  0.00000E+00  9.000E+00
      -5     1     1     2     0   503 -2.397134383E+01  9.812580482E+00 -6.783409914E+01  7.276633540E+01  4.750000000E+00  0.00000E+00  9.000E+00
      21     1     1     2   502   512 -5.732014430E+00  1.178067265E+00 -2.017654484E+00  6.189891883E+00  5.161913656E-08  0.00000E+00  9.000E+00
#rwgt            1           9  -2.1232987441586922E-002          11     1393862           0
</event>
<event>
      6   9999  3.45752E-01  3.31576E+01 -1.00000E+00  1.45081E-01
      21    -1     0     0   501   502  0.000000000E+00  0.000000000E+00  8.638917442E+00  8.638917442E+00  0.000000000E+00  0.00000E+00  9.000E+00
      21    -1     0     0   511   503  0.000000000E+00  0.000000000E+00 -2.590821735E+03  2.590821735E+03  0.000000000E+00  0.00000E+00  9.000E+00
      25     1     1     2     0     0 -2.039335859E+01  9.962260312E+00 -2.209388182E+03  2.213037755E+03  1.249993173E+02  0.00000E+00  9.000E+00
       5     1     1     2   501     0 -6.926888108E+00  1.266880367E+01 -4.149130269E+00  1.575620980E+01  4.750000000E+00  0.00000E+00  9.000E+00
      -5     1     1     2     0   503  2.259541180E+00 -9.196586315E-01 -6.386891856E+01  6.409175108E+01  4.750000000E+00  0.00000E+00  9.000E+00
      21     1     1     2   511   502  2.506070552E+01 -2.171140535E+01 -3.047765863E+02  3.065749364E+02  6.607249480E-06  0.00000E+00  9.000E+00
#rwgt            1           9   1.5287421708395444E-003          11     1399195           0
</event>
<event>
      6   9999  3.45752E-01  1.01804E+01 -1.00000E+00  1.86379E-01
      21    -1     0     0   501   502  0.000000000E+00  0.000000000E+00  2.269995507E+03  2.269995507E+03  0.000000000E+00  0.00000E+00  9.000E+00
      21    -1     0     0   512   503  0.000000000E+00  0.000000000E+00 -6.409648175E+01  6.409648175E+01  0.000000000E+00  0.00000E+00  9.000E+00
      25     1     1     2     0     0 -1.791561133E+01  5.872814949E+01  1.407730462E+03  1.414602484E+03  1.250006764E+02  0.00000E+00  9.000E+00
       5     1     1     2   501     0 -4.040445646E+00 -3.949801408E+00  8.239651772E+02  8.239982415E+02  4.750000000E+00  0.00000E+00  9.000E+00
      -5     1     1     2     0   503  2.738148630E+01 -6.339260792E+01 -1.594228660E+00  6.923490879E+01  4.750000000E+00  0.00000E+00  9.000E+00
      21     1     1     2   512   502 -5.425429329E+00  8.614259836E+00 -2.420238479E+01  2.625635514E+01  1.617033478E-06  0.00000E+00  9.000E+00
#rwgt            1           9   9.2311247902308237E-005          11     1400833           0
</event>
<event>
      6   9999  3.45752E-01  3.82861E+00 -1.00000E+00  2.51853E-01
      21    -1     0     0   501   511  0.000000000E+00  0.000000000E+00  1.114825990E+02  1.114825990E+02  0.000000000E+00  0.00000E+00  9.000E+00
      21    -1     0     0   502   503  0.000000000E+00  0.000000000E+00 -1.221018648E+02  1.221018648E+02  0.000000000E+00  0.00000E+00  9.000E+00
      25     1     1     2     0     0 -5.262218584E-01  4.355601016E+00 -8.413049002E+01  1.507369359E+02  1.249977453E+02  0.00000E+00  9.000E+00
       5     1     1     2   501     0  1.481020339E+00 -2.262395693E+00  4.660528685E+01  4.692469625E+01  4.750000000E+00  0.00000E+00  9.000E+00
      -5     1     1     2     0   503  2.257923326E+00 -1.074360749E-02 -2.808842598E+00  5.962418126E+00  4.750000000E+00  0.00000E+00  9.000E+00
      21     1     1     2   502   511 -3.212721806E+00 -2.082461716E+00  2.971477997E+01  2.996041349E+01  4.768371582E-07  0.00000E+00  9.000E+00
#rwgt            1           9   6.1016334285967451E-005          11     1405096           0
</event>
<event>
      6   9999 -3.45752E-01  1.03412E+01 -1.00000E+00  1.85672E-01
      21    -1     0     0   512   502  0.000000000E+00  0.000000000E+00  4.521607305E+01  4.521607305E+01  0.000000000E+00  0.00000E+00  9.000E+00
      21    -1     0     0   502   503  0.000000000E+00  0.000000000E+00 -6.564859948E+02  6.564859948E+02  0.000000000E+00  0.00000E+00  9.000E+00
      25     1     1     2     0     0  3.937020012E+00 -1.337142926E+01 -6.060164164E+02  6.189295131E+02  1.249942003E+02  0.00000E+00  9.000E+00
       5     1     1     2   501     0 -1.433119099E+00  3.579665101E+00 -1.991347993E+01  2.083211501E+01  4.750000000E+00  0.00000E+00  9.000E+00
      -5     1     1     2     0   503 -3.466882363E-01 -3.219202638E-01 -2.268928676E+01  2.318598842E+01  4.750000000E+00  0.00000E+00  9.000E+00
      21     1     1     2   512   501 -2.157212676E+00  1.011368442E+01  3.734926127E+01  3.875445131E+01  6.743495762E-07  0.00000E+00  9.000E+00
#rwgt            1           9  -5.6864328591568010E-004          11     1409986           0
</event>
<event>
      6   9999 -3.45752E-01  9.07888E+00 -1.00000E+00  1.91725E-01
      21    -1     0     0   501   502  0.000000000E+00  0.000000000E+00  8.769137765E+00  8.769137765E+00  0.000000000E+00  0.00000E+00  9.000E+00
      21    -1     0     0   511   503  0.000000000E+00  0.000000000E+00 -9.295803072E+02  9.295803072E+02  0.000000000E+00  0.00000E+00  9.000E+00
      25     1     1     2     0     0 -1.237480563E+01  1.700807551E+01 -6.864366319E+02  6.980422447E+02  1.250012614E+02  0.00000E+00  9.000E+00
       5     1     1     2   501     0  5.751224998E-01 -4.120270471E-01 -2.031981451E+00  5.214593061E+00  4.750000000E+00  0.00000E+00  9.000E+00
      -5     1     1     2     0   503  2.060145509E+01 -1.437010486E+01 -1.408753735E+02  1.431759520E+02  4.750000000E+00  0.00000E+00  9.000E+00
      21     1     1     2   511   502 -8.801771954E+00 -2.225943605E+00 -9.146718253E+01  9.191665515E+01  1.348699152E-06  0.00000E+00  9.000E+00
#rwgt            1           9  -3.3314484490147735E-004          11     1411986           0
</event>
<event>
      6   9999  3.45752E-01  1.11111E+01 -1.00000E+00  1.82499E-01
      21    -1     0     0   501   502  0.000000000E+00  0.000000000E+00  1.401100735E+02  1.401100735E+02  0.000000000E+00  0.00000E+00  9.000E+00
      21    -1     0     0   502   512  0.000000000E+00  0.000000000E+00 -1.157054493E+03  1.157054493E+03  0.000000000E+00  0.00000E+00  9.000E+00
      25     1     1     2     0     0 -5.269498035E+01 -5.133271227E+01 -1.027634567E+03  1.037819883E+03  1.250019931E+02  0.00000E+00  9.000E+00
       5     1     1     2   501     0 -3.417943784E+00 -2.184291327E+00  1.212170626E+02  1.213778902E+02  4.750000000E+00  0.00000E+00  9.000E+00
      -5     1     1     2     0   503  4.546456550E+01  5.034381713E+01 -7.741142704E+01  1.030369748E+02  4.750000000E+00  0.00000E+00  9.000E+00
      21     1     1     2   503   512  1.064835863E+01  3.173186467E+00 -3.311548815E+01  3.492981834E+01  6.743495762E-07  0.00000E+00  9.000E+00
#rwgt            1           9   1.3761394007074353E-003          11     1414703           0
</event>
<event>
      6   9999  3.45752E-01  8.19356E+00 -1.00000E+00  1.96794E-01
      21    -1     0     0   501   502  0.000000000E+00  0.000000000E+00  2.242473712E+02  2.242473712E+02  0.000000000E+00  0.00000E+00  9.000E+00
      21    -1     0     0   502   511  0.000000000E+00  0.000000000E+00 -4.564293917E+01  4.564293917E+01  0.000000000E+00  0.00000E+00  9.000E+00
      25     1     1     2     0     0  4.575834861E+00 -9.869127788E+00  1.499195322E+02  1.954991442E+02  1.250028452E+02  0.00000E+00  9.000E+00
       5     1     1     2   501     0  1.402525575E+00 -4.294189036E-01  4.133273045E+01  4.163062076E+01  4.750000000E+00  0.00000E+00  9.000E+00
      -5     1     1     2     0   503  1.435516241E+00  6.810152056E+00  7.329679774E+00  1.116806087E+01  4.750000000E+00  0.00000E+00  9.000E+00
      21     1     1     2   503   511 -7.413876677E+00  3.488394636E+00 -1.997751042E+01  2.159248451E+01  2.384185791E-07  0.00000E+00  9.000E+00
#rwgt            1           9  0.13749176415291345               11     1419399           0
</event>
<event>
      6   9999  3.45752E-01  4.56788E+00 -1.00000E+00  2.36491E-01
      21    -1     0     0   501   502  0.000000000E+00  0.000000000E+00  1.030837977E+02  1.030837977E+02  0.000000000E+00  0.00000E+00  9.000E+00
       2    -1     0     0   502     0  0.000000000E+00  0.000000000E+00 -2.229562411E+03  2.229562411E+03  0.000000000E+00  0.00000E+00  9.000E+00
      25     1     1     2     0     0  5.307319578E+01 -6.304870733E+00 -1.093666339E+03  1.102082197E+03  1.249903614E+02  0.00000E+00  9.000E+00
       5     1     1     2   501     0 -1.939365476E+01  1.752430570E+00  9.743259803E+01  9.947290343E+01  4.750000000E+00  0.00000E+00  9.000E+00
      -5     1     1     2     0   503 -3.042090794E+01  7.753507074E+00 -6.096787801E+02  6.105049761E+02  4.750000000E+00  0.00000E+00  9.000E+00
       2     1     1     2   503     0 -3.258633080E+00 -3.201066911E+00 -5.205660919E+02  5.205861327E+02  0.000000000E+00  0.00000E+00  9.000E+00
#rwgt            1           9   7.7551107036377047E-004          11     1421733           0
</event>
<event>
      6   9999  3.45752E-01  4.99624E+00 -1.00000E+00  2.29420E-01
      21    -1     0     0   511   502  0.000000000E+00  0.000000000E+00  1.177460506E+01  1.177460506E+01  0.000000000E+00  0.00000E+00  9.000E+00
      21    -1     0     0   502   503  0.000000000E+00  0.000000000E+00 -7.174477076E+02  7.174477076E+02  0.000000000E+00  0.00000E+00  9.000E+00
      25     1     1     2     0     0  3.202218857E+00 -4.578571324E-01 -6.801094415E+02  6.915043348E+02  1.249757129E+02  0.00000E+00  9.000E+00
       5     1     1     2   501     0  6.340745184E-01 -2.120897290E+00  1.490296734E+00  5.448278642E+00  4.750000000E+00  0.00000E+00  9.000E+00
      -5     1     1     2     0   503  1.333997882E-01 -4.550389940E-01 -2.684815427E+01  2.726922705E+01  4.750000000E+00  0.00000E+00  9.000E+00
      21     1     1     2   511   501 -3.969693164E+00  3.033793416E+00 -2.058034550E-01  5.000472115E+00  3.180926766E-07  0.00000E+00  9.000E+00
#rwgt            1           9   3.7419951772021850E-004          11     1429833           0
</event>
<event>
      6   9999  3.45752E-01  3.57287E+01 -1.00000E+00  1.43091E-01
      21    -1     0     0   502   503  0.000000000E+00  0.000000000E+00  1.314034582E+01  1.314034582E+01  0.000000000E+00  0.00000E+00  9.000E+00
       2    -1     0     0   501     0  0.000000000E+00  0.000000000E+00 -3.259913225E+03  3.259913225E+03  0.000000000E+00  0.00000E+00  9.000E+00
      25     1     1     2     0     0  3.687610364E+01  6.007279139E+01 -6.151714632E+02  6.316901655E+02  1.250117947E+02  0.00000E+00  9.000E+00
       5     1     1     2   501     0 -2.101524378E+00  6.653192554E+00 -3.475949942E+01  3.576963343E+01  4.750000000E+00  0.00000E+00  9.000E+00
      -5     1     1     2     0   503 -4.860304039E+01 -3.378192029E+01 -2.035335361E+02  2.120187173E+02  4.750000000E+00  0.00000E+00  9.000E+00
       2     1     1     2   502     0  1.382846113E+01 -3.294406366E+01 -2.393308381E+03  2.393575055E+03  5.285799584E-05  0.00000E+00  9.000E+00
#rwgt            1           9   1.2892372661395000               11     1433667           0
</event>
<event>
      6   9999 -3.45752E-01  8.66766E+00 -1.00000E+00  1.93981E-01
       1    -1     0     0   501     0  0.000000000E+00  0.000000000E+00  1.689828890E+02  1.689828890E+02  0.000000000E+00  0.00000E+00  9.000E+00
      21    -1     0     0   502   503  0.000000000E+00  0.000000000E+00 -1.531945036E+03  1.531945036E+03  0.000000000E+00  0.00000E+00  9.000E+00
      25     1     1     2     0     0 -6.606480641E+01  8.843743802E+01 -5.280739224E+01  1.749260301E+02  1.249990249E+02  0.00000E+00  9.000E+00
       5     1     1     2   501     0 -8.842029234E-01 -1.306263279E+00  8.496422981E+00  9.861026419E+00  4.750000000E+00  0.00000E+00  9.000E+00
      -5     1     1     2     0   503  7.539528001E+01 -8.518467764E+01 -1.414914503E+03  1.419488108E+03  4.750000000E+00  0.00000E+00  9.000E+00
       1     1     1     2   502     0 -8.446270684E+00 -1.946497097E+00  9.626332485E+01  9.665276018E+01  2.336015456E-06  0.00000E+00  9.000E+00
#rwgt            1           9  -8.3722136640073767E-003          11     1434707           0
</event>
<event>
      6   9999  3.45752E-01  5.24644E+00 -1.00000E+00  2.22512E-01
      21    -1     0     0   501   502  0.000000000E+00  0.000000000E+00  3.776085208E+00  3.776085208E+00  0.000000000E+00  0.00000E+00  9.000E+00
      21    -1     0     0   502   511  0.000000000E+00  0.000000000E+00 -1.774243847E+03  1.774243847E+03  0.000000000E+00  0.00000E+00  9.000E+00
      25     1     1     2     0     0 -4.240617325E+00 -1.999490236E+01 -1.327771634E+03  1.333799096E+03  1.249989468E+02  0.00000E+00  9.000E+00
       5     1     1     2   501     0  2.387906031E+00  1.551644051E+01 -1.074952840E+02  1.087394161E+02  4.750000000E+00  0.00000E+00  9.000E+00
      -5     1     1     2     0   503 -1.031616083E+00  9.601925781E-02 -5.078122190E+01  5.101341440E+01  4.750000000E+00  0.00000E+00  9.000E+00
      21     1     1     2   503   511  2.884327376E+00  4.382442593E+00 -2.844196218E+02  2.844680060E+02  5.394796609E-06  0.00000E+00  9.000E+00
#rwgt            1           9   1.3252694891281180E-003          11     1439686           0
</event>
<event>
      6   9999  3.45752E-01  1.59777E+01 -1.00000E+00  1.68029E-01
      21    -1     0     0   502   503  0.000000000E+00  0.000000000E+00  2.938487611E+03  2.938487611E+03  0.000000000E+00  0.00000E+00  9.000E+00
      21    -1     0     0   512   502  0.000000000E+00  0.000000000E+00 -3.376624289E+00  3.376624289E+00  0.000000000E+00  0.00000E+00  9.000E+00
      25     1     1     2     0     0 -3.156624959E+01 -9.557127893E+00  2.271990395E+03  2.275664844E+03  1.249894425E+02  0.00000E+00  9.000E+00
       5     1     1     2   501     0 -4.640062204E-01 -5.358597756E+00  8.086627021E+01  8.118402570E+01  4.750000000E+00  0.00000E+00  9.000E+00
      -5     1     1     2     0   503  1.668480227E+01  1.936603437E+01  5.229640096E+02  5.236099156E+02  4.750000000E+00  0.00000E+00  9.000E+00
      21     1     1     2   512   501  1.534545354E+01 -4.450308718E+00  5.929031225E+01  6.140545024E+01  9.536743164E-07  0.00000E+00  9.000E+00
#rwgt            1           9   230.14102645588574               11     1443486           0
</event>
<event>
      6   9999  3.45752E-01  7.72549E+00 -1.00000E+00  1.99828E-01
      21    -1     0     0   501   502  0.000000000E+00  0.000000000E+00  1.501007889E+01  1.501007889E+01  0.000000000E+00  0.00000E+00  9.000E+00
       2    -1     0     0   502     0  0.000000000E+00  0.000000000E+00 -2.169440713E+03  2.169440713E+03  0.000000000E+00  0.00000E+00  9.000E+00
      25     1     1     2     0     0  1.239640744E+01  3.223449210E+01 -8.073821809E+02  8.177306991E+02  1.249991075E+02  0.00000E+00  9.000E+00
       5     1     1     2   501     0 -2.551847671E+00  2.331427615E+00  5.655201978E+00  8.154219195E+00  4.750000000E+00  0.00000E+00  9.000E+00
      -5     1     1     2     0   503 -1.346984932E+01 -2.774386004E+01 -8.046481986E+01  8.630358247E+01  4.750000000E+00  0.00000E+00  9.000E+00
       2     1     1     2   503     0  3.625289554E+00 -6.822059674E+00 -1.272238836E+03  1.272262291E+03  2.642899792E-05  0.00000E+00  9.000E+00
#rwgt            1           9   9.5532864448378101E-003          11     1444962           0
</event>
<event>
      6   9999  3.45752E-01  6.02622E+00 -1.00000E+00  2.13794E-01
      21    -1     0     0   501   511  0.000000000E+00  0.000000000E+00  9.763952087E+00  9.763952087E+00  0.000000000E+00  0.00000E+00  9.000E+00
      21    -1     0     0   502   503  0.000000000E+00  0.000000000E+00 -6.888083229E+02  6.888083229E+02  0.000000000E+00  0.00000E+00  9.000E+00
      25     1     1     2     0     0 -6.020261305E+00 -1.447000267E+01 -6.212321065E+02  6.338777923E+02  1.250044037E+02  0.00000E+00  9.000E+00
       5     1     1     2   501     0  9.992424354E-01 -3.648440089E-01 -2.224422634E+00  5.351836381E+00  4.750000000E+00  0.00000E+00  9.000E+00
      -5     1     1     2     0   503  8.546633808E+00  9.947581936E+00 -4.551909503E+01  4.760829600E+01  4.750000000E+00  0.00000E+00  9.000E+00
      21     1     1     2   502   511 -3.525614938E+00  4.887264745E+00 -1.006874665E+01  1.173435028E+01  3.153981341E-07  0.00000E+00  9.000E+00
#rwgt            1           9   4.2164346739302369E-005          11     1448493           0
</event>
<event>
      6   9999  3.45752E-01  1.57614E+01 -1.00000E+00  1.68529E-01
      21    -1     0     0   501   502  0.000000000E+00  0.000000000E+00  1.469256991E+02  1.469256991E+02  0.000000000E+00  0.00000E+00  9.000E+00
      21    -1     0     0   512   503  0.000000000E+00  0.000000000E+00 -3.907836624E+02  3.907836624E+02  0.000000000E+00  0.00000E+00  9.000E+00
      25     1     1     2     0     0  7.229113433E+00  1.398999509E+02 -4.914235194E+01  1.940738951E+02  1.250017986E+02  0.00000E+00  9.000E+00
       5     1     1     2   501     0 -7.096357792E-01  1.243397274E-01  4.107011813E+01  4.135016501E+01  4.750000000E+00  0.00000E+00  9.000E+00
      -5     1     1     2     0   503  8.078309289E+00 -1.340805628E+02 -1.050155753E+02  1.705687251E+02  4.750000000E+00  0.00000E+00  9.000E+00
      21     1     1     2   512   502 -1.459778694E+01 -5.943727828E+00 -1.307701541E+02  1.317165763E+02  0.000000000E+00  0.00000E+00  9.000E+00
#rwgt            1           9   6.8355568043700258E-005          11     1451707           0
</event>
<event>
      6   9999  3.45752E-01  4.57477E+00 -1.00000E+00  2.36369E-01
      21    -1     0     0   501   502  0.000000000E+00  0.000000000E+00  3.418202236E+01  3.418202236E+01  0.000000000E+00  0.00000E+00  9.000E+00
      21    -1     0     0   511   503  0.000000000E+00  0.000000000E+00 -1.196058163E+03  1.196058163E+03  0.000000000E+00  0.00000E+00  9.000E+00
      25     1     1     2     0     0  2.787243781E+01 -2.772489225E+01 -4.345643848E+02  4.538910018E+02  1.250011782E+02  0.00000E+00  9.000E+00
       5     1     1     2   501     0 -2.064547186E+00  4.980111782E+00  2.357007765E+01  2.464091981E+01  4.750000000E+00  0.00000E+00  9.000E+00
      -5     1     1     2     0   503 -2.386984218E+01  1.860081389E+01 -6.419955163E+02  6.427258865E+02  4.750000000E+00  0.00000E+00  9.000E+00
      21     1     1     2   511   502 -1.938048446E+00  4.143966584E+00 -1.088863175E+02  1.089823777E+02  0.000000000E+00  0.00000E+00  9.000E+00
#rwgt            1           9   3.6037229045321119E-002          11     1454436           0
</event>
<event>
      6   9999  3.45752E-01  2.35908E+01 -1.00000E+00  1.54923E-01
      21    -1     0     0   501   502  0.000000000E+00  0.000000000E+00  1.104149242E+03  1.104149242E+03  0.000000000E+00  0.00000E+00  9.000E+00
      21    -1     0     0   512   503  0.000000000E+00  0.000000000E+00 -3.225441124E+01  3.225441124E+01  0.000000000E+00  0.00000E+00  9.000E+00
      25     1     1     2     0     0 -4.442300124E+00 -1.773972439E+01  1.096103430E+02  1.672550632E+02  1.250015881E+02  0.00000E+00  9.000E+00
       5     1     1     2   501     0 -5.906056405E+00  1.819871687E+00  8.762928153E+02  8.763274811E+02  4.750000000E+00  0.00000E+00  9.000E+00
      -5     1     1     2     0   503 -9.271153194E+00  2.820185784E+00  1.978435655E+01  2.253643702E+01  4.750000000E+00  0.00000E+00  9.000E+00
      21     1     1     2   512   502  1.961950972E+01  1.309966692E+01  6.620731623E+01  7.028467228E+01  9.536743164E-07  0.00000E+00  9.000E+00
#rwgt            1           9   1.3926548278842741               11     1460112           0
</event>
<event>
      6   9999 -3.45752E-01  1.81466E+01 -1.00000E+00  1.63502E-01
      21    -1     0     0   511   502  0.000000000E+00  0.000000000E+00  6.468630434E+01  6.468630434E+01  0.000000000E+00  0.00000E+00  9.000E+00
      21    -1     0     0   502   503  0.000000000E+00  0.000000000E+00 -8.933203867E+02  8.933203867E+02  0.000000000E+00  0.00000E+00  9.000E+00
      25     1     1     2     0     0  3.780788352E+01 -1.118313056E+02 -7.561744986E+02  7.754760830E+02  1.250104231E+02  0.00000E+00  9.000E+00
       5     1     1     2   501     0  1.622032034E+01  3.860536193E+01  2.494844057E+01  4.897407425E+01  4.750000000E+00  0.00000E+00  9.000E+00
      -5     1     1     2     0   503 -4.297092019E+01  5.883721518E+01 -7.423228130E+01  1.041216210E+02  4.750000000E+00  0.00000E+00  9.000E+00
      21     1     1     2   511   501 -1.105728367E+01  1.438872851E+01 -2.317574297E+01  2.943491282E+01  4.768371582E-07  0.00000E+00  9.000E+00
#rwgt            1           9  -3.4119023813683551E-004          11     1461949           0
</event>
<event>
      6   9999  3.45752E-01  2.26370E+00 -1.00000E+00  3.13377E-01
      21    -1     0     0   501   512  0.000000000E+00  0.000000000E+00  6.485728901E+00  6.485728901E+00  0.000000000E+00  0.00000E+00  9.000E+00
      21    -1     0     0   502   503  0.000000000E+00  0.000000000E+00 -7.904119321E+02  7.904119321E+02  0.000000000E+00  0.00000E+00  9.000E+00
      25     1     1     2     0     0 -5.766900622E-01  4.705342796E+00 -6.947122390E+02  7.058859433E+02  1.250095881E+02  0.00000E+00  9.000E+00
       5     1     1     2   501     0  8.828553592E-03  2.028970038E-01 -8.900729333E+00  1.009092304E+01  4.750000000E+00  0.00000E+00  9.000E+00
      -5     1     1     2     0   503 -1.606715583E+00 -4.279321119E+00 -7.211812453E+01  7.241878561E+01  4.750000000E+00  0.00000E+00  9.000E+00
      21     1     1     2   502   512  2.174577092E+00 -6.289186812E-01 -8.195110397E+00  8.502009095E+00  1.192092896E-07  0.00000E+00  9.000E+00
#rwgt            1           9   1.7619960433137419E-002          11     1464209           0
</event>
<event>
      6   9999  3.45752E-01  8.71253E+00 -1.00000E+00  1.93727E-01
      21    -1     0     0   501   502  0.000000000E+00  0.000000000E+00  1.030002377E+02  1.030002377E+02  0.000000000E+00  0.00000E+00  9.000E+00
      21    -1     0     0   502   511  0.000000000E+00  0.000000000E+00 -1.291171009E+02  1.291171009E+02  0.000000000E+00  0.00000E+00  9.000E+00
      25     1     1     2     0     0 -1.976086396E+01  2.836752301E+00  1.222959787E+01  1.271739900E+02  1.250004870E+02  0.00000E+00  9.000E+00
       5     1     1     2   501     0 -1.289609264E+00 -2.451405153E+00  3.085334614E+01  3.133949501E+01  4.750000000E+00  0.00000E+00  9.000E+00
      -5     1     1     2     0   503  1.440492080E+01 -6.019598566E+00 -4.721882813E+01  4.995915872E+01  4.750000000E+00  0.00000E+00  9.000E+00
      21     1     1     2   503   511  6.645552424E+00  5.634251418E+00 -2.198097910E+01  2.364469493E+01  2.384185791E-07  0.00000E+00  9.000E+00
#rwgt            1           9   4.8576945501407426E-004          11     1470319           0
</event>
<event>
      6   9999 -3.45752E-01  6.04202E+01 -1.00000E+00  1.30531E-01
      21    -1     0     0   501   502  0.000000000E+00  0.000000000E+00  3.982778808E+01  3.982778808E+01  0.000000000E+00  0.00000E+00  9.000E+00
      21    -1     0     0   512   503  0.000000000E+00  0.000000000E+00 -1.393487885E+03  1.393487885E+03  0.000000000E+00  0.00000E+00  9.000E+00
      25     1     1     2     0     0 -2.571030509E+01  1.388135655E+02 -6.490551993E+02  6.758910098E+02  1.250031183E+02  0.00000E+00  9.000E+00
       5     1     1     2   501     0  6.724653448E+01 -1.938338434E+02 -4.792939758E+02  5.213817536E+02  4.750000000E+00  0.00000E+00  9.000E+00
      -5     1     1     2     0   503 -6.599569214E+00  5.724970628E+00 -3.154994215E+01  3.308006880E+01  4.750000000E+00  0.00000E+00  9.000E+00
      21     1     1     2   512   502 -3.493666018E+01  4.929530728E+01 -1.937609793E+02  2.029628406E+02  2.697398305E-06  0.00000E+00  9.000E+00
#rwgt            1           9  -2.4142025128800065E-003          11     1473303           0
</event>
<event>
      6   9999  3.45752E-01  8.80707E+00 -1.00000E+00  1.93198E-01
      21    -1     0     0   501   502  0.000000000E+00  0.000000000E+00  7.006452594E+02  7.006452594E+02  0.000000000E+00  0.00000E+00  9.000E+00
      21    -1     0     0   511   503  0.000000000E+00  0.000000000E+00 -5.004684071E+01  5.004684071E+01  0.000000000E+00  0.00000E+00  9.000E+00
      25     1     1     2     0     0 -4.405864119E+01  1.118170253E+02  2.766417146E+02  3.265075568E+02  1.250293380E+02  0.00000E+00  9.000E+00
       5     1     1     2   501     0  1.944646788E-01  4.392161898E+00  2.449179048E+02  2.450034111E+02  4.750000000E+00  0.00000E+00  9.000E+00
      -5     1     1     2     0   503  4.105859365E+01 -1.078609383E+02  1.201161427E+02  1.666440529E+02  4.750000000E+00  0.00000E+00  9.000E+00
      21     1     1     2   511   502  2.805582859E+00 -8.348248891E+00  8.922656633E+00  1.253707925E+01  2.064765462E-07  0.00000E+00  9.000E+00
#rwgt            1           9   54.596547214084737               11     1474316           0
</event>
<event>
      6   9999 -3.45752E-01  4.86049E+01 -1.00000E+00  1.35448E-01
      21    -1     0     0   502   503  0.000000000E+00  0.000000000E+00  4.107204622E+01  4.107204622E+01  0.000000000E+00  0.00000E+00  9.000E+00
      21    -1     0     0   501   512  0.000000000E+00  0.000000000E+00 -6.675957900E+02  6.675957900E+02  0.000000000E+00  0.00000E+00  9.000E+00
      25     1     1     2     0     0 -1.090424504E+02 -6.041667879E+01 -3.797055084E+02  4.187376741E+02  1.249981421E+02  0.00000E+00  9.000E+00
       5     1     1     2   501     0  4.254603574E+01  2.217107361E+01 -8.707538760E+01  9.953093634E+01  4.750000000E+00  0.00000E+00  9.000E+00
      -5     1     1     2     0   503  2.766936312E+01  9.006969905E+00 -7.269945981E+00  3.036665568E+01  4.750000000E+00  0.00000E+00  9.000E+00
      21     1     1     2   502   512  3.882705150E+01  2.923863528E+01 -1.524729017E+02  1.600325701E+02  2.697398305E-06  0.00000E+00  9.000E+00
#rwgt            1           9 -0.27163591738108656               11     1477887           0
</event>
<event>
      6   9999  3.45752E-01  1.06588E+01 -1.00000E+00  1.84321E-01
      21    -1     0     0   501   502  0.000000000E+00  0.000000000E+00  7.679160967E+00  7.679160967E+00  0.000000000E+00  0.00000E+00  9.000E+00
       2    -1     0     0   502     0  0.000000000E+00  0.000000000E+00 -1.985555944E+03  1.985555944E+03  0.000000000E+00  0.00000E+00  9.000E+00
      25     1     1     2     0     0 -1.463765326E+00 -2.807613638E-02 -6.813354395E+02  6.927080360E+02  1.249971943E+02  0.00000E+00  9.000E+00
       5     1     1     2   501     0  7.615404346E+00  1.292806868E+00 -1.811758900E+01  2.026018914E+01  4.750000000E+00  0.00000E+00  9.000E+00
      -5     1     1     2     0   503  3.890743766E+00 -4.836983044E+00 -1.608995600E+01  1.788808196E+01  4.750000000E+00  0.00000E+00  9.000E+00
       2     1     1     2   503     0 -1.004238279E+01  3.572252312E+00 -1.262333798E+03  1.262378798E+03  0.000000000E+00  0.00000E+00  9.000E+00
#rwgt            1           9   1.1141371490439478E-002          11     1478719           0
</event>
<event>
      6   9999 -3.45752E-01  4.44336E+00 -1.00000E+00  2.38765E-01
      21    -1     0     0   501   502  0.000000000E+00  0.000000000E+00  1.267201810E+01  1.267201810E+01  0.000000000E+00  0.00000E+00  9.000E+00
      21    -1     0     0   502   511  0.000000000E+00  0.000000000E+00 -8.628304702E+02  8.628304702E+02  0.000000000E+00  0.00000E+00  9.000E+00
      25     1     1     2     0     0 -3.406298133E+01  1.270545445E+01 -5.882597438E+02  6.024921444E+02  1.250021704E+02  0.00000E+00  9.000E+00
       5     1     1     2   501     0 -9.425136298E-01  4.176808469E-01  2.513105907E+00  5.471836121E+00  4.750000000E+00  0.00000E+00  9.000E+00
      -5     1     1     2     0   503  3.174678218E+01 -1.614376527E+01 -2.452594106E+02  2.478774301E+02  4.750000000E+00  0.00000E+00  9.000E+00
      21     1     1     2   503   511  3.258712777E+00  3.020629971E+00 -1.915240355E+01  1.966107769E+01  2.384185791E-07  0.00000E+00  9.000E+00
#rwgt            1           9  -4.6320225210828300E-004          11     1480873           0
</event>
<event>
      6   9999 -3.45752E-01  9.27990E+00 -1.00000E+00  1.90679E-01
      21    -1     0     0   501   502  0.000000000E+00  0.000000000E+00  1.582215973E+01  1.582215973E+01  0.000000000E+00  0.00000E+00  9.000E+00
      21    -1     0     0   502   512  0.000000000E+00  0.000000000E+00 -9.569695191E+02  9.569695191E+02  0.000000000E+00  0.00000E+00  9.000E+00
      25     1     1     2     0     0  7.025781407E-01 -5.198496538E+01 -6.486935410E+02  6.626687775E+02  1.249946727E+02  0.00000E+00  9.000E+00
       5     1     1     2   501     0 -1.587918583E+00 -2.342544444E+00  4.507931639E+00  7.133929321E+00  4.750000000E+00  0.00000E+00  9.000E+00
      -5     1     1     2     0   503 -1.444784455E+00  4.534491637E+01 -1.811148198E+02  1.867709541E+02  4.750000000E+00  0.00000E+00  9.000E+00
      21     1     1     2   503   512  2.330124897E+00  8.982593455E+00 -1.158469301E+02  1.162180179E+02  1.348699152E-06  0.00000E+00  9.000E+00
#rwgt            1           9  -1.0698102977343639E-003          11     1485391           0
</event>
<event>
      6   9999 -3.45752E-01  7.42984E+00 -1.00000E+00  2.01894E-01
      21    -1     0     0   511   502  0.000000000E+00  0.000000000E+00  3.776322731E+01  3.776322731E+01  0.000000000E+00  0.00000E+00  9.000E+00
      21    -1     0     0   502   503  0.000000000E+00  0.000000000E+00 -1.109088489E+03  1.109088489E+03  0.000000000E+00  0.00000E+00  9.000E+00
      25     1     1     2     0     0  4.620781866E+00 -4.515797340E+00 -1.084868557E+03  1.092061495E+03  1.249671117E+02  0.00000E+00  9.000E+00
       5     1     1     2   501     0 -2.303514936E+00 -2.586024886E+00  3.559254744E+00  6.872008447E+00  4.750000000E+00  0.00000E+00  9.000E+00
      -5     1     1     2     0   503 -9.159594183E-02  1.317142019E-02 -1.818006128E+01  1.879057454E+01  4.750000000E+00  0.00000E+00  9.000E+00
      21     1     1     2   511   501 -2.225670988E+00  7.088650805E+00  2.816410269E+01  2.912763742E+01  2.078484985E-06  0.00000E+00  9.000E+00
#rwgt            1           9  -9.4137310809857579E-004          11     1488005           0
</event>
<event>
      6   9999  3.45752E-01  3.16880E+01 -1.00000E+00  1.46316E-01
      21    -1     0     0   501   502  0.000000000E+00  0.000000000E+00  1.574493637E+01  1.574493637E+01  0.000000000E+00  0.00000E+00  9.000E+00
      21    -1     0     0   502   512  0.000000000E+00  0.000000000E+00 -3.130710359E+03  3.130710359E+03  0.000000000E+00  0.00000E+00  9.000E+00
      25     1     1     2     0     0  1.826630980E+01  3.041870306E+01 -4.099655394E+02  4.300649248E+02  1.250005619E+02  0.00000E+00  9.000E+00
       5     1     1     2   501     0  7.464352730E+00  1.114590814E+01 -9.407608875E+00  1.705911588E+01  4.750000000E+00  0.00000E+00  9.000E+00
      -5     1     1     2     0   503 -2.216732099E+00 -6.280660465E+01 -5.651582597E+02  5.686615905E+02  4.750000000E+00  0.00000E+00  9.000E+00
      21     1     1     2   503   512 -2.351393043E+01  2.124199344E+01 -2.130434015E+03  2.130669664E+03  0.000000000E+00  0.00000E+00  9.000E+00
#rwgt            1           9   4572.1911726731660               11     1490813           0
</event>
<event>
      6   9999  3.45752E-01  1.24136E+01 -1.00000E+00  1.77817E-01
      21    -1     0     0   501   502  0.000000000E+00  0.000000000E+00  3.309455886E+01  3.309455886E+01  0.000000000E+00  0.00000E+00  9.000E+00
      21    -1     0     0   511   503  0.000000000E+00  0.000000000E+00 -1.818637195E+03  1.818637195E+03  0.000000000E+00  0.00000E+00  9.000E+00
      25     1     1     2     0     0 -1.025958118E+00  1.213064125E+01 -1.044856460E+03  1.052377395E+03  1.249998184E+02  0.00000E+00  9.000E+00
       5     1     1     2   501     0 -5.382704759E+00  2.517300250E+00  2.868066211E+01  2.967243148E+01  4.750000000E+00  0.00000E+00  9.000E+00
      -5     1     1     2     0   503  3.984129388E+00 -2.473456522E+00 -1.125252691E+02  1.127230675E+02  4.750000000E+00  0.00000E+00  9.000E+00
      21     1     1     2   511   502  2.424533490E+00 -1.217448498E+01 -6.568415692E+02  6.569588598E+02  0.000000000E+00  0.00000E+00  9.000E+00
#rwgt            1           9   4.8395336319812454E-004          11     1492477           0
</event>
<event>
      6   9999  3.45752E-01  3.38238E+01 -1.00000E+00  1.44545E-01
      21    -1     0     0   501   512  0.000000000E+00  0.000000000E+00  9.542947517E+01  9.542947517E+01  0.000000000E+00  0.00000E+00  9.000E+00
      21    -1     0     0   502   503  0.000000000E+00  0.000000000E+00 -1.316990054E+03  1.316990054E+03  0.000000000E+00  0.00000E+00  9.000E+00
      25     1     1     2     0     0  1.778921105E+01  1.307603241E+01 -5.279432803E+02  5.429912605E+02  1.250118516E+02  0.00000E+00  9.000E+00
       5     1     1     2   501     0  1.202229239E+00  1.851708842E+01  3.872396537E+01  4.320226745E+01  4.750000000E+00  0.00000E+00  9.000E+00
      -5     1     1     2     0   503 -4.407741436E+00 -1.074883930E+00 -7.731750426E+02  7.732029440E+02  4.750000000E+00  0.00000E+00  9.000E+00
      21     1     1     2   502   512 -1.458369886E+01 -3.051823690E+01  4.083377907E+01  5.302305696E+01  1.784161275E-06  0.00000E+00  9.000E+00
#rwgt            1           9   2.7394141581245806E-003          11     1495474           0
</event>
<event>
      6   9999  3.45752E-01  4.16256E+01 -1.00000E+00  1.39190E-01
      21    -1     0     0   501   511  0.000000000E+00  0.000000000E+00  4.188292377E+01  4.188292377E+01  0.000000000E+00  0.00000E+00  9.000E+00
      21    -1     0     0   502   503  0.000000000E+00  0.000000000E+00 -1.698417583E+03  1.698417583E+03  0.000000000E+00  0.00000E+00  9.000E+00
      25     1     1     2     0     0  1.434558829E+02  4.592342122E+01 -6.448342125E+02  6.738876486E+02  1.249994013E+02  0.00000E+00  9.000E+00
       5     1     1     2   501     0  4.184980394E+00 -1.235540259E+00  1.457026715E+01  1.593410824E+01  4.750000000E+00  0.00000E+00  9.000E+00
      -5     1     1     2     0   503 -1.141976346E+02 -6.947181614E+01 -9.764012789E+02  9.855198897E+02  4.750000000E+00  0.00000E+00  9.000E+00
      21     1     1     2   502   511 -3.344322866E+01  2.478393518E+01 -4.986943503E+01  6.495886034E+01  1.651812370E-06  0.00000E+00  9.000E+00
#rwgt            1           9   1.9989117253827983E-004          11     1496982           0
</event>
<event>
      6   9999  3.45752E-01  4.23832E+01 -1.00000E+00  1.38744E-01
      21    -1     0     0   501   512  0.000000000E+00  0.000000000E+00  9.054006163E+01  9.054006163E+01  0.000000000E+00  0.00000E+00  9.000E+00
      21    -1     0     0   502   503  0.000000000E+00  0.000000000E+00 -1.061294783E+03  1.061294783E+03  0.000000000E+00  0.00000E+00  9.000E+00
      25     1     1     2     0     0  1.141405940E+01  2.896435916E+01 -6.161292333E+02  6.294520421E+02  1.250017050E+02  0.00000E+00  9.000E+00
       5     1     1     2   501     0 -3.341801147E+00 -2.835229891E+01  4.287093474E+00  2.925683098E+01  4.750000000E+00  0.00000E+00  9.000E+00
      -5     1     1     2     0   503  3.415520855E+01 -4.242051708E+00 -4.185348170E+02  4.199744383E+02  4.750000000E+00  0.00000E+00  9.000E+00
      21     1     1     2   502   512 -4.222746680E+01  3.629991457E+00  5.962223575E+01  7.315153304E+01  6.743495762E-07  0.00000E+00  9.000E+00
#rwgt            1           9   1.7445531615665419E-003          11     1498585           0
</event>
<event>
      6   9999  3.45752E-01  1.86278E+01 -1.00000E+00  1.62603E-01
      21    -1     0     0   501   502  0.000000000E+00  0.000000000E+00  1.463647734E+01  1.463647734E+01  0.000000000E+00  0.00000E+00  9.000E+00
       2    -1     0     0   502     0  0.000000000E+00  0.000000000E+00 -2.497576015E+03  2.497576015E+03  0.000000000E+00  0.00000E+00  9.000E+00
      25     1     1     2     0     0  1.038902671E+01 -2.284506930E+01 -5.170181609E+02  5.324727010E+02  1.248581980E+02  0.00000E+00  9.000E+00
       5     1     1     2   501     0 -4.887503745E-01 -5.228836028E+00  4.550574167E+00  8.417234010E+00  4.750000000E+00  0.00000E+00  9.000E+00
      -5     1     1     2     0   503 -1.994830070E+01  1.238851771E+01 -3.868995006E+02  3.876405501E+02  4.750000000E+00  0.00000E+00  9.000E+00
       2     1     1     2   503     0  1.004802437E+01  1.568538762E+01 -1.583572450E+03  1.583682007E+03  2.157918644E-05  0.00000E+00  9.000E+00
#rwgt            1           9  0.34472948641578233               11     1499662           0
</event>
<event>
      6   9999  3.45752E-01  8.82433E+00 -1.00000E+00  1.93103E-01
      21    -1     0     0   511   502  0.000000000E+00  0.000000000E+00  2.089718857E+03  2.089718857E+03  0.000000000E+00  0.00000E+00  9.000E+00
      21    -1     0     0   502   503  0.000000000E+00  0.000000000E+00 -4.263204048E+02  4.263204048E+02  0.000000000E+00  0.00000E+00  9.000E+00
      25     1     1     2     0     0 -2.210229003E+01 -4.851381246E+00 -3.155795518E+02  3.401874610E+02  1.250000319E+02  0.00000E+00  9.000E+00
       5     1     1     2   501     0 -1.075973317E-02 -2.460592394E+00  3.879252487E+00  6.608005036E+00  4.750000000E+00  0.00000E+00  9.000E+00
      -5     1     1     2     0   503  2.003758226E+01 -1.264810327E+00 -9.596675619E+01  9.815948880E+01  4.750000000E+00  0.00000E+00  9.000E+00
      21     1     1     2   511   501  2.075467500E+00  8.576783967E+00  2.071065507E+03  2.071084307E+03  3.051757812E-05  0.00000E+00  9.000E+00
#rwgt            1           9   4.6263683457025218E-003          11     1501304           0
</event>
<event>
      6   9999  3.45752E-01  4.24525E+01 -1.00000E+00  1.38703E-01
      21    -1     0     0   501   502  0.000000000E+00  0.000000000E+00  2.322967331E+02  2.322967331E+02  0.000000000E+00  0.00000E+00  9.000E+00
      21    -1     0     0   512   503  0.000000000E+00  0.000000000E+00 -2.337476348E+03  2.337476348E+03  0.000000000E+00  0.00000E+00  9.000E+00
      25     1     1     2     0     0  1.061092163E+02 -1.956279374E+02 -1.857701198E+02  3.156992903E+02  1.250041953E+02  0.00000E+00  9.000E+00
       5     1     1     2   501     0  9.348080071E+00 -2.964479348E+00  1.574083705E+02  1.577850827E+02  4.750000000E+00  0.00000E+00  9.000E+00
      -5     1     1     2     0   503 -1.234554819E+02  1.569002154E+02 -1.986259112E+03  1.996273217E+03  4.750000000E+00  0.00000E+00  9.000E+00
      21     1     1     2   512   502  7.998185459E+00  4.169220137E+01 -9.055875357E+01  1.000154912E+02  0.000000000E+00  0.00000E+00  9.000E+00
#rwgt            1           9   5.1720292336637263E-003          11     1503971           0
</event>
<event>
      6   9999  3.45752E-01  4.02403E+00 -1.00000E+00  2.47313E-01
      21    -1     0     0   501   511  0.000000000E+00  0.000000000E+00  1.522135949E+01  1.522135949E+01  0.000000000E+00  0.00000E+00  9.000E+00
      21    -1     0     0   502   503  0.000000000E+00  0.000000000E+00 -7.531722479E+02  7.531722479E+02  0.000000000E+00  0.00000E+00  9.000E+00
      25     1     1     2     0     0  3.477058762E+00  1.017594583E+00 -6.783292585E+02  6.897602435E+02  1.250019404E+02  0.00000E+00  9.000E+00
       5     1     1     2   501     0  6.479443708E-01  1.827467230E+00  5.535989213E-01  5.160275201E+00  4.750000000E+00  0.00000E+00  9.000E+00
      -5     1     1     2     0   503 -4.568612675E+00  1.154437552E+00 -6.603036150E+01  6.636848716E+01  4.750000000E+00  0.00000E+00  9.000E+00
      21     1     1     2   502   511  4.436095423E-01 -3.999499366E+00  5.855132677E+00  7.104601556E+00  2.528810911E-07  0.00000E+00  9.000E+00
#rwgt            1           9   3.4420479885013977E-004          11     1506533           0
</event>
<event>
      6   9999  3.45752E-01  5.90449E+00 -1.00000E+00  2.15033E-01
      21    -1     0     0   512   502  0.000000000E+00  0.000000000E+00  6.521828259E+01  6.521828259E+01  0.000000000E+00  0.00000E+00  9.000E+00
      21    -1     0     0   502   503  0.000000000E+00  0.000000000E+00 -8.791281571E+02  8.791281571E+02  0.000000000E+00  0.00000E+00  9.000E+00
      25     1     1     2     0     0 -1.936328053E+01 -2.653810873E+01 -8.131598687E+02  8.233684527E+02  1.250097157E+02  0.00000E+00  9.000E+00
       5     1     1     2   501     0  2.007537273E+00 -8.526908797E-01  1.475398945E+00  5.431076292E+00  4.750000000E+00  0.00000E+00  9.000E+00
      -5     1     1     2     0   503  2.289875943E+01  2.535659640E+01 -5.365111649E+01  6.378334395E+01  4.750000000E+00  0.00000E+00  9.000E+00
      21     1     1     2   512   501 -5.543016181E+00  2.034203211E+00  5.142571174E+01  5.176356672E+01  2.023048729E-06  0.00000E+00  9.000E+00
#rwgt            1           9   3.6453236013051275E-006          11     1511081           0
</event>
<event>
      6   9999 -3.45752E-01  3.76959E+01 -1.00000E+00  1.41697E-01
      -3    -1     0     0     0   503  0.000000000E+00  0.000000000E+00  5.520731010E+01  5.520731010E+01  0.000000000E+00  0.00000E+00  9.000E+00
      21    -1     0     0   501   502  0.000000000E+00  0.000000000E+00 -8.172318546E+02  8.172318546E+02  0.000000000E+00  0.00000E+00  9.000E+00
      25     1     1     2     0     0 -5.347907800E+01  1.134022932E+00 -4.275514002E+02  4.486494210E+02  1.249992216E+02  0.00000E+00  9.000E+00
       5     1     1     2   501     0  2.862992299E+01  1.913451166E+01 -3.135232255E+02  3.154444127E+02  4.750000000E+00  0.00000E+00  9.000E+00
      -5     1     1     2     0   503 -7.354188810E-01  7.415542376E+00 -5.610734404E+01  5.679901112E+01  4.750000000E+00  0.00000E+00  9.000E+00
      -3     1     1     2     0   502  2.558457390E+01 -2.768407697E+01  3.515742528E+01  5.154631987E+01  2.023048729E-06  0.00000E+00  9.000E+00
#rwgt            1           9  -1.1499011029860920E-004          11     1515770           0
</event>
<event>
      6   9999  3.45752E-01  9.24516E+00 -1.00000E+00  1.90857E-01
      21    -1     0     0   501   502  0.000000000E+00  0.000000000E+00  3.852085096E+01  3.852085096E+01  0.000000000E+00  0.00000E+00  9.000E+00
      21    -1     0     0   511   503  0.000000000E+00  0.000000000E+00 -1.768729415E+03  1.768729415E+03  0.000000000E+00  0.00000E+00  9.000E+00
      25     1     1     2     0     0  6.052527679E+01 -5.310448470E+01 -1.880771508E+02  2.397579339E+02  1.250098268E+02  0.00000E+00  9.000E+00
       5     1     1     2   501     0  1.959018201E+00  9.520195800E-01  1.097384098E+01  1.215449627E+01  4.750000000E+00  0.00000E+00  9.000E+00
      -5     1     1     2     0   503 -5.728850969E+01  4.450544877E+01 -1.449096147E+03  1.450918645E+03  4.750000000E+00  0.00000E+00  9.000E+00
      21     1     1     2   511   502 -5.195785299E+00  7.647016346E+00 -1.040091069E+02  1.044191906E+02  1.348699152E-06  0.00000E+00  9.000E+00
#rwgt            1           9   1.3579100825454276E-004          11     1516629           0
</event>
<event>
      6   9999  3.45752E-01  3.04149E+01 -1.00000E+00  1.47453E-01
      21    -1     0     0   501   512  0.000000000E+00  0.000000000E+00  7.465026106E+01  7.465026106E+01  0.000000000E+00  0.00000E+00  9.000E+00
      21    -1     0     0   502   503  0.000000000E+00  0.000000000E+00 -1.455694974E+03  1.455694974E+03  0.000000000E+00  0.00000E+00  9.000E+00
      25     1     1     2     0     0 -5.114406490E+01 -8.628199106E+01 -3.120572728E+02  3.508068976E+02  1.250017621E+02  0.00000E+00  9.000E+00
       5     1     1     2   501     0 -2.418164361E+00  2.341021495E+00  4.229008438E+01  4.268889360E+01  4.750000000E+00  0.00000E+00  9.000E+00
      -5     1     1     2     0   503  2.498831484E+01  7.352001106E+01 -1.102433244E+03  1.105174750E+03  4.750000000E+00  0.00000E+00  9.000E+00
      21     1     1     2   502   512  2.857391443E+01  1.042095851E+01 -8.844281027E+00  3.167469446E+01  9.536743164E-07  0.00000E+00  9.000E+00
#rwgt            1           9   4.0385108361813698E-004          11     1520960           0
</event>
<event>
      6   9999  3.45752E-01  1.29178E+01 -1.00000E+00  1.76195E-01
      21    -1     0     0   511   502  0.000000000E+00  0.000000000E+00  1.163855195E+02  1.163855195E+02  0.000000000E+00  0.00000E+00  9.000E+00
      21    -1     0     0   502   503  0.000000000E+00  0.000000000E+00 -1.026992546E+03  1.026992546E+03  0.000000000E+00  0.00000E+00  9.000E+00
      25     1     1     2     0     0  1.349417037E+01  1.303680273E+01 -9.362746048E+02  9.447683580E+02  1.250002550E+02  0.00000E+00  9.000E+00
       5     1     1     2   501     0  1.386669575E+00 -9.000254694E+00  1.623330447E+01  1.920963589E+01  4.750000000E+00  0.00000E+00  9.000E+00
      -5     1     1     2     0   503 -5.488093462E+00 -1.290486481E+01 -8.388971995E+01  8.518628011E+01  4.750000000E+00  0.00000E+00  9.000E+00
      21     1     1     2   511   501 -9.392746483E+00  8.868316778E+00  9.332399367E+01  9.421379158E+01  3.303624740E-06  0.00000E+00  9.000E+00
#rwgt            1           9   7.1514844660222631E-004          11     1523252           0
</event>
<event>
      6   9999  3.45752E-01  1.18972E+01 -1.00000E+00  1.79582E-01
      21    -1     0     0   501   502  0.000000000E+00  0.000000000E+00  8.162784737E+00  8.162784737E+00  0.000000000E+00  0.00000E+00  9.000E+00
      21    -1     0     0   512   503  0.000000000E+00  0.000000000E+00 -1.037477817E+03  1.037477817E+03  0.000000000E+00  0.00000E+00  9.000E+00
      25     1     1     2     0     0 -3.171054031E+00 -5.416236445E+00 -5.714416933E+02  5.849884343E+02  1.250058727E+02  0.00000E+00  9.000E+00
       5     1     1     2   501     0 -5.204609921E+00  1.264218791E+01 -4.668252943E+01  4.887467579E+01  4.750000000E+00  0.00000E+00  9.000E+00
      -5     1     1     2     0   503 -3.502099751E+00 -6.545724991E+00 -1.102900249E+02  1.106415985E+02  4.750000000E+00  0.00000E+00  9.000E+00
      21     1     1     2   512   502  1.187776370E+01 -6.802264723E-01 -3.009007849E+02  3.011358934E+02  0.000000000E+00  0.00000E+00  9.000E+00
#rwgt            1           9   1.9617689365776639E-002          11     1526067           0
</event>
<event>
      6   9999  3.45752E-01  5.67750E+01 -1.00000E+00  1.31900E-01
      21    -1     0     0   501   502  0.000000000E+00  0.000000000E+00  1.667856136E+01  1.667856136E+01  0.000000000E+00  0.00000E+00  9.000E+00
      21    -1     0     0   502   511  0.000000000E+00  0.000000000E+00 -1.544832818E+03  1.544832818E+03  0.000000000E+00  0.00000E+00  9.000E+00
      25     1     1     2     0     0 -2.379159900E+01 -3.786050318E+01 -4.681261009E+02  4.865871999E+02  1.250023955E+02  0.00000E+00  9.000E+00
       5     1     1     2   501     0  3.581987263E+01  4.541791593E+01 -3.339061065E+02  3.389125268E+02  4.750000000E+00  0.00000E+00  9.000E+00
      -5     1     1     2     0   503  3.008754369E+01  3.051702069E+01 -1.252613350E+02  1.324745764E+02  4.750000000E+00  0.00000E+00  9.000E+00
      21     1     1     2   503   511 -4.211581733E+01 -3.807443344E+01 -6.008607146E+02  6.035370767E+02  0.000000000E+00  0.00000E+00  9.000E+00
#rwgt            1           9   1.0462559534881524E-003          11     1527688           0
</event>
<event>
      6   9999  3.45752E-01  1.43634E+01 -1.00000E+00  1.72020E-01
      21    -1     0     0   512   502  0.000000000E+00  0.000000000E+00  1.060786390E+03  1.060786390E+03  0.000000000E+00  0.00000E+00  9.000E+00
      21    -1     0     0   502   503  0.000000000E+00  0.000000000E+00 -9.862765066E+00  9.862765066E+00  0.000000000E+00  0.00000E+00  9.000E+00
      25     1     1     2     0     0  1.590832970E+00  1.667595814E+01  4.198168771E+02  4.383491835E+02  1.249927117E+02  0.00000E+00  9.000E+00
       5     1     1     2   501     0 -3.732665942E-01  1.557829439E+00  3.230344374E+02  3.230733298E+02  4.750000000E+00  0.00000E+00  9.000E+00
      -5     1     1     2     0   503  2.384624296E+00 -4.329446775E+00  2.096238970E+02  2.097359560E+02  4.750000000E+00  0.00000E+00  9.000E+00
      21     1     1     2   512   501 -3.602190672E+00 -1.390434080E+01  9.844841349E+01  9.949068595E+01  0.000000000E+00  0.00000E+00  9.000E+00
#rwgt            1           9   7.7939426981934470E-002          11     1528330           0
</event>
<event>
      6   9999  3.45752E-01  4.41551E+01 -1.00000E+00  1.37741E-01
      21    -1     0     0   501   511  0.000000000E+00  0.000000000E+00  1.265233449E+02  1.265233449E+02  0.000000000E+00  0.00000E+00  9.000E+00
      21    -1     0     0   502   503  0.000000000E+00  0.000000000E+00 -1.600795927E+03  1.600795927E+03  0.000000000E+00  0.00000E+00  9.000E+00
      25     1     1     2     0     0 -5.666500564E+01  2.447012754E+01 -2.971792168E+02  3.282525810E+02  1.249982401E+02  0.00000E+00  9.000E+00
       5     1     1     2   501     0  5.647489634E+00 -9.630830857E-01  8.425576117E+01  8.458378957E+01  4.750000000E+00  0.00000E+00  9.000E+00
      -5     1     1     2     0   503  6.670430631E+01  1.776762288E+01 -1.267950486E+03  1.269837057E+03  4.750000000E+00  0.00000E+00  9.000E+00
      21     1     1     2   502   511 -1.568679030E+01 -4.127466733E+01  6.601359066E+00  4.464584521E+01  1.108710482E-06  0.00000E+00  9.000E+00
#rwgt            1           9   1.5025872648454738E-003          11     1530343           0
</event>
<event>
      6   9999 -3.45752E-01  6.81897E+00 -1.00000E+00  2.06599E-01
      21    -1     0     0   501   512  0.000000000E+00  0.000000000E+00  4.018510920E+02  4.018510920E+02  0.000000000E+00  0.00000E+00  9.000E+00
      21    -1     0     0   502   503  0.000000000E+00  0.000000000E+00 -8.320465292E+02  8.320465292E+02  0.000000000E+00  0.00000E+00  9.000E+00
      25     1     1     2     0     0 -2.156125166E+01 -3.738640897E+01 -4.247105848E+02  4.448220399E+02  1.249997407E+02  0.00000E+00  9.000E+00
       5     1     1     2   501     0  1.396652971E+01  3.743093653E+00 -3.913132390E+01  4.198687547E+01  4.750000000E+00  0.00000E+00  9.000E+00
      -5     1     1     2     0   503  1.205130269E+01  2.848219010E+01 -3.560050964E+02  3.573774758E+02  4.750000000E+00  0.00000E+00  9.000E+00
      21     1     1     2   502   512 -4.456580738E+00  5.161125224E+00  3.896515680E+02  3.897112300E+02  0.000000000E+00  0.00000E+00  9.000E+00
#rwgt            1           9  -70.378121253204810               11     1531930           0
</event>
<event>
      6   9999 -3.45752E-01  2.97895E+01 -1.00000E+00  1.48036E-01
      21    -1     0     0   511   502  0.000000000E+00  0.000000000E+00  4.142243521E+01  4.142243521E+01  0.000000000E+00  0.00000E+00  9.000E+00
      21    -1     0     0   502   503  0.000000000E+00  0.000000000E+00 -9.398917616E+02  9.398917616E+02  0.000000000E+00  0.00000E+00  9.000E+00
      25     1     1     2     0     0 -4.369590714E+01  1.165615916E+01 -3.735867276E+02  3.965307839E+02  1.249976848E+02  0.00000E+00  9.000E+00
       5     1     1     2   501     0 -2.716016383E+00  9.767180924E-01  3.313733979E+00  6.471016621E+00  4.750000000E+00  0.00000E+00  9.000E+00
      -5     1     1     2     0   503  1.665461943E+01 -1.124792145E+01 -5.441351540E+02  5.445268775E+02  4.750000000E+00  0.00000E+00  9.000E+00
      21     1     1     2   511   501  2.975730410E+01 -1.384955808E+00  1.593882126E+01  3.378551868E+01  3.769728732E-07  0.00000E+00  9.000E+00
#rwgt            1           9  -6.9072244127360097E-005          11     1535192           0
</event>
<event>
      6   9999  3.45752E-01  1.02303E+01 -1.00000E+00  1.86158E-01
      21    -1     0     0   501   502  0.000000000E+00  0.000000000E+00  5.025969106E+01  5.025969106E+01  0.000000000E+00  0.00000E+00  9.000E+00
      21    -1     0     0   512   503  0.000000000E+00  0.000000000E+00 -1.729334444E+03  1.729334444E+03  0.000000000E+00  0.00000E+00  9.000E+00
      25     1     1     2     0     0  9.029298095E+00 -1.412717217E+02 -5.696328676E+02  6.001219731E+02  1.250022044E+02  0.00000E+00  9.000E+00
       5     1     1     2   501     0  1.796777934E+00  6.273342286E+00  2.865632338E+01  2.977130505E+01  4.750000000E+00  0.00000E+00  9.000E+00
      -5     1     1     2     0   503 -1.531639136E+00  1.307237678E+02 -7.402056192E+02  7.516767727E+02  4.750000000E+00  0.00000E+00  9.000E+00
      21     1     1     2   512   502 -9.294436893E+00  4.274611588E+00 -3.978925890E+02  3.980240838E+02  5.394796609E-06  0.00000E+00  9.000E+00
#rwgt            1           9   2.8008293094514277E-004          11     1537182           0
</event>
<event>
      6   9999  3.45752E-01  4.15190E+00 -1.00000E+00  2.44547E-01
      21    -1     0     0   501   502  0.000000000E+00  0.000000000E+00  1.288487953E+01  1.288487953E+01  0.000000000E+00  0.00000E+00  9.000E+00
      21    -1     0     0   511   503  0.000000000E+00  0.000000000E+00 -7.402654188E+02  7.402654188E+02  0.000000000E+00  0.00000E+00  9.000E+00
      25     1     1     2     0     0 -4.239452950E+00 -6.555801331E+00 -5.413187035E+02  5.556184606E+02  1.249999339E+02  0.00000E+00  9.000E+00
       5     1     1     2   501     0  3.933009012E-01  1.771980476E+00  2.780852097E+00  5.795708653E+00  4.750000000E+00  0.00000E+00  9.000E+00
      -5     1     1     2     0   503  1.420903416E+00  8.153751616E+00 -1.458813391E+01  1.743211929E+01  4.750000000E+00  0.00000E+00  9.000E+00
      21     1     1     2   511   502  2.425248633E+00 -3.369930761E+00 -1.742545539E+02  1.743040097E+02  2.697398305E-06  0.00000E+00  9.000E+00
#rwgt            1           9   7.2974484476792255E-004          11     1541052           0
</event>
<event>
      6   9999 -3.45752E-01  3.26037E+00 -1.00000E+00  2.67787E-01
      21    -1     0     0   512   502  0.000000000E+00  0.000000000E+00  3.103096650E+01  3.103096650E+01  0.000000000E+00  0.00000E+00  9.000E+00
      21    -1     0     0   502   503  0.000000000E+00  0.000000000E+00 -1.097774810E+03  1.097774810E+03  0.000000000E+00  0.00000E+00  9.000E+00
      25     1     1     2     0     0 -6.633575487E-01  1.518068428E+01 -2.240577431E+02  2.570173815E+02  1.250006757E+02  0.00000E+00  9.000E+00
       5     1     1     2   501     0 -2.301548630E+00 -2.245126184E+00  1.021498676E+01  1.171521115E+01  4.750000000E+00  0.00000E+00  9.000E+00
      -5     1     1     2     0   503  6.096913560E+00 -1.384139469E+01 -8.556571559E+02  8.558040006E+02  4.750000000E+00  0.00000E+00  9.000E+00
      21     1     1     2   512   501 -3.132007382E+00  9.058366028E-01  2.756068764E+00  4.269183203E+00  1.884864366E-07  0.00000E+00  9.000E+00
#rwgt            1           9  -1.9021731694469674E-004          11     1546531           0
</event>
<event>
      6   9999  3.45752E-01  3.60163E+00 -1.00000E+00  2.57674E-01
      21    -1     0     0   501   502  0.000000000E+00  0.000000000E+00  1.026087198E+02  1.026087198E+02  0.000000000E+00  0.00000E+00  9.000E+00
      21    -1     0     0   502   511  0.000000000E+00  0.000000000E+00 -7.067219377E+02  7.067219377E+02  0.000000000E+00  0.00000E+00  9.000E+00
      25     1     1     2     0     0  7.914896497E+00 -1.244775500E+01 -4.856922480E+02  5.017365731E+02  1.250001475E+02  0.00000E+00  9.000E+00
       5     1     1     2   501     0 -1.182348203E+01  3.363579276E+00  9.353245703E+01  9.445629366E+01  4.750000000E+00  0.00000E+00  9.000E+00
      -5     1     1     2     0   503  6.482076424E-01  7.553928980E+00 -3.429289895E+01  3.544075951E+01  4.750000000E+00  0.00000E+00  9.000E+00
      21     1     1     2   503   511  3.260377896E+00  1.530246740E+00 -1.776605279E+02  1.776970312E+02  2.697398305E-06  0.00000E+00  9.000E+00
#rwgt            1           9   5.2596138587757843E-002          11     1553318           0
</event>
<event>
      6   9999  3.45752E-01  1.52575E+01 -1.00000E+00  1.69733E-01
      21    -1     0     0   512   502  0.000000000E+00  0.000000000E+00  3.476164590E+01  3.476164590E+01  0.000000000E+00  0.00000E+00  9.000E+00
      21    -1     0     0   502   503  0.000000000E+00  0.000000000E+00 -3.093566248E+03  3.093566248E+03  0.000000000E+00  0.00000E+00  9.000E+00
      25     1     1     2     0     0 -1.756407930E+02  3.888929310E+01 -2.634960203E+03  2.644050301E+03  1.249986248E+02  0.00000E+00  9.000E+00
       5     1     1     2   501     0  1.810598649E+02 -3.117367766E+01 -3.741194938E+02  4.168242207E+02  4.750000000E+00  0.00000E+00  9.000E+00
      -5     1     1     2     0   503 -1.262602971E+01  5.732512410E+00 -5.009097889E+01  5.219144557E+01  4.750000000E+00  0.00000E+00  9.000E+00
      21     1     1     2   512   501  7.206957770E+00 -1.344812785E+01  3.660741520E-01  1.526192626E+01  1.378387615E-06  0.00000E+00  9.000E+00
#rwgt            1           9  0.12993956950544353               11     1560809           0
</event>
<event>
      6   9999  3.45752E-01  6.34929E+00 -1.00000E+00  2.10691E-01
      21    -1     0     0   501   502  0.000000000E+00  0.000000000E+00  4.058751334E+02  4.058751334E+02  0.000000000E+00  0.00000E+00  9.000E+00
      21    -1     0     0   502   511  0.000000000E+00  0.000000000E+00 -2.036096903E+01  2.036096903E+01  0.000000000E+00  0.00000E+00  9.000E+00
      25     1     1     2     0     0 -3.948323784E+00 -3.858648721E+00  2.293897991E+02  2.612933377E+02  1.249961998E+02  0.00000E+00  9.000E+00
       5     1     1     2   501     0 -2.100750864E+00  1.935883162E-01  1.483541488E+02  1.484451636E+02  4.750000000E+00  0.00000E+00  9.000E+00
      -5     1     1     2     0   503  1.307850967E+00 -5.580046775E-01  8.765607169E+00  1.007076027E+01  4.750000000E+00  0.00000E+00  9.000E+00
      21     1     1     2   503   511  4.741223680E+00  4.223065082E+00 -9.953906964E-01  6.426840850E+00  2.763753681E-07  0.00000E+00  9.000E+00
#rwgt            1           9   6.8908861717124617E-003          11     1564419           0
</event>
<event>
      6   9999  3.45752E-01  1.30923E+01 -1.00000E+00  1.75655E-01
      21    -1     0     0   512   502  0.000000000E+00  0.000000000E+00  2.480438753E+02  2.480438753E+02  0.000000000E+00  0.00000E+00  9.000E+00
      21    -1     0     0   502   503  0.000000000E+00  0.000000000E+00 -1.007497301E+03  1.007497301E+03  0.000000000E+00  0.00000E+00  9.000E+00
      25     1     1     2     0     0 -1.241401006E+00  1.129745851E+01 -9.189518369E+02  9.274838863E+02  1.249988287E+02  0.00000E+00  9.000E+00
       5     1     1     2   501     0  7.861291139E+00  8.811672323E+00  1.834462350E+01  2.232785656E+01  4.750000000E+00  0.00000E+00  9.000E+00
      -5     1     1     2     0   503 -3.150252632E-01 -8.634993408E+00 -8.179971658E+01  8.239185934E+01  4.750000000E+00  0.00000E+00  9.000E+00
      21     1     1     2   512   501 -6.304864869E+00 -1.147413742E+01  2.229535040E+02  2.233375743E+02  6.031565972E-06  0.00000E+00  9.000E+00
#rwgt            1           9   2.9653039989419191E-003          11     1567988           0
</event>
<event>
      6   9999  3.45752E-01  1.55662E+02 -1.00000E+00  1.12797E-01
      21    -1     0     0   501   502  0.000000000E+00  0.000000000E+00  3.776964929E+01  3.776964929E+01  0.000000000E+00  0.00000E+00  9.000E+00
      21    -1     0     0   502   511  0.000000000E+00  0.000000000E+00 -2.440333586E+03  2.440333586E+03  0.000000000E+00  0.00000E+00  9.000E+00
      25     1     1     2     0     0  3.065472051E+01 -1.953559038E+02 -7.684968483E+02  8.033155909E+02  1.249995665E+02  0.00000E+00  9.000E+00
       5     1     1     2   501     0  1.814637111E+01  7.253856987E+01 -1.700460673E+02  1.858207804E+02  4.750000000E+00  0.00000E+00  9.000E+00
      -5     1     1     2     0   503  7.894280602E+01  3.386745082E+01 -2.373938267E+02  2.525022026E+02  4.750000000E+00  0.00000E+00  9.000E+00
      21     1     1     2   503   511 -1.277438976E+02  8.894988316E+01 -1.226627194E+03  1.236464661E+03  0.000000000E+00  0.00000E+00  9.000E+00
#rwgt            1           9   7.7169244176099480E-002          11     1570647           0
</event>
<event>
      6   9999  3.45752E-01  1.20472E+01 -1.00000E+00  1.79058E-01
      21    -1     0     0   502   512  0.000000000E+00  0.000000000E+00  1.025372319E+03  1.025372319E+03  0.000000000E+00  0.00000E+00  9.000E+00
      21    -1     0     0   501   502  0.000000000E+00  0.000000000E+00 -2.097323255E+03  2.097323255E+03  0.000000000E+00  0.00000E+00  9.000E+00
      25     1     1     2     0     0 -1.298049379E+01 -5.764229966E+00 -1.966046151E+03  1.970067006E+03  1.249992888E+02  0.00000E+00  9.000E+00
       5     1     1     2   501     0  4.180337888E+00 -2.080070011E+00 -6.289930427E+01  6.325098335E+01  4.750000000E+00  0.00000E+00  9.000E+00
      -5     1     1     2     0   503 -3.455262590E-01  2.618518736E-03 -6.607035453E+01  6.624178170E+01  4.750000000E+00  0.00000E+00  9.000E+00
      21     1     1     2   503   512  9.145682161E+00  7.841681459E+00  1.023064873E+03  1.023135802E+03  0.000000000E+00  0.00000E+00  9.000E+00
#rwgt            1           9  0.23468044393092244               11     1571253           0
</event>
<event>
      6   9999  3.45752E-01  1.16709E+01 -1.00000E+00  1.80392E-01
      21    -1     0     0   501   502  0.000000000E+00  0.000000000E+00  1.682024923E+03  1.682024923E+03  0.000000000E+00  0.00000E+00  9.000E+00
      21    -1     0     0   502   511  0.000000000E+00  0.000000000E+00 -6.757521099E+01  6.757521099E+01  0.000000000E+00  0.00000E+00  9.000E+00
      25     1     1     2     0     0 -1.115095952E+01 -3.835261794E+00  6.180017103E+02  6.306274972E+02  1.250034927E+02  0.00000E+00  9.000E+00
       5     1     1     2   501     0 -1.032002862E+00  1.882832745E+00  1.012484731E+03  1.012498150E+03  4.750000000E+00  0.00000E+00  9.000E+00
      -5     1     1     2     0   503  5.213207449E-01  1.486946099E+00  4.452149808E+01  4.480188696E+01  4.750000000E+00  0.00000E+00  9.000E+00
      21     1     1     2   503   511  1.166164164E+01  4.654829506E-01 -6.055822796E+01  6.167259954E+01  2.861022949E-06  0.00000E+00  9.000E+00
#rwgt            1           9   3.4079038896133222E-002          11     1572767           0
</event>
<event>
      6   9999  3.45752E-01  1.77219E+01 -1.00000E+00  1.64325E-01
      21    -1     0     0   512   503  0.000000000E+00  0.000000000E+00  3.878179703E+01  3.878179703E+01  0.000000000E+00  0.00000E+00  9.000E+00
      21    -1     0     0   501   502  0.000000000E+00  0.000000000E+00 -8.352382550E+02  8.352382550E+02  0.000000000E+00  0.00000E+00  9.000E+00
      25     1     1     2     0     0  3.992600845E+00 -2.030496312E+01 -8.218745422E+02  8.315890744E+02  1.250375673E+02  0.00000E+00  9.000E+00
       5     1     1     2   501     0  2.375289891E-01  9.383537959E-01  1.039231190E-01  4.848734668E+00  4.750000000E+00  0.00000E+00  9.000E+00
      -5     1     1     2     0   503  4.406736883E+00  3.891741457E+00  1.194765694E+00  7.652120398E+00  4.750000000E+00  0.00000E+00  9.000E+00
      21     1     1     2   512   502 -8.636866717E+00  1.547486786E+01  2.411939539E+01  2.993012255E+01  1.011524364E-06  0.00000E+00  9.000E+00
#rwgt            1           9  0.99791424805395013               11     1575051           0
</event>
<event>
      6   9999  3.45752E-01  7.53264E+00 -1.00000E+00  2.01162E-01
      21    -1     0     0   501   511  0.000000000E+00  0.000000000E+00  7.024286787E+00  7.024286787E+00  0.000000000E+00  0.00000E+00  9.000E+00
      21    -1     0     0   502   503  0.000000000E+00  0.000000000E+00 -1.270791311E+03  1.270791311E+03  0.000000000E+00  0.00000E+00  9.000E+00
      25     1     1     2     0     0 -2.359884323E+00 -6.872415456E+00 -1.198015306E+03  1.204540799E+03  1.250002579E+02  0.00000E+00  9.000E+00
       5     1     1     2   501     0  4.315077151E-01 -7.162431820E-01 -4.337902060E+00  6.486840332E+00  4.750000000E+00  0.00000E+00  9.000E+00
      -5     1     1     2     0   503  1.230487609E+00  8.841620416E-02 -5.850927042E+01  5.871472679E+01  4.750000000E+00  0.00000E+00  9.000E+00
      21     1     1     2   502   511  6.978889983E-01  7.500242434E+00 -2.904546310E+00  8.073231998E+00  7.782915149E-07  0.00000E+00  9.000E+00
#rwgt            1           9   2.5638680816625682E-003          11     1576738           0
</event>
<event>
      6   9999  3.45752E-01  5.44955E+00 -1.00000E+00  2.20050E-01
      21    -1     0     0   501   502  0.000000000E+00  0.000000000E+00  6.490912736E+02  6.490912736E+02  0.000000000E+00  0.00000E+00  9.000E+00
      21    -1     0     0   512   503  0.000000000E+00  0.000000000E+00 -3.083563174E+01  3.083563174E+01  0.000000000E+00  0.00000E+00  9.000E+00
      25     1     1     2     0     0 -1.077406933E+00 -1.734785156E+00  1.123195470E+02  1.680571636E+02  1.249934371E+02  0.00000E+00  9.000E+00
       5     1     1     2   501     0  3.174873419E-01 -2.000056925E+00  4.950653844E+02  4.950923130E+02  4.750000000E+00  0.00000E+00  9.000E+00
      -5     1     1     2     0   503  1.720932649E+00 -1.629301735E+00  9.912337273E+00  1.124425024E+01  4.750000000E+00  0.00000E+00  9.000E+00
      21     1     1     2   512   502 -9.610130581E-01  5.364143816E+00  9.583731719E-01  5.533178482E+00  1.336958889E-07  0.00000E+00  9.000E+00
#rwgt            1           9   4.2713517297108157E-003          11     1579326           0
</event>
<event>
      6   9999  3.45752E-01  2.95393E+01 -1.00000E+00  1.48274E-01
      21    -1     0     0   511   502  0.000000000E+00  0.000000000E+00  1.386566135E+01  1.386566135E+01  0.000000000E+00  0.00000E+00  9.000E+00
      21    -1     0     0   502   503  0.000000000E+00  0.000000000E+00 -1.692511185E+03  1.692511185E+03  0.000000000E+00  0.00000E+00  9.000E+00
      25     1     1     2     0     0  3.627403705E+01  8.753328698E+00 -1.398259365E+03  1.404331431E+03  1.250003557E+02  0.00000E+00  9.000E+00
       5     1     1     2   501     0  3.989363525E+00 -7.681533958E+00  1.182239901E+00  9.943901472E+00  4.750000000E+00  0.00000E+00  9.000E+00
      -5     1     1     2     0   503 -3.658276204E+01 -3.038084741E+01 -1.591969561E+02  1.662153053E+02  4.750000000E+00  0.00000E+00  9.000E+00
      21     1     1     2   511   501 -3.680638536E+00  2.930905267E+01 -1.223714422E+02  1.258862087E+02  2.336015456E-06  0.00000E+00  9.000E+00
#rwgt            1           9   2.9824247069242383E-003          11     1583882           0
</event>
<event>
      6   9999  3.45752E-01  8.08942E+00 -1.00000E+00  1.97445E-01
      21    -1     0     0   501   502  0.000000000E+00  0.000000000E+00  2.192674597E+01  2.192674597E+01  0.000000000E+00  0.00000E+00  9.000E+00
      21    -1     0     0   502   512  0.000000000E+00  0.000000000E+00 -1.043230750E+03  1.043230750E+03  0.000000000E+00  0.00000E+00  9.000E+00
      25     1     1     2     0     0  1.211544531E+01 -1.461545256E+01 -5.807988329E+02  5.944009273E+02  1.249991305E+02  0.00000E+00  9.000E+00
       5     1     1     2   501     0 -4.099708294E-02  3.358308675E+00  1.423117670E+01  1.537429050E+01  4.750000000E+00  0.00000E+00  9.000E+00
      -5     1     1     2     0   503 -4.367157706E+00  8.800242677E+00 -3.885794879E+02  3.887326810E+02  4.750000000E+00  0.00000E+00  9.000E+00
      21     1     1     2   503   512 -7.707290519E+00  2.456901207E+00 -6.615685971E+01  6.664959698E+01  1.348699152E-06  0.00000E+00  9.000E+00
#rwgt            1           9  0.36551133965045307               11     1586077           0
</event>
<event>
      6   9999 -3.45752E-01  1.05712E+02 -1.00000E+00  1.19419E-01
      21    -1     0     0   501   502  0.000000000E+00  0.000000000E+00  7.045893201E+02  7.045893201E+02  0.000000000E+00  0.00000E+00  9.000E+00
      21    -1     0     0   502   511  0.000000000E+00  0.000000000E+00 -3.548892961E+03  3.548892961E+03  0.000000000E+00  0.00000E+00  9.000E+00
      25     1     1     2     0     0 -1.760269707E+02 -1.508079061E+02 -3.624239011E+02  4.480008818E+02  1.250007481E+02  0.00000E+00  9.000E+00
       5     1     1     2   501     0  9.454018589E+02 -6.007887996E+01  2.325664698E+02  9.754505994E+02  4.750000000E+00  0.00000E+00  9.000E+00
      -5     1     1     2     0   503 -6.679540107E+02  1.810726987E+02 -2.268238949E+03  2.371472196E+03  4.750000000E+00  0.00000E+00  9.000E+00
      21     1     1     2   503   511 -1.014208776E+02  2.981408736E+01 -4.462072603E+02  4.585586041E+02  5.394796609E-06  0.00000E+00  9.000E+00
#rwgt            1           9  -3.6091345100879007E-003          11     1589521           0
</event>
<event>
      6   9999  3.45752E-01  4.12038E+00 -1.00000E+00  2.45214E-01
      21    -1     0     0   501   502  0.000000000E+00  0.000000000E+00  1.695351347E+01  1.695351347E+01  0.000000000E+00  0.00000E+00  9.000E+00
      21    -1     0     0   512   503  0.000000000E+00  0.000000000E+00 -1.175487491E+03  1.175487491E+03  0.000000000E+00  0.00000E+00  9.000E+00
      25     1     1     2     0     0 -5.679933808E+01 -3.131523611E+00 -3.987302333E+02  4.217131941E+02  1.249809899E+02  0.00000E+00  9.000E+00
       5     1     1     2   501     0 -8.741048099E-02 -1.738166856E+00  2.882621938E+00  5.822445693E+00  4.750000000E+00  0.00000E+00  9.000E+00
      -5     1     1     2     0   503  5.277285488E+01  4.638533876E+00 -6.614062419E+02  6.635414603E+02  4.750000000E+00  0.00000E+00  9.000E+00
      21     1     1     2   512   502  4.113893679E+00  2.311565914E-01 -1.012801247E+02  1.013639049E+02  0.000000000E+00  0.00000E+00  9.000E+00
#rwgt            1           9   4.2741372782149027E-004          11     1592019           0
</event>
<event>
      6   9999 -3.45752E-01  1.30521E+01 -1.00000E+00  1.75779E-01
      21    -1     0     0   511   502  0.000000000E+00  0.000000000E+00  2.537843340E+01  2.537843340E+01  0.000000000E+00  0.00000E+00  9.000E+00
      21    -1     0     0   502   503  0.000000000E+00  0.000000000E+00 -9.505474031E+02  9.505474031E+02  0.000000000E+00  0.00000E+00  9.000E+00
      25     1     1     2     0     0  6.876393998E+00  4.624165479E+00 -9.324824379E+02  9.408606793E+02  1.250066124E+02  0.00000E+00  9.000E+00
       5     1     1     2   501     0  3.995212128E+00 -2.377004616E+00  1.222851120E+01  1.391800478E+01  4.750000000E+00  0.00000E+00  9.000E+00
      -5     1     1     2     0   503  2.117045534E+00 -9.619933012E-01  2.801304073E+00  5.984740380E+00  4.750000000E+00  0.00000E+00  9.000E+00
      21     1     1     2   511   501 -1.298865166E+01 -1.285167562E+00 -7.716347141E+00  1.516241210E+01  4.915124924E-07  0.00000E+00  9.000E+00
#rwgt            1           9  -9.9522796326424273E-006          11     1597442           0
</event>
<event>
      6   9999  3.45752E-01  1.91064E+01 -1.00000E+00  1.61740E-01
      21    -1     0     0   501   502  0.000000000E+00  0.000000000E+00  4.822525397E+01  4.822525397E+01  0.000000000E+00  0.00000E+00  9.000E+00
      21    -1     0     0   512   503  0.000000000E+00  0.000000000E+00 -1.363587695E+03  1.363587695E+03  0.000000000E+00  0.00000E+00  9.000E+00
      25     1     1     2     0     0  2.257627584E+00  1.882232990E+01 -1.209414275E+03  1.216004862E+03  1.250022391E+02  0.00000E+00  9.000E+00
       5     1     1     2   501     0 -3.702669645E+00 -3.519315371E+00  4.272316528E+01  4.328887495E+01  4.750000000E+00  0.00000E+00  9.000E+00
      -5     1     1     2     0   503 -8.095494745E+00  1.250943845E+00 -1.691792724E+01  1.938764188E+01  4.750000000E+00  0.00000E+00  9.000E+00
      21     1     1     2   512   502  9.540536806E+00 -1.655395838E+01 -1.317534039E+02  1.331315696E+02  1.907348633E-06  0.00000E+00  9.000E+00
#rwgt            1           9   2.0899585886073262E-002          11     1599810           0
</event>
<event>
      6   9999  3.45752E-01  1.47789E+01 -1.00000E+00  1.70932E-01
      21    -1     0     0   511   502  0.000000000E+00  0.000000000E+00  1.853713397E+01  1.853713397E+01  0.000000000E+00  0.00000E+00  9.000E+00
      21    -1     0     0   502   503  0.000000000E+00  0.000000000E+00 -9.232891243E+02  9.232891243E+02  0.000000000E+00  0.00000E+00  9.000E+00
      25     1     1     2     0     0  2.417155368E+01  3.083843438E+01 -3.901804000E+02  4.115736568E+02  1.249674251E+02  0.00000E+00  9.000E+00
       5     1     1     2   501     0  3.573696652E-01 -2.559903068E-01  4.678629852E+00  6.681715454E+00  4.750000000E+00  0.00000E+00  9.000E+00
      -5     1     1     2     0   503 -9.942304596E+00 -3.295842814E+01 -4.853096089E+02  4.865522442E+02  4.750000000E+00  0.00000E+00  9.000E+00
      21     1     1     2   511   501 -1.458661875E+01  2.375984068E+00 -3.394061133E+01  3.701864184E+01  6.743495762E-07  0.00000E+00  9.000E+00
#rwgt            1           9   2.5557225616955771E-002          11     1602089           0
</event>
<event>
      6   9999  3.45752E-01  1.87628E+01 -1.00000E+00  1.62356E-01
      21    -1     0     0   501   502  0.000000000E+00  0.000000000E+00  2.753153777E+01  2.753153777E+01  0.000000000E+00  0.00000E+00  9.000E+00
      21    -1     0     0   512   503  0.000000000E+00  0.000000000E+00 -1.212173728E+03  1.212173728E+03  0.000000000E+00  0.00000E+00  9.000E+00
      25     1     1     2     0     0  1.250198118E+02 -2.099107288E+01 -3.571972005E+02  3.991016926E+02  1.249869694E+02  0.00000E+00  9.000E+00
       5     1     1     2   501     0  7.567351019E-02 -1.491513953E-01 -1.553848891E+00  5.000491875E+00  4.750000000E+00  0.00000E+00  9.000E+00
      -5     1     1     2     0   503 -1.064209240E+02  1.932302948E+01 -7.027869234E+02  7.110772214E+02  4.750000000E+00  0.00000E+00  9.000E+00
      21     1     1     2   512   502 -1.867456134E+01  1.817194792E+00 -1.231042173E+02  1.245258598E+02  0.000000000E+00  0.00000E+00  9.000E+00
#rwgt            1           9   8.0712751817283446E-005          11     1604405           0
</event>
<event>
      6   9999  3.45752E-01  1.65808E+02 -1.00000E+00  1.11787E-01
      -1    -1     0     0     0   502  0.000000000E+00  0.000000000E+00  1.210624244E+02  1.210624244E+02  0.000000000E+00  0.00000E+00  9.000E+00
       1    -1     0     0   511     0  0.000000000E+00  0.000000000E+00 -2.139079181E+03  2.139079181E+03  0.000000000E+00  0.00000E+00  9.000E+00
      25     1     1     2     0     0 -2.259899116E+02  1.336964752E+02 -4.121347102E+02  5.044066428E+02  1.249994172E+02  0.00000E+00  9.000E+00
       5     1     1     2   501     0 -3.509487515E+01 -2.018752822E+02 -4.701033852E+02  5.128401653E+02  4.750000000E+00  0.00000E+00  9.000E+00
      -5     1     1     2     0   502  2.412616593E+02  2.327977258E+02 -6.867691797E+02  7.642489373E+02  4.750000000E+00  0.00000E+00  9.000E+00
      21     1     1     2   511   501  1.982312744E+01 -1.646189189E+02 -4.490094816E+02  4.786458601E+02  9.344061824E-06  0.00000E+00  9.000E+00
#rwgt            1           1   1.5336263277121414E-005          11     1606640           0
</event>
<event>
      6   9999  3.45752E-01  4.80165E+00 -1.00000E+00  2.32498E-01
      21    -1     0     0   512   502  0.000000000E+00  0.000000000E+00  1.129312320E+02  1.129312320E+02  0.000000000E+00  0.00000E+00  9.000E+00
      21    -1     0     0   502   503  0.000000000E+00  0.000000000E+00 -8.496278100E+01  8.496278100E+01  0.000000000E+00  0.00000E+00  9.000E+00
      25     1     1     2     0     0  1.058612346E+01  1.808422761E+01 -2.804367733E+01  1.298078294E+02  1.249980777E+02  0.00000E+00  9.000E+00
       5     1     1     2   501     0 -9.713843834E-01  4.345258937E-01  3.945625814E+01  3.975539217E+01  4.750000000E+00  0.00000E+00  9.000E+00
      -5     1     1     2     0   503 -5.240807727E+00 -1.653769790E+01  1.451689392E+01  2.311415641E+01  4.750000000E+00  0.00000E+00  9.000E+00
      21     1     1     2   512   501 -4.373931348E+00 -1.981055599E+00  2.038976219E+00  5.216635002E+00  5.161913656E-08  0.00000E+00  9.000E+00
#rwgt            1           9   1.5368081320735440E-005          11     1607581           0
</event>
<event>
      6   9999  3.45752E-01  3.68027E+00 -1.00000E+00  2.55584E-01
      21    -1     0     0   501   511  0.000000000E+00  0.000000000E+00  1.991288117E+01  1.991288117E+01  0.000000000E+00  0.00000E+00  9.000E+00
      21    -1     0     0   502   503  0.000000000E+00  0.000000000E+00 -9.408486977E+02  9.408486977E+02  0.000000000E+00  0.00000E+00  9.000E+00
      25     1     1     2     0     0  5.890651189E+00  1.547349757E+00 -5.818626921E+02  5.951690608E+02  1.249996976E+02  0.00000E+00  9.000E+00
       5     1     1     2   501     0 -2.362958076E+00 -3.311684188E+00  9.658832754E+00  1.150679683E+01  4.750000000E+00  0.00000E+00  9.000E+00
      -5     1     1     2     0   503 -8.538599518E-01 -7.645001757E-01 -3.501187434E+02  3.501528388E+02  4.750000000E+00  0.00000E+00  9.000E+00
      21     1     1     2   502   511 -2.673833161E+00  2.528834607E+00  1.386786230E+00  3.932882440E+00  9.424321831E-08  0.00000E+00  9.000E+00
#rwgt            1           9   2.9488709479176208E-003          11     1611950           0
</event>
<event>
      6   9999 -3.45752E-01  8.95006E+00 -1.00000E+00  1.92415E-01
      21    -1     0     0   501   502  0.000000000E+00  0.000000000E+00  1.059933158E+03  1.059933158E+03  0.000000000E+00  0.00000E+00  9.000E+00
      21    -1     0     0   512   503  0.000000000E+00  0.000000000E+00 -2.168191014E+01  2.168191014E+01  0.000000000E+00  0.00000E+00  9.000E+00
      25     1     1     2     0     0  3.315485347E+01 -2.153046567E+01  2.903741355E+02  3.185966240E+02  1.249954599E+02  0.00000E+00  9.000E+00
       5     1     1     2   501     0  1.379375517E+00  1.454113611E+00  6.990109768E+02  6.990299888E+02  4.750000000E+00  0.00000E+00  9.000E+00
      -5     1     1     2     0   503 -2.712948805E+01  1.504909331E+01  4.319326965E+01  5.339199728E+01  4.750000000E+00  0.00000E+00  9.000E+00
      21     1     1     2   512   502 -7.404740936E+00  5.027258751E+00  5.672866312E+00  1.059645842E+01  3.862822472E-07  0.00000E+00  9.000E+00
#rwgt            1           9  -23.379994359927274               11     1618469           0
</event>
<event>
      6   9999  3.45752E-01  4.68346E+01 -1.00000E+00  1.36325E-01
      21    -1     0     0   501   502  0.000000000E+00  0.000000000E+00  1.215684956E+02  1.215684956E+02  0.000000000E+00  0.00000E+00  9.000E+00
      21    -1     0     0   511   503  0.000000000E+00  0.000000000E+00 -4.333079332E+02  4.333079332E+02  0.000000000E+00  0.00000E+00  9.000E+00
      25     1     1     2     0     0  1.384808407E+01  8.510437714E+00  2.194971919E+01  1.279480616E+02  1.249988773E+02  0.00000E+00  9.000E+00
       5     1     1     2   501     0 -1.274966642E+00  4.583431296E+00  2.428916560E+01  2.520236989E+01  4.750000000E+00  0.00000E+00  9.000E+00
      -5     1     1     2     0   503 -3.384362207E+01  2.863196119E+01 -4.111448936E+00  4.477327851E+01  4.750000000E+00  0.00000E+00  9.000E+00
      21     1     1     2   511   502  2.127050464E+01 -4.172583020E+01 -3.538668735E+02  3.569527188E+02  5.394796609E-06  0.00000E+00  9.000E+00
#rwgt            1           9   1.5344363856166407E-002          11     1622081           0
</event>
<event>
      6   9999  3.45752E-01  6.34763E+00 -1.00000E+00  2.10706E-01
      21    -1     0     0   501   502  0.000000000E+00  0.000000000E+00  2.533628929E+01  2.533628929E+01  0.000000000E+00  0.00000E+00  9.000E+00
       2    -1     0     0   502     0  0.000000000E+00  0.000000000E+00 -1.729889890E+03  1.729889890E+03  0.000000000E+00  0.00000E+00  9.000E+00
      25     1     1     2     0     0 -2.493303794E+00 -5.601441520E+00 -2.258834594E+02  2.582400439E+02  1.250079610E+02  0.00000E+00  9.000E+00
       5     1     1     2   501     0 -1.913941592E+00  4.462567031E-01  7.888274842E+00  9.415396829E+00  4.750000000E+00  0.00000E+00  9.000E+00
      -5     1     1     2     0   503 -9.895732010E-01  1.813509404E+00 -1.293407752E+01  1.393272884E+01  4.750000000E+00  0.00000E+00  9.000E+00
       2     1     1     2   503     0  5.396818587E+00  3.341675412E+00 -1.473624339E+03  1.473638010E+03  0.000000000E+00  0.00000E+00  9.000E+00
#rwgt            1           9   6.6169085799764937E-002          11     1622776           0
</event>
<event>
      6   9999  3.45752E-01  2.06966E+01 -1.00000E+00  1.59084E-01
      21    -1     0     0   511   503  0.000000000E+00  0.000000000E+00  3.164020891E+02  3.164020891E+02  0.000000000E+00  0.00000E+00  9.000E+00
      21    -1     0     0   501   502  0.000000000E+00  0.000000000E+00 -1.357729940E+03  1.357729940E+03  0.000000000E+00  0.00000E+00  9.000E+00
      25     1     1     2     0     0  1.343152674E+01 -3.466751965E+01 -1.349866499E+02  1.876971067E+02  1.250062613E+02  0.00000E+00  9.000E+00
       5     1     1     2   501     0 -5.334371822E+01 -7.424089652E+01 -1.026840218E+03  1.030912537E+03  4.750000000E+00  0.00000E+00  9.000E+00
      -5     1     1     2     0   503  2.775694806E+01  1.256595104E+02 -1.422950573E+02  1.919145813E+02  4.750000000E+00  0.00000E+00  9.000E+00
      21     1     1     2   511   502  1.215524342E+01 -1.675109420E+01  2.627940741E+02  2.636078043E+02  3.814697266E-06  0.00000E+00  9.000E+00
#rwgt            1           9   3.0423232094906223E-002          11     1625817           0
</event>
<event>
      6   9999  3.45752E-01  3.51352E+00 -1.00000E+00  2.60114E-01
      21    -1     0     0   501   502  0.000000000E+00  0.000000000E+00  2.259465514E+01  2.259465514E+01  0.000000000E+00  0.00000E+00  9.000E+00
      21    -1     0     0   512   503  0.000000000E+00  0.000000000E+00 -1.297235653E+03  1.297235653E+03  0.000000000E+00  0.00000E+00  9.000E+00
      25     1     1     2     0     0  8.848922092E+00  2.018859840E+00 -9.012473131E+02  9.099201410E+02  1.250022579E+02  0.00000E+00  9.000E+00
       5     1     1     2   501     0 -3.104897341E+00 -6.072144873E+00  1.718405032E+01  1.908835813E+01  4.750000000E+00  0.00000E+00  9.000E+00
      -5     1     1     2     0   503 -5.485705917E+00  5.492754124E-01 -1.195385997E+02  1.197599014E+02  4.750000000E+00  0.00000E+00  9.000E+00
      21     1     1     2   512   502 -2.583188338E-01  3.504009621E+00 -2.710391356E+02  2.710619078E+02  0.000000000E+00  0.00000E+00  9.000E+00
#rwgt            1           9   7.5518621589629404E-004          11     1628143           0
</event>
<event>
      6   9999  3.45752E-01  3.01763E+00 -1.00000E+00  2.76248E-01
      21    -1     0     0   501   511  0.000000000E+00  0.000000000E+00  4.904026323E+02  4.904026323E+02  0.000000000E+00  0.00000E+00  9.000E+00
      21    -1     0     0   502   503  0.000000000E+00  0.000000000E+00 -2.987907630E+01  2.987907630E+01  0.000000000E+00  0.00000E+00  9.000E+00
      25     1     1     2     0     0 -1.439417479E+00 -2.859690060E+00  1.056185598E+02  1.639160613E+02  1.253113930E+02  0.00000E+00  9.000E+00
       5     1     1     2   501     0  4.002350709E+00  7.513724021E-01  3.166902186E+02  3.167520173E+02  4.750000000E+00  0.00000E+00  9.000E+00
      -5     1     1     2     0   503  3.139542574E-01  3.019149024E+00  1.237705751E+01  1.360028973E+01  4.750000000E+00  0.00000E+00  9.000E+00
      21     1     1     2   502   511 -2.876887487E+00 -9.108313668E-01  2.583772009E+01  2.601334033E+01  0.000000000E+00  0.00000E+00  9.000E+00
#rwgt            1           9  0.82713908747655940               11     1634315           0
</event>
<event>
      6   9999  3.45752E-01  1.74641E+01 -1.00000E+00  1.64839E-01
      21    -1     0     0   501   502  0.000000000E+00  0.000000000E+00  1.732303963E+03  1.732303963E+03  0.000000000E+00  0.00000E+00  9.000E+00
      21    -1     0     0   512   503  0.000000000E+00  0.000000000E+00 -6.893968290E+01  6.893968290E+01  0.000000000E+00  0.00000E+00  9.000E+00
      25     1     1     2     0     0  2.816444038E-01 -7.572391495E+00  8.245860870E+02  8.340409213E+02  1.249984921E+02  0.00000E+00  9.000E+00
       5     1     1     2   501     0  6.262176966E-01 -1.678001636E+00  6.252359140E+02  6.252565222E+02  4.750000000E+00  0.00000E+00  9.000E+00
      -5     1     1     2     0   503  1.123801058E+01 -3.298414337E+00  2.764095277E+02  2.766983230E+02  4.750000000E+00  0.00000E+00  9.000E+00
      21     1     1     2   512   502 -1.214587268E+01  1.254880747E+01 -6.286724878E+01  6.524787936E+01  4.672030912E-06  0.00000E+00  9.000E+00
#rwgt            1           9   1.5726703443214329E-003          11     1640959           0
</event>
<event>
      6   9999  3.45752E-01  1.75084E+01 -1.00000E+00  1.64750E-01
      21    -1     0     0   501   502  0.000000000E+00  0.000000000E+00  1.148089211E+01  1.148089211E+01  0.000000000E+00  0.00000E+00  9.000E+00
       2    -1     0     0   502     0  0.000000000E+00  0.000000000E+00 -3.121938362E+03  3.121938362E+03  0.000000000E+00  0.00000E+00  9.000E+00
      25     1     1     2     0     0  2.519206190E+00  2.374999906E+01 -3.857209437E+02  4.061726626E+02  1.250007062E+02  0.00000E+00  9.000E+00
       5     1     1     2   501     0 -1.913566110E+01 -1.264311528E+01 -1.792476016E+02  1.807713669E+02  4.750000000E+00  0.00000E+00  9.000E+00
      -5     1     1     2     0   503 -8.833218179E-01 -1.055685185E+01 -7.245055373E+01  7.337487727E+01  4.750000000E+00  0.00000E+00  9.000E+00
       2     1     1     2   503     0  1.749977673E+01 -5.500319273E-01 -2.473038371E+03  2.473100347E+03  5.285799584E-05  0.00000E+00  9.000E+00
#rwgt            1           9  0.54515530831006764               11     1642934           0
</event>
<event>
      6   9999  3.45752E-01  3.23816E+01 -1.00000E+00  1.45723E-01
      21    -1     0     0   501   502  0.000000000E+00  0.000000000E+00  1.065658469E+01  1.065658469E+01  0.000000000E+00  0.00000E+00  9.000E+00
      21    -1     0     0   511   503  0.000000000E+00  0.000000000E+00 -1.359423787E+03  1.359423787E+03  0.000000000E+00  0.00000E+00  9.000E+00
      25     1     1     2     0     0 -3.400476320E+01  1.505654837E+01 -5.680486242E+02  5.828271922E+02  1.250010918E+02  0.00000E+00  9.000E+00
       5     1     1     2   501     0  4.712672097E-01  2.701218955E+00 -3.256195354E+00  6.378399863E+00  4.750000000E+00  0.00000E+00  9.000E+00
      -5     1     1     2     0   503  3.072572544E+01  1.450189225E+01 -2.402129673E+02  2.426503807E+02  4.750000000E+00  0.00000E+00  9.000E+00
      21     1     1     2   511   502  2.807770555E+00 -3.225965957E+01 -5.372494159E+02  5.382243994E+02  0.000000000E+00  0.00000E+00  9.000E+00
#rwgt            1           9   3.5502427185294701E-004          11     1644454           0
</event>
<event>
      6   9999  3.45752E-01  1.58789E+01 -1.00000E+00  1.68256E-01
      21    -1     0     0   512   502  0.000000000E+00  0.000000000E+00  7.149470496E+01  7.149470496E+01  0.000000000E+00  0.00000E+00  9.000E+00
      21    -1     0     0   502   503  0.000000000E+00  0.000000000E+00 -2.307988324E+03  2.307988324E+03  0.000000000E+00  0.00000E+00  9.000E+00
      25     1     1     2     0     0  4.468670453E+01  1.127620883E+02 -1.111394178E+03  1.124959747E+03  1.250008918E+02  0.00000E+00  9.000E+00
       5     1     1     2   501     0 -3.242079060E-01 -1.538657300E+00  1.843577698E+01  1.910269483E+01  4.750000000E+00  0.00000E+00  9.000E+00
      -5     1     1     2     0   503 -2.951880703E+01 -1.168629539E+02 -1.184945864E+03  1.191069928E+03  4.750000000E+00  0.00000E+00  9.000E+00
      21     1     1     2   512   501 -1.484368960E+01  5.639522917E+00  4.141064630E+01  4.435065914E+01  2.939421655E-06  0.00000E+00  9.000E+00
#rwgt            1           9   2.2804736081495897E-007          11     1645360           0
</event>
<event>
      6   9999 -3.45752E-01  5.89114E+00 -1.00000E+00  2.15172E-01
      21    -1     0     0   501   511  0.000000000E+00  0.000000000E+00  2.359118655E+01  2.359118655E+01  0.000000000E+00  0.00000E+00  9.000E+00
      21    -1     0     0   502   503  0.000000000E+00  0.000000000E+00 -1.121398470E+03  1.121398470E+03  0.000000000E+00  0.00000E+00  9.000E+00
      25     1     1     2     0     0 -1.108220099E+00 -9.114032300E+00 -1.087891346E+03  1.095090144E+03  1.250221970E+02  0.00000E+00  9.000E+00
       5     1     1     2   501     0 -9.849320651E-01  6.277127039E+00  1.496016940E+01  1.693344571E+01  4.750000000E+00  0.00000E+00  9.000E+00
      -5     1     1     2     0   503 -2.530316882E+00  6.487809917E+00 -2.567281961E+01  2.702129434E+01  4.750000000E+00  0.00000E+00  9.000E+00
      21     1     1     2   502   511  4.623469046E+00 -3.650904656E+00  7.967123215E-01  5.944772607E+00  6.828569911E-08  0.00000E+00  9.000E+00
#rwgt            1           9  -8.4968196679096553E-002          11     1648049           0
</event>
<event>
      6   9999  3.45752E-01  7.50917E+00 -1.00000E+00  2.01328E-01
      21    -1     0     0   501   512  0.000000000E+00  0.000000000E+00  2.734701812E+01  2.734701812E+01  0.000000000E+00  0.00000E+00  9.000E+00
      21    -1     0     0   502   503  0.000000000E+00  0.000000000E+00 -1.621409623E+03  1.621409623E+03  0.000000000E+00  0.00000E+00  9.000E+00
      25     1     1     2     0     0 -1.066106146E+01  6.627054244E+00 -1.537681879E+03  1.542806391E+03  1.250136946E+02  0.00000E+00  9.000E+00
       5     1     1     2   501     0  3.154615356E+00 -5.940166735E-01  8.677342265E+00  1.040015493E+01  4.750000000E+00  0.00000E+00  9.000E+00
      -5     1     1     2     0   503  3.490338354E+00  3.119271764E-01 -7.926300522E+01  7.948249025E+01  4.750000000E+00  0.00000E+00  9.000E+00
      21     1     1     2   502   512  4.016107752E+00 -6.344964747E+00  1.420493680E+01  1.606760495E+01  1.914784718E-06  0.00000E+00  9.000E+00
#rwgt            1           9   6.9267958944350297E-002          11     1652741           0
</event>
<event>
      6   9999  3.45752E-01  7.55215E+00 -1.00000E+00  2.01024E-01
      21    -1     0     0   511   502  0.000000000E+00  0.000000000E+00  1.228276388E+01  1.228276388E+01  0.000000000E+00  0.00000E+00  9.000E+00
      21    -1     0     0   502   503  0.000000000E+00  0.000000000E+00 -1.309863739E+03  1.309863739E+03  0.000000000E+00  0.00000E+00  9.000E+00
      25     1     1     2     0     0  6.718914578E+00 -2.423272101E+01 -1.232895467E+03  1.239470910E+03  1.249981454E+02  0.00000E+00  9.000E+00
       5     1     1     2   501     0 -6.710457585E+00  4.120114624E+00  9.012319801E-01  9.240146351E+00  4.750000000E+00  0.00000E+00  9.000E+00
      -5     1     1     2     0   503  7.502412465E+00  2.090114349E+01 -5.965837434E+01  6.383438040E+01  4.750000000E+00  0.00000E+00  9.000E+00
      21     1     1     2   511   501 -7.510869459E+00 -7.885371031E-01 -5.928366631E+00  9.601066696E+00  8.429369702E-08  0.00000E+00  9.000E+00
#rwgt            1           9   7.8788864916458146E-002          11     1656495           0
</event>
<event>
      6   9999  3.45752E-01  3.62180E+01 -1.00000E+00  1.42734E-01
      21    -1     0     0   501   512  0.000000000E+00  0.000000000E+00  1.212214733E+02  1.212214733E+02  0.000000000E+00  0.00000E+00  9.000E+00
      21    -1     0     0   502   503  0.000000000E+00  0.000000000E+00 -1.126661441E+03  1.126661441E+03  0.000000000E+00  0.00000E+00  9.000E+00
      25     1     1     2     0     0 -3.277976484E+01  2.337790949E+01 -9.239604225E+02  9.332465235E+02  1.250006863E+02  0.00000E+00  9.000E+00
       5     1     1     2   501     0 -4.771597083E+00 -3.675697743E+00  1.086455210E+02  1.089159797E+02  4.750000000E+00  0.00000E+00  9.000E+00
      -5     1     1     2     0   503  1.278802413E+01  6.727381756E+00 -1.533588548E+02  1.541112976E+02  4.750000000E+00  0.00000E+00  9.000E+00
      21     1     1     2   502   512  2.476333779E+01 -2.642959350E+01 -3.676621180E+01  5.160911394E+01  0.000000000E+00  0.00000E+00  9.000E+00
#rwgt            1           9   9.4648538615425582E-005          11     1659958           0
</event>
<event>
      6   9999 -3.45752E-01  6.53304E+00 -1.00000E+00  2.09035E-01
      21    -1     0     0   511   502  0.000000000E+00  0.000000000E+00  2.111221068E+01  2.111221068E+01  0.000000000E+00  0.00000E+00  9.000E+00
      21    -1     0     0   502   503  0.000000000E+00  0.000000000E+00 -9.366078378E+02  9.366078378E+02  0.000000000E+00  0.00000E+00  9.000E+00
      25     1     1     2     0     0 -3.247792093E+00  5.196836287E+00 -9.174404729E+02  9.259371040E+02  1.249997758E+02  0.00000E+00  9.000E+00
       5     1     1     2   501     0  2.349058752E+00 -5.916057882E-01  1.297892712E+01  1.403150468E+01  4.750000000E+00  0.00000E+00  9.000E+00
      -5     1     1     2     0   503  4.992339927E+00  4.862352489E-01 -7.934498469E+00  1.052039204E+01  4.750000000E+00  0.00000E+00  9.000E+00
      21     1     1     2   511   501 -4.093606587E+00 -5.091465748E+00 -3.099582898E+00  7.231047814E+00  1.788139343E-07  0.00000E+00  9.000E+00
#rwgt            1           9  -3.7947894378478316E-007          11     1661886           0
</event>
<event>
      6   9999  3.45752E-01  1.94938E+01 -1.00000E+00  1.61065E-01
      21    -1     0     0   501   502  0.000000000E+00  0.000000000E+00  8.071930929E+00  8.071930929E+00  0.000000000E+00  0.00000E+00  9.000E+00
      21    -1     0     0   502   512  0.000000000E+00  0.000000000E+00 -8.872896281E+02  8.872896281E+02  0.000000000E+00  0.00000E+00  9.000E+00
      25     1     1     2     0     0  2.269404171E+00 -1.863937050E+01 -6.276118342E+02  6.402144545E+02  1.250014277E+02  0.00000E+00  9.000E+00
       5     1     1     2   501     0 -5.093346303E+00  5.465194384E+00 -1.912283991E+01  2.107263706E+01  4.750000000E+00  0.00000E+00  9.000E+00
      -5     1     1     2     0   503  1.050792828E-01 -6.129137046E+00 -6.629778504E+01  6.674980273E+01  4.750000000E+00  0.00000E+00  9.000E+00
      21     1     1     2   503   512  2.718862850E+00  1.930331317E+01 -1.661852380E+02  1.673246648E+02  2.697398305E-06  0.00000E+00  9.000E+00
#rwgt            1           9   2.5479473528771166E-004          11     1665465           0
</event>
<event>
      6   9999  3.45752E-01  1.49450E+01 -1.00000E+00  1.70510E-01
      21    -1     0     0   501   502  0.000000000E+00  0.000000000E+00  7.609863486E+00  7.609863486E+00  0.000000000E+00  0.00000E+00  9.000E+00
      21    -1     0     0   511   503  0.000000000E+00  0.000000000E+00 -1.020349716E+03  1.020349716E+03  0.000000000E+00  0.00000E+00  9.000E+00
      25     1     1     2     0     0 -2.085855148E+00  1.244344321E+00 -6.097369633E+02  6.224226536E+02  1.249995844E+02  0.00000E+00  9.000E+00
       5     1     1     2   501     0 -1.603326753E+00 -3.853258197E-01 -8.841703102E+00  1.017139845E+01  4.750000000E+00  0.00000E+00  9.000E+00
      -5     1     1     2     0   503 -9.178704063E+00  6.741713079E+00 -9.056988084E+01  9.140659231E+01  4.750000000E+00  0.00000E+00  9.000E+00
      21     1     1     2   511   502  1.286788596E+01 -7.600731580E+00 -3.035913051E+02  3.039589350E+02  5.394796609E-06  0.00000E+00  9.000E+00
#rwgt            1           9  0.74720873889558881               11     1666710           0
</event>
<event>
      6   9999 -3.45752E-01  9.55787E+00 -1.00000E+00  1.89286E-01
      21    -1     0     0   512   502  0.000000000E+00  0.000000000E+00  8.990463047E+00  8.990463047E+00  0.000000000E+00  0.00000E+00  9.000E+00
      21    -1     0     0   502   503  0.000000000E+00  0.000000000E+00 -2.564800841E+03  2.564800841E+03  0.000000000E+00  0.00000E+00  9.000E+00
      25     1     1     2     0     0  6.988039503E+01  3.804690360E+01 -2.257142324E+03  2.262001687E+03  1.250173027E+02  0.00000E+00  9.000E+00
       5     1     1     2   501     0 -5.774457941E+01 -3.731115361E+01 -2.097647249E+02  2.207948390E+02  4.750000000E+00  0.00000E+00  9.000E+00
      -5     1     1     2     0   503 -3.790372553E+00  3.923272643E+00 -6.245389308E+01  6.287137864E+01  4.750000000E+00  0.00000E+00  9.000E+00
      21     1     1     2   512   501 -8.345443072E+00 -4.659022634E+00 -2.644943581E+01  2.812339891E+01  5.840038640E-07  0.00000E+00  9.000E+00
#rwgt            1           9  -3.5099497305957953E-003          11     1668265           0
</event>
<event>
      6   9999  3.45752E-01  2.11785E+01 -1.00000E+00  1.58335E-01
      21    -1     0     0   501   502  0.000000000E+00  0.000000000E+00  5.236012604E+02  5.236012604E+02  0.000000000E+00  0.00000E+00  9.000E+00
      21    -1     0     0   502   511  0.000000000E+00  0.000000000E+00 -1.350121827E+02  1.350121827E+02  0.000000000E+00  0.00000E+00  9.000E+00
      25     1     1     2     0     0 -5.846078377E+01 -3.705866032E+00  3.334725466E+01  1.420163310E+02  1.250008088E+02  0.00000E+00  9.000E+00
       5     1     1     2   501     0  1.160960333E+01 -1.174598655E+01  4.101829437E+02  4.105427638E+02  4.750000000E+00  0.00000E+00  9.000E+00
      -5     1     1     2     0   503  6.738048291E+01  1.024829818E+01 -4.894417821E+01  8.404315661E+01  4.750000000E+00  0.00000E+00  9.000E+00
      21     1     1     2   503   511 -2.052930247E+01  5.203554396E+00 -5.996942490E+00  2.201119164E+01  1.685873940E-07  0.00000E+00  9.000E+00
#rwgt            1           9   1.8833478706122486E-004          11     1672130           0
</event>
<event>
      6   9999  3.45752E-01  1.25822E+01 -1.00000E+00  1.77264E-01
      21    -1     0     0   512   502  0.000000000E+00  0.000000000E+00  2.693729166E+01  2.693729166E+01  0.000000000E+00  0.00000E+00  9.000E+00
      21    -1     0     0   502   503  0.000000000E+00  0.000000000E+00 -6.789602965E+02  6.789602965E+02  0.000000000E+00  0.00000E+00  9.000E+00
      25     1     1     2     0     0  1.533052473E+01  1.788982730E+00 -5.808009452E+02  5.943115442E+02  1.250529812E+02  0.00000E+00  9.000E+00
       5     1     1     2   501     0  6.831343134E-01 -3.406034929E-02 -1.094187797E+01  1.194801348E+01  4.750000000E+00  0.00000E+00  9.000E+00
      -5     1     1     2     0   503 -3.556145209E+00  1.171427282E-02 -7.782338599E+01  7.804926785E+01  4.750000000E+00  0.00000E+00  9.000E+00
      21     1     1     2   512   501 -1.245751384E+01 -1.766636654E+00  1.754320432E+01  2.158876268E+01  8.259061849E-07  0.00000E+00  9.000E+00
#rwgt            1           9   8.1277292869199192E-004          11     1674676           0
</event>
<event>
      6   9999  3.45752E-01  1.59328E+01 -1.00000E+00  1.68132E-01
      21    -1     0     0   501   511  0.000000000E+00  0.000000000E+00  1.770087147E+02  1.770087147E+02  0.000000000E+00  0.00000E+00  9.000E+00
      21    -1     0     0   502   503  0.000000000E+00  0.000000000E+00 -9.938773933E+02  9.938773933E+02  0.000000000E+00  0.00000E+00  9.000E+00
      25     1     1     2     0     0  1.651892797E+01  5.933003983E+01 -4.288600171E+02  4.509352424E+02  1.250149991E+02  0.00000E+00  9.000E+00
       5     1     1     2   501     0  4.421412429E+00  4.436258213E-01  4.491221228E+00  7.904382320E+00  4.750000000E+00  0.00000E+00  9.000E+00
      -5     1     1     2     0   503 -5.727602129E+00 -6.450949686E+01 -5.499609165E+02  5.537814124E+02  4.750000000E+00  0.00000E+00  9.000E+00
      21     1     1     2   502   511 -1.521273827E+01  4.735831207E+00  1.574610337E+02  1.582650708E+02  4.672030912E-06  0.00000E+00  9.000E+00
#rwgt            1           9   1.5790853279785448E-003          11     1676184           0
</event>
<event>
      6   9999  3.45752E-01  1.35106E+01 -1.00000E+00  1.74404E-01
      21    -1     0     0   512   502  0.000000000E+00  0.000000000E+00  2.582280739E+03  2.582280739E+03  0.000000000E+00  0.00000E+00  9.000E+00
      21    -1     0     0   502   503  0.000000000E+00  0.000000000E+00 -1.178495306E+01  1.178495306E+01  0.000000000E+00  0.00000E+00  9.000E+00
      25     1     1     2     0     0 -1.462018920E+01 -1.835909467E+01  5.510809066E+02  5.655660951E+02  1.249961438E+02  0.00000E+00  9.000E+00
       5     1     1     2   501     0  2.765463238E+01 -5.549156404E+00  8.926546038E+02  8.931127454E+02  4.750000000E+00  0.00000E+00  9.000E+00
      -5     1     1     2     0   503 -1.226572606E+01  1.041951460E+01  1.220436540E+01  2.074905672E+01  4.750000000E+00  0.00000E+00  9.000E+00
      21     1     1     2   512   501 -7.687171211E-01  1.348873648E+01  1.114555910E+03  1.114637795E+03  1.525878906E-05  0.00000E+00  9.000E+00
#rwgt            1           9   9.8511812049599534               11     1678439           0
</event>
<event>
      6   9999  3.45752E-01  3.15601E+00 -1.00000E+00  2.71277E-01
      21    -1     0     0   511   502  0.000000000E+00  0.000000000E+00  3.743081519E+02  3.743081519E+02  0.000000000E+00  0.00000E+00  9.000E+00
      21    -1     0     0   502   503  0.000000000E+00  0.000000000E+00 -7.102883379E+02  7.102883379E+02  0.000000000E+00  0.00000E+00  9.000E+00
      25     1     1     2     0     0  7.280334652E+00  3.076199057E+00 -6.293031338E+02  6.416518447E+02  1.250287541E+02  0.00000E+00  9.000E+00
       5     1     1     2   501     0 -3.630292315E+00  1.683510671E+00 -3.773890051E+01  3.824657294E+01  4.750000000E+00  0.00000E+00  9.000E+00
      -5     1     1     2     0   503 -5.761339572E-01 -4.044515732E+00 -3.654475910E+01  3.707791736E+01  4.750000000E+00  0.00000E+00  9.000E+00
      21     1     1     2   511   501 -3.073908380E+00 -7.151939958E-01  3.676066074E+02  3.676201548E+02  0.000000000E+00  0.00000E+00  9.000E+00
#rwgt            1           9   1.3919932270893377E-004          11     1681048           0
</event>
<event>
      6   9999  3.45752E-01  4.21305E+00 -1.00000E+00  2.43276E-01
       2    -1     0     0   501     0  0.000000000E+00  0.000000000E+00  7.646517217E+02  7.646517217E+02  0.000000000E+00  0.00000E+00  9.000E+00
      21    -1     0     0   502   503  0.000000000E+00  0.000000000E+00 -1.188235962E+03  1.188235962E+03  0.000000000E+00  0.00000E+00  9.000E+00
      25     1     1     2     0     0  4.114081657E+01 -5.292011214E+01 -7.125307076E+02  7.265101723E+02  1.249956640E+02  0.00000E+00  9.000E+00
       5     1     1     2   501     0  2.156009790E+00  3.401780215E+00  6.734151755E+00  9.172338127E+00  4.750000000E+00  0.00000E+00  9.000E+00
      -5     1     1     2     0   503 -4.224406829E+01  5.359772567E+01 -4.649878515E+02  4.699931298E+02  4.750000000E+00  0.00000E+00  9.000E+00
       2     1     1     2   502     0 -1.052758066E+00 -4.079393749E+00  7.472001666E+02  7.472120440E+02  0.000000000E+00  0.00000E+00  9.000E+00
#rwgt            1           9   1.7360398049129876E-003          11     1685912           0
</event>
<event>
      6   9999 -3.45752E-01  2.33066E+01 -1.00000E+00  1.55299E-01
      21    -1     0     0   501   502  0.000000000E+00  0.000000000E+00  4.084516248E+01  4.084516248E+01  0.000000000E+00  0.00000E+00  9.000E+00
       2    -1     0     0   502     0  0.000000000E+00  0.000000000E+00 -1.830239449E+03  1.830239449E+03  0.000000000E+00  0.00000E+00  9.000E+00
      25     1     1     2     0     0 -1.766455029E+02 -3.717294070E+01 -5.598297991E+02  6.013478969E+02  1.249977115E+02  0.00000E+00  9.000E+00
       5     1     1     2   501     0  1.599763443E+00 -9.692578175E-01  3.328684912E+00  6.094370110E+00  4.750000000E+00  0.00000E+00  9.000E+00
      -5     1     1     2     0   503  1.961769197E+02  2.831005091E+01 -6.336046064E+02  6.639007475E+02  4.750000000E+00  0.00000E+00  9.000E+00
       2     1     1     2   503     0 -2.113118022E+01  9.832147614E+00 -5.992885659E+02  5.997415970E+02  1.078959322E-05  0.00000E+00  9.000E+00
#rwgt            1           9  -3.7484661947795620E-004          11     1691130           0
</event>
<event>
      6   9999  3.45752E-01  1.81417E+01 -1.00000E+00  1.63512E-01
      21    -1     0     0   501   502  0.000000000E+00  0.000000000E+00  2.696029504E+02  2.696029504E+02  0.000000000E+00  0.00000E+00  9.000E+00
       3    -1     0     0   502     0  0.000000000E+00  0.000000000E+00 -4.706466346E+02  4.706466346E+02  0.000000000E+00  0.00000E+00  9.000E+00
      25     1     1     2     0     0  1.991937886E+01 -1.566270004E+01 -2.800878146E+02  3.077585606E+02  1.249961836E+02  0.00000E+00  9.000E+00
       5     1     1     2   501     0  9.461112083E+00  9.379384071E+00  2.541892564E+02  2.545824543E+02  4.750000000E+00  0.00000E+00  9.000E+00
      -5     1     1     2     0   503 -1.165997175E+01  2.397096489E+00 -6.112540336E+01  6.245461111E+01  4.750000000E+00  0.00000E+00  9.000E+00
       3     1     1     2   503     0 -1.772051919E+01  3.886219481E+00 -1.140197226E+02  1.154539590E+02  0.000000000E+00  0.00000E+00  9.000E+00
#rwgt            1           9   2.4225726225615752E-003          11     1693239           0
</event>
<event>
      6   9999 -3.45752E-01  1.24093E+01 -1.00000E+00  1.77831E-01
      21    -1     0     0   501   502  0.000000000E+00  0.000000000E+00  8.390328035E+02  8.390328035E+02  0.000000000E+00  0.00000E+00  9.000E+00
      21    -1     0     0   502   511  0.000000000E+00  0.000000000E+00 -2.048614028E+02  2.048614028E+02  0.000000000E+00  0.00000E+00  9.000E+00
      25     1     1     2     0     0  1.927895722E+01  9.722855838E+01  3.474415718E+02  3.823153233E+02  1.249971595E+02  0.00000E+00  9.000E+00
       5     1     1     2   501     0 -3.039994552E+01 -8.950454709E+01  4.524603259E+02  4.622533177E+02  4.750000000E+00  0.00000E+00  9.000E+00
      -5     1     1     2     0   503  3.377295208E-01 -1.582959282E+00  1.620661236E+01  1.696574801E+01  4.750000000E+00  0.00000E+00  9.000E+00
      21     1     1     2   503   511  1.078325878E+01 -6.141052008E+00 -1.819371093E+02  1.823598172E+02  0.000000000E+00  0.00000E+00  9.000E+00
#rwgt            1           9  -3.8163355691488432E-002          11     1695982           0
</event>
<event>
      6   9999 -3.45752E-01  2.54134E+01 -1.00000E+00  1.52655E-01
      21    -1     0     0   501   502  0.000000000E+00  0.000000000E+00  3.487252130E+02  3.487252130E+02  0.000000000E+00  0.00000E+00  9.000E+00
      21    -1     0     0   512   503  0.000000000E+00  0.000000000E+00 -5.430058535E+01  5.430058535E+01  0.000000000E+00  0.00000E+00  9.000E+00
      25     1     1     2     0     0  1.326427316E-01  1.047332792E+01  3.587395282E+01  1.304680467E+02  1.250010501E+02  0.00000E+00  9.000E+00
       5     1     1     2   501     0  8.042986599E+00  8.198783272E+00  2.271020770E+02  2.274419169E+02  4.750000000E+00  0.00000E+00  9.000E+00
      -5     1     1     2     0   503  1.533086521E+00  4.813613486E+00  6.604937164E+00  9.576477641E+00  4.750000000E+00  0.00000E+00  9.000E+00
      21     1     1     2   512   502 -9.708715851E+00 -2.348572468E+01  2.484366066E+01  3.553935709E+01  3.371747881E-07  0.00000E+00  9.000E+00
#rwgt            1           9  -7.5806013112614343E-003          11     1698356           0
</event>
<event>
      6   9999 -3.45752E-01  3.83122E+01 -1.00000E+00  1.41280E-01
      21    -1     0     0   501   502  0.000000000E+00  0.000000000E+00  4.282978096E+01  4.282978096E+01  0.000000000E+00  0.00000E+00  9.000E+00
       2    -1     0     0   502     0  0.000000000E+00  0.000000000E+00 -2.457405203E+03  2.457405203E+03  0.000000000E+00  0.00000E+00  9.000E+00
      25     1     1     2     0     0 -2.062387172E+02 -4.127210950E+01 -5.741073376E+02  6.240741788E+02  1.250261973E+02  0.00000E+00  9.000E+00
       5     1     1     2   501     0  2.208844278E+02 -2.353300092E+00 -7.215852103E+02  7.546543889E+02  4.750000000E+00  0.00000E+00  9.000E+00
      -5     1     1     2     0   503 -8.833854905E+00  5.756591910E+00 -3.335908951E+01  3.530675142E+01  4.750000000E+00  0.00000E+00  9.000E+00
       2     1     1     2   503     0 -5.811855737E+00  3.786881769E+01 -1.085523784E+03  1.086199665E+03  0.000000000E+00  0.00000E+00  9.000E+00
#rwgt            1           9  -2.6249549870267303E-004          11     1699671           0
</event>
<event>
      6   9999 -3.45752E-01  6.09088E+00 -1.00000E+00  2.13153E-01
       2    -1     0     0   501     0  0.000000000E+00  0.000000000E+00  5.279441342E+02  5.279441342E+02  0.000000000E+00  0.00000E+00  9.000E+00
      21    -1     0     0   502   503  0.000000000E+00  0.000000000E+00 -8.471261875E+02  8.471261875E+02  0.000000000E+00  0.00000E+00  9.000E+00
      25     1     1     2     0     0  6.911694544E+00 -4.150579267E+01 -5.045811677E+02  5.215363005E+02  1.250098223E+02  0.00000E+00  9.000E+00
       5     1     1     2   501     0  6.259511718E+00  8.420772855E-01  1.802517175E+01  1.968146077E+01  4.750000000E+00  0.00000E+00  9.000E+00
      -5     1     1     2     0   503 -8.880837035E+00  3.634034330E+01 -3.321538430E+02  3.342876422E+02  4.750000000E+00  0.00000E+00  9.000E+00
       2     1     1     2   502     0 -4.290369228E+00  4.323372083E+00  4.995277856E+02  4.995649181E+02  0.000000000E+00  0.00000E+00  9.000E+00
#rwgt            1           9  -1.2512623212732120E-004          11     1701817           0
</event>
<event>
      6   9999  3.45752E-01  7.86756E+00 -1.00000E+00  1.98877E-01
      -2    -1     0     0     0   502  0.000000000E+00  0.000000000E+00  6.817452670E+01  6.817452670E+01  0.000000000E+00  0.00000E+00  9.000E+00
      21    -1     0     0   502   503  0.000000000E+00  0.000000000E+00 -1.051248025E+03  1.051248025E+03  0.000000000E+00  0.00000E+00  9.000E+00
      25     1     1     2     0     0  7.906683005E+01  1.028124835E+02 -7.360187193E+02  7.577404022E+02  1.249999665E+02  0.00000E+00  9.000E+00
       5     1     1     2   501     0 -1.733193925E+01  2.101252085E+00 -9.883893138E+00  2.061710993E+01  4.750000000E+00  0.00000E+00  9.000E+00
      -5     1     1     2     0   503 -6.959619706E+01 -1.052274253E+02 -2.749104800E+02  3.025140926E+02  4.750000000E+00  0.00000E+00  9.000E+00
      -2     1     1     2     0   501  7.861306262E+00  3.136897272E-01  3.773959422E+01  3.855094693E+01  1.507891493E-06  0.00000E+00  9.000E+00
#rwgt            1           9   1.0413096934842609E-004          11     1706113           0
</event>
<event>
      6   9999  3.45752E-01  3.04234E+01 -1.00000E+00  1.47445E-01
      21    -1     0     0   501   502  0.000000000E+00  0.000000000E+00  2.898085440E+02  2.898085440E+02  0.000000000E+00  0.00000E+00  9.000E+00
      21    -1     0     0   502   511  0.000000000E+00  0.000000000E+00 -6.163074123E+02  6.163074123E+02  0.000000000E+00  0.00000E+00  9.000E+00
      25     1     1     2     0     0  1.087844329E+02  3.308914493E+01  9.581705369E+01  1.942549267E+02  1.250004977E+02  0.00000E+00  9.000E+00
       5     1     1     2   501     0 -4.465085930E+00  6.628144822E+00  9.267815936E+01  9.314329294E+01  4.750000000E+00  0.00000E+00  9.000E+00
      -5     1     1     2     0   503 -1.237864370E+02 -1.633747504E+01 -2.456019574E+01  1.273411198E+02  4.750000000E+00  0.00000E+00  9.000E+00
      21     1     1     2   503   511  1.946708999E+01 -2.337981471E+01 -4.904338857E+02  4.913766168E+02  0.000000000E+00  0.00000E+00  9.000E+00
#rwgt            1           9   3.9491279209284691E-004          11     1710051           0
</event>
<event>
      6   9999  3.45752E-01  5.74474E+01 -1.00000E+00  1.31638E-01
       1    -1     0     0   501     0  0.000000000E+00  0.000000000E+00  1.861395817E+02  1.861395817E+02  0.000000000E+00  0.00000E+00  9.000E+00
      21    -1     0     0   502   503  0.000000000E+00  0.000000000E+00 -9.332748654E+02  9.332748654E+02  0.000000000E+00  0.00000E+00  9.000E+00
      25     1     1     2     0     0  5.357396329E+01  1.825596286E+01 -3.384891098E+02  3.652456110E+02  1.250041165E+02  0.00000E+00  9.000E+00
       5     1     1     2   501     0 -2.291543582E+00  1.741700155E+01 -1.681444528E+02  1.691263510E+02  4.750000000E+00  0.00000E+00  9.000E+00
      -5     1     1     2     0   503 -7.943039302E+01  1.440591460E+01 -4.038605383E+02  4.118769411E+02  4.750000000E+00  0.00000E+00  9.000E+00
       1     1     1     2   502     0  2.814797332E+01 -5.007887901E+01  1.633588171E+02  1.731655441E+02  2.697398305E-06  0.00000E+00  9.000E+00
#rwgt            1           9   1.8973700691286386E-003          11     1712086           0
</event>
<event>
      6   9999  3.45752E-01  2.11299E+01 -1.00000E+00  1.58410E-01
      21    -1     0     0   511   502  0.000000000E+00  0.000000000E+00  1.907316484E+01  1.907316484E+01  0.000000000E+00  0.00000E+00  9.000E+00
      21    -1     0     0   502   503  0.000000000E+00  0.000000000E+00 -6.645463382E+02  6.645463382E+02  0.000000000E+00  0.00000E+00  9.000E+00
      25     1     1     2     0     0 -1.483714044E+01 -1.266782350E+01 -5.587611196E+02  5.728971113E+02  1.249659828E+02  0.00000E+00  9.000E+00
       5     1     1     2   501     0 -3.029039744E-01 -4.249988829E-01 -4.241853232E+01  4.268684527E+01  4.750000000E+00  0.00000E+00  9.000E+00
      -5     1     1     2     0   503 -2.112549564E+00  8.936288995E-01 -4.649319822E+01  4.679146737E+01  4.750000000E+00  0.00000E+00  9.000E+00
      21     1     1     2   511   501  1.725259398E+01  1.219919348E+01  2.199676747E+00  2.124407914E+01  6.230039883E-07  0.00000E+00  9.000E+00
#rwgt            1           9   4.7101400526117651E-002          11     1712850           0
</event>
<event>
      6   9999  3.45752E-01  6.92779E+00 -1.00000E+00  2.05714E-01
      21    -1     0     0   501   502  0.000000000E+00  0.000000000E+00  6.544773693E+02  6.544773693E+02  0.000000000E+00  0.00000E+00  9.000E+00
      21    -1     0     0   512   503  0.000000000E+00  0.000000000E+00 -1.149714394E+01  1.149714394E+01  0.000000000E+00  0.00000E+00  9.000E+00
      25     1     1     2     0     0 -2.764575057E+00 -1.895481555E+01  4.680374821E+02  4.848212442E+02  1.250025050E+02  0.00000E+00  9.000E+00
       5     1     1     2   501     0  3.035128458E-01  8.459733661E-01  1.026245848E+02  1.027383847E+02  4.750000000E+00  0.00000E+00  9.000E+00
      -5     1     1     2     0   503  8.917025299E+00  2.062177786E+01  4.947998863E+01  5.454908649E+01  4.750000000E+00  0.00000E+00  9.000E+00
      21     1     1     2   512   502 -6.455963088E+00 -2.512935679E+00  2.283816990E+01  2.386579790E+01  0.000000000E+00  0.00000E+00  9.000E+00
#rwgt            1           9   5.4810905591248314E-002          11     1713756           0
</event>
<event>
      6   9999  3.45752E-01  9.34769E+00 -1.00000E+00  1.90333E-01
      21    -1     0     0   501   511  0.000000000E+00  0.000000000E+00  2.645526637E+01  2.645526637E+01  0.000000000E+00  0.00000E+00  9.000E+00
      21    -1     0     0   502   503  0.000000000E+00  0.000000000E+00 -1.055155962E+03  1.055155962E+03  0.000000000E+00  0.00000E+00  9.000E+00
      25     1     1     2     0     0 -8.801333351E+00 -1.834781609E+01 -8.451969167E+02  8.546322748E+02  1.249975649E+02  0.00000E+00  9.000E+00
       5     1     1     2   501     0  2.478090143E+00  1.675885428E+00  1.934157509E+01  2.013972566E+01  4.750000000E+00  0.00000E+00  9.000E+00
      -5     1     1     2     0   503 -3.017393506E+00  1.630896871E+01 -1.908669962E+02  1.916451405E+02  4.750000000E+00  0.00000E+00  9.000E+00
      21     1     1     2   502   511  9.340636713E+00  3.629619479E-01 -1.197835733E+01  1.519408700E+01  3.371747881E-07  0.00000E+00  9.000E+00
#rwgt            1           9   9.7985720083169328E-004          11     1716977           0
</event>
<event>
      6   9999  3.45752E-01  6.46445E+00 -1.00000E+00  2.09645E-01
      21    -1     0     0   501   502  0.000000000E+00  0.000000000E+00  1.064390637E+01  1.064390637E+01  0.000000000E+00  0.00000E+00  9.000E+00
      21    -1     0     0   502   512  0.000000000E+00  0.000000000E+00 -8.351683241E+02  8.351683241E+02  0.000000000E+00  0.00000E+00  9.000E+00
      25     1     1     2     0     0 -2.250832469E+01 -1.883937572E+01 -6.223476454E+02  6.354549248E+02  1.249992915E+02  0.00000E+00  9.000E+00
       5     1     1     2   501     0  1.814851905E+01  1.897338648E+01 -4.406660430E+01  5.151491292E+01  4.750000000E+00  0.00000E+00  9.000E+00
      -5     1     1     2     0   503 -7.981808994E-02  4.564804892E+00 -3.865511410E+01  3.921255106E+01  4.750000000E+00  0.00000E+00  9.000E+00
      21     1     1     2   503   512  4.439623724E+00 -4.698815654E+00 -1.194550539E+02  1.196298418E+02  2.336015456E-06  0.00000E+00  9.000E+00
#rwgt            1           9   74.688485707065240               11     1720397           0
</event>
<event>
      6   9999  3.45752E-01  3.79301E+01 -1.00000E+00  1.41537E-01
      21    -1     0     0   511   502  0.000000000E+00  0.000000000E+00  4.381700053E+00  4.381700053E+00  0.000000000E+00  0.00000E+00  9.000E+00
       2    -1     0     0   501     0  0.000000000E+00  0.000000000E+00 -4.237802213E+03  4.237802213E+03  0.000000000E+00  0.00000E+00  9.000E+00
      25     1     1     2     0     0 -3.992331436E+00 -4.031335338E+00 -2.702233450E+03  2.705128441E+03  1.249882816E+02  0.00000E+00  9.000E+00
       5     1     1     2   501     0 -7.482563027E+00 -4.879708033E+00 -1.260608658E+01  1.616404092E+01  4.750000000E+00  0.00000E+00  9.000E+00
      -5     1     1     2     0   502 -2.460704271E+01 -2.784547755E+00 -1.783356891E+02  1.801095244E+02  4.750000000E+00  0.00000E+00  9.000E+00
       2     1     1     2   511     0  3.608193717E+01  1.169559113E+01 -1.340245287E+03  1.340781907E+03  2.157918644E-05  0.00000E+00  9.000E+00
#rwgt            1           3   7.5000769074669228E-004          11     1723873           0
</event>
<event>
      6   9999  3.45752E-01  1.52425E+01 -1.00000E+00  1.69770E-01
      21    -1     0     0   512   502  0.000000000E+00  0.000000000E+00  3.221102041E+01  3.221102041E+01  0.000000000E+00  0.00000E+00  9.000E+00
      21    -1     0     0   502   503  0.000000000E+00  0.000000000E+00 -1.187363779E+03  1.187363779E+03  0.000000000E+00  0.00000E+00  9.000E+00
      25     1     1     2     0     0 -7.642509274E+01  8.281907722E+01 -8.979214389E+02  9.135579277E+02  1.250015300E+02  0.00000E+00  9.000E+00
       5     1     1     2   501     0  7.306307079E+01 -8.433050697E+01 -1.366538549E+02  1.764842352E+02  4.750000000E+00  0.00000E+00  9.000E+00
      -5     1     1     2     0   503 -5.104360825E+00  1.418633819E+01 -1.096359996E+02  1.107696781E+02  4.750000000E+00  0.00000E+00  9.000E+00
      21     1     1     2   512   501  8.466382776E+00 -1.267490844E+01 -1.094146495E+01  1.876295809E+01  6.951036328E-07  0.00000E+00  9.000E+00
#rwgt            1           9   2.7619930453033543E-003          11     1725318           0
</event>
<event>
      6   9999  3.45752E-01  6.42944E+01 -1.00000E+00  1.29193E-01
      21    -1     0     0   501   502  0.000000000E+00  0.000000000E+00  4.863001653E+03  4.863001653E+03  0.000000000E+00  0.00000E+00  9.000E+00
      21    -1     0     0   511   503  0.000000000E+00  0.000000000E+00 -5.080468317E+01  5.080468317E+01  0.000000000E+00  0.00000E+00  9.000E+00
      25     1     1     2     0     0  8.573285901E+01  1.089778045E+02  2.055416280E+03  2.063876756E+03  1.249995772E+02  0.00000E+00  9.000E+00
       5     1     1     2   501     0 -2.533669337E+01 -2.782744584E+01  1.109100241E+03  1.109748720E+03  4.750000000E+00  0.00000E+00  9.000E+00
      -5     1     1     2     0   503 -1.907530695E+01 -1.304084342E+02  1.667649985E+03  1.672856618E+03  4.750000000E+00  0.00000E+00  9.000E+00
      21     1     1     2   511   502 -4.132085869E+01  4.925807557E+01 -1.996953578E+01  6.732424326E+01  6.208046230E-06  0.00000E+00  9.000E+00
#rwgt            1           9   2.6527627549428712E-002          11     1728201           0
</event>
<event>
      6   9999 -3.45752E-01  1.05353E+01 -1.00000E+00  1.84839E-01
      21    -1     0     0   512   502  0.000000000E+00  0.000000000E+00  2.940246817E+01  2.940246817E+01  0.000000000E+00  0.00000E+00  9.000E+00
      21    -1     0     0   502   503  0.000000000E+00  0.000000000E+00 -1.141416600E+03  1.141416600E+03  0.000000000E+00  0.00000E+00  9.000E+00
      25     1     1     2     0     0 -2.152967586E+01 -1.178587256E+00 -1.104703631E+03  1.111962128E+03  1.249989833E+02  0.00000E+00  9.000E+00
       5     1     1     2   501     0  2.097230805E+00  1.560683793E+00  1.346428605E+01  1.451494436E+01  4.750000000E+00  0.00000E+00  9.000E+00
      -5     1     1     2     0   503  9.717372954E+00  3.693342808E+00  7.833038626E+00  1.385594141E+01  4.750000000E+00  0.00000E+00  9.000E+00
      21     1     1     2   512   501  9.715072098E+00 -4.075439345E+00 -2.860782586E+01  3.048605472E+01  6.743495762E-07  0.00000E+00  9.000E+00
#rwgt            1           9  -1.7049480894674990E-004          11     1728795           0
</event>
<event>
      6   9999  3.45752E-01  7.47475E+01 -1.00000E+00  1.26063E-01
       2    -1     0     0   502     0  0.000000000E+00  0.000000000E+00  1.869902126E+03  1.869902126E+03  0.000000000E+00  0.00000E+00  9.000E+00
      21    -1     0     0   501   502  0.000000000E+00  0.000000000E+00 -2.349079758E+03  2.349079758E+03  0.000000000E+00  0.00000E+00  9.000E+00
      25     1     1     2     0     0  1.223112114E+02 -1.233906725E+02 -1.626548793E+02  2.688248761E+02  1.249996551E+02  0.00000E+00  9.000E+00
       5     1     1     2   501     0 -1.172567804E+02  4.325394200E+01 -1.634109562E+03  1.638888855E+03  4.750000000E+00  0.00000E+00  9.000E+00
      -5     1     1     2     0   503 -7.406025972E+01  1.088661566E+02 -4.873186388E+02  5.048155905E+02  4.750000000E+00  0.00000E+00  9.000E+00
       2     1     1     2   503     0  6.900582875E+01 -2.872942614E+01  1.804905448E+03  1.806452562E+03  2.157918644E-05  0.00000E+00  9.000E+00
#rwgt            1           9   1.3924172043864582E-002          11     1731985           0
</event>
<event>
      6   9999  3.45752E-01  3.65444E+01 -1.00000E+00  1.42500E-01
      21    -1     0     0   501   502  0.000000000E+00  0.000000000E+00  1.165631600E+01  1.165631600E+01  0.000000000E+00  0.00000E+00  9.000E+00
       1    -1     0     0   502     0  0.000000000E+00  0.000000000E+00 -2.056602886E+03  2.056602886E+03  0.000000000E+00  0.00000E+00  9.000E+00
      25     1     1     2     0     0 -2.869881447E+01  4.254986060E+01 -4.959594898E+02  5.140376645E+02  1.249991699E+02  0.00000E+00  9.000E+00
       5     1     1     2   501     0 -1.616496030E+01 -3.033571881E+01 -2.553107716E+02  2.576581347E+02  4.750000000E+00  0.00000E+00  9.000E+00
      -5     1     1     2     0   503  1.508816696E+01  8.973306760E+00 -6.944558512E+01  7.178735828E+01  4.750000000E+00  0.00000E+00  9.000E+00
       1     1     1     2   503     0  2.977560781E+01 -2.118744856E+01 -1.224230724E+03  1.224776045E+03  1.525878906E-05  0.00000E+00  9.000E+00
#rwgt            1           9   1.9185455146927439E-004          11     1733335           0
</event>
<event>
      6   9999  3.45752E-01  1.52520E+01 -1.00000E+00  1.69747E-01
       2    -1     0     0   501     0  0.000000000E+00  0.000000000E+00  3.367279482E+02  3.367279482E+02  0.000000000E+00  0.00000E+00  9.000E+00
      21    -1     0     0   502   503  0.000000000E+00  0.000000000E+00 -3.435471414E+02  3.435471414E+02  0.000000000E+00  0.00000E+00  9.000E+00
      25     1     1     2     0     0 -1.215601886E+01  1.668409163E+01 -2.158075761E+02  2.502503023E+02  1.250047046E+02  0.00000E+00  9.000E+00
       5     1     1     2   501     0 -1.320297555E-02 -2.191635976E+00  3.070387468E+01  3.114632984E+01  4.750000000E+00  0.00000E+00  9.000E+00
      -5     1     1     2     0   503  1.246078147E+01 -2.974167428E+01 -1.076812613E+02  1.125062434E+02  4.750000000E+00  0.00000E+00  9.000E+00
       2     1     1     2   502     0 -2.915596291E-01  1.524921862E+01  2.859657695E+02  2.863722141E+02  5.394796609E-06  0.00000E+00  9.000E+00
#rwgt            1           9   109.35866730029892               11     1734265           0
</event>
<event>
      6   9999  3.45752E-01  2.44830E+01 -1.00000E+00  1.53783E-01
      21    -1     0     0   511   502  0.000000000E+00  0.000000000E+00  3.534504632E+01  3.534504632E+01  0.000000000E+00  0.00000E+00  9.000E+00
      21    -1     0     0   502   503  0.000000000E+00  0.000000000E+00 -2.854011505E+03  2.854011505E+03  0.000000000E+00  0.00000E+00  9.000E+00
      25     1     1     2     0     0 -3.139298486E+01 -1.436555561E+01 -2.011216995E+03  2.015393177E+03  1.249958774E+02  0.00000E+00  9.000E+00
       5     1     1     2   501     0  4.947849761E+00 -1.041665879E+01  2.955653781E+01  3.208020301E+01  4.750000000E+00  0.00000E+00  9.000E+00
      -5     1     1     2     0   503  6.910828720E+00  1.002324911E+01 -7.765209171E+02  7.766308790E+02  4.750000000E+00  0.00000E+00  9.000E+00
      21     1     1     2   511   501  1.953430638E+01  1.475896529E+01 -6.048508507E+01  6.525229266E+01  1.507891493E-06  0.00000E+00  9.000E+00
#rwgt            1           9   2.5348227515703065E-002          11     1736701           0
</event>
<event>
      6   9999  3.45752E-01  1.52281E+01 -1.00000E+00  1.69805E-01
      21    -1     0     0   512   502  0.000000000E+00  0.000000000E+00  6.575038007E+01  6.575038007E+01  0.000000000E+00  0.00000E+00  9.000E+00
      21    -1     0     0   502   503  0.000000000E+00  0.000000000E+00 -7.860439891E+02  7.860439891E+02  0.000000000E+00  0.00000E+00  9.000E+00
      25     1     1     2     0     0 -2.346398917E+01  8.584611594E+00 -5.985326368E+02  6.119574781E+02  1.250055329E+02  0.00000E+00  9.000E+00
       5     1     1     2   501     0 -4.572448792E+00 -1.107383155E+01 -1.184515244E+01  1.750448998E+01  4.750000000E+00  0.00000E+00  9.000E+00
      -5     1     1     2     0   503  1.309102891E+01 -4.316037207E-01 -1.647933004E+02  1.653812435E+02  4.750000000E+00  0.00000E+00  9.000E+00
      21     1     1     2   512   501  1.494540905E+01  2.920823674E+00  5.487748073E+01  5.695115762E+01  1.168007728E-06  0.00000E+00  9.000E+00
#rwgt            1           9   7.8944139375838882E-005          11     1739823           0
</event>
<event>
      6   9999  3.45752E-01  2.32708E+01 -1.00000E+00  1.55346E-01
      21    -1     0     0   501   502  0.000000000E+00  0.000000000E+00  4.426939631E+02  4.426939631E+02  0.000000000E+00  0.00000E+00  9.000E+00
      21    -1     0     0   511   503  0.000000000E+00  0.000000000E+00 -1.202897011E+03  1.202897011E+03  0.000000000E+00  0.00000E+00  9.000E+00
      25     1     1     2     0     0 -7.078192872E+01 -3.078201227E+02 -7.129422959E+01  3.470895994E+02  1.250000537E+02  0.00000E+00  9.000E+00
       5     1     1     2   501     0  7.981175701E+00 -3.938026932E+00  1.627418317E+02  1.630542042E+02  4.750000000E+00  0.00000E+00  9.000E+00
      -5     1     1     2     0   503  6.863904574E+01  2.892315795E+02 -1.416657468E+01  2.976398487E+02  4.750000000E+00  0.00000E+00  9.000E+00
      21     1     1     2   511   502 -5.838292725E+00  2.252657011E+01 -8.374840751E+02  8.378073216E+02  1.078959322E-05  0.00000E+00  9.000E+00
#rwgt            1           9   2.1465785620427402E-003          11     1741440           0
</event>
<event>
      6   9999  3.45752E-01  4.38450E+01 -1.00000E+00  1.37913E-01
      21    -1     0     0   501   502  0.000000000E+00  0.000000000E+00  1.577194830E+02  1.577194830E+02  0.000000000E+00  0.00000E+00  9.000E+00
      21    -1     0     0   502   512  0.000000000E+00  0.000000000E+00 -5.306481648E+02  5.306481648E+02  0.000000000E+00  0.00000E+00  9.000E+00
      25     1     1     2     0     0 -2.149885732E+01 -2.626545952E+01 -3.560125395E+02  3.788417386E+02  1.249962376E+02  0.00000E+00  9.000E+00
       5     1     1     2   501     0 -3.201342043E+00 -1.924196834E+01  1.342101668E+02  1.357034757E+02  4.750000000E+00  0.00000E+00  9.000E+00
      -5     1     1     2     0   503  1.761723679E+00  8.141504356E+00 -1.192003588E+02  1.195854331E+02  4.750000000E+00  0.00000E+00  9.000E+00
      21     1     1     2   503   512  2.293847568E+01  3.736592351E+01 -3.192595028E+01  5.423700036E+01  5.840038640E-07  0.00000E+00  9.000E+00
#rwgt            1           9   5.9434247646004239E-002          11     1744280           0
</event>
<event>
      6   9999  3.45752E-01  1.95961E+01 -1.00000E+00  1.60890E-01
      21    -1     0     0   511   502  0.000000000E+00  0.000000000E+00  1.832508000E+01  1.832508000E+01  0.000000000E+00  0.00000E+00  9.000E+00
      21    -1     0     0   502   503  0.000000000E+00  0.000000000E+00 -8.157392638E+02  8.157392638E+02  0.000000000E+00  0.00000E+00  9.000E+00
      25     1     1     2     0     0  3.802784093E+01  3.518885267E+01 -6.720850522E+02  6.855702715E+02  1.249956309E+02  0.00000E+00  9.000E+00
       5     1     1     2   501     0 -2.431717743E+00 -2.654622001E+01 -4.163262643E+01  4.966339831E+01  4.750000000E+00  0.00000E+00  9.000E+00
      -5     1     1     2     0   503 -1.743840050E+01 -1.601168768E+01 -7.215592701E+01  7.608884449E+01  4.750000000E+00  0.00000E+00  9.000E+00
      21     1     1     2   511   501 -1.815772269E+01  7.369055016E+00 -1.154057819E+01  2.274182953E+01  6.307962682E-07  0.00000E+00  9.000E+00
#rwgt            1           9   7.2974577350573783E-004          11     1747171           0
</event>
<event>
      6   9999  3.45752E-01  1.86394E+01 -1.00000E+00  1.62582E-01
      21    -1     0     0   512   502  0.000000000E+00  0.000000000E+00  6.290119717E+01  6.290119717E+01  0.000000000E+00  0.00000E+00  9.000E+00
      21    -1     0     0   502   503  0.000000000E+00  0.000000000E+00 -1.174915444E+02  1.174915444E+02  0.000000000E+00  0.00000E+00  9.000E+00
      25     1     1     2     0     0  1.575952687E+01  9.474780854E+00 -7.222400066E+01  1.455321840E+02  1.250007046E+02  0.00000E+00  9.000E+00
       5     1     1     2   501     0  7.401188821E-01  1.159674728E+00  6.227903456E+00  7.952477783E+00  4.750000000E+00  0.00000E+00  9.000E+00
      -5     1     1     2     0   503 -1.389504931E+00  2.792596335E-01 -1.821866370E-01  4.960282438E+00  4.750000000E+00  0.00000E+00  9.000E+00
      21     1     1     2   512   501 -1.511014082E+01 -1.091371521E+01  1.158793660E+01  2.194779738E+01  5.057621821E-07  0.00000E+00  9.000E+00
#rwgt            1           9   6.7603926537686378E-003          11     1748604           0
</event>
<event>
      6   9999  3.45752E-01  9.37807E+00 -1.00000E+00  1.90180E-01
      21    -1     0     0   511   502  0.000000000E+00  0.000000000E+00  7.983101605E+01  7.983101605E+01  0.000000000E+00  0.00000E+00  9.000E+00
      21    -1     0     0   502   503  0.000000000E+00  0.000000000E+00 -1.273446312E+03  1.273446312E+03  0.000000000E+00  0.00000E+00  9.000E+00
      25     1     1     2     0     0 -4.698374249E+01 -1.806709849E+02 -5.234336374E+02  5.696121456E+02  1.250029872E+02  0.00000E+00  9.000E+00
       5     1     1     2   501     0  9.634928095E+00  1.495754160E+00  6.623482356E+00  1.270834916E+01  4.750000000E+00  0.00000E+00  9.000E+00
      -5     1     1     2     0   503  4.283875843E+01  1.715720255E+02 -7.124575832E+02  7.340916084E+02  4.750000000E+00  0.00000E+00  9.000E+00
      21     1     1     2   511   501 -5.489944031E+00  7.603205217E+00  3.565244193E+01  3.686522522E+01  6.743495762E-07  0.00000E+00  9.000E+00
#rwgt            1           9   2.9171337812080055E-002          11     1750184           0
</event>
<event>
      6   9999  3.45752E-01  8.28167E+01 -1.00000E+00  1.24020E-01
      21    -1     0     0   512   502  0.000000000E+00  0.000000000E+00  5.626244426E+01  5.626244426E+01  0.000000000E+00  0.00000E+00  9.000E+00
      21    -1     0     0   502   503  0.000000000E+00  0.000000000E+00 -1.460278543E+03  1.460278543E+03  0.000000000E+00  0.00000E+00  9.000E+00
      25     1     1     2     0     0 -1.705904825E+01  8.647217929E+01 -2.904957748E+02  3.283012437E+02  1.250018500E+02  0.00000E+00  9.000E+00
       5     1     1     2   501     0 -7.476481880E+01  4.515607226E+01 -1.505188108E+02  1.740899880E+02  4.750000000E+00  0.00000E+00  9.000E+00
      -5     1     1     2     0   503  1.736915375E+02 -1.441301738E+02 -8.010246357E+02  8.322291071E+02  4.750000000E+00  0.00000E+00  9.000E+00
      21     1     1     2   512   501 -8.186767047E+01  1.250192221E+01 -1.619768769E+02  1.819206481E+02  3.303624740E-06  0.00000E+00  9.000E+00
#rwgt            1           9   6.2182420955014957E-004          11     1754397           0
</event>
<event>
      6   9999  3.45752E-01  2.73015E+01 -1.00000E+00  1.50536E-01
      21    -1     0     0   501   511  0.000000000E+00  0.000000000E+00  5.820962584E+01  5.820962584E+01  0.000000000E+00  0.00000E+00  9.000E+00
      21    -1     0     0   502   503  0.000000000E+00  0.000000000E+00 -9.085219520E+02  9.085219520E+02  0.000000000E+00  0.00000E+00  9.000E+00
      25     1     1     2     0     0  2.143537030E+01  2.373423327E+01 -5.931030488E+02  6.069763569E+02  1.250051297E+02  0.00000E+00  9.000E+00
       5     1     1     2   501     0  1.671322510E+00  5.990967954E+00  6.141134261E+00  9.947916665E+00  4.750000000E+00  0.00000E+00  9.000E+00
      -5     1     1     2     0   503 -5.380473516E+00 -8.960962996E+00 -3.021482774E+02  3.023663216E+02  4.750000000E+00  0.00000E+00  9.000E+00
      21     1     1     2   502   511 -1.772621929E+01 -2.076423822E+01  3.879786586E+01  4.744098265E+01  2.236564522E-06  0.00000E+00  9.000E+00
#rwgt            1           9   1.3716516259168897E-003          11     1755286           0
</event>
<event>
      6   9999  3.45752E-01  3.50557E+00 -1.00000E+00  2.60340E-01
      21    -1     0     0   501   502  0.000000000E+00  0.000000000E+00  1.244364066E+01  1.244364066E+01  0.000000000E+00  0.00000E+00  9.000E+00
      21    -1     0     0   512   503  0.000000000E+00  0.000000000E+00 -5.055216242E+02  5.055216242E+02  0.000000000E+00  0.00000E+00  9.000E+00
      25     1     1     2     0     0 -1.495446171E+00  3.262040829E+00 -3.391869131E+02  3.615033357E+02  1.249960898E+02  0.00000E+00  9.000E+00
       5     1     1     2   501     0 -3.068341961E-02 -5.359169611E-02 -5.649025681E+00  7.380908120E+00  4.750000000E+00  0.00000E+00  9.000E+00
      -5     1     1     2     0   503  3.432051690E-01  9.150370940E-02 -1.390455186E+01  1.469779661E+01  4.750000000E+00  0.00000E+00  9.000E+00
      21     1     1     2   512   502  1.182924421E+00 -3.299952842E+00 -1.343374930E+02  1.343832244E+02  0.000000000E+00  0.00000E+00  9.000E+00
#rwgt            1           9   1.3417855009673538E-004          11     1756753           0
</event>
<event>
      6   9999 -3.45752E-01  3.27784E+01 -1.00000E+00  1.45392E-01
      21    -1     0     0   502   511  0.000000000E+00  0.000000000E+00  1.373388622E+01  1.373388622E+01  0.000000000E+00  0.00000E+00  9.000E+00
      21    -1     0     0   501   502  0.000000000E+00  0.000000000E+00 -1.694580394E+03  1.694580394E+03  0.000000000E+00  0.00000E+00  9.000E+00
      25     1     1     2     0     0 -5.863046198E+01 -2.427418743E+01 -8.305981958E+02  8.423454538E+02  1.250029333E+02  0.00000E+00  9.000E+00
       5     1     1     2   501     0  2.691720583E+01  1.185401093E+01 -3.524941938E+02  3.537510039E+02  4.750000000E+00  0.00000E+00  9.000E+00
      -5     1     1     2     0   503  1.077040624E+01  3.763562800E+01 -4.621251425E+02  4.638045407E+02  4.750000000E+00  0.00000E+00  9.000E+00
      21     1     1     2   503   511  2.094284992E+01 -2.521545150E+01 -3.562897557E+01  4.841328183E+01  1.348699152E-06  0.00000E+00  9.000E+00
#rwgt            1           9  -9.3009621473249073E-004          11     1761133           0
</event>
<event>
      6   9999  3.45752E-01  1.11659E+01 -1.00000E+00  1.82286E-01
      -1    -1     0     0     0   502  0.000000000E+00  0.000000000E+00  9.777940748E+01  9.777940748E+01  0.000000000E+00  0.00000E+00  9.000E+00
      21    -1     0     0   502   503  0.000000000E+00  0.000000000E+00 -8.597802878E+02  8.597802878E+02  0.000000000E+00  0.00000E+00  9.000E+00
      25     1     1     2     0     0  7.888194703E-01  1.433372846E+01 -7.820089017E+02  7.920661299E+02  1.249990156E+02  0.00000E+00  9.000E+00
       5     1     1     2   501     0 -2.841072364E+00 -4.128679298E+00  6.418102111E+00  9.427206353E+00  4.750000000E+00  0.00000E+00  9.000E+00
      -5     1     1     2     0   503  2.158505919E+00 -2.137043898E+01 -6.915600957E+01  7.257045521E+01  4.750000000E+00  0.00000E+00  9.000E+00
      -1     1     1     2     0   501 -1.062530254E-01  1.116538983E+01  8.274592878E+01  8.349590379E+01  3.015782986E-06  0.00000E+00  9.000E+00
#rwgt            1           9   1.1102034534604399E-003          11     1762752           0
</event>
<event>
      6   9999  3.45752E-01  3.71058E+00 -1.00000E+00  2.54800E-01
      21    -1     0     0   501   511  0.000000000E+00  0.000000000E+00  2.670646858E+02  2.670646858E+02  0.000000000E+00  0.00000E+00  9.000E+00
      21    -1     0     0   502   503  0.000000000E+00  0.000000000E+00 -1.161126618E+03  1.161126618E+03  0.000000000E+00  0.00000E+00  9.000E+00
      25     1     1     2     0     0  5.995077236E+01 -8.007757003E+01 -7.148291830E+02  7.325380123E+02  1.249986650E+02  0.00000E+00  9.000E+00
       5     1     1     2   501     0 -1.404218079E+00  6.035566722E+00  1.549999390E+01  1.735546614E+01  4.750000000E+00  0.00000E+00  9.000E+00
      -5     1     1     2     0   503 -6.097526741E+01  7.684731700E+01 -4.309760643E+02  4.420253657E+02  4.750000000E+00  0.00000E+00  9.000E+00
      21     1     1     2   502   511  2.428713131E+00 -2.805313687E+00  2.362433212E+02  2.362724598E+02  2.697398305E-06  0.00000E+00  9.000E+00
#rwgt            1           9   9.6432485306576421E-004          11     1765657           0
</event>
<event>
      6   9999 -3.45752E-01  3.86021E+01 -1.00000E+00  1.41088E-01
      21    -1     0     0   501   502  0.000000000E+00  0.000000000E+00  9.394038810E+01  9.394038810E+01  0.000000000E+00  0.00000E+00  9.000E+00
      21    -1     0     0   512   503  0.000000000E+00  0.000000000E+00 -1.876852213E+03  1.876852213E+03  0.000000000E+00  0.00000E+00  9.000E+00
      25     1     1     2     0     0  1.565636824E+02 -1.114102252E+01 -6.966075431E+02  7.249298852E+02  1.249998414E+02  0.00000E+00  9.000E+00
       5     1     1     2   501     0  2.448316571E+00 -1.525802572E-01  6.930044360E+01  6.950634156E+01  4.750000000E+00  0.00000E+00  9.000E+00
      -5     1     1     2     0   503 -1.721610450E+02 -2.499996945E+01 -1.040435159E+03  1.054889713E+03  4.750000000E+00  0.00000E+00  9.000E+00
      21     1     1     2   512   502  1.314904599E+01  3.629357223E+01 -1.151695660E+02  1.214666610E+02  2.336015456E-06  0.00000E+00  9.000E+00
#rwgt            1           9  -1.0555158396530629E-003          11     1772484           0
</event>
<event>
      6   9999  3.45752E-01  2.37978E+01 -1.00000E+00  1.54653E-01
      21    -1     0     0   501   502  0.000000000E+00  0.000000000E+00  1.152014158E+02  1.152014158E+02  0.000000000E+00  0.00000E+00  9.000E+00
      21    -1     0     0   511   503  0.000000000E+00  0.000000000E+00 -7.082561315E+02  7.082561315E+02  0.000000000E+00  0.00000E+00  9.000E+00
      25     1     1     2     0     0 -5.709113066E+01 -5.063353148E+01 -5.060082710E+02  5.267757062E+02  1.250004906E+02  0.00000E+00  9.000E+00
       5     1     1     2   501     0  5.402737030E+00 -1.366364485E+01  9.164224301E+01  9.293410548E+01  4.750000000E+00  0.00000E+00  9.000E+00
      -5     1     1     2     0   503  5.117717862E+01  4.050491404E+01 -8.607806918E+01  1.081283874E+02  4.750000000E+00  0.00000E+00  9.000E+00
      21     1     1     2   511   502  5.112150103E-01  2.379226229E+01 -9.261061849E+01  9.561934816E+01  1.348699152E-06  0.00000E+00  9.000E+00
#rwgt            1           9   7.5587510853117714E-003          11     1774518           0
</event>
<event>
      6   9999  3.45752E-01  1.09522E+01 -1.00000E+00  1.83127E-01
      21    -1     0     0   501   502  0.000000000E+00  0.000000000E+00  1.630324720E+01  1.630324720E+01  0.000000000E+00  0.00000E+00  9.000E+00
      21    -1     0     0   512   503  0.000000000E+00  0.000000000E+00 -9.753169032E+02  9.753169032E+02  0.000000000E+00  0.00000E+00  9.000E+00
      25     1     1     2     0     0  4.185912815E+01  2.486065256E+00 -4.795937952E+02  4.973881481E+02  1.250055771E+02  0.00000E+00  9.000E+00
       5     1     1     2   501     0  2.924293353E+00 -7.481506630E-01  5.072136925E+00  7.576298174E+00  4.750000000E+00  0.00000E+00  9.000E+00
      -5     1     1     2     0   503 -3.400782503E+01 -3.696678366E+00 -3.401474459E+02  3.418962489E+02  4.750000000E+00  0.00000E+00  9.000E+00
      21     1     1     2   512   502 -1.077559648E+01  1.958763773E+00 -1.443445519E+02  1.447594553E+02  1.907348633E-06  0.00000E+00  9.000E+00
#rwgt            1           9  0.19846260314113412               11     1776936           0
</event>
<event>
      6   9999  3.45752E-01  1.64262E+01 -1.00000E+00  1.67022E-01
      21    -1     0     0   501   502  0.000000000E+00  0.000000000E+00  8.081368561E+01  8.081368561E+01  0.000000000E+00  0.00000E+00  9.000E+00
      21    -1     0     0   511   503  0.000000000E+00  0.000000000E+00 -1.690404474E+03  1.690404474E+03  0.000000000E+00  0.00000E+00  9.000E+00
      25     1     1     2     0     0 -4.337785991E+01  5.882154117E+01 -1.016721973E+03  1.026981150E+03  1.250004041E+02  0.00000E+00  9.000E+00
       5     1     1     2   501     0  2.211638719E+00 -2.606619181E+00  7.317289847E+01  7.340654861E+01  4.750000000E+00  0.00000E+00  9.000E+00
      -5     1     1     2     0   503  4.809246152E+01 -4.132040013E+01 -5.270394956E+02  5.308610485E+02  4.750000000E+00  0.00000E+00  9.000E+00
      21     1     1     2   511   502 -6.926240332E+00 -1.489452186E+01 -1.390022189E+02  1.399694125E+02  0.000000000E+00  0.00000E+00  9.000E+00
#rwgt            1           9   5.2834710696142134E-003          11     1779603           0
</event>
<event>
      6   9999  3.45752E-01  1.06098E+01 -1.00000E+00  1.84526E-01
      21    -1     0     0   501   512  0.000000000E+00  0.000000000E+00  3.527334660E+01  3.527334660E+01  0.000000000E+00  0.00000E+00  9.000E+00
      21    -1     0     0   502   503  0.000000000E+00  0.000000000E+00 -1.828231321E+02  1.828231321E+02  0.000000000E+00  0.00000E+00  9.000E+00
      25     1     1     2     0     0  4.589105332E+00  1.376209928E+01 -1.264420223E+02  1.783892050E+02  1.249986728E+02  0.00000E+00  9.000E+00
       5     1     1     2   501     0  8.941919070E-02  7.426000014E-01  4.218352521E+00  6.396596638E+00  4.750000000E+00  0.00000E+00  9.000E+00
      -5     1     1     2     0   503  2.702185708E-01 -5.119739840E+00 -2.049280452E+01  2.165184267E+01  4.750000000E+00  0.00000E+00  9.000E+00
      21     1     1     2   502   512 -4.948743093E+00 -9.384959441E+00 -4.833311238E+00  1.165883439E+01  2.598106231E-07  0.00000E+00  9.000E+00
#rwgt            1           9   4.8150504414904698E-002          11     1783333           0
</event>
<event>
      6   9999  3.45752E-01  1.88350E+01 -1.00000E+00  1.62226E-01
      21    -1     0     0   501   511  0.000000000E+00  0.000000000E+00  5.053512614E+01  5.053512614E+01  0.000000000E+00  0.00000E+00  9.000E+00
      21    -1     0     0   502   503  0.000000000E+00  0.000000000E+00 -1.395468456E+03  1.395468456E+03  0.000000000E+00  0.00000E+00  9.000E+00
      25     1     1     2     0     0 -1.064558033E+02 -1.726223602E+01 -5.032777882E+02  5.296637364E+02  1.249972746E+02  0.00000E+00  9.000E+00
       5     1     1     2   501     0  2.105676201E+02 -2.545430703E+01 -5.106112562E+02  5.529313356E+02  4.750000000E+00  0.00000E+00  9.000E+00
      -5     1     1     2     0   503 -1.227706892E+02  4.528611261E+01 -2.839664773E+02  3.127027292E+02  4.750000000E+00  0.00000E+00  9.000E+00
      21     1     1     2   502   511  1.865887242E+01 -2.569569558E+00 -4.707780836E+01  5.070578120E+01  1.168007728E-06  0.00000E+00  9.000E+00
#rwgt            1           9  0.10939715347878458               11     1785648           0
</event>
<event>
      6   9999  3.45752E-01  1.89601E+01 -1.00000E+00  1.62001E-01
      21    -1     0     0   501   512  0.000000000E+00  0.000000000E+00  2.047531574E+01  2.047531574E+01  0.000000000E+00  0.00000E+00  9.000E+00
      21    -1     0     0   502   503  0.000000000E+00  0.000000000E+00 -8.569063248E+02  8.569063248E+02  0.000000000E+00  0.00000E+00  9.000E+00
      25     1     1     2     0     0  2.272749492E+01  3.039765479E+01 -5.669395142E+02  5.817937597E+02  1.249920379E+02  0.00000E+00  9.000E+00
       5     1     1     2   501     0 -1.354367873E+01  1.183825894E+00 -8.078944783E+00  1.651255662E+01  4.750000000E+00  0.00000E+00  9.000E+00
      -5     1     1     2     0   503  8.529553276E+00 -2.481975081E+01 -2.585244206E+02  2.598965407E+02  4.750000000E+00  0.00000E+00  9.000E+00
      21     1     1     2   502   512 -1.771336947E+01 -6.761729881E+00 -2.888129471E+00  1.917878361E+01  6.063875541E-07  0.00000E+00  9.000E+00
#rwgt            1           9   4.5587114624659925E-005          11     1788080           0
</event>
<event>
      6   9999  3.45752E-01  4.30256E+01 -1.00000E+00  1.38374E-01
      21    -1     0     0   501   502  0.000000000E+00  0.000000000E+00  1.674973539E+01  1.674973539E+01  0.000000000E+00  0.00000E+00  9.000E+00
      -1    -1     0     0     0   503  0.000000000E+00  0.000000000E+00 -1.752774777E+03  1.752774777E+03  0.000000000E+00  0.00000E+00  9.000E+00
      25     1     1     2     0     0  6.350466445E+01  1.482077592E+01 -3.806186042E+02  4.058904477E+02  1.249961436E+02  0.00000E+00  9.000E+00
       5     1     1     2   501     0 -5.608719203E-01  9.425901333E-03 -3.912834626E+00  6.179598771E+00  4.750000000E+00  0.00000E+00  9.000E+00
      -5     1     1     2     0   503 -4.166323319E+01 -5.222456215E+01 -4.522890218E+02  4.572211190E+02  4.750000000E+00  0.00000E+00  9.000E+00
      -1     1     1     2     0   502 -2.128055934E+01  3.739436032E+01 -8.992045807E+02  9.002333466E+02  1.868812365E-05  0.00000E+00  9.000E+00
#rwgt            1           9   2.9379828258054947E-003          11     1789657           0
</event>
<event>
      6   9999  3.45752E-01  2.45788E+01 -1.00000E+00  1.53664E-01
      21    -1     0     0   511   502  0.000000000E+00  0.000000000E+00  1.858436627E+02  1.858436627E+02  0.000000000E+00  0.00000E+00  9.000E+00
      21    -1     0     0   502   503  0.000000000E+00  0.000000000E+00 -9.148548191E+02  9.148548191E+02  0.000000000E+00  0.00000E+00  9.000E+00
      25     1     1     2     0     0  1.464626105E+01  2.186148114E+01 -8.152312228E+02  8.251784156E+02  1.250001344E+02  0.00000E+00  9.000E+00
       5     1     1     2   501     0  4.883582851E+00  3.581091867E+00  8.952053807E+00  1.180573453E+01  4.750000000E+00  0.00000E+00  9.000E+00
      -5     1     1     2     0   503  1.658393344E-01 -1.073884102E+01 -9.196196162E+01  9.270876492E+01  4.750000000E+00  0.00000E+00  9.000E+00
      21     1     1     2   511   501 -1.969568323E+01 -1.470373199E+01  1.692299742E+02  1.710055667E+02  0.000000000E+00  0.00000E+00  9.000E+00
#rwgt            1           9   2.1727390684966636E-003          11     1790666           0
</event>
<event>
      6   9999  3.45752E-01  3.27318E+00 -1.00000E+00  2.67373E-01
      21    -1     0     0   501   502  0.000000000E+00  0.000000000E+00  1.193126997E+01  1.193126997E+01  0.000000000E+00  0.00000E+00  9.000E+00
      21    -1     0     0   512   503  0.000000000E+00  0.000000000E+00 -8.554707715E+02  8.554707715E+02  0.000000000E+00  0.00000E+00  9.000E+00
      25     1     1     2     0     0  3.560792764E+00  1.902829578E+00 -8.003757796E+02  8.100885727E+02  1.250032283E+02  0.00000E+00  9.000E+00
       5     1     1     2   501     0  2.437200800E+00 -2.089935132E+00  5.344915157E+00  7.838264772E+00  4.750000000E+00  0.00000E+00  9.000E+00
      -5     1     1     2     0   503 -3.323271384E+00 -1.699579191E+00 -2.398499310E+01  2.473408774E+01  4.750000000E+00  0.00000E+00  9.000E+00
      21     1     1     2   512   502 -2.674722180E+00  1.886684745E+00 -2.452364396E+01  2.474111621E+01  4.768371582E-07  0.00000E+00  9.000E+00
#rwgt            1           9   6.2212232291629008E-004          11     1792106           0
</event>
<event>
      6   9999 -3.45752E-01  7.02855E+00 -1.00000E+00  2.04914E-01
      -1    -1     0     0     0   502  0.000000000E+00  0.000000000E+00  7.654737826E+01  7.654737826E+01  0.000000000E+00  0.00000E+00  9.000E+00
      21    -1     0     0   502   503  0.000000000E+00  0.000000000E+00 -1.316292723E+03  1.316292723E+03  0.000000000E+00  0.00000E+00  9.000E+00
      25     1     1     2     0     0 -6.344899669E-01  1.557581604E+01 -1.239732305E+03  1.246115716E+03  1.250007234E+02  0.00000E+00  9.000E+00
       5     1     1     2   501     0 -4.883353570E+00 -9.006290037E+00  2.756292632E+01  2.978653739E+01  4.750000000E+00  0.00000E+00  9.000E+00
      -5     1     1     2     0   503 -1.466010973E+00 -5.778180403E+00 -7.177745483E+01  7.218103684E+01  4.750000000E+00  0.00000E+00  9.000E+00
      -1     1     1     2     0   501  6.983854510E+00 -7.913455965E-01  4.420148921E+01  4.475681066E+01  1.430511475E-06  0.00000E+00  9.000E+00
#rwgt            1           9  -1.1557655521850501E-003          11     1798167           0
</event>
<event>
      6   9999 -3.45752E-01  3.00727E+01 -1.00000E+00  1.47770E-01
      21    -1     0     0   501   502  0.000000000E+00  0.000000000E+00  1.391997113E+01  1.391997113E+01  0.000000000E+00  0.00000E+00  9.000E+00
      21    -1     0     0   511   503  0.000000000E+00  0.000000000E+00 -1.986163790E+03  1.986163790E+03  0.000000000E+00  0.00000E+00  9.000E+00
      25     1     1     2     0     0 -2.766861057E+01  3.719135709E+01 -9.266995825E+02  9.362415097E+02  1.250091966E+02  0.00000E+00  9.000E+00
       5     1     1     2   501     0 -4.228755539E+00  1.229448687E+00  3.783688994E+00  7.501514506E+00  4.750000000E+00  0.00000E+00  9.000E+00
      -5     1     1     2     0   503  7.074656509E+00 -2.144431499E+01 -3.726388720E+01  4.383000341E+01  4.750000000E+00  0.00000E+00  9.000E+00
      21     1     1     2   511   502  2.482270960E+01 -1.697649079E+01 -1.012064038E+03  1.012510733E+03  1.078959322E-05  0.00000E+00  9.000E+00
#rwgt            1           9  -8.4142079613770175E-005          11     1802571           0
</event>
<event>
      6   9999  3.45752E-01  1.04066E+01 -1.00000E+00  1.85389E-01
      21    -1     0     0   512   502  0.000000000E+00  0.000000000E+00  1.020245347E+02  1.020245347E+02  0.000000000E+00  0.00000E+00  9.000E+00
      21    -1     0     0   502   503  0.000000000E+00  0.000000000E+00 -7.112097917E+02  7.112097917E+02  0.000000000E+00  0.00000E+00  9.000E+00
      25     1     1     2     0     0 -7.581495434E+00  7.834043556E+00 -5.834094639E+02  5.967499949E+02  1.250004101E+02  0.00000E+00  9.000E+00
       5     1     1     2   501     0 -3.500801062E+00 -7.689424312E+00 -9.369624285E+01  9.419623813E+01  4.750000000E+00  0.00000E+00  9.000E+00
      -5     1     1     2     0   503  1.477705458E+00  3.861593142E+00 -2.652943628E+01  2.726662804E+01  4.750000000E+00  0.00000E+00  9.000E+00
      21     1     1     2   512   501  9.604591038E+00 -4.006212386E+00  9.444988606E+01  9.502146539E+01  1.907348633E-06  0.00000E+00  9.000E+00
#rwgt            1           9  0.65056314803376569               11     1803994           0
</event>
<event>
      6   9999  3.45752E-01  2.76339E+01 -1.00000E+00  1.50184E-01
      21    -1     0     0   501   502  0.000000000E+00  0.000000000E+00  3.405491915E+01  3.405491915E+01  0.000000000E+00  0.00000E+00  9.000E+00
      21    -1     0     0   502   511  0.000000000E+00  0.000000000E+00 -2.313768168E+03  2.313768168E+03  0.000000000E+00  0.00000E+00  9.000E+00
      25     1     1     2     0     0 -8.350757828E+01 -1.052990628E+02 -3.679990782E+02  4.112275603E+02  1.249935059E+02  0.00000E+00  9.000E+00
       5     1     1     2   501     0  9.449718540E-01 -3.543008237E+00  8.431542947E+00  1.034887896E+01  4.750000000E+00  0.00000E+00  9.000E+00
      -5     1     1     2     0   503  6.871758096E+01  8.492664118E+01 -1.782698995E+03  1.786049526E+03  4.750000000E+00  0.00000E+00  9.000E+00
      21     1     1     2   503   511  1.384502546E+01  2.391542988E+01 -1.374467184E+02  1.401971216E+02  1.907348633E-06  0.00000E+00  9.000E+00
#rwgt            1           9   7.9848941189143723               11     1805899           0
</event>
<event>
      6   9999  3.45752E-01  1.16872E+01 -1.00000E+00  1.80333E-01
      21    -1     0     0   501   502  0.000000000E+00  0.000000000E+00  9.997645356E+00  9.997645356E+00  0.000000000E+00  0.00000E+00  9.000E+00
       2    -1     0     0   502     0  0.000000000E+00  0.000000000E+00 -1.488132140E+03  1.488132140E+03  0.000000000E+00  0.00000E+00  9.000E+00
      25     1     1     2     0     0 -1.186733208E+01  1.756682711E+00 -7.138563247E+02  7.248167092E+02  1.249979606E+02  0.00000E+00  9.000E+00
       5     1     1     2   501     0  1.228149259E+00 -2.564917327E+00  4.905583510E-01  5.557904191E+00  4.750000000E+00  0.00000E+00  9.000E+00
      -5     1     1     2     0   503  1.109379125E+01 -1.087014164E+01 -4.416695876E+01  4.705863289E+01  4.750000000E+00  0.00000E+00  9.000E+00
       2     1     1     2   503     0 -4.546084271E-01  1.167837626E+01 -7.206017696E+02  7.206965391E+02  1.321449896E-05  0.00000E+00  9.000E+00
#rwgt            1           9   5.1895604955782548E-003          11     1808222           0
</event>
<event>
      6   9999  3.45752E-01  2.27182E+01 -1.00000E+00  1.56098E-01
      21    -1     0     0   501   511  0.000000000E+00  0.000000000E+00  2.311304835E+01  2.311304835E+01  0.000000000E+00  0.00000E+00  9.000E+00
      21    -1     0     0   502   503  0.000000000E+00  0.000000000E+00 -8.653947428E+02  8.653947428E+02  0.000000000E+00  0.00000E+00  9.000E+00
      25     1     1     2     0     0 -4.934840303E+01  2.393909826E+01 -5.965303939E+02  6.119497634E+02  1.250026270E+02  0.00000E+00  9.000E+00
       5     1     1     2   501     0  3.128900021E+00 -1.599598842E+01 -6.829180430E+01  7.037041065E+01  4.750000000E+00  0.00000E+00  9.000E+00
      -5     1     1     2     0   503  2.872440346E+01 -2.243575594E+01 -1.796430237E+02  1.833647538E+02  4.750000000E+00  0.00000E+00  9.000E+00
      21     1     1     2   502   511  1.749509955E+01  1.449264609E+01  2.183527344E+00  2.282286333E+01  9.073816149E-07  0.00000E+00  9.000E+00
#rwgt            1           9   3.3174607602449356E-004          11     1810476           0
</event>
<event>
      6   9999  3.45752E-01  2.52158E+01 -1.00000E+00  1.52890E-01
      21    -1     0     0   512   502  0.000000000E+00  0.000000000E+00  2.023352509E+02  2.023352509E+02  0.000000000E+00  0.00000E+00  9.000E+00
      21    -1     0     0   502   503  0.000000000E+00  0.000000000E+00 -1.171047037E+03  1.171047037E+03  0.000000000E+00  0.00000E+00  9.000E+00
      25     1     1     2     0     0  1.928798698E+01 -1.056697613E+00 -1.093637395E+03  1.100927072E+03  1.249980928E+02  0.00000E+00  9.000E+00
       5     1     1     2   501     0 -4.779966659E+00 -1.524073332E+01  3.571284960E+01  3.940936640E+01  4.750000000E+00  0.00000E+00  9.000E+00
      -5     1     1     2     0   503 -5.091214749E+00 -7.093977334E+00 -7.057961267E+01  7.127614753E+01  4.750000000E+00  0.00000E+00  9.000E+00
      21     1     1     2   512   501 -9.416805576E+00  2.339140826E+01  1.597923721E+02  1.617697017E+02  4.264961200E-06  0.00000E+00  9.000E+00
#rwgt            1           9   1.1477543837786602E-004          11     1812342           0
</event>
<event>
      6   9999  3.45752E-01  1.48644E+01 -1.00000E+00  1.70714E-01
      21    -1     0     0   501   502  0.000000000E+00  0.000000000E+00  6.725534757E+01  6.725534757E+01  0.000000000E+00  0.00000E+00  9.000E+00
      21    -1     0     0   502   511  0.000000000E+00  0.000000000E+00 -2.041247964E+03  2.041247964E+03  0.000000000E+00  0.00000E+00  9.000E+00
      25     1     1     2     0     0 -1.080528233E+02 -1.346395210E+02 -1.831151284E+02  2.809959929E+02  1.249975383E+02  0.00000E+00  9.000E+00
       5     1     1     2   501     0  4.234754968E-01 -2.199286609E-01  1.226104713E+01  1.315763948E+01  4.750000000E+00  0.00000E+00  9.000E+00
      -5     1     1     2     0   503  9.280909672E+01  1.360047082E+02 -1.225599205E+03  1.236619093E+03  4.750000000E+00  0.00000E+00  9.000E+00
      21     1     1     2   503   511  1.482025104E+01 -1.145258568E+00 -5.775393311E+02  5.777305863E+02  0.000000000E+00  0.00000E+00  9.000E+00
#rwgt            1           9   1.2836540192763245E-004          11     1814283           0
</event>
<event>
      6   9999 -3.45752E-01  5.13973E+00 -1.00000E+00  2.23869E-01
      21    -1     0     0   501   502  0.000000000E+00  0.000000000E+00  1.729733556E+01  1.729733556E+01  0.000000000E+00  0.00000E+00  9.000E+00
      21    -1     0     0   502   512  0.000000000E+00  0.000000000E+00 -1.193651052E+03  1.193651052E+03  0.000000000E+00  0.00000E+00  9.000E+00
      25     1     1     2     0     0 -4.392087794E+00  1.357379184E+01 -6.389353127E+02  6.512044730E+02  1.250015745E+02  0.00000E+00  9.000E+00
       5     1     1     2   501     0 -1.579927268E+00 -4.410821451E-01  1.036339821E+01  1.151751909E+01  4.750000000E+00  0.00000E+00  9.000E+00
      -5     1     1     2     0   503  1.004046280E+00 -1.445034047E+01 -2.961253588E+02  2.965174718E+02  4.750000000E+00  0.00000E+00  9.000E+00
      21     1     1     2   503   512  4.967968782E+00  1.317630783E+00 -2.516564435E+02  2.517089240E+02  6.031565972E-06  0.00000E+00  9.000E+00
#rwgt            1           9  -4.8863310537369646E-004          11     1817812           0
</event>
<event>
      6   9999  3.45752E-01  3.86477E+00 -1.00000E+00  2.50982E-01
      21    -1     0     0   502   503  0.000000000E+00  0.000000000E+00  2.460887982E+03  2.460887982E+03  0.000000000E+00  0.00000E+00  9.000E+00
      21    -1     0     0   501   511  0.000000000E+00  0.000000000E+00 -5.695767718E+00  5.695767718E+00  0.000000000E+00  0.00000E+00  9.000E+00
      25     1     1     2     0     0 -3.674221800E+00 -1.043825140E+01  1.656367269E+03  1.661115332E+03  1.250166425E+02  0.00000E+00  9.000E+00
       5     1     1     2   501     0 -3.125554832E+01  6.251718764E+00  5.485229183E+02  5.494687868E+02  4.750000000E+00  0.00000E+00  9.000E+00
      -5     1     1     2     0   503  3.169832038E+01  6.306483722E+00  2.499976712E+02  2.521228934E+02  4.750000000E+00  0.00000E+00  9.000E+00
      21     1     1     2   502   511  3.231449734E+00 -2.119951087E+00  3.043560688E-01  3.876737367E+00  4.764877842E-07  0.00000E+00  9.000E+00
#rwgt            1           9   1133.0353157191710               11     1822601           0
</event>
<event>
      6   9999 -3.45752E-01  5.38650E+00 -1.00000E+00  2.20798E-01
       2    -1     0     0   501     0  0.000000000E+00  0.000000000E+00  3.460475363E+02  3.460475363E+02  0.000000000E+00  0.00000E+00  9.000E+00
      21    -1     0     0   502   503  0.000000000E+00  0.000000000E+00 -8.548537144E+02  8.548537144E+02  0.000000000E+00  0.00000E+00  9.000E+00
      25     1     1     2     0     0  1.869704219E+01  3.692899962E+00 -6.681701551E+02  6.800296780E+02  1.250031592E+02  0.00000E+00  9.000E+00
       5     1     1     2   501     0  1.530516981E+00 -3.452571074E+00  4.751113810E+00  7.707030018E+00  4.750000000E+00  0.00000E+00  9.000E+00
      -5     1     1     2     0   503 -1.999453808E+01 -5.621788210E+00 -1.786209661E+02  1.798871816E+02  4.750000000E+00  0.00000E+00  9.000E+00
       2     1     1     2   502     0 -2.330210931E-01  5.381459322E+00  3.332338293E+02  3.332773611E+02  3.814697266E-06  0.00000E+00  9.000E+00
#rwgt            1           9  -5.6362157512308819E-005          11     1827548           0
</event>
<event>
      6   9999  3.45752E-01  2.24165E+01 -1.00000E+00  1.56519E-01
      21    -1     0     0   501   502  0.000000000E+00  0.000000000E+00  7.396578952E+01  7.396578952E+01  0.000000000E+00  0.00000E+00  9.000E+00
      21    -1     0     0   502   511  0.000000000E+00  0.000000000E+00 -2.061581570E+03  2.061581570E+03  0.000000000E+00  0.00000E+00  9.000E+00
      25     1     1     2     0     0 -3.188193407E+01  9.900951466E+00 -4.259003651E+02  4.451178226E+02  1.249970737E+02  0.00000E+00  9.000E+00
       5     1     1     2   501     0 -2.035340660E+00  2.118066478E+01  6.213641063E+01  6.585027865E+01  4.750000000E+00  0.00000E+00  9.000E+00
      -5     1     1     2     0   503  1.859231342E+01 -1.472174504E+01 -1.071174053E+03  1.071447067E+03  4.750000000E+00  0.00000E+00  9.000E+00
      21     1     1     2   503   511  1.532496131E+01 -1.635987121E+01 -5.526777735E+02  5.531321914E+02  7.629394531E-06  0.00000E+00  9.000E+00
#rwgt            1           9   1.0855653267499750E-004          11     1832353           0
</event>
<event>
      6   9999  3.45752E-01  1.11942E+01 -1.00000E+00  1.82176E-01
      21    -1     0     0   501   502  0.000000000E+00  0.000000000E+00  1.160904739E+02  1.160904739E+02  0.000000000E+00  0.00000E+00  9.000E+00
      21    -1     0     0   502   512  0.000000000E+00  0.000000000E+00 -5.660385871E+02  5.660385871E+02  0.000000000E+00  0.00000E+00  9.000E+00
      25     1     1     2     0     0 -3.004013375E+00  8.639728060E+00 -4.797390255E+01  1.342021687E+02  1.250002310E+02  0.00000E+00  9.000E+00
       5     1     1     2   501     0  2.375753135E+00 -3.439267652E+00  7.112727117E+01  7.140815058E+01  4.750000000E+00  0.00000E+00  9.000E+00
      -5     1     1     2     0   503  1.181346247E+01 -4.750637106E+00 -2.654130539E+01  2.981828030E+01  4.750000000E+00  0.00000E+00  9.000E+00
      21     1     1     2   503   512 -1.118520223E+01 -4.498233023E-01 -4.465601765E+02  4.467004615E+02  5.394796609E-06  0.00000E+00  9.000E+00
#rwgt            1           9   3.8381749702813491E-004          11     1835031           0
</event>
<event>
      6   9999  3.45752E-01  1.04988E+01 -1.00000E+00  1.84994E-01
      21    -1     0     0   501   502  0.000000000E+00  0.000000000E+00  2.602415464E+01  2.602415464E+01  0.000000000E+00  0.00000E+00  9.000E+00
      21    -1     0     0   511   503  0.000000000E+00  0.000000000E+00 -1.250012244E+03  1.250012244E+03  0.000000000E+00  0.00000E+00  9.000E+00
      25     1     1     2     0     0  6.617447094E+00  3.953832898E+01 -5.048792400E+02  5.216651224E+02  1.249975313E+02  0.00000E+00  9.000E+00
       5     1     1     2   501     0 -4.324397137E+00 -7.253606127E-01  1.648954079E+01  1.771140915E+01  4.750000000E+00  0.00000E+00  9.000E+00
      -5     1     1     2     0   503 -3.417610707E+00 -2.837455720E+01 -5.575401366E+02  5.582923625E+02  4.750000000E+00  0.00000E+00  9.000E+00
      21     1     1     2   511   502  1.124560750E+00 -1.043841117E+01 -1.780582533E+02  1.783675044E+02  3.303624740E-06  0.00000E+00  9.000E+00
#rwgt            1           9   6.5508093091522430E-006          11     1837430           0
</event>
<event>
      6   9999  3.45752E-01  2.16834E+00 -1.00000E+00  3.19874E-01
      21    -1     0     0   501   512  0.000000000E+00  0.000000000E+00  6.100534841E+01  6.100534841E+01  0.000000000E+00  0.00000E+00  9.000E+00
      21    -1     0     0   502   503  0.000000000E+00  0.000000000E+00 -1.666634382E+03  1.666634382E+03  0.000000000E+00  0.00000E+00  9.000E+00
      25     1     1     2     0     0 -1.680604015E+00  2.582523556E+01 -4.225662170E+01  1.344666245E+02  1.250035352E+02  0.00000E+00  9.000E+00
       5     1     1     2   501     0 -2.637250231E+00 -2.297890230E-01  1.214165423E+01  1.330376485E+01  4.750000000E+00  0.00000E+00  9.000E+00
      -5     1     1     2     0   503  5.436972833E+00 -2.373821948E+01 -1.577029020E+03  1.577224194E+03  4.750000000E+00  0.00000E+00  9.000E+00
      21     1     1     2   502   512 -1.119118587E+00 -1.857227061E+00  1.514954130E+00  2.645147404E+00  1.053671213E-07  0.00000E+00  9.000E+00
#rwgt            1           9   1.1348502940492899               11     1840421           0
</event>
<event>
      6   9999  3.45752E-01  3.45646E+01 -1.00000E+00  1.43966E-01
      21    -1     0     0   501   502  0.000000000E+00  0.000000000E+00  2.814790057E+02  2.814790057E+02  0.000000000E+00  0.00000E+00  9.000E+00
      21    -1     0     0   511   503  0.000000000E+00  0.000000000E+00 -2.059557694E+03  2.059557694E+03  0.000000000E+00  0.00000E+00  9.000E+00
      25     1     1     2     0     0 -2.483153026E+02  5.893130397E+01 -1.406966933E+03  1.435380963E+03  1.250166835E+02  0.00000E+00  9.000E+00
       5     1     1     2   501     0 -3.288761684E+00 -1.018174964E+00  1.591243930E+02  1.592324954E+02  4.750000000E+00  0.00000E+00  9.000E+00
      -5     1     1     2     0   503  2.279005791E+02 -8.306970673E+01 -2.939269591E+01  2.443885087E+02  4.750000000E+00  0.00000E+00  9.000E+00
      21     1     1     2   511   502  2.370348521E+01  2.515657773E+01 -5.008434524E+02  5.020347322E+02  5.394796609E-06  0.00000E+00  9.000E+00
#rwgt            1           9   1.7288020223215981E-003          11     1852350           0
</event>
<event>
      6   9999  3.45752E-01  3.45473E+00 -1.00000E+00  2.61805E-01
      21    -1     0     0   501   502  0.000000000E+00  0.000000000E+00  9.145158324E+00  9.145158324E+00  0.000000000E+00  0.00000E+00  9.000E+00
      21    -1     0     0   512   503  0.000000000E+00  0.000000000E+00 -5.660634531E+02  5.660634531E+02  0.000000000E+00  0.00000E+00  9.000E+00
      25     1     1     2     0     0 -2.008738791E+00  4.084263724E+00 -4.913450623E+02  5.070157260E+02  1.249970396E+02  0.00000E+00  9.000E+00
       5     1     1     2   501     0 -1.921719767E-02 -1.068078872E-01 -5.850812852E+00  7.536994643E+00  4.750000000E+00  0.00000E+00  9.000E+00
      -5     1     1     2     0   503  1.398082720E+00 -5.806307262E-01 -1.513741901E+01  1.593724323E+01  4.750000000E+00  0.00000E+00  9.000E+00
      21     1     1     2   512   502  6.298732684E-01 -3.396825111E+00 -4.458500052E+01  4.471864748E+01  9.536743164E-07  0.00000E+00  9.000E+00
#rwgt            1           9   1.3538933098229059E-004          11     1855371           0
</event>
<event>
      6   9999  3.45752E-01  2.64140E+01 -1.00000E+00  1.51505E-01
       2    -1     0     0   501     0  0.000000000E+00  0.000000000E+00  3.873981491E+02  3.873981491E+02  0.000000000E+00  0.00000E+00  9.000E+00
      21    -1     0     0   502   503  0.000000000E+00  0.000000000E+00 -1.299266160E+03  1.299266160E+03  0.000000000E+00  0.00000E+00  9.000E+00
      25     1     1     2     0     0 -4.238157561E+01  5.809538644E+01 -2.565900344E+02  2.943324248E+02  1.249874341E+02  0.00000E+00  9.000E+00
       5     1     1     2   501     0 -5.267631786E+00 -1.483476951E+01  3.507365919E+01  3.873683518E+01  4.750000000E+00  0.00000E+00  9.000E+00
      -5     1     1     2     0   503  5.098543625E+01 -6.946312826E+01 -1.019621744E+03  1.023267172E+03  4.750000000E+00  0.00000E+00  9.000E+00
       2     1     1     2   502     0 -3.336228857E+00  2.620251133E+01  3.292701087E+02  3.303278772E+02  7.629394531E-06  0.00000E+00  9.000E+00
#rwgt            1           9   1.4078794100623560E-004          11     1860209           0
</event>
<event>
      6   9999  3.45752E-01  6.51201E+00 -1.00000E+00  2.09221E-01
      21    -1     0     0   501   511  0.000000000E+00  0.000000000E+00  1.133946928E+01  1.133946928E+01  0.000000000E+00  0.00000E+00  9.000E+00
      21    -1     0     0   502   503  0.000000000E+00  0.000000000E+00 -8.273677516E+02  8.273677516E+02  0.000000000E+00  0.00000E+00  9.000E+00
      25     1     1     2     0     0 -1.277676754E+01 -9.733579056E+00 -6.067455110E+02  6.196913541E+02  1.249770814E+02  0.00000E+00  9.000E+00
       5     1     1     2   501     0 -1.339260668E+00 -3.212865753E-01  2.513210515E+00  5.547573460E+00  4.750000000E+00  0.00000E+00  9.000E+00
      -5     1     1     2     0   503  1.327566300E+01  3.597302427E+00 -1.935287292E+02  1.940750250E+02  4.750000000E+00  0.00000E+00  9.000E+00
      21     1     1     2   502   511  8.403652112E-01  6.457563204E+00 -1.826725264E+01  1.939326829E+01  2.384185791E-07  0.00000E+00  9.000E+00
#rwgt            1           9   2.6336540127595734E-003          11     1862584           0
</event>
<event>
      6   9999  3.45752E-01  3.65052E+00 -1.00000E+00  2.56365E-01
       1    -1     0     0   501     0  0.000000000E+00  0.000000000E+00  1.645971551E+03  1.645971551E+03  0.000000000E+00  0.00000E+00  9.000E+00
      21    -1     0     0   502   503  0.000000000E+00  0.000000000E+00 -8.344394073E+02  8.344394073E+02  0.000000000E+00  0.00000E+00  9.000E+00
      25     1     1     2     0     0 -2.405276948E+00 -2.188588933E-02 -7.807650661E+02  7.907119100E+02  1.250018018E+02  0.00000E+00  9.000E+00
       5     1     1     2   501     0 -1.709926778E-01 -1.297371899E+00  5.999020484E+00  7.762934954E+00  4.750000000E+00  0.00000E+00  9.000E+00
      -5     1     1     2     0   503 -5.399861533E-01 -5.821195006E-01 -4.769566404E+01  4.793818224E+01  4.750000000E+00  0.00000E+00  9.000E+00
       1     1     1     2   502     0  3.116255779E+00  1.901377288E+00  1.633993853E+03  1.633997931E+03  0.000000000E+00  0.00000E+00  9.000E+00
#rwgt            1           9   5.3725468517589530E-005          11     1866604           0
</event>
<event>
      6   9999  3.45752E-01  1.71481E+01 -1.00000E+00  1.65483E-01
      21    -1     0     0   502   503  0.000000000E+00  0.000000000E+00  1.802538815E+02  1.802538815E+02  0.000000000E+00  0.00000E+00  9.000E+00
      21    -1     0     0   501   511  0.000000000E+00  0.000000000E+00 -2.015915406E+02  2.015915406E+02  0.000000000E+00  0.00000E+00  9.000E+00
      25     1     1     2     0     0 -3.530134668E+01 -1.360975143E+02  7.270786026E+01  2.016910984E+02  1.249965910E+02  0.00000E+00  9.000E+00
       5     1     1     2   501     0  2.942149402E+01  1.214963256E+02 -9.289876491E+01  1.558195253E+02  4.750000000E+00  0.00000E+00  9.000E+00
      -5     1     1     2     0   503 -3.327310752E-01 -1.381928575E+00  4.065798823E+00  6.411993186E+00  4.750000000E+00  0.00000E+00  9.000E+00
      21     1     1     2   502   511  6.212583732E+00  1.598311730E+01 -5.212553277E+00  1.792280522E+01  1.460009660E-07  0.00000E+00  9.000E+00
#rwgt            1           9   292.58603061879205               11     1871766           0
</event>
<event>
      6   9999 -3.45752E-01  5.61746E+00 -1.00000E+00  2.18122E-01
      21    -1     0     0   501   502  0.000000000E+00  0.000000000E+00  3.520928258E+01  3.520928258E+01  0.000000000E+00  0.00000E+00  9.000E+00
      21    -1     0     0   502   512  0.000000000E+00  0.000000000E+00 -8.803507190E+02  8.803507190E+02  0.000000000E+00  0.00000E+00  9.000E+00
      25     1     1     2     0     0 -5.295356103E+01  6.153772812E+01 -6.799211670E+02  6.960713671E+02  1.250263298E+02  0.00000E+00  9.000E+00
       5     1     1     2   501     0 -1.314336154E-01 -1.886220521E+00  1.196911347E+01  1.301527102E+01  4.750000000E+00  0.00000E+00  9.000E+00
      -5     1     1     2     0   503  5.869739368E+01 -5.941302555E+01 -1.058590283E+02  1.349221553E+02  4.750000000E+00  0.00000E+00  9.000E+00
      21     1     1     2   503   512 -5.612399033E+00 -2.384820440E-01 -7.133035462E+01  7.155120815E+01  1.348699152E-06  0.00000E+00  9.000E+00
#rwgt            1           9  -2.8967461851175453E-004          11     1874306           0
</event>
<event>
      6   9999  3.45752E-01  1.83257E+00 -1.00000E+00  3.48304E-01
      21    -1     0     0   511   502  0.000000000E+00  0.000000000E+00  2.193186921E+01  2.193186921E+01  0.000000000E+00  0.00000E+00  9.000E+00
      21    -1     0     0   502   503  0.000000000E+00  0.000000000E+00 -1.031880885E+03  1.031880885E+03  0.000000000E+00  0.00000E+00  9.000E+00
      25     1     1     2     0     0  1.656856239E+00 -8.079609617E-01 -9.822622319E+02  9.901859590E+02  1.250029727E+02  0.00000E+00  9.000E+00
       5     1     1     2   501     0  2.099230267E+00 -2.040065262E+00  1.389178491E+01  1.497039819E+01  4.750000000E+00  0.00000E+00  9.000E+00
      -5     1     1     2     0   503 -3.831964860E+00  1.017028347E+00 -4.465171325E+01  4.507833512E+01  4.750000000E+00  0.00000E+00  9.000E+00
      21     1     1     2   511   501  7.587835395E-02  1.830997877E+00  3.073144411E+00  3.578061951E+00  8.429369702E-08  0.00000E+00  9.000E+00
#rwgt            1           9  0.10332111735461022               11     1879164           0
</event>
<event>
      6   9999  3.45752E-01  3.24563E+01 -1.00000E+00  1.45661E-01
      21    -1     0     0   501   502  0.000000000E+00  0.000000000E+00  1.446986100E+03  1.446986100E+03  0.000000000E+00  0.00000E+00  9.000E+00
      21    -1     0     0   512   503  0.000000000E+00  0.000000000E+00 -2.183836729E+02  2.183836729E+02  0.000000000E+00  0.00000E+00  9.000E+00
      25     1     1     2     0     0 -9.659162222E+01  1.439678806E+01  4.985669083E+02  5.231937017E+02  1.250019138E+02  0.00000E+00  9.000E+00
       5     1     1     2   501     0  3.833929843E+00  2.442316399E+00  8.256471637E+02  8.256733406E+02  4.750000000E+00  0.00000E+00  9.000E+00
      -5     1     1     2     0   503  1.010853563E+02  1.453065907E+01  8.502668268E+01  1.329717586E+02  4.750000000E+00  0.00000E+00  9.000E+00
      21     1     1     2   512   502 -8.327663957E+00 -3.136976352E+01 -1.806383279E+02  1.835309717E+02  1.907348633E-06  0.00000E+00  9.000E+00
#rwgt            1           9   3.5523062268357945E-004          11     1888731           0
</event>
<event>
      6   9999  3.45752E-01  6.44703E+00 -1.00000E+00  2.09801E-01
      21    -1     0     0   502   503  0.000000000E+00  0.000000000E+00  7.042683252E+00  7.042683252E+00  0.000000000E+00  0.00000E+00  9.000E+00
       2    -1     0     0   501     0  0.000000000E+00  0.000000000E+00 -2.115892290E+03  2.115892290E+03  0.000000000E+00  0.00000E+00  9.000E+00
      25     1     1     2     0     0  7.564496893E+00 -6.030337044E+00 -6.528031535E+02  6.647338883E+02  1.250023938E+02  0.00000E+00  9.000E+00
       5     1     1     2   501     0  5.740441867E-02 -4.099558500E-01 -6.541624039E+00  8.094856647E+00  4.750000000E+00  0.00000E+00  9.000E+00
      -5     1     1     2     0   503 -1.553488124E+00  4.263478155E+00 -3.648327516E+01  3.706996678E+01  4.750000000E+00  0.00000E+00  9.000E+00
       2     1     1     2   502     0 -6.068413187E+00  2.176814739E+00 -1.413021554E+03  1.413036261E+03  2.157918644E-05  0.00000E+00  9.000E+00
#rwgt            1           9   3.1423660693952015E-004          11     1890717           0
</event>
<event>
      6   9999  3.45752E-01  8.98356E+00 -1.00000E+00  1.92234E-01
      21    -1     0     0   501   502  0.000000000E+00  0.000000000E+00  1.285747242E+01  1.285747242E+01  0.000000000E+00  0.00000E+00  9.000E+00
      21    -1     0     0   502   511  0.000000000E+00  0.000000000E+00 -8.348287765E+02  8.348287765E+02  0.000000000E+00  0.00000E+00  9.000E+00
      25     1     1     2     0     0  2.117398066E+01 -8.199633713E+00 -5.563508062E+02  5.706751318E+02  1.250132595E+02  0.00000E+00  9.000E+00
       5     1     1     2   501     0  9.201518190E-02 -3.166984802E-01  3.639917357E+00  5.993351574E+00  4.750000000E+00  0.00000E+00  9.000E+00
      -5     1     1     2     0   503 -1.506731939E+01  1.501869660E+01 -1.961611609E+02  1.973685610E+02  4.750000000E+00  0.00000E+00  9.000E+00
      21     1     1     2   503   511 -6.198676446E+00 -6.502364408E+00 -7.309925438E+01  7.364920450E+01  9.536743164E-07  0.00000E+00  9.000E+00
#rwgt            1           9   3.4982173422479974E-003          11     1893802           0
</event>
<event>
      6   9999  3.45752E-01  1.85881E+01 -1.00000E+00  1.62676E-01
      21    -1     0     0   512   502  0.000000000E+00  0.000000000E+00  8.368472999E+01  8.368472999E+01  0.000000000E+00  0.00000E+00  9.000E+00
      21    -1     0     0   502   503  0.000000000E+00  0.000000000E+00 -4.584574998E+02  4.584574998E+02  0.000000000E+00  0.00000E+00  9.000E+00
      25     1     1     2     0     0 -3.023959985E+01 -6.197214497E+01 -3.903660002E+02  4.156536245E+02  1.250093649E+02  0.00000E+00  9.000E+00
       5     1     1     2   501     0  4.528846534E-01  3.925629394E+00  3.559770485E+01  3.612997041E+01  4.750000000E+00  0.00000E+00  9.000E+00
      -5     1     1     2     0   503  1.384854123E+01  6.761165769E+01 -1.242970074E+01  7.028640203E+01  4.750000000E+00  0.00000E+00  9.000E+00
      21     1     1     2   512   501  1.593817397E+01 -9.565142115E+00 -7.574773704E+00  2.007223280E+01  3.769728732E-07  0.00000E+00  9.000E+00
#rwgt            1           9   4.8455896409507364E-004          11     1896160           0
</event>
<event>
      6   9999 -3.45752E-01  3.85659E+00 -1.00000E+00  2.51178E-01
      21    -1     0     0   501   511  0.000000000E+00  0.000000000E+00  4.090038968E+01  4.090038968E+01  0.000000000E+00  0.00000E+00  9.000E+00
      21    -1     0     0   502   503  0.000000000E+00  0.000000000E+00 -1.015244998E+03  1.015244998E+03  0.000000000E+00  0.00000E+00  9.000E+00
      25     1     1     2     0     0  2.310647342E+01 -1.083117536E+01 -8.158936328E+02  8.258068293E+02  1.249931028E+02  0.00000E+00  9.000E+00
       5     1     1     2   501     0  3.679923069E-01  7.362074332E+00  1.900974038E+01  2.093485816E+01  4.750000000E+00  0.00000E+00  9.000E+00
      -5     1     1     2     0   503 -2.034031754E+01  5.716417870E+00 -1.925833285E+02  1.937970765E+02  4.750000000E+00  0.00000E+00  9.000E+00
      21     1     1     2   502   511 -3.134148192E+00 -2.247316842E+00  1.512261218E+01  1.560662414E+01  9.233911863E-07  0.00000E+00  9.000E+00
#rwgt            1           9  -5.5532538396612846E-002          11     1898055           0
</event>
<event>
      6   9999  3.45752E-01  6.79127E+00 -1.00000E+00  2.06828E-01
      21    -1     0     0   502   512  0.000000000E+00  0.000000000E+00  3.000494690E+02  3.000494690E+02  0.000000000E+00  0.00000E+00  9.000E+00
      21    -1     0     0   501   502  0.000000000E+00  0.000000000E+00 -9.098945714E+02  9.098945714E+02  0.000000000E+00  0.00000E+00  9.000E+00
      25     1     1     2     0     0 -5.561440617E+01 -2.608659614E+01 -7.669402512E+02  7.794849447E+02  1.250038296E+02  0.00000E+00  9.000E+00
       5     1     1     2   501     0  4.513422182E+01  3.771262725E+01 -1.178986057E+02  1.318407522E+02  4.750000000E+00  0.00000E+00  9.000E+00
      -5     1     1     2     0   503  7.528581326E+00 -5.509706972E+00 -9.444182457E+00  1.409934360E+01  4.750000000E+00  0.00000E+00  9.000E+00
      21     1     1     2   503   512  2.951603021E+00 -6.116324140E+00  2.844379369E+02  2.845189999E+02  3.814697266E-06  0.00000E+00  9.000E+00
#rwgt            1           9   3.6818528562118862E-002          11     1903902           0
</event>
<event>
      6   9999  3.45752E-01  3.87566E+00 -1.00000E+00  2.50723E-01
      21    -1     0     0   501   502  0.000000000E+00  0.000000000E+00  9.333364394E+00  9.333364394E+00  0.000000000E+00  0.00000E+00  9.000E+00
      21    -1     0     0   511   503  0.000000000E+00  0.000000000E+00 -8.712289701E+02  8.712289701E+02  0.000000000E+00  0.00000E+00  9.000E+00
      25     1     1     2     0     0 -8.855501916E+00 -4.787567570E+00 -6.067361794E+02  6.195610059E+02  1.250028316E+02  0.00000E+00  9.000E+00
       5     1     1     2   501     0  9.928792549E-01  1.468584837E+00  1.391962548E-01  5.071925299E+00  4.750000000E+00  0.00000E+00  9.000E+00
      -5     1     1     2     0   503  1.104687229E+01  5.528351930E+00 -2.241863233E+02  2.245766375E+02  4.750000000E+00  0.00000E+00  9.000E+00
      21     1     1     2   511   502 -3.184249632E+00 -2.209369197E+00 -3.111229933E+01  3.135276586E+01  3.371747881E-07  0.00000E+00  9.000E+00
#rwgt            1           9   7.7915151975687892E-003          11     1907517           0
</event>
<event>
      6   9999  3.45752E-01  2.35449E+01 -1.00000E+00  1.54983E-01
      21    -1     0     0   501   502  0.000000000E+00  0.000000000E+00  9.385182421E+02  9.385182421E+02  0.000000000E+00  0.00000E+00  9.000E+00
      21    -1     0     0   502   512  0.000000000E+00  0.000000000E+00 -7.198846372E+01  7.198846372E+01  0.000000000E+00  0.00000E+00  9.000E+00
      25     1     1     2     0     0 -2.292036128E+01 -1.292517638E+01  8.370874549E+00  1.279612768E+02  1.249464433E+02  0.00000E+00  9.000E+00
       5     1     1     2   501     0  7.657913440E+00 -6.623895164E+00  8.412100187E+02  8.412843619E+02  4.750000000E+00  0.00000E+00  9.000E+00
      -5     1     1     2     0   503  9.091455798E+00 -3.172752803E+00  1.383281565E+01  1.751086000E+01  4.750000000E+00  0.00000E+00  9.000E+00
      21     1     1     2   503   512  6.170992043E+00  2.272182435E+01  3.116069481E+00  2.375020702E+01  1.632340424E-07  0.00000E+00  9.000E+00
#rwgt            1           9   1.5445156054253608E-002          11     1912536           0
</event>
<event>
      6   9999  3.45752E-01  1.02166E+01 -1.00000E+00  1.86219E-01
      21    -1     0     0   501   511  0.000000000E+00  0.000000000E+00  2.497882982E+01  2.497882982E+01  0.000000000E+00  0.00000E+00  9.000E+00
      21    -1     0     0   502   503  0.000000000E+00  0.000000000E+00 -1.076253136E+03  1.076253136E+03  0.000000000E+00  0.00000E+00  9.000E+00
      25     1     1     2     0     0  3.672882140E+00  5.614447275E+01 -9.154951073E+02  9.257022355E+02  1.250105811E+02  0.00000E+00  9.000E+00
       5     1     1     2   501     0 -5.327004186E-01 -1.575016890E+00  1.373031093E+01  1.462355587E+01  4.750000000E+00  0.00000E+00  9.000E+00
      -5     1     1     2     0   503 -1.078876063E+01 -4.779613554E+01 -1.217154738E+02  1.312938954E+02  4.750000000E+00  0.00000E+00  9.000E+00
      21     1     1     2   502   511  7.648578909E+00 -6.773320329E+00 -2.779403570E+01  2.961227867E+01  5.840038640E-07  0.00000E+00  9.000E+00
#rwgt            1           9   3.8564977139233722E-004          11     1914918           0
</event>
<event>
      6   9999  3.45752E-01  8.42416E+00 -1.00000E+00  1.95396E-01
      21    -1     0     0   501   502  0.000000000E+00  0.000000000E+00  1.234110828E+01  1.234110828E+01  0.000000000E+00  0.00000E+00  9.000E+00
      21    -1     0     0   512   503  0.000000000E+00  0.000000000E+00 -1.008925277E+03  1.008925277E+03  0.000000000E+00  0.00000E+00  9.000E+00
      25     1     1     2     0     0 -2.265402839E+01 -3.758371555E+00 -7.060258184E+02  7.173743097E+02  1.250044546E+02  0.00000E+00  9.000E+00
       5     1     1     2   501     0 -2.328629675E-01 -1.476519806E+00  4.989554102E+00  7.049289754E+00  4.750000000E+00  0.00000E+00  9.000E+00
      -5     1     1     2     0   503  1.459125247E+01  6.700769503E+00 -1.290270165E+02  1.301089484E+02  4.750000000E+00  0.00000E+00  9.000E+00
      21     1     1     2   512   502  8.295638878E+00 -1.465878141E+00 -1.665208880E+02  1.667338375E+02  1.907348633E-06  0.00000E+00  9.000E+00
#rwgt            1           9   9.3789784764707407E-005          11     1918171           0
</event>
<event>
      6   9999  3.45752E-01  9.40406E+00 -1.00000E+00  1.90049E-01
      21    -1     0     0   501   502  0.000000000E+00  0.000000000E+00  1.073589368E+01  1.073589368E+01  0.000000000E+00  0.00000E+00  9.000E+00
      21    -1     0     0   502   511  0.000000000E+00  0.000000000E+00 -9.456176119E+02  9.456176119E+02  0.000000000E+00  0.00000E+00  9.000E+00
      25     1     1     2     0     0 -2.187689450E+01  4.425643927E+00 -6.237382062E+02  6.365314066E+02  1.249987871E+02  0.00000E+00  9.000E+00
       5     1     1     2   501     0 -1.607460407E+00  2.167060164E+00  1.240853096E+00  5.601990282E+00  4.750000000E+00  0.00000E+00  9.000E+00
      -5     1     1     2     0   503  2.215279105E+01  2.716603015E+00 -1.698622166E+02  1.713880428E+02  4.750000000E+00  0.00000E+00  9.000E+00
      21     1     1     2   503   511  1.331563855E+00 -9.309307106E+00 -1.425221485E+02  1.428320660E+02  0.000000000E+00  0.00000E+00  9.000E+00
#rwgt            1           9   3.2498317333435360E-005          11     1921117           0
</event>
<event>
      6   9999  3.45752E-01  4.03922E+00 -1.00000E+00  2.46976E-01
      21    -1     0     0   501   502  0.000000000E+00  0.000000000E+00  3.261043096E+02  3.261043096E+02  0.000000000E+00  0.00000E+00  9.000E+00
      21    -1     0     0   502   512  0.000000000E+00  0.000000000E+00 -2.339221505E+02  2.339221505E+02  0.000000000E+00  0.00000E+00  9.000E+00
      25     1     1     2     0     0  1.377814462E+02 -1.131557789E+01  2.000782958E+02  2.734361261E+02  1.249968855E+02  0.00000E+00  9.000E+00
       5     1     1     2   501     0 -3.084683241E-01  3.507148015E+00  6.355928868E+01  6.383369735E+01  4.750000000E+00  0.00000E+00  9.000E+00
      -5     1     1     2     0   503 -1.375152332E+02  1.184742597E+01 -1.653963949E+02  2.154746640E+02  4.750000000E+00  0.00000E+00  9.000E+00
      21     1     1     2   503   512  4.225526250E-02 -4.038996096E+00 -6.059030505E+00  7.281972647E+00  8.429369702E-08  0.00000E+00  9.000E+00
#rwgt            1           9   9.6216518552313703E-003          11     1923813           0
</event>
<event>
      6   9999  3.45752E-01  2.98967E+01 -1.00000E+00  1.47935E-01
      21    -1     0     0   501   502  0.000000000E+00  0.000000000E+00  5.916072732E+01  5.916072732E+01  0.000000000E+00  0.00000E+00  9.000E+00
       1    -1     0     0   502     0  0.000000000E+00  0.000000000E+00 -2.766915532E+03  2.766915532E+03  0.000000000E+00  0.00000E+00  9.000E+00
      25     1     1     2     0     0  1.663124414E+01  4.695298768E+01 -8.252676849E+01  1.578511314E+02  1.250005233E+02  0.00000E+00  9.000E+00
       5     1     1     2   501     0  7.631032549E-01 -7.650024068E+00  1.950133739E+01  2.149348401E+01  4.750000000E+00  0.00000E+00  9.000E+00
      -5     1     1     2     0   503 -2.760209906E+00 -6.537316019E+01 -1.284920549E+03  1.286594205E+03  4.750000000E+00  0.00000E+00  9.000E+00
       1     1     1     2   503     0 -1.463413749E+01  2.607019658E+01 -1.359808825E+03  1.360137440E+03  2.642899792E-05  0.00000E+00  9.000E+00
#rwgt            1           9   9.9085995901524639E-003          11     1931941           0
</event>
<event>
      6   9999  3.45752E-01  3.84727E+01 -1.00000E+00  1.41173E-01
      21    -1     0     0   502   503  0.000000000E+00  0.000000000E+00  1.372742274E+01  1.372742274E+01  0.000000000E+00  0.00000E+00  9.000E+00
      21    -1     0     0   511   502  0.000000000E+00  0.000000000E+00 -2.682929021E+03  2.682929021E+03  0.000000000E+00  0.00000E+00  9.000E+00
      25     1     1     2     0     0 -5.608572399E+00  3.303732085E+01 -6.085672674E+02  6.221746896E+02  1.249972190E+02  0.00000E+00  9.000E+00
       5     1     1     2   501     0  1.034626026E+01  1.719008290E+01 -1.166808710E+02  1.184885320E+02  4.750000000E+00  0.00000E+00  9.000E+00
      -5     1     1     2     0   503 -4.292375494E+01 -4.553958292E+01 -1.636143497E+02  1.752384669E+02  4.750000000E+00  0.00000E+00  9.000E+00
      21     1     1     2   511   501  3.818606708E+01 -4.687820827E+00 -1.780339111E+03  1.780754756E+03  0.000000000E+00  0.00000E+00  9.000E+00
#rwgt            1           9  0.67447912332595106               11     1933883           0
</event>
<event>
      6   9999  3.45752E-01  8.71254E+00 -1.00000E+00  1.93727E-01
      21    -1     0     0   512   502  0.000000000E+00  0.000000000E+00  2.419060090E+02  2.419060090E+02  0.000000000E+00  0.00000E+00  9.000E+00
      21    -1     0     0   502   503  0.000000000E+00  0.000000000E+00 -9.133056206E+02  9.133056206E+02  0.000000000E+00  0.00000E+00  9.000E+00
      25     1     1     2     0     0 -1.476796163E+01  1.344748707E+01 -6.526320228E+02  6.647968050E+02  1.250092281E+02  0.00000E+00  9.000E+00
       5     1     1     2   501     0 -1.741871227E-01  1.693949144E+00  8.808750854E+00  1.015166964E+01  4.750000000E+00  0.00000E+00  9.000E+00
      -5     1     1     2     0   503  6.301733083E+00 -1.402273578E+01 -2.535808118E+02  2.540908097E+02  4.750000000E+00  0.00000E+00  9.000E+00
      21     1     1     2   512   501  8.640415674E+00 -1.118700438E+00  2.260044722E+02  2.261723452E+02  3.814697266E-06  0.00000E+00  9.000E+00
#rwgt            1           9   1.7515363500008570E-003          11     1935294           0
</event>
<event>
      6   9999  3.45752E-01  1.90449E+01 -1.00000E+00  1.61850E-01
      21    -1     0     0   511   502  0.000000000E+00  0.000000000E+00  7.496225756E+00  7.496225756E+00  0.000000000E+00  0.00000E+00  9.000E+00
      21    -1     0     0   502   503  0.000000000E+00  0.000000000E+00 -1.791802213E+03  1.791802213E+03  0.000000000E+00  0.00000E+00  9.000E+00
      25     1     1     2     0     0  9.041086096E+00 -1.618739654E+01 -1.600865246E+03  1.605844859E+03  1.249976153E+02  0.00000E+00  9.000E+00
       5     1     1     2   501     0 -2.058029393E+00 -1.917934074E+00 -8.551845538E-01  5.586393892E+00  4.750000000E+00  0.00000E+00  9.000E+00
      -5     1     1     2     0   503 -1.537895792E+01  1.010920096E+00 -1.433426807E+02  1.442470829E+02  4.750000000E+00  0.00000E+00  9.000E+00
      21     1     1     2   511   501  8.395901216E+00  1.709441051E+01 -3.924287607E+01  4.362010259E+01  1.066240300E-06  0.00000E+00  9.000E+00
#rwgt            1           9   2.8612620029661707E-004          11     1938672           0
</event>
<event>
      6   9999  3.45752E-01  4.75240E+00 -1.00000E+00  2.33311E-01
      21    -1     0     0   501   512  0.000000000E+00  0.000000000E+00  7.088422106E+01  7.088422106E+01  0.000000000E+00  0.00000E+00  9.000E+00
      21    -1     0     0   502   503  0.000000000E+00  0.000000000E+00 -1.404106836E+03  1.404106836E+03  0.000000000E+00  0.00000E+00  9.000E+00
      25     1     1     2     0     0  9.141274555E+01 -8.318797396E+01 -2.689315007E+02  3.212871404E+02  1.249989817E+02  0.00000E+00  9.000E+00
       5     1     1     2   501     0 -2.518064403E+00 -5.134831332E+00  4.007231972E+01  4.075610934E+01  4.750000000E+00  0.00000E+00  9.000E+00
      -5     1     1     2     0   503 -8.425123645E+01  8.933460300E+01 -1.098715333E+03  1.105566320E+03  4.750000000E+00  0.00000E+00  9.000E+00
      21     1     1     2   502   512 -4.643444702E+00 -1.011797708E+00 -5.648100940E+00  7.381487488E+00  1.192092896E-07  0.00000E+00  9.000E+00
#rwgt            1           9   2.6744486165241853E-003          11     1940111           0
</event>
<event>
      6   9999 -3.45752E-01  2.91128E+01 -1.00000E+00  1.48686E-01
      21    -1     0     0   501   511  0.000000000E+00  0.000000000E+00  1.350362002E+02  1.350362002E+02  0.000000000E+00  0.00000E+00  9.000E+00
      21    -1     0     0   502   503  0.000000000E+00  0.000000000E+00 -1.574134553E+03  1.574134553E+03  0.000000000E+00  0.00000E+00  9.000E+00
      25     1     1     2     0     0 -1.217030400E+01  1.259550992E+01 -1.543629661E+03  1.548781537E+03  1.249998327E+02  0.00000E+00  9.000E+00
       5     1     1     2   501     0  1.085959478E+01  2.246516284E+01  7.800828850E+01  8.203944122E+01  4.750000000E+00  0.00000E+00  9.000E+00
      -5     1     1     2     0   503  1.176202466E+00 -5.948167233E+00 -2.113968437E+01  2.249917556E+01  4.750000000E+00  0.00000E+00  9.000E+00
      21     1     1     2   502   511  1.345067513E-01 -2.911250552E+01  4.766270384E+01  5.585059899E+01  0.000000000E+00  0.00000E+00  9.000E+00
#rwgt            1           9  -4.1111720135142043E-003          11     1947114           0
</event>
<event>
      6   9999  3.45752E-01  3.44511E+01 -1.00000E+00  1.44054E-01
       3    -1     0     0   502     0  0.000000000E+00  0.000000000E+00  3.959658810E+01  3.959658810E+01  0.000000000E+00  0.00000E+00  9.000E+00
      21    -1     0     0   501   502  0.000000000E+00  0.000000000E+00 -8.625324926E+02  8.625324926E+02  0.000000000E+00  0.00000E+00  9.000E+00
      25     1     1     2     0     0  3.272710828E+01 -1.980344819E+01 -4.907603352E+02  5.078717078E+02  1.249988989E+02  0.00000E+00  9.000E+00
       5     1     1     2   501     0  1.684945085E+01  1.477910715E+01 -1.164514925E+02  1.186837757E+02  4.750000000E+00  0.00000E+00  9.000E+00
      -5     1     1     2     0   503 -3.458258669E+01  3.604138271E+01 -2.320766333E+02  2.374385453E+02  4.750000000E+00  0.00000E+00  9.000E+00
       3     1     1     2   503     0 -1.499397244E+01 -3.101704166E+01  1.635255654E+01  3.813505196E+01  1.507891493E-06  0.00000E+00  9.000E+00
#rwgt            1           9   5.5017662798019749E-002          11     1949206           0
</event>
<event>
      6   9999  3.45752E-01  9.83253E+01 -1.00000E+00  1.20748E-01
      21    -1     0     0   511   502  0.000000000E+00  0.000000000E+00  9.544981659E+01  9.544981659E+01  0.000000000E+00  0.00000E+00  9.000E+00
      21    -1     0     0   502   503  0.000000000E+00  0.000000000E+00 -1.053298551E+03  1.053298551E+03  0.000000000E+00  0.00000E+00  9.000E+00
      25     1     1     2     0     0  9.938522440E+01  1.205132629E+02 -8.929853309E+02  9.151209978E+02  1.249910801E+02  0.00000E+00  9.000E+00
       5     1     1     2   501     0 -3.353416245E+01 -4.711119257E+01 -7.681502775E+01  9.626585845E+01  4.750000000E+00  0.00000E+00  9.000E+00
      -5     1     1     2     0   503  1.215816640E+00 -1.500046176E+00 -3.001855156E+01  3.045331323E+01  4.750000000E+00  0.00000E+00  9.000E+00
      21     1     1     2   511   501 -6.706687860E+01 -7.190202411E+01  4.197017541E+01  1.069081985E+02  9.536743164E-07  0.00000E+00  9.000E+00
#rwgt            1           9   1.6389466732686427E-003          11     1950768           0
</event>
<event>
      6   9999  3.45752E-01  7.85218E+00 -1.00000E+00  1.98979E-01
      21    -1     0     0   512   502  0.000000000E+00  0.000000000E+00  7.269651263E+01  7.269651263E+01  0.000000000E+00  0.00000E+00  9.000E+00
      21    -1     0     0   502   503  0.000000000E+00  0.000000000E+00 -1.155773830E+02  1.155773830E+02  0.000000000E+00  0.00000E+00  9.000E+00
      25     1     1     2     0     0  1.562081841E+01  1.984655455E+01 -6.964862897E+01  1.453066003E+02  1.250007235E+02  0.00000E+00  9.000E+00
       5     1     1     2   501     0  4.653024393E-01 -1.517264863E-01  1.047714040E+01  1.151401312E+01  4.750000000E+00  0.00000E+00  9.000E+00
      -5     1     1     2     0   503 -1.182538664E+01 -1.309915645E+01  1.467143545E+01  2.343589527E+01  4.750000000E+00  0.00000E+00  9.000E+00
      21     1     1     2   512   501 -4.260734214E+00 -6.595671607E+00  1.619182787E+00  8.017386912E+00  1.737759082E-07  0.00000E+00  9.000E+00
#rwgt            1           9   2.9304606325748029E-004          11     1951275           0
</event>
<event>
      6   9999  3.45752E-01  3.76588E+00 -1.00000E+00  2.53399E-01
      21    -1     0     0   501   502  0.000000000E+00  0.000000000E+00  7.877601078E+01  7.877601078E+01  0.000000000E+00  0.00000E+00  9.000E+00
      21    -1     0     0   511   503  0.000000000E+00  0.000000000E+00 -2.867579659E+02  2.867579659E+02  0.000000000E+00  0.00000E+00  9.000E+00
      25     1     1     2     0     0  9.094118048E+00  9.573251372E+00 -1.473085138E+02  1.936461551E+02  1.249987401E+02  0.00000E+00  9.000E+00
       5     1     1     2   501     0 -2.374720731E+00 -2.270403225E-01  5.060190948E+01  5.088031632E+01  4.750000000E+00  0.00000E+00  9.000E+00
      -5     1     1     2     0   503 -3.139598662E+00 -1.051536017E+01 -2.562468603E+00  1.222941637E+01  4.750000000E+00  0.00000E+00  9.000E+00
      21     1     1     2   511   502 -3.579798655E+00  1.169149125E+00 -1.087128822E+02  1.087780889E+02  0.000000000E+00  0.00000E+00  9.000E+00
#rwgt            1           9   6.2110979934230735E-003          11     1954124           0
</event>
<event>
      6   9999  3.45752E-01  1.28412E+01 -1.00000E+00  1.76435E-01
      21    -1     0     0   501   512  0.000000000E+00  0.000000000E+00  1.372845243E+01  1.372845243E+01  0.000000000E+00  0.00000E+00  9.000E+00
      21    -1     0     0   502   503  0.000000000E+00  0.000000000E+00 -1.212604211E+03  1.212604211E+03  0.000000000E+00  0.00000E+00  9.000E+00
      25     1     1     2     0     0 -2.089468351E+00 -1.020074214E+01 -1.041988099E+03  1.049510133E+03  1.249955936E+02  0.00000E+00  9.000E+00
       5     1     1     2   501     0 -1.166135549E+00 -1.130678961E+00 -8.166052912E+00  9.585678233E+00  4.750000000E+00  0.00000E+00  9.000E+00
      -5     1     1     2     0   503 -5.550303713E+00  1.985177136E+00 -1.533875346E+02  1.535742331E+02  4.750000000E+00  0.00000E+00  9.000E+00
      21     1     1     2   502   512  8.805907614E+00  9.346243962E+00  4.665928221E+00  1.366261949E+01  7.468440584E-07  0.00000E+00  9.000E+00
#rwgt            1           9  0.15141792425381731               11     1959557           0
</event>
<event>
      6   9999  3.45752E-01  7.55802E+00 -1.00000E+00  2.00983E-01
      21    -1     0     0   501   511  0.000000000E+00  0.000000000E+00  1.095342001E+01  1.095342001E+01  0.000000000E+00  0.00000E+00  9.000E+00
      21    -1     0     0   502   503  0.000000000E+00  0.000000000E+00 -8.515318904E+02  8.515318904E+02  0.000000000E+00  0.00000E+00  9.000E+00
      25     1     1     2     0     0 -1.281286544E+01 -3.258566499E+00 -8.129227107E+02  8.225835703E+02  1.250024345E+02  0.00000E+00  9.000E+00
       5     1     1     2   501     0 -2.785810822E+00 -2.849212190E-01  1.014801430E+00  5.606625008E+00  4.750000000E+00  0.00000E+00  9.000E+00
      -5     1     1     2     0   503  8.319025509E+00  5.575803524E+00 -1.929958932E+01  2.225606475E+01  4.750000000E+00  0.00000E+00  9.000E+00
      21     1     1     2   502   511  7.279650751E+00 -2.032315805E+00 -9.370971776E+00  1.203905040E+01  5.462855929E-07  0.00000E+00  9.000E+00
#rwgt            1           9   3.7932126410994345E-004          11     1961176           0
</event>
<event>
      6   9999  3.45752E-01  1.02812E+01 -1.00000E+00  1.85934E-01
      21    -1     0     0   501   512  0.000000000E+00  0.000000000E+00  8.226125090E+00  8.226125090E+00  0.000000000E+00  0.00000E+00  9.000E+00
      21    -1     0     0   502   503  0.000000000E+00  0.000000000E+00 -7.538361601E+02  7.538361601E+02  0.000000000E+00  0.00000E+00  9.000E+00
      25     1     1     2     0     0  1.015352907E+01 -8.887213304E+00 -6.861464059E+02  6.975696701E+02  1.249979104E+02  0.00000E+00  9.000E+00
       5     1     1     2   501     0 -3.462539127E+00 -1.594930850E+00 -5.237360233E+00  8.032771865E+00  4.750000000E+00  0.00000E+00  9.000E+00
      -5     1     1     2     0   503 -2.388284954E+00  1.144570361E+00 -1.817662157E+01  1.897277044E+01  4.750000000E+00  0.00000E+00  9.000E+00
      21     1     1     2   502   512 -4.302704994E+00  9.337573792E+00 -3.604964732E+01  3.748707279E+01  6.743495762E-07  0.00000E+00  9.000E+00
#rwgt            1           9   7.6640170266566963E-003          11     1964047           0
</event>
<event>
      6   9999  3.45752E-01  6.50347E+00 -1.00000E+00  2.09297E-01
      21    -1     0     0   501   502  0.000000000E+00  0.000000000E+00  9.965112142E+00  9.965112142E+00  0.000000000E+00  0.00000E+00  9.000E+00
      21    -1     0     0   502   511  0.000000000E+00  0.000000000E+00 -1.585861161E+03  1.585861161E+03  0.000000000E+00  0.00000E+00  9.000E+00
      25     1     1     2     0     0 -9.008142178E+00  4.814098213E+00 -6.862670558E+02  6.976311681E+02  1.249898105E+02  0.00000E+00  9.000E+00
       5     1     1     2   501     0 -2.006202547E+00 -2.418754547E+00  2.074086714E+00  6.061316516E+00  4.750000000E+00  0.00000E+00  9.000E+00
      -5     1     1     2     0   503  6.118965506E+00 -6.676749606E+00 -1.295667981E+02  1.299697595E+02  4.750000000E+00  0.00000E+00  9.000E+00
      21     1     1     2   503   511  4.895379218E+00  4.281405941E+00 -7.621362816E+02  7.621640289E+02  1.525878906E-05  0.00000E+00  9.000E+00
#rwgt            1           9   6.4689062131554245E-005          11     1965925           0
</event>
<event>
      6   9999 -3.45752E-01  1.43576E+01 -1.00000E+00  1.72036E-01
      21    -1     0     0   501   502  0.000000000E+00  0.000000000E+00  7.098226184E+01  7.098226184E+01  0.000000000E+00  0.00000E+00  9.000E+00
       2    -1     0     0   502     0  0.000000000E+00  0.000000000E+00 -2.711346120E+03  2.711346120E+03  0.000000000E+00  0.00000E+00  9.000E+00
      25     1     1     2     0     0  2.977025734E+01  7.448467940E-01 -1.276013422E+03  1.282467750E+03  1.250058129E+02  0.00000E+00  9.000E+00
       5     1     1     2   501     0 -2.110807149E+01  3.942628103E+00  6.540044961E+01  6.899910367E+01  4.750000000E+00  0.00000E+00  9.000E+00
      -5     1     1     2     0   503 -1.964825824E+01  4.556225728E+00 -2.086862824E+02  2.097125180E+02  4.750000000E+00  0.00000E+00  9.000E+00
       2     1     1     2   503     0  1.098607239E+01 -9.243700625E+00 -1.221064604E+03  1.221149011E+03  2.642899792E-05  0.00000E+00  9.000E+00
#rwgt            1           9  -6.8237642568244725E-005          11     1968969           0
</event>
<event>
      6   9999  3.45752E-01  9.32934E+00 -1.00000E+00  1.90426E-01
      21    -1     0     0   511   502  0.000000000E+00  0.000000000E+00  2.501009414E+01  2.501009414E+01  0.000000000E+00  0.00000E+00  9.000E+00
      21    -1     0     0   502   503  0.000000000E+00  0.000000000E+00 -3.426242118E+02  3.426242118E+02  0.000000000E+00  0.00000E+00  9.000E+00
      25     1     1     2     0     0 -1.952245968E+01 -1.313670553E+01 -2.206674195E+02  2.547008793E+02  1.249989138E+02  0.00000E+00  9.000E+00
       5     1     1     2   501     0 -6.513252937E-02 -3.004046737E-01 -7.794640454E+00  9.133093946E+00  4.750000000E+00  0.00000E+00  9.000E+00
      -5     1     1     2     0   503  1.690223310E+01  4.502601559E+00 -9.221627975E+01  9.398065576E+01  4.750000000E+00  0.00000E+00  9.000E+00
      21     1     1     2   511   501  2.685359106E+00  8.934508641E+00  3.064222007E+00  9.819676914E+00  1.519626234E-07  0.00000E+00  9.000E+00
#rwgt            1           9   1.3847394864671993E-003          11     1972407           0
</event>
<event>
      6   9999  3.45752E-01  6.82039E+00 -1.00000E+00  2.06588E-01
      21    -1     0     0   501   502  0.000000000E+00  0.000000000E+00  1.158164270E+03  1.158164270E+03  0.000000000E+00  0.00000E+00  9.000E+00
      21    -1     0     0   512   503  0.000000000E+00  0.000000000E+00 -4.489550276E+01  4.489550276E+01  0.000000000E+00  0.00000E+00  9.000E+00
      25     1     1     2     0     0 -5.412558378E+01  6.089540641E+01  2.580733435E+02  2.981039019E+02  1.250050254E+02  0.00000E+00  9.000E+00
       5     1     1     2   501     0  5.858879197E+00 -1.830008201E+00  8.195670295E+02  8.196037785E+02  4.750000000E+00  0.00000E+00  9.000E+00
      -5     1     1     2     0   503  4.650530710E+01 -5.247638199E+01  2.963043878E+01  7.626951985E+01  4.750000000E+00  0.00000E+00  9.000E+00
      21     1     1     2   512   502  1.761397487E+00 -6.589016216E+00  5.997955904E+00  9.082572919E+00  2.230201594E-07  0.00000E+00  9.000E+00
#rwgt            1           9   62.697531502671914               11     1974882           0
</event>
<event>
      6   9999  3.45752E-01  2.89390E+01 -1.00000E+00  1.48857E-01
      21    -1     0     0   511   502  0.000000000E+00  0.000000000E+00  4.371008543E+03  4.371008543E+03  0.000000000E+00  0.00000E+00  9.000E+00
      21    -1     0     0   502   503  0.000000000E+00  0.000000000E+00 -3.384344962E+01  3.384344962E+01  0.000000000E+00  0.00000E+00  9.000E+00
      25     1     1     2     0     0 -7.265249943E+01 -2.682446816E+02  2.358204245E+03  2.377811189E+03  1.250007682E+02  0.00000E+00  9.000E+00
       5     1     1     2   501     0  8.019017871E-01  1.763158581E-01  1.010792156E+03  1.010803651E+03  4.750000000E+00  0.00000E+00  9.000E+00
      -5     1     1     2     0   503  4.292376042E+01  2.689080559E+02  7.875211103E+02  8.332862974E+02  4.750000000E+00  0.00000E+00  9.000E+00
      21     1     1     2   511   501  2.892683722E+01 -8.396902451E-01  1.806475811E+02  1.829508556E+02  0.000000000E+00  0.00000E+00  9.000E+00
#rwgt            1           9   1.2698337891819263E-005          11     1979659           0
</event>
<event>
      6   9999  3.45752E-01  1.95840E+01 -1.00000E+00  1.60910E-01
      21    -1     0     0   512   502  0.000000000E+00  0.000000000E+00  1.004205799E+02  1.004205799E+02  0.000000000E+00  0.00000E+00  9.000E+00
      21    -1     0     0   502   503  0.000000000E+00  0.000000000E+00 -1.879807075E+02  1.879807075E+02  0.000000000E+00  0.00000E+00  9.000E+00
      25     1     1     2     0     0 -7.406536026E+00  3.122959059E+01 -9.400131215E+01  1.596650401E+02  1.250061369E+02  0.00000E+00  9.000E+00
       5     1     1     2   501     0 -3.177972470E+00  2.987336066E+00  2.606000805E+01  2.684604636E+01  4.750000000E+00  0.00000E+00  9.000E+00
      -5     1     1     2     0   503  5.657811032E+00 -1.526272133E+01 -5.711978707E+01  5.958350495E+01  4.750000000E+00  0.00000E+00  9.000E+00
      21     1     1     2   512   501  4.926697465E+00 -1.895420533E+01  3.750096363E+01  4.230669593E+01  6.743495762E-07  0.00000E+00  9.000E+00
#rwgt            1           9   1.1257656430668294E-004          11     1982289           0
</event>
<event>
      6   9999  3.45752E-01  8.28645E+00 -1.00000E+00  1.96223E-01
      21    -1     0     0   501   502  0.000000000E+00  0.000000000E+00  1.018253220E+01  1.018253220E+01  0.000000000E+00  0.00000E+00  9.000E+00
      21    -1     0     0   511   503  0.000000000E+00  0.000000000E+00 -2.036131873E+03  2.036131873E+03  0.000000000E+00  0.00000E+00  9.000E+00
      25     1     1     2     0     0  1.028985122E+00 -2.799646023E+00 -7.708315836E+02  7.809051387E+02  1.249904340E+02  0.00000E+00  9.000E+00
       5     1     1     2   501     0 -1.366107085E+00 -2.664071510E+00  2.840168172E+00  6.292263569E+00  4.750000000E+00  0.00000E+00  9.000E+00
      -5     1     1     2     0   503  5.386123625E-01 -2.820286483E+00 -1.304743408E+01  1.417893350E+01  4.750000000E+00  0.00000E+00  9.000E+00
      21     1     1     2   511   502 -2.014903998E-01  8.284004016E+00 -1.244910491E+03  1.244938069E+03  0.000000000E+00  0.00000E+00  9.000E+00
#rwgt            1           9   6.1258207499976109E-007          11     1984082           0
</event>
<event>
      6   9999  3.45752E-01  2.26912E+01 -1.00000E+00  1.56135E-01
      21    -1     0     0   502   503  0.000000000E+00  0.000000000E+00  1.776216394E+01  1.776216394E+01  0.000000000E+00  0.00000E+00  9.000E+00
      21    -1     0     0   501   512  0.000000000E+00  0.000000000E+00 -4.973116873E+02  4.973116873E+02  0.000000000E+00  0.00000E+00  9.000E+00
      25     1     1     2     0     0  2.112295065E+01  2.945114672E+00 -2.394333664E+02  2.709354836E+02  1.249913861E+02  0.00000E+00  9.000E+00
       5     1     1     2   501     0  1.023591595E+00  1.571648759E+00 -6.695891762E+01  6.715338389E+01  4.750000000E+00  0.00000E+00  9.000E+00
      -5     1     1     2     0   503 -5.578451404E+00  1.098773629E+01 -8.135613494E+01  8.242106928E+01  4.750000000E+00  0.00000E+00  9.000E+00
      21     1     1     2   502   512 -1.656809084E+01 -1.550449972E+01 -9.180110450E+01  9.456391454E+01  2.336015456E-06  0.00000E+00  9.000E+00
#rwgt            1           9  0.33026275700128122               11     1986454           0
</event>
<event>
      6   9999 -3.45752E-01  1.63263E+01 -1.00000E+00  1.67243E-01
      21    -1     0     0   501   511  0.000000000E+00  0.000000000E+00  2.136073702E+01  2.136073702E+01  0.000000000E+00  0.00000E+00  9.000E+00
      21    -1     0     0   502   503  0.000000000E+00  0.000000000E+00 -9.940332783E+02  9.940332783E+02  0.000000000E+00  0.00000E+00  9.000E+00
      25     1     1     2     0     0  2.528875497E+01 -3.851694721E+01 -8.760882756E+02  8.861592544E+02  1.249979253E+02  0.00000E+00  9.000E+00
       5     1     1     2   501     0  2.590640095E+00  2.362021692E+00  7.461763252E+00  9.514776582E+00  4.750000000E+00  0.00000E+00  9.000E+00
      -5     1     1     2     0   503 -1.175647648E+01  3.872408791E+01 -5.813963560E+01  7.099682705E+01  4.750000000E+00  0.00000E+00  9.000E+00
      21     1     1     2   502   511 -1.612291858E+01 -2.569162389E+00 -4.590639335E+01  4.872315722E+01  6.743495762E-07  0.00000E+00  9.000E+00
#rwgt            1           9  -1.1992863195119352E-004          11     1987591           0
</event>
<event>
      6   9999  3.45752E-01  6.44104E+00 -1.00000E+00  2.09855E-01
      21    -1     0     0   501   502  0.000000000E+00  0.000000000E+00  3.002094942E+01  3.002094942E+01  0.000000000E+00  0.00000E+00  9.000E+00
      21    -1     0     0   502   512  0.000000000E+00  0.000000000E+00 -2.885958456E+02  2.885958456E+02  0.000000000E+00  0.00000E+00  9.000E+00
      25     1     1     2     0     0  7.264497028E-01 -2.080094211E+01 -1.354467848E+02  1.854830631E+02  1.249997130E+02  0.00000E+00  9.000E+00
       5     1     1     2   501     0  5.245302168E-01  3.170559873E-01  4.082747902E-01  4.806749916E+00  4.750000000E+00  0.00000E+00  9.000E+00
      -5     1     1     2     0   503  2.166250560E+00  2.594369727E+01 -7.869831462E+01  8.302864141E+01  4.750000000E+00  0.00000E+00  9.000E+00
      21     1     1     2   503   512 -3.417230479E+00 -5.459811149E+00 -4.483807157E+01  4.529834063E+01  4.768371582E-07  0.00000E+00  9.000E+00
#rwgt            1           9   3.2956516652256476E-004          11     1990561           0
</event>
<event>
      6   9999  3.45752E-01  1.52681E+01 -1.00000E+00  1.69707E-01
      21    -1     0     0   501   502  0.000000000E+00  0.000000000E+00  1.792256910E+01  1.792256910E+01  0.000000000E+00  0.00000E+00  9.000E+00
      21    -1     0     0   511   503  0.000000000E+00  0.000000000E+00 -9.930585485E+02  9.930585485E+02  0.000000000E+00  0.00000E+00  9.000E+00
      25     1     1     2     0     0 -9.790082762E+00 -6.552929637E+00 -7.745260131E+02  7.846373735E+02  1.250059056E+02  0.00000E+00  9.000E+00
       5     1     1     2   501     0  1.881528762E+00 -7.701998837E+00  1.059734587E+01  1.406154956E+01  4.750000000E+00  0.00000E+00  9.000E+00
      -5     1     1     2     0   503  3.048075351E+00 -2.188708941E-01 -7.761192366E+01  7.781716945E+01  4.750000000E+00  0.00000E+00  9.000E+00
      21     1     1     2   511   502  4.860478650E+00  1.447379937E+01 -1.335953885E+02  1.344650250E+02  1.907348633E-06  0.00000E+00  9.000E+00
#rwgt            1           9   1.5909284265483903E-003          11     1993887           0
</event>
<event>
      6   9999  3.45752E-01  4.63514E+00 -1.00000E+00  2.35307E-01
      21    -1     0     0   501   502  0.000000000E+00  0.000000000E+00  2.546806288E+02  2.546806288E+02  0.000000000E+00  0.00000E+00  9.000E+00
      21    -1     0     0   502   512  0.000000000E+00  0.000000000E+00 -4.896073034E+01  4.896073034E+01  0.000000000E+00  0.00000E+00  9.000E+00
      25     1     1     2     0     0  7.808700690E+00  3.891274189E+00  4.368492233E+01  1.326962544E+02  1.249952225E+02  0.00000E+00  9.000E+00
       5     1     1     2   501     0 -1.877826527E+00  1.943209875E+00  1.546263395E+02  1.547228802E+02  4.750000000E+00  0.00000E+00  9.000E+00
      -5     1     1     2     0   503 -1.820163804E+00 -3.692863774E+00  9.292502115E+00  1.121888295E+01  4.750000000E+00  0.00000E+00  9.000E+00
      21     1     1     2   503   512 -4.110710359E+00 -2.141620289E+00 -1.883865552E+00  5.003341537E+00  1.381876841E-07  0.00000E+00  9.000E+00
#rwgt            1           9   1.0097768996267362E-003          11     1995847           0
</event>
<event>
      6   9999  3.45752E-01  7.32943E+00 -1.00000E+00  2.02626E-01
      21    -1     0     0   511   502  0.000000000E+00  0.000000000E+00  7.045011690E+01  7.045011690E+01  0.000000000E+00  0.00000E+00  9.000E+00
      21    -1     0     0   502   503  0.000000000E+00  0.000000000E+00 -1.553009573E+03  1.553009573E+03  0.000000000E+00  0.00000E+00  9.000E+00
      25     1     1     2     0     0 -2.354954047E+02  6.742323766E+01 -1.159640141E+03  1.191803352E+03  1.250039719E+02  0.00000E+00  9.000E+00
       5     1     1     2   501     0 -2.385714894E-02 -1.158807387E+00  1.230867643E+01  1.324422211E+01  4.750000000E+00  0.00000E+00  9.000E+00
      -5     1     1     2     0   503  2.353505317E+02 -5.893693957E+01 -3.288848342E+02  4.087190138E+02  4.750000000E+00  0.00000E+00  9.000E+00
      21     1     1     2   511   501  1.687302110E-01 -7.327490698E+00 -6.343156745E+00  9.693102048E+00  1.460009660E-07  0.00000E+00  9.000E+00
#rwgt            1           9   6.6230765240063463E-005          11     2001917           0
</event>
<event>
      6   9999  3.45752E-01  4.34210E+01 -1.00000E+00  1.38150E-01
      21    -1     0     0   501   512  0.000000000E+00  0.000000000E+00  9.110351075E+02  9.110351075E+02  0.000000000E+00  0.00000E+00  9.000E+00
      21    -1     0     0   502   503  0.000000000E+00  0.000000000E+00 -1.390434726E+02  1.390434726E+02  0.000000000E+00  0.00000E+00  9.000E+00
      25     1     1     2     0     0  6.836526869E+00 -3.878695766E+01 -8.412737707E+01  1.557783882E+02  1.250532865E+02  0.00000E+00  9.000E+00
       5     1     1     2   501     0 -7.531139128E-01 -8.097518258E+00  8.013177116E+02  8.013730557E+02  4.750000000E+00  0.00000E+00  9.000E+00
      -5     1     1     2     0   503 -1.419849611E+01  4.228539704E+00 -7.272877392E+00  1.717367419E+01  4.750000000E+00  0.00000E+00  9.000E+00
      21     1     1     2   502   512  8.115083152E+00  4.265593621E+01  6.207417777E+01  7.575346206E+01  0.000000000E+00  0.00000E+00  9.000E+00
#rwgt            1           9   2.2718798709935777E-003          11     2007604           0
</event>
<event>
      6   9999  3.45752E-01  2.64937E+01 -1.00000E+00  1.51417E-01
      21    -1     0     0   501   511  0.000000000E+00  0.000000000E+00  1.837364488E+01  1.837364488E+01  0.000000000E+00  0.00000E+00  9.000E+00
      21    -1     0     0   502   503  0.000000000E+00  0.000000000E+00 -9.769678849E+02  9.769678849E+02  0.000000000E+00  0.00000E+00  9.000E+00
      25     1     1     2     0     0 -2.788200109E+01  2.189098448E+00 -8.351884967E+02  8.449563261E+02  1.250166780E+02  0.00000E+00  9.000E+00
       5     1     1     2   501     0 -1.836581838E+00 -3.746104359E+00  3.508174905E+00  7.230222810E+00  4.750000000E+00  0.00000E+00  9.000E+00
      -5     1     1     2     0   503  3.010984318E+01 -2.493377458E+01 -6.849120316E+01  7.900571614E+01  4.750000000E+00  0.00000E+00  9.000E+00
      21     1     1     2   502   511 -3.912602580E-01  2.649078050E+01 -5.842271498E+01  6.414926470E+01  1.168007728E-06  0.00000E+00  9.000E+00
#rwgt            1           9   1.4463961853236637E-003          11     2009121           0
</event>
<event>
      6   9999  3.45752E-01  7.01242E+00 -1.00000E+00  2.05040E-01
      21    -1     0     0   502   503  0.000000000E+00  0.000000000E+00  2.407620293E+03  2.407620293E+03  0.000000000E+00  0.00000E+00  9.000E+00
      21    -1     0     0   501   512  0.000000000E+00  0.000000000E+00 -1.549859345E+01  1.549859345E+01  0.000000000E+00  0.00000E+00  9.000E+00
      25     1     1     2     0     0  3.562287753E+00 -2.004274963E+01  1.558815426E+03  1.563951666E+03  1.249995227E+02  0.00000E+00  9.000E+00
       5     1     1     2   501     0 -2.998719912E-01  2.092967438E+00  1.304911181E+02  1.305946585E+02  4.750000000E+00  0.00000E+00  9.000E+00
      -5     1     1     2     0   503 -1.021782152E+01  1.705740872E+01  7.145821564E+02  7.148745204E+02  4.750000000E+00  0.00000E+00  9.000E+00
      21     1     1     2   502   512  6.955405759E+00  8.923734744E-01 -1.176700139E+01  1.369804079E+01  1.272806913E-06  0.00000E+00  9.000E+00
#rwgt            1           9   3.6995663236256915E-002          11     2010863           0
</event>
<event>
      6   9999  3.45752E-01  1.36717E+01 -1.00000E+00  1.73937E-01
      21    -1     0     0   501   502  0.000000000E+00  0.000000000E+00  1.282218423E+01  1.282218423E+01  0.000000000E+00  0.00000E+00  9.000E+00
      21    -1     0     0   511   503  0.000000000E+00  0.000000000E+00 -1.278823206E+03  1.278823206E+03  0.000000000E+00  0.00000E+00  9.000E+00
      25     1     1     2     0     0 -3.808813149E+01 -2.853511943E+01 -7.108480863E+02  7.233244461E+02  1.250131738E+02  0.00000E+00  9.000E+00
       5     1     1     2   501     0  1.911591768E+01 -1.321967597E+01 -3.377019458E+01  4.126944007E+01  4.750000000E+00  0.00000E+00  9.000E+00
      -5     1     1     2     0   503  1.107542404E+01  3.059437833E+01 -9.649289900E+01  1.019417631E+02  4.750000000E+00  0.00000E+00  9.000E+00
      21     1     1     2   511   502  7.896789776E+00  1.116041708E+01 -4.248898418E+02  4.251097410E+02  5.394796609E-06  0.00000E+00  9.000E+00
#rwgt            1           9   8.8726684436484640E-002          11     2013550           0
</event>
<event>
      6   9999  3.45752E-01  1.76328E+01 -1.00000E+00  1.64502E-01
      21    -1     0     0   501   502  0.000000000E+00  0.000000000E+00  8.244254765E+01  8.244254765E+01  0.000000000E+00  0.00000E+00  9.000E+00
      21    -1     0     0   502   512  0.000000000E+00  0.000000000E+00 -1.645028931E+03  1.645028931E+03  0.000000000E+00  0.00000E+00  9.000E+00
      25     1     1     2     0     0 -2.684216054E+01 -2.558604441E+01 -8.611881511E+02  8.710036276E+02  1.250085613E+02  0.00000E+00  9.000E+00
       5     1     1     2   501     0 -2.128393708E+01  1.107322634E+01  7.401196221E+01  7.794841479E+01  4.750000000E+00  0.00000E+00  9.000E+00
      -5     1     1     2     0   503  3.343582949E+01  2.426536593E+01 -6.928704368E+02  6.941172576E+02  4.750000000E+00  0.00000E+00  9.000E+00
      21     1     1     2   503   512  1.469026813E+01 -9.752547855E+00 -8.253975809E+01  8.440217908E+01  0.000000000E+00  0.00000E+00  9.000E+00
#rwgt            1           9   3.4403178675692964E-003          11     2015909           0
</event>
<event>
      6   9999  3.45752E-01  5.90086E+00 -1.00000E+00  2.15071E-01
      21    -1     0     0   501   502  0.000000000E+00  0.000000000E+00  6.554312655E+01  6.554312655E+01  0.000000000E+00  0.00000E+00  9.000E+00
      21    -1     0     0   502   511  0.000000000E+00  0.000000000E+00 -4.151272895E+02  4.151272895E+02  0.000000000E+00  0.00000E+00  9.000E+00
      25     1     1     2     0     0  3.287947017E+01  1.034563443E+02 -2.816214820E+02  3.266827717E+02  1.250067975E+02  0.00000E+00  9.000E+00
       5     1     1     2   501     0  1.081605749E+00 -8.709795783E-01  1.247386100E+01  1.341969391E+01  4.750000000E+00  0.00000E+00  9.000E+00
      -5     1     1     2     0   503 -3.192562489E+01 -9.704667571E+01 -5.843774934E+01  1.177914931E+02  4.750000000E+00  0.00000E+00  9.000E+00
      21     1     1     2   503   511 -2.035451023E+00 -5.538689046E+00 -2.199879256E+01  2.277645739E+01  2.384185791E-07  0.00000E+00  9.000E+00
#rwgt            1           9  0.39301141792253552               11     2020531           0
</event>
<event>
      6   9999  3.45752E-01  1.36764E+01 -1.00000E+00  1.73923E-01
      21    -1     0     0   501   502  0.000000000E+00  0.000000000E+00  1.095579309E+03  1.095579309E+03  0.000000000E+00  0.00000E+00  9.000E+00
      -4    -1     0     0     0   503  0.000000000E+00  0.000000000E+00 -3.041711597E+01  3.041711597E+01  0.000000000E+00  0.00000E+00  9.000E+00
      25     1     1     2     0     0  5.875930430E-01 -1.026369397E+01  1.528967101E+02  1.977564034E+02  1.249980098E+02  0.00000E+00  9.000E+00
       5     1     1     2   501     0  1.887456530E-01  4.430205632E-01  8.980252332E+02  8.980379245E+02  4.750000000E+00  0.00000E+00  9.000E+00
      -5     1     1     2     0   503 -7.172732825E+00 -2.267788412E+00  1.392199011E+01  1.652196323E+01  4.750000000E+00  0.00000E+00  9.000E+00
      -4     1     1     2     0   502  6.396394129E+00  1.208846182E+01  3.182594161E-01  1.368013362E+01  7.715848749E-07  0.00000E+00  9.000E+00
#rwgt            1           9   143.47583687919087               11     2024998           0
</event>
<event>
      6   9999 -3.45752E-01  1.72664E+02 -1.00000E+00  1.11149E-01
      21    -1     0     0   502   511  0.000000000E+00  0.000000000E+00  1.392609656E+02  1.392609656E+02  0.000000000E+00  0.00000E+00  9.000E+00
      21    -1     0     0   501   502  0.000000000E+00  0.000000000E+00 -1.166903376E+03  1.166903376E+03  0.000000000E+00  0.00000E+00  9.000E+00
      25     1     1     2     0     0  7.546877789E+01 -1.426294001E+02 -8.711649793E+02  8.947585161E+02  1.250027954E+02  0.00000E+00  9.000E+00
       5     1     1     2   501     0  2.565518101E+01  2.128203868E+00 -1.216220063E+02  1.244073651E+02  4.750000000E+00  0.00000E+00  9.000E+00
      -5     1     1     2     0   503  2.606082911E+01  2.372479978E+01 -9.713994171E+01  1.034444958E+02  4.750000000E+00  0.00000E+00  9.000E+00
      21     1     1     2   503   511 -1.271847880E+02  1.167763965E+02  6.228451650E+01  1.835539650E+02  1.907348633E-06  0.00000E+00  9.000E+00
#rwgt            1           9  -3.5224355586353187E-002          11     2027627           0
</event>
<event>
      6   9999  3.45752E-01  2.93877E+01 -1.00000E+00  1.48420E-01
      21    -1     0     0   512   502  0.000000000E+00  0.000000000E+00  6.705743025E+02  6.705743025E+02  0.000000000E+00  0.00000E+00  9.000E+00
      21    -1     0     0   502   503  0.000000000E+00  0.000000000E+00 -1.344806826E+01  1.344806826E+01  0.000000000E+00  0.00000E+00  9.000E+00
      25     1     1     2     0     0  2.076889494E+01 -2.022905685E+01  3.459902624E+02  3.690184446E+02  1.249991561E+02  0.00000E+00  9.000E+00
       5     1     1     2   501     0  3.000559437E+00 -1.619319371E+00  1.347522765E+02  1.348790720E+02  4.750000000E+00  0.00000E+00  9.000E+00
      -5     1     1     2     0   503 -1.635616613E-01  4.344139286E+00  4.741962302E+01  4.785479543E+01  4.750000000E+00  0.00000E+00  9.000E+00
      21     1     1     2   512   501 -2.360589271E+01  1.750423694E+01  1.289640724E+02  1.322700588E+02  1.907348633E-06  0.00000E+00  9.000E+00
#rwgt            1           9   2.4460772837214942E-004          11     2027859           0
</event>
<event>
      6   9999 -3.45752E-01  7.66208E+01 -1.00000E+00  1.25564E-01
       1    -1     0     0   501     0  0.000000000E+00  0.000000000E+00  3.285460357E+02  3.285460357E+02  0.000000000E+00  0.00000E+00  9.000E+00
      21    -1     0     0   502   503  0.000000000E+00  0.000000000E+00 -5.441483264E+02  5.441483264E+02  0.000000000E+00  0.00000E+00  9.000E+00
      25     1     1     2     0     0 -1.129777992E+02 -5.246856755E+00 -5.086859235E+02  5.358893917E+02  1.249982350E+02  0.00000E+00  9.000E+00
       5     1     1     2   501     0 -7.651608470E-01 -6.656672257E+00  1.511860440E+01  1.720556467E+01  4.750000000E+00  0.00000E+00  9.000E+00
      -5     1     1     2     0   503  5.009226795E+01 -3.075009242E+01  4.447959607E+01  7.386339052E+01  4.750000000E+00  0.00000E+00  9.000E+00
       1     1     1     2   502     0  6.365069213E+01  4.265362143E+01  2.334854324E+02  2.457360152E+02  3.814697266E-06  0.00000E+00  9.000E+00
#rwgt            1           9  -168.42697979042464               11     2028832           0
</event>
<event>
      6   9999  3.45752E-01  4.47881E+01 -1.00000E+00  1.37396E-01
      21    -1     0     0   511   503  0.000000000E+00  0.000000000E+00  1.070741201E+02  1.070741201E+02  0.000000000E+00  0.00000E+00  9.000E+00
      21    -1     0     0   501   502  0.000000000E+00  0.000000000E+00 -7.358113603E+02  7.358113603E+02  0.000000000E+00  0.00000E+00  9.000E+00
      25     1     1     2     0     0  1.795350390E+01 -4.139337816E+01 -6.500164017E+02  6.634623800E+02  1.250010683E+02  0.00000E+00  9.000E+00
       5     1     1     2   501     0 -4.388424272E+00  1.168680106E+00 -4.796573742E+01  4.841382599E+01  4.750000000E+00  0.00000E+00  9.000E+00
      -5     1     1     2     0   503  1.101135053E+00 -2.094015662E+00 -2.558773518E+01  2.613220411E+01  4.750000000E+00  0.00000E+00  9.000E+00
      21     1     1     2   511   502 -1.466621468E+01  4.231871372E+01  9.483263416E+01  1.048770703E+02  3.015782986E-06  0.00000E+00  9.000E+00
#rwgt            1           9   5.2898271501459180E-004          11     2029787           0
</event>
<event>
      6   9999  3.45752E-01  7.05246E+00 -1.00000E+00  2.04726E-01
      21    -1     0     0   501   502  0.000000000E+00  0.000000000E+00  5.008223054E+01  5.008223054E+01  0.000000000E+00  0.00000E+00  9.000E+00
      21    -1     0     0   502   512  0.000000000E+00  0.000000000E+00 -1.843797433E+03  1.843797433E+03  0.000000000E+00  0.00000E+00  9.000E+00
      25     1     1     2     0     0  3.825507119E+01 -1.533639306E+02 -2.690451351E+02  3.361537303E+02  1.250203984E+02  0.00000E+00  9.000E+00
       5     1     1     2   501     0 -7.455059315E-01  1.699835275E+00  9.740806273E+00  1.099504552E+01  4.750000000E+00  0.00000E+00  9.000E+00
      -5     1     1     2     0   503 -4.453437800E+01  1.522879030E+02 -1.020520462E+03  1.032792086E+03  4.750000000E+00  0.00000E+00  9.000E+00
      21     1     1     2   503   512  7.024812736E+00 -6.238077589E-01 -5.138904122E+02  5.139388026E+02  7.629394531E-06  0.00000E+00  9.000E+00
#rwgt            1           9   1.4852870811030947E-004          11     2030403           0
</event>
<event>
      6   9999 -3.45752E-01  8.74281E+00 -1.00000E+00  1.93557E-01
      21    -1     0     0   501   511  0.000000000E+00  0.000000000E+00  1.563819934E+01  1.563819934E+01  0.000000000E+00  0.00000E+00  9.000E+00
      21    -1     0     0   502   503  0.000000000E+00  0.000000000E+00 -1.223833064E+03  1.223833064E+03  0.000000000E+00  0.00000E+00  9.000E+00
      25     1     1     2     0     0 -3.847480480E+00 -2.732853267E+00 -1.179964317E+03  1.186576643E+03  1.250042757E+02  0.00000E+00  9.000E+00
       5     1     1     2   501     0 -8.335146808E-01  3.655805214E-01  1.005784123E+01  1.116024489E+01  4.750000000E+00  0.00000E+00  9.000E+00
      -5     1     1     2     0   503 -2.176287095E+00 -3.056224953E+00 -2.573009776E+01  2.643250209E+01  4.750000000E+00  0.00000E+00  9.000E+00
      21     1     1     2   502   511  6.857282256E+00  5.423497699E+00 -1.255829078E+01  1.530187291E+01  0.000000000E+00  0.00000E+00  9.000E+00
#rwgt            1           9  -5.5396993659644830E-005          11     2035166           0
</event>
<event>
      6   9999  3.45752E-01  1.69786E+01 -1.00000E+00  1.65836E-01
      21    -1     0     0   512   502  0.000000000E+00  0.000000000E+00  1.499689684E+01  1.499689684E+01  0.000000000E+00  0.00000E+00  9.000E+00
      21    -1     0     0   502   503  0.000000000E+00  0.000000000E+00 -7.945929613E+02  7.945929613E+02  0.000000000E+00  0.00000E+00  9.000E+00
      25     1     1     2     0     0  6.270702609E+00  3.121353152E-01 -7.223182566E+02  7.330814414E+02  1.250012670E+02  0.00000E+00  9.000E+00
       5     1     1     2   501     0  8.685433944E-01  8.400322836E-01  1.526713232E+00  5.133553853E+00  4.750000000E+00  0.00000E+00  9.000E+00
      -5     1     1     2     0   503  1.555764214E+00  1.343101501E+01 -5.046183918E+01  5.245733771E+01  4.750000000E+00  0.00000E+00  9.000E+00
      21     1     1     2   512   501 -8.695010218E+00 -1.458318260E+01 -8.342681914E+00  1.891752518E+01  6.194296387E-07  0.00000E+00  9.000E+00
#rwgt            1           9   6.4391454623495331E-004          11     2038208           0
</event>
<event>
      6   9999 -3.45752E-01  3.06485E+01 -1.00000E+00  1.47240E-01
      21    -1     0     0   501   502  0.000000000E+00  0.000000000E+00  3.993989246E+02  3.993989246E+02  0.000000000E+00  0.00000E+00  9.000E+00
      21    -1     0     0   511   503  0.000000000E+00  0.000000000E+00 -2.227145203E+02  2.227145203E+02  0.000000000E+00  0.00000E+00  9.000E+00
      25     1     1     2     0     0 -7.471584135E+00  4.234129729E+01 -1.786537441E+02  2.222397531E+02  1.249989502E+02  0.00000E+00  9.000E+00
       5     1     1     2   501     0 -2.217566126E+00  1.059265348E+00  1.599143532E+02  1.600037578E+02  4.750000000E+00  0.00000E+00  9.000E+00
      -5     1     1     2     0   503  1.244289219E+01 -1.287602560E+01  2.064641433E+02  2.072935662E+02  4.750000000E+00  0.00000E+00  9.000E+00
      21     1     1     2   511   502 -2.753741928E+00 -3.052453704E+01 -1.104034822E+01  3.257636788E+01  6.529361695E-07  0.00000E+00  9.000E+00
#rwgt            1           9  -1.2646521844904514E-003          11     2039830           0
</event>
<event>
      6   9999  3.45752E-01  9.61922E+01 -1.00000E+00  1.21156E-01
      21    -1     0     0   512   502  0.000000000E+00  0.000000000E+00  7.787229005E+01  7.787229005E+01  0.000000000E+00  0.00000E+00  9.000E+00
      21    -1     0     0   502   503  0.000000000E+00  0.000000000E+00 -1.701784299E+03  1.701784299E+03  0.000000000E+00  0.00000E+00  9.000E+00
      25     1     1     2     0     0 -7.428892069E+00  9.214963362E+01 -3.039611995E+02  3.414356660E+02  1.250566261E+02  0.00000E+00  9.000E+00
       5     1     1     2   501     0  5.955564985E+00  2.450865840E+01  4.522522098E+01  5.200025195E+01  4.750000000E+00  0.00000E+00  9.000E+00
      -5     1     1     2     0   503  4.624535106E+00 -2.051768450E+01 -1.153631520E+03  1.153833007E+03  4.750000000E+00  0.00000E+00  9.000E+00
      21     1     1     2   512   501 -3.151208022E+00 -9.614060752E+01 -2.115445097E+02  2.323876634E+02  0.000000000E+00  0.00000E+00  9.000E+00
#rwgt            1           9   6.3838672141406294E-004          11     2041935           0
</event>
<event>
      6   9999  3.45752E-01  1.32907E+01 -1.00000E+00  1.75054E-01
      21    -1     0     0   501   502  0.000000000E+00  0.000000000E+00  5.825149105E+00  5.825149105E+00  0.000000000E+00  0.00000E+00  9.000E+00
       2    -1     0     0   502     0  0.000000000E+00  0.000000000E+00 -2.236342193E+03  2.236342193E+03  0.000000000E+00  0.00000E+00  9.000E+00
      25     1     1     2     0     0  1.891767352E+01 -1.082349058E+00 -1.133236075E+03  1.140264040E+03  1.249761144E+02  0.00000E+00  9.000E+00
       5     1     1     2   501     0 -1.164108165E+00 -1.872825321E+00 -2.481313568E+00  5.795001253E+00  4.750000000E+00  0.00000E+00  9.000E+00
      -5     1     1     2     0   503 -2.062461760E+01 -1.002174369E+01 -2.265741714E+02  2.277810963E+02  4.750000000E+00  0.00000E+00  9.000E+00
       2     1     1     2   503     0  2.871052244E+00  1.297691807E+01 -8.682254834E+02  8.683272041E+02  0.000000000E+00  0.00000E+00  9.000E+00
#rwgt            1           9  0.82903137401942972               11     2042886           0
</event>
<event>
      6   9999  3.45752E-01  5.36869E+00 -1.00000E+00  2.21012E-01
      21    -1     0     0   501   511  0.000000000E+00  0.000000000E+00  2.429227827E+01  2.429227827E+01  0.000000000E+00  0.00000E+00  9.000E+00
      21    -1     0     0   502   503  0.000000000E+00  0.000000000E+00 -9.365177763E+02  9.365177763E+02  0.000000000E+00  0.00000E+00  9.000E+00
      25     1     1     2     0     0  9.194259541E+00  2.217506120E+00 -3.789590434E+02  3.991536160E+02  1.249968034E+02  0.00000E+00  9.000E+00
       5     1     1     2   501     0 -1.341822145E+00  3.198519109E-02  5.846077302E+00  7.651184845E+00  4.750000000E+00  0.00000E+00  9.000E+00
      -5     1     1     2     0   503 -1.018857168E+01 -7.083259993E+00 -5.454996860E+02  5.456614788E+02  4.750000000E+00  0.00000E+00  9.000E+00
      21     1     1     2   502   511  2.336134281E+00  4.833768682E+00  6.387154031E+00  8.343774905E+00  3.953724850E-07  0.00000E+00  9.000E+00
#rwgt            1           9   5.2532962758299134E-002          11     2044820           0
</event>
<event>
      6   9999  3.45752E-01  5.54911E+01 -1.00000E+00  1.32410E-01
      21    -1     0     0   501   502  0.000000000E+00  0.000000000E+00  2.618595959E+02  2.618595959E+02  0.000000000E+00  0.00000E+00  9.000E+00
      21    -1     0     0   502   512  0.000000000E+00  0.000000000E+00 -7.809910298E+02  7.809910298E+02  0.000000000E+00  0.00000E+00  9.000E+00
      25     1     1     2     0     0  1.719424308E+01  3.624064085E+01 -5.836693784E+02  5.982502516E+02  1.249975769E+02  0.00000E+00  9.000E+00
       5     1     1     2   501     0  1.535164779E+01 -2.370739178E-02  2.473565757E+02  2.478780178E+02  4.750000000E+00  0.00000E+00  9.000E+00
      -5     1     1     2     0   503  9.311537363E+00  2.140702828E-01 -7.232999743E+01  7.308174589E+01  4.750000000E+00  0.00000E+00  9.000E+00
      21     1     1     2   503   512 -4.185742824E+01 -3.643100374E+01 -1.104886338E+02  1.236406104E+02  1.907348633E-06  0.00000E+00  9.000E+00
#rwgt            1           9  0.44416111004312181               11     2049129           0
</event>
<event>
      6   9999  3.45752E-01  1.23500E+01 -1.00000E+00  1.78028E-01
      21    -1     0     0   501   502  0.000000000E+00  0.000000000E+00  1.964939772E+01  1.964939772E+01  0.000000000E+00  0.00000E+00  9.000E+00
      21    -1     0     0   511   503  0.000000000E+00  0.000000000E+00 -7.827566845E+02  7.827566845E+02  0.000000000E+00  0.00000E+00  9.000E+00
      25     1     1     2     0     0  5.801653211E+00 -1.126624106E+01 -4.561374935E+02  4.731224120E+02  1.249912653E+02  0.00000E+00  9.000E+00
       5     1     1     2   501     0  1.532159307E+00 -3.506775135E+00  9.021827090E+00  1.089040165E+01  4.750000000E+00  0.00000E+00  9.000E+00
      -5     1     1     2     0   503 -1.246108838E+00  4.027672589E+00 -8.286820163E+00  1.044072900E+01  4.750000000E+00  0.00000E+00  9.000E+00
      21     1     1     2   511   502 -6.087703680E+00  1.074534360E+01 -3.077048002E+02  3.079525395E+02  5.394796609E-06  0.00000E+00  9.000E+00
#rwgt            1           9   3.2734179355391343E-003          11     2050695           0
</event>
<event>
      6   9999  3.45752E-01  1.61056E+01 -1.00000E+00  1.67738E-01
      21    -1     0     0   501   502  0.000000000E+00  0.000000000E+00  8.294256269E+01  8.294256269E+01  0.000000000E+00  0.00000E+00  9.000E+00
      21    -1     0     0   502   512  0.000000000E+00  0.000000000E+00 -6.775416826E+02  6.775416826E+02  0.000000000E+00  0.00000E+00  9.000E+00
      25     1     1     2     0     0  1.168561655E+02 -2.178536382E+01 -2.554704563E+02  3.082561542E+02  1.250069481E+02  0.00000E+00  9.000E+00
       5     1     1     2   501     0  4.327550155E+00  3.833636129E-01  4.672314408E+01  4.716449248E+01  4.750000000E+00  0.00000E+00  9.000E+00
      -5     1     1     2     0   503 -1.056751231E+02  1.705755384E+01 -3.333644361E+02  3.501608224E+02  4.750000000E+00  0.00000E+00  9.000E+00
      21     1     1     2   503   512 -1.550859251E+01  4.344446372E+00 -5.248737165E+01  5.490277624E+01  0.000000000E+00  0.00000E+00  9.000E+00
#rwgt            1           9   8.6369750259290973E-003          11     2052645           0
</event>
<event>
      6   9999  3.45752E-01  8.58957E+00 -1.00000E+00  1.94428E-01
      21    -1     0     0   501   511  0.000000000E+00  0.000000000E+00  1.091570863E+01  1.091570863E+01  0.000000000E+00  0.00000E+00  9.000E+00
      21    -1     0     0   502   503  0.000000000E+00  0.000000000E+00 -7.423324484E+02  7.423324484E+02  0.000000000E+00  0.00000E+00  9.000E+00
      25     1     1     2     0     0 -1.697968259E+00 -1.290324345E+01 -6.785255872E+02  6.900675284E+02  1.250073777E+02  0.00000E+00  9.000E+00
       5     1     1     2   501     0  8.519944164E-01  1.546927512E+01 -1.620491867E+01  2.291694256E+01  4.750000000E+00  0.00000E+00  9.000E+00
      -5     1     1     2     0   503 -4.493310112E+00  4.162470222E+00 -2.091487198E+01  2.230494035E+01  4.750000000E+00  0.00000E+00  9.000E+00
      21     1     1     2   502   511  5.339283954E+00 -6.728501893E+00 -1.577136201E+01  1.795874579E+01  5.331201500E-07  0.00000E+00  9.000E+00
#rwgt            1           9   2.3959252852757407E-003          11     2055278           0
</event>
<event>
      6   9999  3.45752E-01  6.91190E+00 -1.00000E+00  2.05842E-01
      21    -1     0     0   501   512  0.000000000E+00  0.000000000E+00  9.972579669E+01  9.972579669E+01  0.000000000E+00  0.00000E+00  9.000E+00
      21    -1     0     0   502   503  0.000000000E+00  0.000000000E+00 -7.499351415E+02  7.499351415E+02  0.000000000E+00  0.00000E+00  9.000E+00
      25     1     1     2     0     0 -1.980619024E+01 -2.210083728E+00 -4.869378206E+02  5.031210479E+02  1.250007123E+02  0.00000E+00  9.000E+00
       5     1     1     2   501     0  1.309718679E+01 -1.376738628E+00 -1.085407753E+02  1.094399110E+02  4.750000000E+00  0.00000E+00  9.000E+00
      -5     1     1     2     0   503  5.593108316E+00 -3.234408316E+00 -1.456739455E+02  1.458945001E+02  4.750000000E+00  0.00000E+00  9.000E+00
      21     1     1     2   502   512  1.115895135E+00  6.821230673E+00  9.094319666E+01  9.120547916E+01  1.348699152E-06  0.00000E+00  9.000E+00
#rwgt            1           9   1.2951006683183200E-002          11     2057942           0
</event>
<event>
      6   9999  3.45752E-01  8.98066E+00 -1.00000E+00  1.92250E-01
      21    -1     0     0   501   502  0.000000000E+00  0.000000000E+00  2.434349620E+01  2.434349620E+01  0.000000000E+00  0.00000E+00  9.000E+00
      21    -1     0     0   502   511  0.000000000E+00  0.000000000E+00 -1.104062902E+03  1.104062902E+03  0.000000000E+00  0.00000E+00  9.000E+00
      25     1     1     2     0     0 -1.120710129E+01  8.499657635E+00 -9.641214905E+02  9.722930731E+02  1.250029130E+02  0.00000E+00  9.000E+00
       5     1     1     2   501     0  1.001143716E+00 -2.922032450E+00  1.925530968E+01  2.007162209E+01  4.750000000E+00  0.00000E+00  9.000E+00
      -5     1     1     2     0   503  4.702572043E+00  1.519208769E+00 -2.861322834E+01  2.942280603E+01  4.750000000E+00  0.00000E+00  9.000E+00
      21     1     1     2   503   511  5.503385534E+00 -7.096833954E+00 -1.062399966E+02  1.066188969E+02  1.348699152E-06  0.00000E+00  9.000E+00
#rwgt            1           9   2.0355768901519644E-005          11     2061222           0
</event>
<event>
      6   9999 -3.45752E-01  1.64605E+01 -1.00000E+00  1.66947E-01
      21    -1     0     0   501   502  0.000000000E+00  0.000000000E+00  1.461103330E+01  1.461103330E+01  0.000000000E+00  0.00000E+00  9.000E+00
      21    -1     0     0   512   503  0.000000000E+00  0.000000000E+00 -1.076021175E+03  1.076021175E+03  0.000000000E+00  0.00000E+00  9.000E+00
      25     1     1     2     0     0 -1.265093883E+01 -2.891965721E+00 -8.516937940E+02  8.609158932E+02  1.250017865E+02  0.00000E+00  9.000E+00
       5     1     1     2   501     0 -1.773584166E+00  1.745217345E+00  8.688500961E+00  1.020999184E+01  4.750000000E+00  0.00000E+00  9.000E+00
      -5     1     1     2     0   503 -2.021792550E+00  1.829574871E+00 -5.012353616E+01  5.042188380E+01  4.750000000E+00  0.00000E+00  9.000E+00
      21     1     1     2   512   502  1.644631554E+01 -6.828264945E-01 -1.682813121E+02  1.690844391E+02  0.000000000E+00  0.00000E+00  9.000E+00
#rwgt            1           9  -4.8693051622125330E-004          11     2064652           0
</event>
<event>
      6   9999  3.45752E-01  2.80360E+00 -1.00000E+00  2.84835E-01
      21    -1     0     0   511   502  0.000000000E+00  0.000000000E+00  7.680445782E+00  7.680445782E+00  0.000000000E+00  0.00000E+00  9.000E+00
      21    -1     0     0   502   503  0.000000000E+00  0.000000000E+00 -7.093820587E+02  7.093820587E+02  0.000000000E+00  0.00000E+00  9.000E+00
      25     1     1     2     0     0  7.189999447E+00 -9.014446190E+00 -6.244465607E+02  6.369386917E+02  1.249977339E+02  0.00000E+00  9.000E+00
       5     1     1     2   501     0 -8.209181108E+00  4.300118341E+00 -4.859546414E+01  4.969872541E+01  4.750000000E+00  0.00000E+00  9.000E+00
      -5     1     1     2     0   503 -1.240273801E+00  3.054497613E+00 -2.572401854E+01  2.636580863E+01  4.750000000E+00  0.00000E+00  9.000E+00
      21     1     1     2   511   501  2.259455462E+00  1.659830237E+00 -2.935569548E+00  4.059278750E+00  2.107342426E-07  0.00000E+00  9.000E+00
#rwgt            1           9   3.4373277649799684E-006          11     2066546           0
</event>
<event>
      6   9999  3.45752E-01  1.66720E+01 -1.00000E+00  1.66488E-01
      21    -1     0     0   501   502  0.000000000E+00  0.000000000E+00  2.551133253E+01  2.551133253E+01  0.000000000E+00  0.00000E+00  9.000E+00
       2    -1     0     0   502     0  0.000000000E+00  0.000000000E+00 -1.520717899E+03  1.520717899E+03  0.000000000E+00  0.00000E+00  9.000E+00
      25     1     1     2     0     0  1.270523195E+01 -6.168748914E+00 -1.002017543E+03  1.009882427E+03  1.249955359E+02  0.00000E+00  9.000E+00
       5     1     1     2   501     0 -1.967646134E-01  8.367166989E-01  2.062671748E+01  2.118402193E+01  4.750000000E+00  0.00000E+00  9.000E+00
      -5     1     1     2     0   503  3.660158861E+00  9.397786532E+00 -5.914327282E+01  6.018475201E+01  4.750000000E+00  0.00000E+00  9.000E+00
       2     1     1     2   503     0 -1.616862620E+01 -4.065754317E+00 -4.546724681E+02  4.549780303E+02  5.394796609E-06  0.00000E+00  9.000E+00
#rwgt            1           9   1.9668851373099997E-004          11     2072006           0
</event>
<event>
      6   9999  3.45752E-01  1.97692E+01 -1.00000E+00  1.60596E-01
      21    -1     0     0   501   502  0.000000000E+00  0.000000000E+00  1.176359930E+01  1.176359930E+01  0.000000000E+00  0.00000E+00  9.000E+00
      21    -1     0     0   502   511  0.000000000E+00  0.000000000E+00 -6.235637379E+02  6.235637379E+02  0.000000000E+00  0.00000E+00  9.000E+00
      25     1     1     2     0     0  7.936918211E+00  2.766252757E+00 -4.255792675E+02  4.436375961E+02  1.250038276E+02  0.00000E+00  9.000E+00
       5     1     1     2   501     0  6.321505754E-01  4.649828099E-01 -3.958328385E+00  6.232711045E+00  4.750000000E+00  0.00000E+00  9.000E+00
      -5     1     1     2     0   503  8.237625521E+00  7.178139651E+00 -3.740159360E+01  3.925335485E+01  4.750000000E+00  0.00000E+00  9.000E+00
      21     1     1     2   503   511 -1.680669431E+01 -1.040937522E+01 -1.448609491E+02  1.462036752E+02  1.907348633E-06  0.00000E+00  9.000E+00
#rwgt            1           9   2.3120559136348756E-003          11     2074245           0
</event>
<event>
      6   9999  3.45752E-01  6.28749E+01 -1.00000E+00  1.29670E-01
      21    -1     0     0   501   502  0.000000000E+00  0.000000000E+00  2.510031767E+01  2.510031767E+01  0.000000000E+00  0.00000E+00  9.000E+00
      21    -1     0     0   502   512  0.000000000E+00  0.000000000E+00 -1.494641090E+03  1.494641090E+03  0.000000000E+00  0.00000E+00  9.000E+00
      25     1     1     2     0     0  1.073324341E+02 -7.314221489E+01 -7.262200155E+02  7.482589865E+02  1.250038594E+02  0.00000E+00  9.000E+00
       5     1     1     2   501     0  3.560447132E+00  5.417539073E+01 -7.653269850E+01  9.395459640E+01  4.750000000E+00  0.00000E+00  9.000E+00
      -5     1     1     2     0   503 -5.393024206E+01 -7.651101392E+00 -2.411489214E+02  2.472698428E+02  4.750000000E+00  0.00000E+00  9.000E+00
      21     1     1     2   503   512 -5.696263919E+01  2.661792556E+01 -4.256391368E+02  4.302579819E+02  5.394796609E-06  0.00000E+00  9.000E+00
#rwgt            1           9   4.3383663112071189E-003          11     2075536           0
</event>
<event>
      6   9999  3.45752E-01  4.86798E+00 -1.00000E+00  2.31425E-01
      21    -1     0     0   501   502  0.000000000E+00  0.000000000E+00  5.191745742E+01  5.191745742E+01  0.000000000E+00  0.00000E+00  9.000E+00
      21    -1     0     0   511   503  0.000000000E+00  0.000000000E+00 -4.357669759E+02  4.357669759E+02  0.000000000E+00  0.00000E+00  9.000E+00
      25     1     1     2     0     0 -1.003108876E+00 -1.167357640E+01 -3.158942198E+02  3.399291892E+02  1.250016678E+02  0.00000E+00  9.000E+00
       5     1     1     2   501     0  2.992112937E+00  4.453469655E+00  3.884539288E+01  3.950079973E+01  4.750000000E+00  0.00000E+00  9.000E+00
      -5     1     1     2     0   503 -5.900960735E+00  1.011732488E+01 -8.345309430E+01  8.440475726E+01  4.750000000E+00  0.00000E+00  9.000E+00
      21     1     1     2   511   502  3.911956675E+00 -2.897218134E+00 -2.334759728E+01  2.384968714E+01  3.371747881E-07  0.00000E+00  9.000E+00
#rwgt            1           9   3.1895956183340712               11     2076232           0
</event>
<event>
      6   9999  3.45752E-01  5.84202E+01 -1.00000E+00  1.31268E-01
      21    -1     0     0   512   502  0.000000000E+00  0.000000000E+00  3.257330959E+02  3.257330959E+02  0.000000000E+00  0.00000E+00  9.000E+00
      21    -1     0     0   502   503  0.000000000E+00  0.000000000E+00 -1.873458780E+03  1.873458780E+03  0.000000000E+00  0.00000E+00  9.000E+00
      25     1     1     2     0     0  2.759804394E+01 -1.533753132E+00 -1.600409265E+03  1.605522298E+03  1.250121261E+02  0.00000E+00  9.000E+00
       5     1     1     2   501     0  3.215228866E+00  1.727159967E-01  1.380641977E+02  1.381834024E+02  4.750000000E+00  0.00000E+00  9.000E+00
      -5     1     1     2     0   503  2.075626890E+01 -2.608900496E+01 -2.647292959E+02  2.668625517E+02  4.750000000E+00  0.00000E+00  9.000E+00
      21     1     1     2   512   501 -5.156954170E+01  2.745004210E+01  1.793486792E+02  1.886236231E+02  3.814697266E-06  0.00000E+00  9.000E+00
#rwgt            1           9   1.0536919852466403E-004          11     2081492           0
</event>
<event>
      6   9999  3.45752E-01  6.03810E+00 -1.00000E+00  2.13676E-01
      21    -1     0     0   501   502  0.000000000E+00  0.000000000E+00  4.803047346E+00  4.803047346E+00  0.000000000E+00  0.00000E+00  9.000E+00
      21    -1     0     0   502   511  0.000000000E+00  0.000000000E+00 -4.927902220E+03  4.927902220E+03  0.000000000E+00  0.00000E+00  9.000E+00
      25     1     1     2     0     0  6.665153752E+01  2.947006241E+01 -3.629335895E+03  3.632219018E+03  1.250001846E+02  0.00000E+00  9.000E+00
       5     1     1     2   501     0 -1.051053589E+00  3.228454523E+00 -2.783721679E+00  6.468325799E+00  4.750000000E+00  0.00000E+00  9.000E+00
      -5     1     1     2     0   503 -6.224053399E+01 -2.768161201E+01 -7.748287267E+02  7.778317774E+02  4.750000000E+00  0.00000E+00  9.000E+00
      21     1     1     2   503   511 -3.359949942E+00 -5.016904928E+00 -5.161508288E+02  5.161861454E+02  7.629394531E-06  0.00000E+00  9.000E+00
#rwgt            1           9   3.2538369508538258E-003          11     2082904           0
</event>
<event>
      6   9999 -3.45752E-01  1.54468E+01 -1.00000E+00  1.69274E-01
       1    -1     0     0   501     0  0.000000000E+00  0.000000000E+00  1.065789542E+03  1.065789542E+03  0.000000000E+00  0.00000E+00  9.000E+00
      21    -1     0     0   502   503  0.000000000E+00  0.000000000E+00 -1.794603283E+01  1.794603283E+01  0.000000000E+00  0.00000E+00  9.000E+00
      25     1     1     2     0     0 -2.792674315E+00  1.806779976E+01  2.169506684E+02  2.510551836E+02  1.250074730E+02  0.00000E+00  9.000E+00
       5     1     1     2   501     0  2.711188824E-01  1.415721700E+00  2.434823396E+02  2.435329340E+02  4.750000000E+00  0.00000E+00  9.000E+00
      -5     1     1     2     0   503  4.754436256E+00 -4.198963351E+00  1.980181982E+01  2.132863159E+01  4.750000000E+00  0.00000E+00  9.000E+00
       1     1     1     2   502     0 -2.232880823E+00 -1.528455811E+01  5.676086810E+02  5.678188252E+02  0.000000000E+00  0.00000E+00  9.000E+00
#rwgt            1           9  -6.5559728045866557E-004          11     2086705           0
</event>
<event>
      6   9999  3.45752E-01  7.62988E+00 -1.00000E+00  2.00482E-01
      21    -1     0     0   501   502  0.000000000E+00  0.000000000E+00  2.992727820E+01  2.992727820E+01  0.000000000E+00  0.00000E+00  9.000E+00
      21    -1     0     0   502   511  0.000000000E+00  0.000000000E+00 -1.266277224E+03  1.266277224E+03  0.000000000E+00  0.00000E+00  9.000E+00
      25     1     1     2     0     0 -7.842327265E+01  3.142570903E+01 -5.105694223E+02  5.323967403E+02  1.250094765E+02  0.00000E+00  9.000E+00
       5     1     1     2   501     0  1.814769858E+00  3.317846711E+00  1.587455196E+01  1.699604061E+01  4.750000000E+00  0.00000E+00  9.000E+00
      -5     1     1     2     0   503  6.898801530E+01 -3.436507119E+01 -5.996047670E+02  6.045566503E+02  4.750000000E+00  0.00000E+00  9.000E+00
      21     1     1     2   503   511  7.620487495E+00 -3.784845531E-01 -1.420503084E+02  1.422550709E+02  1.907348633E-06  0.00000E+00  9.000E+00
#rwgt            1           9   1.9190203736094025E-004          11     2088590           0
</event>
<event>
      6   9999  3.45752E-01  4.63239E+00 -1.00000E+00  2.35355E-01
      21    -1     0     0   501   502  0.000000000E+00  0.000000000E+00  1.627040450E+01  1.627040450E+01  0.000000000E+00  0.00000E+00  9.000E+00
      21    -1     0     0   502   512  0.000000000E+00  0.000000000E+00 -2.580033692E+03  2.580033692E+03  0.000000000E+00  0.00000E+00  9.000E+00
      25     1     1     2     0     0  2.144675897E+01 -2.917533917E+01 -3.806052910E+02  4.022401369E+02  1.250023052E+02  0.00000E+00  9.000E+00
       5     1     1     2   501     0 -8.496368694E-01 -8.863953769E-01  3.590549823E+00  6.079648642E+00  4.750000000E+00  0.00000E+00  9.000E+00
      -5     1     1     2     0   503 -1.758294478E+01  3.357936893E+01 -5.930625812E+02  5.942916133E+02  4.750000000E+00  0.00000E+00  9.000E+00
      21     1     1     2   503   512 -3.014177324E+00 -3.517634384E+00 -1.593685965E+03  1.593692698E+03  3.051757812E-05  0.00000E+00  9.000E+00
#rwgt            1           9   6.4496911469473844E-003          11     2092565           0
</event>
<event>
      6   9999  3.45752E-01  2.05767E+01 -1.00000E+00  1.59274E-01
      21    -1     0     0   502   511  0.000000000E+00  0.000000000E+00  3.377340801E+01  3.377340801E+01  0.000000000E+00  0.00000E+00  9.000E+00
      21    -1     0     0   501   502  0.000000000E+00  0.000000000E+00 -6.996087769E+02  6.996087769E+02  0.000000000E+00  0.00000E+00  9.000E+00
      25     1     1     2     0     0  1.835037911E+01  6.323433190E-01 -5.273300437E+02  5.422531771E+02  1.249975873E+02  0.00000E+00  9.000E+00
       5     1     1     2   501     0  6.711752129E+00  4.339164620E+00 -9.520226282E+01  9.565515832E+01  4.750000000E+00  0.00000E+00  9.000E+00
      -5     1     1     2     0   503 -1.480783282E+01  1.286805596E+01 -6.350630363E+01  6.663686576E+01  4.750000000E+00  0.00000E+00  9.000E+00
      21     1     1     2   503   511 -1.025429842E+01 -1.783956390E+01  2.020324121E+01  2.883698375E+01  1.066240300E-06  0.00000E+00  9.000E+00
#rwgt            1           9   1.2711783098724786E-003          11     2097651           0
</event>
<event>
      6   9999  3.45752E-01  1.33342E+01 -1.00000E+00  1.74924E-01
      21    -1     0     0   501   502  0.000000000E+00  0.000000000E+00  1.022898071E+02  1.022898071E+02  0.000000000E+00  0.00000E+00  9.000E+00
      21    -1     0     0   512   503  0.000000000E+00  0.000000000E+00 -1.644205590E+03  1.644205590E+03  0.000000000E+00  0.00000E+00  9.000E+00
      25     1     1     2     0     0 -2.006351149E+01  7.100856590E+00 -1.009845006E+03  1.017773269E+03  1.249900902E+02  0.00000E+00  9.000E+00
       5     1     1     2   501     0  1.611355239E+00 -2.236542063E+01  9.577203272E+01  9.847666351E+01  4.750000000E+00  0.00000E+00  9.000E+00
      -5     1     1     2     0   503  1.364512138E+01  2.826982687E+00 -5.888825842E+02  5.890665851E+02  4.750000000E+00  0.00000E+00  9.000E+00
      21     1     1     2   512   502  4.807034870E+00  1.243758136E+01 -3.896022470E+01  4.117887958E+01  9.536743164E-07  0.00000E+00  9.000E+00
#rwgt            1           9  0.72489320336046070               11     2099034           0
</event>
<event>
      6   9999 -3.45752E-01  1.68257E+01 -1.00000E+00  1.66159E-01
      21    -1     0     0   501   502  0.000000000E+00  0.000000000E+00  9.830726599E+01  9.830726599E+01  0.000000000E+00  0.00000E+00  9.000E+00
      21    -1     0     0   511   503  0.000000000E+00  0.000000000E+00 -1.908453958E+02  1.908453958E+02  0.000000000E+00  0.00000E+00  9.000E+00
      25     1     1     2     0     0  8.347386380E+00 -1.577035224E+01 -4.426779417E+01  1.338020816E+02  1.249999063E+02  0.00000E+00  9.000E+00
       5     1     1     2   501     0 -1.671703498E+00  4.603255494E+00  4.515629199E+01  4.566878321E+01  4.750000000E+00  0.00000E+00  9.000E+00
      -5     1     1     2     0   503 -2.136203895E+01  1.937782229E+01 -8.681489551E+01  9.160363140E+01  4.750000000E+00  0.00000E+00  9.000E+00
      21     1     1     2   511   502  1.468635607E+01 -8.210725540E+00 -6.611732136E+00  1.807816557E+01  2.230201594E-07  0.00000E+00  9.000E+00
#rwgt            1           9  -9.2183284699555175E-004          11     2103429           0
</event>
<event>
      6   9999  3.45752E-01  1.20250E+01 -1.00000E+00  1.79135E-01
      21    -1     0     0   501   512  0.000000000E+00  0.000000000E+00  1.398486937E+03  1.398486937E+03  0.000000000E+00  0.00000E+00  9.000E+00
      21    -1     0     0   502   503  0.000000000E+00  0.000000000E+00 -4.349591949E+00  4.349591949E+00  0.000000000E+00  0.00000E+00  9.000E+00
      25     1     1     2     0     0  1.150125547E+01 -4.636414535E+00  9.733708659E+02  9.814409758E+02  1.249870845E+02  0.00000E+00  9.000E+00
       5     1     1     2   501     0  6.569995537E-01  1.791587669E-01  1.511821688E+02  1.512583036E+02  4.750000000E+00  0.00000E+00  9.000E+00
      -5     1     1     2     0   503 -6.068914601E-01  1.115709732E+00  5.633250919E+01  5.654668175E+01  4.750000000E+00  0.00000E+00  9.000E+00
      21     1     1     2   502   512 -1.155136356E+01  3.341546036E+00  2.132518015E+02  2.135905681E+02  2.697398305E-06  0.00000E+00  9.000E+00
#rwgt            1           9   2.9655773717698116E-004          11     2105295           0
</event>
<event>
      6   9999  3.45752E-01  1.23235E+01 -1.00000E+00  1.78117E-01
      21    -1     0     0   502   511  0.000000000E+00  0.000000000E+00  7.569401417E+01  7.569401417E+01  0.000000000E+00  0.00000E+00  9.000E+00
      21    -1     0     0   501   502  0.000000000E+00  0.000000000E+00 -1.446115422E+03  1.446115422E+03  0.000000000E+00  0.00000E+00  9.000E+00
      25     1     1     2     0     0 -1.142782589E+02  5.972982756E+01 -1.518734950E+02  2.351963116E+02  1.249982950E+02  0.00000E+00  9.000E+00
       5     1     1     2   501     0  1.583801866E+02 -6.966426357E+01 -1.209193190E+03  1.221518778E+03  4.750000000E+00  0.00000E+00  9.000E+00
      -5     1     1     2     0   503 -4.686361338E+01 -2.075682561E+00 -1.753319953E+01  5.030389948E+01  4.750000000E+00  0.00000E+00  9.000E+00
      21     1     1     2   503   511  2.761685582E+00  1.201011857E+01  8.178476114E+00  1.479044715E+01  3.953724850E-07  0.00000E+00  9.000E+00
#rwgt            1           9   3.6288083160964936E-004          11     2107599           0
</event>
<event>
      6   9999  3.45752E-01  1.17357E+01 -1.00000E+00  1.80158E-01
      21    -1     0     0   501   502  0.000000000E+00  0.000000000E+00  9.103863761E+02  9.103863761E+02  0.000000000E+00  0.00000E+00  9.000E+00
      21    -1     0     0   512   503  0.000000000E+00  0.000000000E+00 -2.415741594E+02  2.415741594E+02  0.000000000E+00  0.00000E+00  9.000E+00
      25     1     1     2     0     0  1.803118849E+01 -1.548608404E+01  3.965543813E+02  4.164673189E+02  1.249988312E+02  0.00000E+00  9.000E+00
       5     1     1     2   501     0 -4.380739695E-01  2.063959532E-02  5.898589253E+01  5.917846189E+01  4.750000000E+00  0.00000E+00  9.000E+00
      -5     1     1     2     0   503 -2.818746775E+01  2.051378526E+01  4.439481697E+02  4.453401942E+02  4.750000000E+00  0.00000E+00  9.000E+00
      21     1     1     2   512   502  1.059435323E+01 -5.048340823E+00 -2.306762267E+02  2.309745606E+02  2.697398305E-06  0.00000E+00  9.000E+00
#rwgt            1           9   5.5946031458299942E-004          11     2111953           0
</event>
<event>
      6   9999  3.45752E-01  1.23499E+01 -1.00000E+00  1.78028E-01
      21    -1     0     0   501   511  0.000000000E+00  0.000000000E+00  9.218888279E+02  9.218888279E+02  0.000000000E+00  0.00000E+00  9.000E+00
      21    -1     0     0   502   503  0.000000000E+00  0.000000000E+00 -1.140690652E+02  1.140690652E+02  0.000000000E+00  0.00000E+00  9.000E+00
      25     1     1     2     0     0 -8.911440614E+01  2.109846947E+02  3.406457042E+02  4.290927553E+02  1.250007125E+02  0.00000E+00  9.000E+00
       5     1     1     2   501     0 -5.071765718E+00 -1.041455352E+00  3.307242877E+02  3.307989184E+02  4.750000000E+00  0.00000E+00  9.000E+00
      -5     1     1     2     0   503  8.433660742E+01 -2.024929255E+02  1.069462540E+02  2.440821828E+02  4.750000000E+00  0.00000E+00  9.000E+00
      21     1     1     2   502   511  9.849564435E+00 -7.450313854E+00  2.950351673E+01  3.198403658E+01  3.371747881E-07  0.00000E+00  9.000E+00
#rwgt            1           9   4.9646708160254059E-004          11     2114163           0
</event>
<event>
      6   9999 -3.45752E-01  1.02957E+01 -1.00000E+00  1.85870E-01
      21    -1     0     0   501   502  0.000000000E+00  0.000000000E+00  1.555584993E+01  1.555584993E+01  0.000000000E+00  0.00000E+00  9.000E+00
      21    -1     0     0   512   503  0.000000000E+00  0.000000000E+00 -8.723858328E+02  8.723858328E+02  0.000000000E+00  0.00000E+00  9.000E+00
      25     1     1     2     0     0 -3.584923515E+01  4.935637099E+01 -5.068864414E+02  5.256233400E+02  1.249992483E+02  0.00000E+00  9.000E+00
       5     1     1     2   501     0 -9.584157713E-01 -3.914040809E-01  1.765087449E+00  5.172020074E+00  4.750000000E+00  0.00000E+00  9.000E+00
      -5     1     1     2     0   503  2.954894816E+01 -4.166335821E+01 -3.079004374E+02  3.121445461E+02  4.750000000E+00  0.00000E+00  9.000E+00
      21     1     1     2   512   502  7.258702762E+00 -7.301608698E+00 -4.380819155E+01  4.500177666E+01  0.000000000E+00  0.00000E+00  9.000E+00
#rwgt            1           9  -1.6713019292599020E-002          11     2117979           0
</event>
<event>
      6   9999 -3.45752E-01  3.16017E+01 -1.00000E+00  1.46392E-01
      21    -1     0     0   511   502  0.000000000E+00  0.000000000E+00  3.970566081E+01  3.970566081E+01  0.000000000E+00  0.00000E+00  9.000E+00
      21    -1     0     0   502   503  0.000000000E+00  0.000000000E+00 -1.392297074E+03  1.392297074E+03  0.000000000E+00  0.00000E+00  9.000E+00
      25     1     1     2     0     0 -1.877586906E+01 -2.203658439E+01 -1.276833706E+03  1.283263232E+03  1.249882692E+02  0.00000E+00  9.000E+00
       5     1     1     2   501     0 -1.188773908E+00 -1.793027580E+00  3.322636161E+01  3.363304532E+01  4.750000000E+00  0.00000E+00  9.000E+00
      -5     1     1     2     0   503 -4.070282125E-01 -3.294580651E-01 -2.319126012E+01  2.367849785E+01  4.750000000E+00  0.00000E+00  9.000E+00
      21     1     1     2   511   501  2.037167118E+01  2.415907003E+01 -8.579280920E+01  9.142795942E+01  1.907348633E-06  0.00000E+00  9.000E+00
#rwgt            1           9  -3.3591192683121897E-004          11     2120775           0
</event>
<event>
      6   9999 -3.45752E-01  8.53889E+00 -1.00000E+00  1.94721E-01
      21    -1     0     0   501   512  0.000000000E+00  0.000000000E+00  1.977165378E+02  1.977165378E+02  0.000000000E+00  0.00000E+00  9.000E+00
      21    -1     0     0   502   503  0.000000000E+00  0.000000000E+00 -2.562575904E+02  2.562575904E+02  0.000000000E+00  0.00000E+00  9.000E+00
      25     1     1     2     0     0 -2.256579347E+01  4.543948017E+00 -2.083470533E+02  2.440716163E+02  1.250303834E+02  0.00000E+00  9.000E+00
       5     1     1     2   501     0 -5.149963818E-01 -2.831507030E-01  4.830239984E+00  6.799934845E+00  4.750000000E+00  0.00000E+00  9.000E+00
      -5     1     1     2     0   503  1.633123090E+01  9.695088504E-01 -2.645161580E+01  3.146266881E+01  4.750000000E+00  0.00000E+00  9.000E+00
      21     1     1     2   502   512  6.749558958E+00 -5.230306165E+00  1.714273766E+02  1.716399082E+02  1.907348633E-06  0.00000E+00  9.000E+00
#rwgt            1           9  -9.0177682269190480E-004          11     2122999           0
</event>
<event>
      6   9999  3.45752E-01  3.45009E+01 -1.00000E+00  1.44015E-01
      21    -1     0     0   501   502  0.000000000E+00  0.000000000E+00  3.847029532E+01  3.847029532E+01  0.000000000E+00  0.00000E+00  9.000E+00
      21    -1     0     0   502   511  0.000000000E+00  0.000000000E+00 -1.449738825E+03  1.449738825E+03  0.000000000E+00  0.00000E+00  9.000E+00
      25     1     1     2     0     0  2.681807028E+01 -5.731705066E+01 -1.824874732E+02  2.300688144E+02  1.250021131E+02  0.00000E+00  9.000E+00
       5     1     1     2   501     0 -2.498897527E+00  2.499636861E+00  1.059005212E+01  1.213278109E+01  4.750000000E+00  0.00000E+00  9.000E+00
      -5     1     1     2     0   503 -2.864149304E+01  8.904647164E+01 -9.402596184E+02  9.449128646E+02  4.750000000E+00  0.00000E+00  9.000E+00
      21     1     1     2   503   511  4.322320286E+00 -3.422905785E+01 -2.991114907E+02  3.010946607E+02  3.814697266E-06  0.00000E+00  9.000E+00
#rwgt            1           9   1.5341581496656383E-002          11     2125967           0
</event>
<event>
      6   9999  3.45752E-01  2.04966E+01 -1.00000E+00  1.59402E-01
      21    -1     0     0   502   503  0.000000000E+00  0.000000000E+00  1.031121446E+01  1.031121446E+01  0.000000000E+00  0.00000E+00  9.000E+00
      21    -1     0     0   512   502  0.000000000E+00  0.000000000E+00 -9.100588552E+02  9.100588552E+02  0.000000000E+00  0.00000E+00  9.000E+00
      25     1     1     2     0     0  2.872462525E+00 -1.875885679E+01 -5.645227153E+02  5.785083931E+02  1.250036762E+02  0.00000E+00  9.000E+00
       5     1     1     2   501     0  1.893786410E+01 -1.161270803E+01 -8.062784833E+01  8.376699893E+01  4.750000000E+00  0.00000E+00  9.000E+00
      -5     1     1     2     0   503 -1.866727765E+01  1.011739364E+01 -1.225858412E+02  1.245017264E+02  4.750000000E+00  0.00000E+00  9.000E+00
      21     1     1     2   512   501 -3.143048974E+00  2.025417118E+01 -1.320112359E+02  1.335929512E+02  2.697398305E-06  0.00000E+00  9.000E+00
#rwgt            1           9  0.27583001479282288               11     2127277           0
</event>
<event>
      6   9999  3.45752E-01  8.02699E+00 -1.00000E+00  1.97842E-01
      21    -1     0     0   511   502  0.000000000E+00  0.000000000E+00  1.061035263E+02  1.061035263E+02  0.000000000E+00  0.00000E+00  9.000E+00
      21    -1     0     0   502   503  0.000000000E+00  0.000000000E+00 -6.094132166E+02  6.094132166E+02  0.000000000E+00  0.00000E+00  9.000E+00
      25     1     1     2     0     0  1.754140532E+01 -5.661633010E+00 -5.888428209E+02  6.022492972E+02  1.250143720E+02  0.00000E+00  9.000E+00
       5     1     1     2   501     0 -5.293607565E+00  6.543201098E+00  9.451204969E+01  9.500487250E+01  4.750000000E+00  0.00000E+00  9.000E+00
      -5     1     1     2     0   503 -4.570352568E+00 -3.224518589E+00 -6.653799855E+00  9.905614329E+00  4.750000000E+00  0.00000E+00  9.000E+00
      21     1     1     2   511   501 -7.677445188E+00  2.342950501E+00 -2.325119164E+00  8.356958825E+00  6.664001875E-08  0.00000E+00  9.000E+00
#rwgt            1           9   1.6288196086617222E-004          11     2128367           0
</event>
<event>
      6   9999  3.45752E-01  1.05358E+01 -1.00000E+00  1.84837E-01
      21    -1     0     0   502   512  0.000000000E+00  0.000000000E+00  1.623128518E+01  1.623128518E+01  0.000000000E+00  0.00000E+00  9.000E+00
      21    -1     0     0   501   502  0.000000000E+00  0.000000000E+00 -7.851053112E+02  7.851053112E+02  0.000000000E+00  0.00000E+00  9.000E+00
      25     1     1     2     0     0 -2.140368578E+01  4.783147156E+00 -7.094869653E+02  7.207478027E+02  1.249985796E+02  0.00000E+00  9.000E+00
       5     1     1     2   501     0  1.454528658E+01 -4.846886414E+00 -4.520662482E+01  4.797144043E+01  4.750000000E+00  0.00000E+00  9.000E+00
      -5     1     1     2     0   503  8.774156766E+00 -1.029644183E+01 -1.646925950E+01  2.183578599E+01  4.750000000E+00  0.00000E+00  9.000E+00
      21     1     1     2   503   512 -1.915757564E+00  1.036018109E+01  2.288823590E+00  1.078156726E+01  2.698715072E-07  0.00000E+00  9.000E+00
#rwgt            1           9   9.0488691591134152E-005          11     2132951           0
</event>
<event>
      6   9999 -3.45752E-01  2.03742E+01 -1.00000E+00  1.59598E-01
      21    -1     0     0   501   502  0.000000000E+00  0.000000000E+00  1.642165587E+01  1.642165587E+01  0.000000000E+00  0.00000E+00  9.000E+00
      21    -1     0     0   511   503  0.000000000E+00  0.000000000E+00 -1.146810197E+03  1.146810197E+03  0.000000000E+00  0.00000E+00  9.000E+00
      25     1     1     2     0     0 -5.413678597E+01  3.468466554E+01 -7.637110670E+02  7.765404662E+02  1.250067363E+02  0.00000E+00  9.000E+00
       5     1     1     2   501     0 -2.422236993E+00  4.972499529E+00  3.376218824E+00  8.034571374E+00  4.750000000E+00  0.00000E+00  9.000E+00
      -5     1     1     2     0   503  4.305296177E+01 -2.440286759E+01 -1.582514035E+02  1.658768419E+02  4.750000000E+00  0.00000E+00  9.000E+00
      21     1     1     2   511   502  1.350606120E+01 -1.525429748E+01 -2.118022891E+02  2.127799731E+02  3.814697266E-06  0.00000E+00  9.000E+00
#rwgt            1           9  -1.5630165294827040E-003          11     2135305           0
</event>
<event>
      6   9999  3.45752E-01  9.14168E+00 -1.00000E+00  1.91395E-01
      21    -1     0     0   501   512  0.000000000E+00  0.000000000E+00  1.478550951E+02  1.478550951E+02  0.000000000E+00  0.00000E+00  9.000E+00
      21    -1     0     0   502   503  0.000000000E+00  0.000000000E+00 -2.567502332E+02  2.567502332E+02  0.000000000E+00  0.00000E+00  9.000E+00
      25     1     1     2     0     0 -1.672939785E+00  5.021319624E-02 -2.312181224E+02  2.628517847E+02  1.250057573E+02  0.00000E+00  9.000E+00
       5     1     1     2   501     0  3.021675938E-01  1.272697644E+00  3.250823585E+00  5.902661987E+00  4.750000000E+00  0.00000E+00  9.000E+00
      -5     1     1     2     0   503 -2.067777417E+00  7.147435096E+00 -5.853065956E+00  1.059161994E+01  4.750000000E+00  0.00000E+00  9.000E+00
      21     1     1     2   502   512  3.438549608E+00 -8.470345935E+00  1.249252267E+02  1.252592617E+02  2.336015456E-06  0.00000E+00  9.000E+00
#rwgt            1           9   5.6356634217016443E-004          11     2136957           0
</event>
<event>
      6   9999  3.45752E-01  3.44142E+01 -1.00000E+00  1.44082E-01
      21    -1     0     0   501   511  0.000000000E+00  0.000000000E+00  8.503519115E+01  8.503519115E+01  0.000000000E+00  0.00000E+00  9.000E+00
      21    -1     0     0   502   503  0.000000000E+00  0.000000000E+00 -1.503676653E+03  1.503676653E+03  0.000000000E+00  0.00000E+00  9.000E+00
      25     1     1     2     0     0 -1.161630912E+02  5.916762161E+01 -1.369557899E+02  2.266621510E+02  1.249966844E+02  0.00000E+00  9.000E+00
       5     1     1     2   501     0 -7.128279878E+00 -1.187836924E+01  3.092552118E+01  3.421780808E+01  4.750000000E+00  0.00000E+00  9.000E+00
      -5     1     1     2     0   503  1.011531669E+02 -7.363758229E+01 -1.251087190E+03  1.257336938E+03  4.750000000E+00  0.00000E+00  9.000E+00
      21     1     1     2   502   511  2.213820418E+01  2.634832992E+01 -6.152400330E+01  7.049494702E+01  1.348699152E-06  0.00000E+00  9.000E+00
#rwgt            1           9   5.6274857637682074E-005          11     2138936           0
</event>
<event>
      6   9999  3.45752E-01  3.27157E+01 -1.00000E+00  1.45444E-01
      21    -1     0     0   501   512  0.000000000E+00  0.000000000E+00  6.209493526E+01  6.209493526E+01  0.000000000E+00  0.00000E+00  9.000E+00
      21    -1     0     0   502   503  0.000000000E+00  0.000000000E+00 -1.149651579E+03  1.149651579E+03  0.000000000E+00  0.00000E+00  9.000E+00
      25     1     1     2     0     0 -4.893737382E+01  7.543067570E+01 -9.977011142E+02  1.009513546E+03  1.250017354E+02  0.00000E+00  9.000E+00
       5     1     1     2   501     0  1.939434101E+01 -3.312550705E+00  1.867948088E+01  2.754267528E+01  4.750000000E+00  0.00000E+00  9.000E+00
      -5     1     1     2     0   503  1.725154262E+01 -1.024370380E+02 -8.629709208E+01  1.351322059E+02  4.750000000E+00  0.00000E+00  9.000E+00
      21     1     1     2   502   512  1.229149018E+01  3.031891296E+01 -2.223791865E+01  3.955808691E+01  5.331201500E-07  0.00000E+00  9.000E+00
#rwgt            1           9   2.2181998922583702E-003          11     2140976           0
</event>
<event>
      6   9999  3.45752E-01  1.00443E+01 -1.00000E+00  1.86992E-01
      21    -1     0     0   501   502  0.000000000E+00  0.000000000E+00  4.701861851E+01  4.701861851E+01  0.000000000E+00  0.00000E+00  9.000E+00
      21    -1     0     0   502   511  0.000000000E+00  0.000000000E+00 -1.462761725E+03  1.462761725E+03  0.000000000E+00  0.00000E+00  9.000E+00
      25     1     1     2     0     0 -3.285906431E+00  1.933137925E+01 -1.150760777E+03  1.157695851E+03  1.249992772E+02  0.00000E+00  9.000E+00
       5     1     1     2   501     0 -6.526008449E+00 -8.040023001E+00  4.255389974E+01  4.405255543E+01  4.750000000E+00  0.00000E+00  9.000E+00
      -5     1     1     2     0   503  1.795769698E+00 -5.239171404E+00 -1.481138459E+02  1.482934508E+02  4.750000000E+00  0.00000E+00  9.000E+00
      21     1     1     2   503   511  8.016145182E+00 -6.052184841E+00 -1.594223832E+02  1.597384856E+02  0.000000000E+00  0.00000E+00  9.000E+00
#rwgt            1           9   8.5307419070576270E-004          11     2142502           0
</event>
<event>
      6   9999  3.45752E-01  6.22185E+00 -1.00000E+00  2.11885E-01
      21    -1     0     0   501   512  0.000000000E+00  0.000000000E+00  2.565696260E+01  2.565696260E+01  0.000000000E+00  0.00000E+00  9.000E+00
      21    -1     0     0   502   503  0.000000000E+00  0.000000000E+00 -9.904187636E+02  9.904187636E+02  0.000000000E+00  0.00000E+00  9.000E+00
      25     1     1     2     0     0 -3.154950138E+01  2.280440769E+01 -7.840963888E+02  7.949512757E+02  1.249998873E+02  0.00000E+00  9.000E+00
       5     1     1     2   501     0  5.854946302E+00 -3.029986312E+00  1.137072432E+01  1.397558889E+01  4.750000000E+00  0.00000E+00  9.000E+00
      -5     1     1     2     0   503  3.165950383E+01 -2.154383824E+01 -1.960060602E+02  1.997683641E+02  4.750000000E+00  0.00000E+00  9.000E+00
      21     1     1     2   502   512 -5.964948757E+00  1.769416867E+00  3.969923673E+00  7.380497523E+00  5.732591171E-07  0.00000E+00  9.000E+00
#rwgt            1           9   1.2748357288190119E-003          11     2147417           0
</event>
<event>
      6   9999  3.45752E-01  5.23197E+02 -1.00000E+00  9.61642E-02
       2    -1     0     0   501     0  0.000000000E+00  0.000000000E+00  2.817743824E+02  2.817743824E+02  0.000000000E+00  0.00000E+00  9.000E+00
      21    -1     0     0   511   502  0.000000000E+00  0.000000000E+00 -2.222869691E+03  2.222869691E+03  0.000000000E+00  0.00000E+00  9.000E+00
      25     1     1     2     0     0 -2.749939058E+02  3.214901196E+02 -6.256818904E+02  7.655571078E+02  1.249892481E+02  0.00000E+00  9.000E+00
       5     1     1     2   501     0 -3.854399671E+01  2.664023843E+01 -4.774814695E+02  4.797983516E+02  4.750000000E+00  0.00000E+00  9.000E+00
      -5     1     1     2     0   502  4.760907382E+01  1.024441738E+02 -7.123014005E+02  7.212193011E+02  4.750000000E+00  0.00000E+00  9.000E+00
       2     1     1     2   511     0  2.659288287E+02 -4.505745318E+02 -1.256305480E+02  5.380693126E+02  6.180515955E-06  0.00000E+00  9.000E+00
#rwgt            1           4   1.3168572875354510E-005          11     2151359           0
</event>
<event>
      6   9999  3.45752E-01  4.73878E+00 -1.00000E+00  2.33539E-01
      21    -1     0     0   501   502  0.000000000E+00  0.000000000E+00  6.820961203E+01  6.820961203E+01  0.000000000E+00  0.00000E+00  9.000E+00
      21    -1     0     0   502   512  0.000000000E+00  0.000000000E+00 -1.500337015E+03  1.500337015E+03  0.000000000E+00  0.00000E+00  9.000E+00
      25     1     1     2     0     0 -2.818163208E+01 -3.841031475E+01 -6.623555229E+02  6.757295240E+02  1.250039769E+02  0.00000E+00  9.000E+00
       5     1     1     2   501     0 -6.215850632E+00 -1.046832032E+01  5.964256255E+01  6.105751630E+01  4.750000000E+00  0.00000E+00  9.000E+00
      -5     1     1     2     0   503  3.426378476E+01  4.414173764E+01 -8.002517464E+02  8.022143854E+02  4.750000000E+00  0.00000E+00  9.000E+00
      21     1     1     2   503   512  1.336979555E-01  4.736897432E+00 -2.916269643E+01  2.954520156E+01  3.371747881E-07  0.00000E+00  9.000E+00
#rwgt            1           9   4.5813735010054217E-003          11     2151457           0
</event>
<event>
      6   9999  3.45752E-01  5.06853E+00 -1.00000E+00  2.24800E-01
      21    -1     0     0   502   503  0.000000000E+00  0.000000000E+00  1.705950533E+01  1.705950533E+01  0.000000000E+00  0.00000E+00  9.000E+00
      21    -1     0     0   501   511  0.000000000E+00  0.000000000E+00 -1.148453818E+03  1.148453818E+03  0.000000000E+00  0.00000E+00  9.000E+00
      25     1     1     2     0     0  5.588758531E+00  7.633621880E+01 -3.990178623E+02  4.250860797E+02  1.249978727E+02  0.00000E+00  9.000E+00
       5     1     1     2   501     0 -3.649931115E+00 -7.398120361E+01 -4.766229583E+02  4.823676476E+02  4.750000000E+00  0.00000E+00  9.000E+00
      -5     1     1     2     0   503 -2.036879644E+00  2.712571004E+00 -6.428272946E+00  8.682863192E+00  4.750000000E+00  0.00000E+00  9.000E+00
      21     1     1     2   502   511  9.805222822E-02 -5.067586194E+00 -2.493252190E+02  2.493767328E+02  0.000000000E+00  0.00000E+00  9.000E+00
#rwgt            1           9   3.4807572272863276               11     2157951           0
</event>
<event>
      6   9999  3.45752E-01  1.34178E+01 -1.00000E+00  1.74677E-01
      21    -1     0     0   502   512  0.000000000E+00  0.000000000E+00  2.582259342E+02  2.582259342E+02  0.000000000E+00  0.00000E+00  9.000E+00
      21    -1     0     0   501   502  0.000000000E+00  0.000000000E+00 -2.825445779E+01  2.825445779E+01  0.000000000E+00  0.00000E+00  9.000E+00
      25     1     1     2     0     0  7.447842112E+00 -1.664896639E+00  1.335527437E+02  1.830834748E+02  1.249999246E+02  0.00000E+00  9.000E+00
       5     1     1     2   501     0 -3.547848855E-01  5.590070105E-01  1.271861367E+01  1.359279202E+01  4.750000000E+00  0.00000E+00  9.000E+00
      -5     1     1     2     0   503 -1.215412427E+01  1.353254544E+01  4.244619221E+01  4.642299276E+01  4.750000000E+00  0.00000E+00  9.000E+00
      21     1     1     2   503   512  5.061067045E+00 -1.242665581E+01  4.125392677E+01  4.338113240E+01  0.000000000E+00  0.00000E+00  9.000E+00
#rwgt            1           9   4.6998699125334175E-003          11     2163042           0
</event>
<event>
      6   9999  3.45752E-01  2.18239E+01 -1.00000E+00  1.57370E-01
      21    -1     0     0   501   511  0.000000000E+00  0.000000000E+00  5.961779861E+00  5.961779861E+00  0.000000000E+00  0.00000E+00  9.000E+00
      21    -1     0     0   502   503  0.000000000E+00  0.000000000E+00 -1.133364575E+03  1.133364575E+03  0.000000000E+00  0.00000E+00  9.000E+00
      25     1     1     2     0     0 -9.740525921E+00  1.568982506E+01 -9.556786211E+02  9.639958423E+02  1.250012348E+02  0.00000E+00  9.000E+00
       5     1     1     2   501     0 -6.661205710E-01  1.853558017E+00 -8.656192293E+00  1.006834440E+01  4.750000000E+00  0.00000E+00  9.000E+00
      -5     1     1     2     0   503 -4.539332166E-01  1.386212009E+00 -2.658858693E+01  2.704890190E+01  4.750000000E+00  0.00000E+00  9.000E+00
      21     1     1     2   502   511  1.086057971E+01 -1.892959508E+01 -1.364793952E+02  1.382132666E+02  0.000000000E+00  0.00000E+00  9.000E+00
#rwgt            1           9   2.5756541483679547E-004          11     2164799           0
</event>
<event>
      6   9999  3.45752E-01  2.68323E+01 -1.00000E+00  1.51043E-01
      21    -1     0     0   501   512  0.000000000E+00  0.000000000E+00  7.355786822E+01  7.355786822E+01  0.000000000E+00  0.00000E+00  9.000E+00
      21    -1     0     0   502   503  0.000000000E+00  0.000000000E+00 -1.555845932E+03  1.555845932E+03  0.000000000E+00  0.00000E+00  9.000E+00
      25     1     1     2     0     0 -1.522570611E+02 -1.520893840E+02 -1.164853880E+03  1.191143530E+03  1.249998106E+02  0.00000E+00  9.000E+00
       5     1     1     2   501     0  1.698150353E+02  1.398141035E+02 -1.872213794E+02  2.888936433E+02  4.750000000E+00  0.00000E+00  9.000E+00
      -5     1     1     2     0   503 -3.804106290E+01 -5.057213750E+00 -1.073940358E+02  1.141435031E+02  4.750000000E+00  0.00000E+00  9.000E+00
      21     1     1     2   502   512  2.048308870E+01  1.733249431E+01 -2.281876828E+01  3.522312405E+01  3.371747881E-07  0.00000E+00  9.000E+00
#rwgt            1           9  0.14099682153511045               11     2166134           0
</event>
<event>
      6   9999  3.45752E-01  1.68019E+01 -1.00000E+00  1.66210E-01
      21    -1     0     0   502   503  0.000000000E+00  0.000000000E+00  1.117342143E+01  1.117342143E+01  0.000000000E+00  0.00000E+00  9.000E+00
       2    -1     0     0   501     0  0.000000000E+00  0.000000000E+00 -1.300224879E+03  1.300224879E+03  0.000000000E+00  0.00000E+00  9.000E+00
      25     1     1     2     0     0  3.863327755E+01 -1.230912484E+01 -5.190166181E+02  5.353933125E+02  1.249948180E+02  0.00000E+00  9.000E+00
       5     1     1     2   501     0 -5.728283796E+01  2.113431406E+01 -3.913703585E+02  3.961329358E+02  4.750000000E+00  0.00000E+00  9.000E+00
      -5     1     1     2     0   503  4.198184720E+00 -2.542525154E-01 -2.446408644E+01  2.527337383E+01  4.750000000E+00  0.00000E+00  9.000E+00
       2     1     1     2   502     0  1.445137569E+01 -8.570936713E+00 -3.542003949E+02  3.545986787E+02  6.607249480E-06  0.00000E+00  9.000E+00
#rwgt            1           9   1.3564213978366233               11     2168791           0
</event>
<event>
      6   9999  3.45752E-01  2.82199E+01 -1.00000E+00  1.49577E-01
      21    -1     0     0   511   503  0.000000000E+00  0.000000000E+00  2.636606010E+00  2.636606010E+00  0.000000000E+00  0.00000E+00  9.000E+00
      21    -1     0     0   501   502  0.000000000E+00  0.000000000E+00 -3.516522269E+03  3.516522269E+03  0.000000000E+00  0.00000E+00  9.000E+00
      25     1     1     2     0     0  3.423132299E+01 -3.807048600E+00 -2.488463028E+03  2.491838668E+03  1.250017150E+02  0.00000E+00  9.000E+00
       5     1     1     2   501     0 -5.610963372E+00  4.161076855E+00 -5.902288728E+02  5.902893208E+02  4.750000000E+00  0.00000E+00  9.000E+00
      -5     1     1     2     0   503 -9.149706195E-01 -5.718062734E+00 -2.015438169E+02  2.016829344E+02  4.750000000E+00  0.00000E+00  9.000E+00
      21     1     1     2   511   502 -2.770538899E+01  5.364034479E+00 -2.336499453E+02  2.353479518E+02  4.672030912E-06  0.00000E+00  9.000E+00
#rwgt            1           9   3.6440083075920537E-004          11     2170914           0
</event>
<event>
      6   9999  3.45752E-01  9.39383E+00 -1.00000E+00  1.90100E-01
      21    -1     0     0   501   502  0.000000000E+00  0.000000000E+00  1.742373689E+01  1.742373689E+01  0.000000000E+00  0.00000E+00  9.000E+00
       1    -1     0     0   502     0  0.000000000E+00  0.000000000E+00 -2.132585165E+03  2.132585165E+03  0.000000000E+00  0.00000E+00  9.000E+00
      25     1     1     2     0     0 -1.351544497E+01 -1.513148950E+01 -7.559813867E+02  7.665141495E+02  1.249978209E+02  0.00000E+00  9.000E+00
       5     1     1     2   501     0  1.499445833E+00  8.210978463E-02  1.087065639E+01  1.195779036E+01  4.750000000E+00  0.00000E+00  9.000E+00
      -5     1     1     2     0   503  5.502365077E+00  2.181817112E+01 -1.817537290E+02  1.832028633E+02  4.750000000E+00  0.00000E+00  9.000E+00
       1     1     1     2   503     0  6.513634058E+00 -6.768791397E+00 -1.188296968E+03  1.188334098E+03  2.157918644E-05  0.00000E+00  9.000E+00
#rwgt            1           9   1.6018869057116041E-003          11     2171820           0
</event>
<event>
      6   9999  3.45752E-01  9.40655E+00 -1.00000E+00  1.90037E-01
      21    -1     0     0   501   502  0.000000000E+00  0.000000000E+00  9.164290243E+01  9.164290243E+01  0.000000000E+00  0.00000E+00  9.000E+00
      21    -1     0     0   502   511  0.000000000E+00  0.000000000E+00 -2.469860155E+03  2.469860155E+03  0.000000000E+00  0.00000E+00  9.000E+00
      25     1     1     2     0     0  7.551872171E+00  4.288515736E+01 -1.004468940E+03  1.013152518E+03  1.249960265E+02  0.00000E+00  9.000E+00
       5     1     1     2   501     0 -4.456074889E+00 -7.102475463E-01  8.659831758E+01  8.684579531E+01  4.750000000E+00  0.00000E+00  9.000E+00
      -5     1     1     2     0   503  5.768349554E+00 -3.902688715E+01 -7.181221212E+02  7.192206304E+02  4.750000000E+00  0.00000E+00  9.000E+00
      21     1     1     2   503   511 -8.864146836E+00 -3.148022660E+00 -7.422245085E+02  7.422841129E+02  1.078959322E-05  0.00000E+00  9.000E+00
#rwgt            1           9   2.6203813062545857E-002          11     2174742           0
</event>
<event>
      6   9999  3.45752E-01  3.15716E+01 -1.00000E+00  1.46418E-01
      21    -1     0     0   512   502  0.000000000E+00  0.000000000E+00  7.771443914E+01  7.771443914E+01  0.000000000E+00  0.00000E+00  9.000E+00
      21    -1     0     0   502   503  0.000000000E+00  0.000000000E+00 -1.482760955E+03  1.482760955E+03  0.000000000E+00  0.00000E+00  9.000E+00
      25     1     1     2     0     0 -8.844974781E+00  2.425092639E+00 -7.612529087E+02  7.715034919E+02  1.250101287E+02  0.00000E+00  9.000E+00
       5     1     1     2   501     0 -5.864001171E+00 -1.573985003E+01  6.018417856E+01  6.266440168E+01  4.750000000E+00  0.00000E+00  9.000E+00
      -5     1     1     2     0   503 -1.578693798E+01  5.143823848E+00 -6.924984367E+02  6.927137459E+02  4.750000000E+00  0.00000E+00  9.000E+00
      21     1     1     2   512   501  3.049591393E+01  8.170933539E+00 -1.147934937E+01  3.359375513E+01  7.539457465E-07  0.00000E+00  9.000E+00
#rwgt            1           9   9.5779108605109266E-003          11     2179664           0
</event>
<event>
      6   9999  3.45752E-01  7.12342E+00 -1.00000E+00  2.04176E-01
      21    -1     0     0   502   503  0.000000000E+00  0.000000000E+00  1.868262090E+02  1.868262090E+02  0.000000000E+00  0.00000E+00  9.000E+00
      21    -1     0     0   501   511  0.000000000E+00  0.000000000E+00 -3.503663254E+02  3.503663254E+02  0.000000000E+00  0.00000E+00  9.000E+00
      25     1     1     2     0     0  5.730156651E+01 -8.422050415E+01  1.209089978E+02  2.015407622E+02  1.249925207E+02  0.00000E+00  9.000E+00
       5     1     1     2   501     0 -6.161413919E+01  9.605483965E+01 -2.901923161E+02  3.118605092E+02  4.750000000E+00  0.00000E+00  9.000E+00
      -5     1     1     2     0   503 -2.704752985E+00 -1.305920221E+01  8.072330348E+00  1.629673183E+01  4.750000000E+00  0.00000E+00  9.000E+00
      21     1     1     2   502   511  7.017325668E+00  1.224866707E+00 -2.329128521E+00  7.494531183E+00  1.490116119E-07  0.00000E+00  9.000E+00
#rwgt            1           9  0.30854719206496811               11     2181852           0
</event>
<event>
      6   9999  3.45752E-01  1.15672E+01 -1.00000E+00  1.80771E-01
       1    -1     0     0   501     0  0.000000000E+00  0.000000000E+00  9.502539188E+02  9.502539188E+02  0.000000000E+00  0.00000E+00  9.000E+00
      21    -1     0     0   502   503  0.000000000E+00  0.000000000E+00 -2.925722825E+01  2.925722825E+01  0.000000000E+00  0.00000E+00  9.000E+00
      25     1     1     2     0     0 -1.329106911E+00  9.457630313E+00  1.132341821E+02  1.689339828E+02  1.250019890E+02  0.00000E+00  9.000E+00
       5     1     1     2   501     0  1.007937740E-01  1.170917161E+00  2.204002061E+01  2.257667413E+01  4.750000000E+00  0.00000E+00  9.000E+00
      -5     1     1     2     0   503 -1.013858019E+00  7.192831905E-01  4.401886550E+00  6.594268844E+00  4.750000000E+00  0.00000E+00  9.000E+00
       1     1     1     2   502     0  2.242171156E+00 -1.134783066E+01  7.813206013E+02  7.814062212E+02  1.525878906E-05  0.00000E+00  9.000E+00
#rwgt            1           9   7.1124110502466327E-004          11     2186937           0
</event>
<event>
      6   9999  3.45752E-01  9.30075E+00 -1.00000E+00  1.90572E-01
      21    -1     0     0   511   502  0.000000000E+00  0.000000000E+00  2.920493729E+01  2.920493729E+01  0.000000000E+00  0.00000E+00  9.000E+00
      21    -1     0     0   502   503  0.000000000E+00  0.000000000E+00 -3.470232594E+02  3.470232594E+02  0.000000000E+00  0.00000E+00  9.000E+00
      25     1     1     2     0     0 -4.149368943E+00 -1.345477440E+00 -3.169376820E+02  3.407250602E+02  1.250001792E+02  0.00000E+00  9.000E+00
       5     1     1     2   501     0  3.180436848E+00 -3.574787063E-02  9.864551709E+00  1.140124278E+01  4.750000000E+00  0.00000E+00  9.000E+00
      -5     1     1     2     0   503  8.659469865E+00  6.611867644E+00 -8.263056220E+00  1.447562814E+01  4.750000000E+00  0.00000E+00  9.000E+00
      21     1     1     2   511   501 -7.690537770E+00 -5.230642333E+00 -2.482135516E+00  9.626265482E+00  1.548574097E-07  0.00000E+00  9.000E+00
#rwgt            1           9   4.1821571694252165E-005          11     2189070           0
</event>
<event>
      6   9999  3.45752E-01  2.45976E+00 -1.00000E+00  3.01598E-01
      21    -1     0     0   501   512  0.000000000E+00  0.000000000E+00  1.654198162E+02  1.654198162E+02  0.000000000E+00  0.00000E+00  9.000E+00
      21    -1     0     0   502   503  0.000000000E+00  0.000000000E+00 -3.600613399E+01  3.600613399E+01  0.000000000E+00  0.00000E+00  9.000E+00
      25     1     1     2     0     0 -1.428689563E+01  5.332984107E+00  9.434954414E+01  1.573494292E+02  1.249978011E+02  0.00000E+00  9.000E+00
       5     1     1     2   501     0 -1.198594319E-01 -4.242073676E-01  1.531110019E+01  1.603703860E+01  4.750000000E+00  0.00000E+00  9.000E+00
      -5     1     1     2     0   503  1.344201116E+01 -7.171445711E+00  1.217614777E+01  2.007332489E+01  4.750000000E+00  0.00000E+00  9.000E+00
      21     1     1     2   502   512  9.647438988E-01  2.262668972E+00  7.576890108E+00  7.966157504E+00  1.460009660E-07  0.00000E+00  9.000E+00
#rwgt            1           9   4.7623369637860409E-004          11     2191981           0
</event>
<event>
      6   9999  3.45752E-01  1.51929E+01 -1.00000E+00  1.69892E-01
      21    -1     0     0   501   511  0.000000000E+00  0.000000000E+00  1.010323319E+02  1.010323319E+02  0.000000000E+00  0.00000E+00  9.000E+00
      21    -1     0     0   502   503  0.000000000E+00  0.000000000E+00 -1.616386044E+03  1.616386044E+03  0.000000000E+00  0.00000E+00  9.000E+00
      25     1     1     2     0     0  3.146903619E+02  8.284066754E+01 -1.099046343E+03  1.153004845E+03  1.249988311E+02  0.00000E+00  9.000E+00
       5     1     1     2   501     0 -2.888137125E+02 -9.899988911E+01 -2.793295302E+02  4.138379967E+02  4.750000000E+00  0.00000E+00  9.000E+00
      -5     1     1     2     0   503 -1.164211078E+01  2.146971645E+01 -1.323862178E+02  1.347039741E+02  4.750000000E+00  0.00000E+00  9.000E+00
      21     1     1     2   502   511 -1.423453866E+01 -5.310494884E+00 -4.591621048E+00  1.587156043E+01  5.057621821E-07  0.00000E+00  9.000E+00
#rwgt            1           9   9.5363885884362624E-004          11     2198221           0
</event>
<event>
      6   9999  3.45752E-01  8.98146E+00 -1.00000E+00  1.92246E-01
      21    -1     0     0   501   512  0.000000000E+00  0.000000000E+00  9.847192918E+02  9.847192918E+02  0.000000000E+00  0.00000E+00  9.000E+00
      21    -1     0     0   502   503  0.000000000E+00  0.000000000E+00 -8.528939725E+01  8.528939725E+01  0.000000000E+00  0.00000E+00  9.000E+00
      25     1     1     2     0     0 -9.399708708E+00  4.373693197E+00 -2.755712938E+01  1.284287838E+02  1.250082934E+02  0.00000E+00  9.000E+00
       5     1     1     2   501     0 -5.506356983E-01  1.309993406E-01  1.729970464E+01  1.794888970E+01  4.750000000E+00  0.00000E+00  9.000E+00
      -5     1     1     2     0   503  3.145921147E+00  1.357593243E+00 -5.715887537E+00  8.183749117E+00  4.750000000E+00  0.00000E+00  9.000E+00
      21     1     1     2   502   512  6.804423259E+00 -5.862285780E+00  9.154032069E+02  9.154472665E+02  1.525878906E-05  0.00000E+00  9.000E+00
#rwgt            1           9   9.5321393774029636E-002          11     2201997           0
</event>
<event>
      6   9999  3.45752E-01  2.88890E+00 -1.00000E+00  2.81269E-01
      21    -1     0     0   501   502  0.000000000E+00  0.000000000E+00  2.064712266E+01  2.064712266E+01  0.000000000E+00  0.00000E+00  9.000E+00
      21    -1     0     0   502   511  0.000000000E+00  0.000000000E+00 -1.056842408E+03  1.056842408E+03  0.000000000E+00  0.00000E+00  9.000E+00
      25     1     1     2     0     0  9.752440078E+00 -2.426213825E+00 -7.930122054E+02  8.028659279E+02  1.249973749E+02  0.00000E+00  9.000E+00
       5     1     1     2   501     0 -6.607914809E+00 -1.761429074E+00  1.446478349E+01  1.669010581E+01  4.750000000E+00  0.00000E+00  9.000E+00
      -5     1     1     2     0   503 -6.014442654E+00  3.857037521E+00 -2.231520357E+02  2.233169134E+02  4.750000000E+00  0.00000E+00  9.000E+00
      21     1     1     2   503   511  2.869917385E+00  3.306053769E-01 -3.449582785E+01  3.461658367E+01  4.768371582E-07  0.00000E+00  9.000E+00
#rwgt            1           9  0.56108080395256665               11     2204243           0
</event>
<event>
      6   9999  3.45752E-01  1.23132E+01 -1.00000E+00  1.78151E-01
      21    -1     0     0   501   512  0.000000000E+00  0.000000000E+00  1.748391980E+01  1.748391980E+01  0.000000000E+00  0.00000E+00  9.000E+00
      21    -1     0     0   502   503  0.000000000E+00  0.000000000E+00 -2.364886111E+03  2.364886111E+03  0.000000000E+00  0.00000E+00  9.000E+00
      25     1     1     2     0     0 -4.521606646E+00 -7.248807482E+01 -1.696936876E+03  1.703084016E+03  1.250017547E+02  0.00000E+00  9.000E+00
       5     1     1     2   501     0 -5.267926140E-01  3.438317942E+00  9.821980937E+00  1.145134709E+01  4.750000000E+00  0.00000E+00  9.000E+00
      -5     1     1     2     0   503 -4.345737904E+00  6.108952614E+01 -6.462472537E+02  6.491601428E+02  4.750000000E+00  0.00000E+00  9.000E+00
      21     1     1     2   502   512  9.394137163E+00  7.960230738E+00 -1.404004255E+01  1.867452492E+01  7.152557373E-07  0.00000E+00  9.000E+00
#rwgt            1           9   1.0912767251630285E-002          11     2211143           0
</event>
<event>
      6   9999  3.45752E-01  1.18220E+01 -1.00000E+00  1.79849E-01
      21    -1     0     0   501   502  0.000000000E+00  0.000000000E+00  1.442898875E+03  1.442898875E+03  0.000000000E+00  0.00000E+00  9.000E+00
      21    -1     0     0   502   511  0.000000000E+00  0.000000000E+00 -1.211153294E+01  1.211153294E+01  0.000000000E+00  0.00000E+00  9.000E+00
      25     1     1     2     0     0 -4.726765497E+00 -1.228897569E+01  3.612125516E+02  3.824569082E+02  1.250016718E+02  0.00000E+00  9.000E+00
       5     1     1     2   501     0  2.361565067E+00 -1.996257485E+00  1.006421676E+03  1.006437635E+03  4.750000000E+00  0.00000E+00  9.000E+00
      -5     1     1     2     0   503  2.372296312E+00  2.463269128E+00  3.639399238E+01  3.686164220E+01  4.750000000E+00  0.00000E+00  9.000E+00
      21     1     1     2   503   511 -7.095882979E-03  1.182196404E+01  2.675912219E+01  2.925422200E+01  5.840038640E-07  0.00000E+00  9.000E+00
#rwgt            1           9   1.2726458778225394E-005          11     2214043           0
</event>
<event>
      6   9999  3.45752E-01  3.93225E+00 -1.00000E+00  2.49396E-01
      21    -1     0     0   501   502  0.000000000E+00  0.000000000E+00  1.162563833E+01  1.162563833E+01  0.000000000E+00  0.00000E+00  9.000E+00
      21    -1     0     0   512   503  0.000000000E+00  0.000000000E+00 -1.875490669E+03  1.875490669E+03  0.000000000E+00  0.00000E+00  9.000E+00
      25     1     1     2     0     0  4.516792889E+00 -1.258394400E+01 -7.432564602E+02  7.538127213E+02  1.249987846E+02  0.00000E+00  9.000E+00
       5     1     1     2   501     0 -6.244815757E-01 -2.187348402E+00  4.249790482E+00  6.767399013E+00  4.750000000E+00  0.00000E+00  9.000E+00
      -5     1     1     2     0   503 -7.598089232E+00  1.345608527E+01 -7.739533115E+01  7.906577625E+01  4.750000000E+00  0.00000E+00  9.000E+00
      21     1     1     2   512   502  3.705777919E+00  1.315207128E+00 -1.047463030E+03  1.047470411E+03  0.000000000E+00  0.00000E+00  9.000E+00
#rwgt            1           9   8.7587783476131243E-004          11     2217349           0
</event>
<event>
      6   9999  3.45752E-01  2.34713E+00 -1.00000E+00  3.08126E-01
      21    -1     0     0   501   502  0.000000000E+00  0.000000000E+00  5.593310059E+02  5.593310059E+02  0.000000000E+00  0.00000E+00  9.000E+00
      21    -1     0     0   511   503  0.000000000E+00  0.000000000E+00 -1.402930863E+02  1.402930863E+02  0.000000000E+00  0.00000E+00  9.000E+00
      25     1     1     2     0     0 -1.369268626E+01 -1.742080775E+01 -5.942797359E+01  1.401676315E+02  1.249972267E+02  0.00000E+00  9.000E+00
       5     1     1     2   501     0  1.203871449E+01  7.735374595E+00  5.174185045E+02  5.176381342E+02  4.750000000E+00  0.00000E+00  9.000E+00
      -5     1     1     2     0   503  3.070381910E+00  1.155701529E+01 -3.288918146E+01  3.531646365E+01  4.750000000E+00  0.00000E+00  9.000E+00
      21     1     1     2   511   502 -1.416410131E+00 -1.871582134E+00 -6.063429859E+00  6.501862733E+00  1.460009660E-07  0.00000E+00  9.000E+00
#rwgt            1           9   6.7624483918850772E-002          11     2222362           0
</event>
<event>
      6   9999  3.45752E-01  6.49287E+00 -1.00000E+00  2.09391E-01
      21    -1     0     0   501   502  0.000000000E+00  0.000000000E+00  2.481977698E+02  2.481977698E+02  0.000000000E+00  0.00000E+00  9.000E+00
      21    -1     0     0   502   512  0.000000000E+00  0.000000000E+00 -6.035895319E+02  6.035895319E+02  0.000000000E+00  0.00000E+00  9.000E+00
      25     1     1     2     0     0  1.769624262E+00  1.461363535E+00  1.607325419E+02  2.036310386E+02  1.250015307E+02  0.00000E+00  9.000E+00
       5     1     1     2   501     0 -6.671823125E-01  1.417951261E+00  5.880243909E+01  5.901478679E+01  4.750000000E+00  0.00000E+00  9.000E+00
      -5     1     1     2     0   503 -6.183100643E+00  1.163485320E+00  4.897581534E+00  9.280799348E+00  4.750000000E+00  0.00000E+00  9.000E+00
      21     1     1     2   503   512  5.080658694E+00 -4.042800116E+00 -5.798243246E+02  5.798606770E+02  7.629394531E-06  0.00000E+00  9.000E+00
#rwgt            1           9   1.9028799712588113E-004          11     2233535           0
</event>
<event>
      6   9999  3.45752E-01  5.18686E+00 -1.00000E+00  2.23264E-01
      21    -1     0     0   511   503  0.000000000E+00  0.000000000E+00  2.923309019E+02  2.923309019E+02  0.000000000E+00  0.00000E+00  9.000E+00
      21    -1     0     0   501   502  0.000000000E+00  0.000000000E+00 -2.729146229E+02  2.729146229E+02  0.000000000E+00  0.00000E+00  9.000E+00
      25     1     1     2     0     0 -1.953443783E+01  2.619219666E+01  2.326382500E+02  2.661065625E+02  1.249980873E+02  0.00000E+00  9.000E+00
       5     1     1     2   501     0  1.654738331E+01 -3.626193663E+01 -2.520058360E+02  2.551827733E+02  4.750000000E+00  0.00000E+00  9.000E+00
      -5     1     1     2     0   503  7.800788355E+00  8.138041976E+00  1.380754188E+01  1.844697099E+01  4.750000000E+00  0.00000E+00  9.000E+00
      21     1     1     2   511   502 -4.813733836E+00  1.931697996E+00  2.497632305E+01  2.550921801E+01  3.371747881E-07  0.00000E+00  9.000E+00
#rwgt            1           9   38.811164166990466               11     2236373           0
</event>
<event>
      6   9999  3.45752E-01  2.14529E+01 -1.00000E+00  1.57920E-01
      21    -1     0     0   512   502  0.000000000E+00  0.000000000E+00  2.844020505E+01  2.844020505E+01  0.000000000E+00  0.00000E+00  9.000E+00
      21    -1     0     0   502   503  0.000000000E+00  0.000000000E+00 -1.041045461E+03  1.041045461E+03  0.000000000E+00  0.00000E+00  9.000E+00
      25     1     1     2     0     0  1.272103480E+01  1.517381656E+01 -9.749511981E+02  9.831314152E+02  1.250018856E+02  0.00000E+00  9.000E+00
       5     1     1     2   501     0  6.210968023E+00 -2.974462559E-01  1.982964077E+01  2.131763943E+01  4.750000000E+00  0.00000E+00  9.000E+00
      -5     1     1     2     0   503 -4.229026245E+00  7.456443513E-01 -2.707672719E+01  2.782359257E+01  4.750000000E+00  0.00000E+00  9.000E+00
      21     1     1     2   512   501 -1.470297658E+01 -1.562201465E+01 -3.040697144E+01  3.721301888E+01  9.536743164E-07  0.00000E+00  9.000E+00
#rwgt            1           9   1.3917556840349605E-004          11     2242290           0
</event>
<event>
      6   9999  3.45752E-01  6.60423E+00 -1.00000E+00  2.08413E-01
      21    -1     0     0   501   502  0.000000000E+00  0.000000000E+00  1.987317418E+01  1.987317418E+01  0.000000000E+00  0.00000E+00  9.000E+00
      21    -1     0     0   511   503  0.000000000E+00  0.000000000E+00 -3.747487237E+02  3.747487237E+02  0.000000000E+00  0.00000E+00  9.000E+00
      25     1     1     2     0     0  7.866415285E+00 -1.063802968E+01 -3.379414392E+02  3.605637200E+02  1.250069265E+02  0.00000E+00  9.000E+00
       5     1     1     2   501     0 -2.110426795E-01 -4.886444612E-01  4.689737926E+00  6.696226866E+00  4.750000000E+00  0.00000E+00  9.000E+00
      -5     1     1     2     0   503 -2.889764734E+00  6.554499830E+00 -6.242672869E+00  1.062288439E+01  4.750000000E+00  0.00000E+00  9.000E+00
      21     1     1     2   511   502 -4.765607871E+00  4.572174312E+00 -1.538117532E+01  1.673906660E+01  2.384185791E-07  0.00000E+00  9.000E+00
#rwgt            1           9   2.3463438496559562E-004          11     2243985           0
</event>
<event>
      6   9999 -3.45752E-01  2.78811E+01 -1.00000E+00  1.49926E-01
      21    -1     0     0   501   502  0.000000000E+00  0.000000000E+00  8.890564427E+00  8.890564427E+00  0.000000000E+00  0.00000E+00  9.000E+00
      21    -1     0     0   512   503  0.000000000E+00  0.000000000E+00 -8.021341906E+02  8.021341906E+02  0.000000000E+00  0.00000E+00  9.000E+00
      25     1     1     2     0     0  2.265149169E+01  1.843496838E+00 -5.826507945E+02  5.963417377E+02  1.250001249E+02  0.00000E+00  9.000E+00
       5     1     1     2   501     0  1.342902866E+00 -1.271781688E-01 -1.118108064E+01  1.222287310E+01  4.750000000E+00  0.00000E+00  9.000E+00
      -5     1     1     2     0   503  3.831418054E+00 -3.471921450E+00 -4.654800981E+01  4.707455491E+01  4.750000000E+00  0.00000E+00  9.000E+00
      21     1     1     2   512   502 -2.782581261E+01  1.755602781E+00 -1.528637412E+02  1.553855893E+02  2.697398305E-06  0.00000E+00  9.000E+00
#rwgt            1           9  -2.8851425515048198E-004          11     2247275           0
</event>
<event>
      6   9999  3.45752E-01  2.09433E+01 -1.00000E+00  1.58698E-01
      21    -1     0     0   501   511  0.000000000E+00  0.000000000E+00  4.429534098E+01  4.429534098E+01  0.000000000E+00  0.00000E+00  9.000E+00
      21    -1     0     0   502   503  0.000000000E+00  0.000000000E+00 -1.250529259E+03  1.250529259E+03  0.000000000E+00  0.00000E+00  9.000E+00
      25     1     1     2     0     0  7.994495955E+01 -7.751745599E+00 -1.125950916E+03  1.135712136E+03  1.250012207E+02  0.00000E+00  9.000E+00
       5     1     1     2   501     0 -4.058759539E+01  2.216659039E+01  1.167180202E+01  4.793228652E+01  4.750000000E+00  0.00000E+00  9.000E+00
      -5     1     1     2     0   503 -2.028043240E+01 -2.305720717E+01 -8.258394694E+01  8.823605575E+01  4.750000000E+00  0.00000E+00  9.000E+00
      21     1     1     2   502   511 -1.907693176E+01  8.642362381E+00 -9.370857393E+00  2.294412171E+01  3.153981341E-07  0.00000E+00  9.000E+00
#rwgt            1           9   2.9632043209246270E-004          11     2248103           0
</event>
<event>
      6   9999  3.45752E-01  5.64576E+00 -1.00000E+00  2.17807E-01
      21    -1     0     0   501   502  0.000000000E+00  0.000000000E+00  9.594348058E+01  9.594348058E+01  0.000000000E+00  0.00000E+00  9.000E+00
      21    -1     0     0   502   512  0.000000000E+00  0.000000000E+00 -3.615777570E+02  3.615777570E+02  0.000000000E+00  0.00000E+00  9.000E+00
      25     1     1     2     0     0  1.122553874E+01 -1.257779011E+01 -5.044332615E+01  1.358356806E+02  1.249903575E+02  0.00000E+00  9.000E+00
       5     1     1     2   501     0  2.092465644E-02  2.867558918E+00  5.197125001E+01  5.226659219E+01  4.750000000E+00  0.00000E+00  9.000E+00
      -5     1     1     2     0   503 -1.663658215E+01  8.030587334E+00 -8.273198040E+01  8.490235143E+01  4.750000000E+00  0.00000E+00  9.000E+00
      21     1     1     2   503   512  5.390118751E+00  1.679643857E+00 -1.844302198E+02  1.845166133E+02  0.000000000E+00  0.00000E+00  9.000E+00
#rwgt            1           9   7.6063715768836387E-003          11     2250272           0
</event>
<event>
      6   9999 -3.45752E-01  6.53554E+01 -1.00000E+00  1.28845E-01
      21    -1     0     0   511   503  0.000000000E+00  0.000000000E+00  8.984757566E+01  8.984757566E+01  0.000000000E+00  0.00000E+00  9.000E+00
      21    -1     0     0   501   502  0.000000000E+00  0.000000000E+00 -1.108260787E+03  1.108260787E+03  0.000000000E+00  0.00000E+00  9.000E+00
      25     1     1     2     0     0  4.066114077E+01  1.794744302E+02 -2.495024465E+02  3.342768008E+02  1.250004371E+02  0.00000E+00  9.000E+00
       5     1     1     2   501     0 -9.987914383E+01 -1.688903932E+02 -7.636331581E+02  7.884528971E+02  4.750000000E+00  0.00000E+00  9.000E+00
      -5     1     1     2     0   503 -3.780769035E+00  6.808000623E+00 -4.130188321E+00  1.001319342E+01  4.750000000E+00  0.00000E+00  9.000E+00
      21     1     1     2   511   502  6.299877209E+01 -1.739203764E+01 -1.147418296E+00  6.536547122E+01  9.299805031E-07  0.00000E+00  9.000E+00
#rwgt            1           9  -2716.9238687620996               11     2254573           0
</event>
<event>
      6   9999  3.45752E-01  3.10871E+01 -1.00000E+00  1.46845E-01
      21    -1     0     0   501   502  0.000000000E+00  0.000000000E+00  1.192473283E+01  1.192473283E+01  0.000000000E+00  0.00000E+00  9.000E+00
      21    -1     0     0   502   512  0.000000000E+00  0.000000000E+00 -1.235287199E+03  1.235287199E+03  0.000000000E+00  0.00000E+00  9.000E+00
      25     1     1     2     0     0 -4.739608544E+01  3.938646462E+01 -6.236797153E+02  6.390610550E+02  1.249998488E+02  0.00000E+00  9.000E+00
       5     1     1     2   501     0 -9.708373309E-01  1.896506651E+00 -3.944753865E+00  6.531680156E+00  4.750000000E+00  0.00000E+00  9.000E+00
      -5     1     1     2     0   503  2.846838909E+01 -1.739868589E+01 -1.139420153E+02  1.188213314E+02  4.750000000E+00  0.00000E+00  9.000E+00
      21     1     1     2   503   512  1.989853368E+01 -2.388428538E+01 -4.817959820E+02  4.827978656E+02  5.394796609E-06  0.00000E+00  9.000E+00
#rwgt            1           9   4.1696300944908589E-005          11     2255380           0
</event>
<event>
      6   9999  3.45752E-01  1.31765E+01 -1.00000E+00  1.75399E-01
      21    -1     0     0   511   502  0.000000000E+00  0.000000000E+00  3.282517927E+02  3.282517927E+02  0.000000000E+00  0.00000E+00  9.000E+00
      21    -1     0     0   502   503  0.000000000E+00  0.000000000E+00 -1.287099739E+03  1.287099739E+03  0.000000000E+00  0.00000E+00  9.000E+00
      25     1     1     2     0     0  2.015028429E+01  1.809893636E+01 -5.700571251E+01  1.400309655E+02  1.250016583E+02  0.00000E+00  9.000E+00
       5     1     1     2   501     0 -1.640538830E+00  2.503197781E+00  6.656811425E+00  8.708214807E+00  4.750000000E+00  0.00000E+00  9.000E+00
      -5     1     1     2     0   503 -2.874147895E+01 -1.229965283E+01 -1.187189513E+03  1.187610566E+03  4.750000000E+00  0.00000E+00  9.000E+00
      21     1     1     2   511   501  1.023173349E+01 -8.302481317E+00  2.786904677E+02  2.790017856E+02  7.629394531E-06  0.00000E+00  9.000E+00
#rwgt            1           9   3.0863933114127053E-004          11     2256143           0
</event>
<event>
      6   9999  3.45752E-01  1.60286E+01 -1.00000E+00  1.67912E-01
      21    -1     0     0   512   502  0.000000000E+00  0.000000000E+00  8.997671044E+01  8.997671044E+01  0.000000000E+00  0.00000E+00  9.000E+00
      21    -1     0     0   502   503  0.000000000E+00  0.000000000E+00 -1.068638444E+03  1.068638444E+03  0.000000000E+00  0.00000E+00  9.000E+00
      25     1     1     2     0     0 -8.250874640E-01  3.853243734E-01 -1.009706907E+03  1.017416313E+03  1.250083450E+02  0.00000E+00  9.000E+00
       5     1     1     2   501     0 -5.030809234E+00  9.478881791E+00  1.899671987E+01  2.232926572E+01  4.750000000E+00  0.00000E+00  9.000E+00
      -5     1     1     2     0   503  2.272761089E-01  5.143623216E+00 -5.219182870E+01  5.265983287E+01  4.750000000E+00  0.00000E+00  9.000E+00
      21     1     1     2   512   501  5.628620589E+00 -1.500782938E+01  6.424028186E+01  6.620974343E+01  1.348699152E-06  0.00000E+00  9.000E+00
#rwgt            1           9   1.3764627566350773E-004          11     2259727           0
</event>
<event>
      6   9999  3.45752E-01  6.17309E+00 -1.00000E+00  2.12352E-01
      21    -1     0     0   501   502  0.000000000E+00  0.000000000E+00  1.665722048E+01  1.665722048E+01  0.000000000E+00  0.00000E+00  9.000E+00
      21    -1     0     0   511   503  0.000000000E+00  0.000000000E+00 -9.583554318E+02  9.583554318E+02  0.000000000E+00  0.00000E+00  9.000E+00
      25     1     1     2     0     0 -3.027400174E+01 -1.514038095E+01 -7.959743402E+02  8.064408448E+02  1.250037579E+02  0.00000E+00  9.000E+00
       5     1     1     2   501     0 -1.011576222E-01 -1.623929259E+00  7.197893135E+00  8.776077979E+00  4.750000000E+00  0.00000E+00  9.000E+00
      -5     1     1     2     0   503  3.168605032E+01  2.279661089E+01 -1.193446955E+02  1.256559195E+02  4.750000000E+00  0.00000E+00  9.000E+00
      21     1     1     2   511   502 -1.310890961E+00 -6.032300675E+00 -3.357706879E+01  3.413981012E+01  0.000000000E+00  0.00000E+00  9.000E+00
#rwgt            1           9   1.5631527265872883E-005          11     2261840           0
</event>
<event>
      6   9999  3.45752E-01  4.10641E+00 -1.00000E+00  2.45513E-01
       2    -1     0     0   501     0  0.000000000E+00  0.000000000E+00  1.148692518E+01  1.148692518E+01  0.000000000E+00  0.00000E+00  9.000E+00
      21    -1     0     0   502   503  0.000000000E+00  0.000000000E+00 -3.948441687E+03  3.948441687E+03  0.000000000E+00  0.00000E+00  9.000E+00
      25     1     1     2     0     0  9.398997387E-01  7.731554274E+00 -2.938559533E+03  2.941227242E+03  1.249996059E+02  0.00000E+00  9.000E+00
       5     1     1     2   501     0 -1.079173076E+00 -5.093679710E-01 -8.848406137E+00  1.011340009E+01  4.750000000E+00  0.00000E+00  9.000E+00
      -5     1     1     2     0   503  2.318312027E+00 -1.070275570E+01 -9.985872673E+02  9.986586085E+02  4.750000000E+00  0.00000E+00  9.000E+00
       2     1     1     2   502     0 -2.179038691E+00  3.480569395E+00  9.040444683E+00  9.929361157E+00  2.668265019E-06  0.00000E+00  9.000E+00
#rwgt            1           9   1.8595478220906560E-003          11     2266072           0
</event>
<event>
      6   9999 -3.45752E-01  4.78222E+00 -1.00000E+00  2.32817E-01
      21    -1     0     0   501   502  0.000000000E+00  0.000000000E+00  8.682355407E+00  8.682355407E+00  0.000000000E+00  0.00000E+00  9.000E+00
      21    -1     0     0   502   511  0.000000000E+00  0.000000000E+00 -8.899141824E+02  8.899141824E+02  0.000000000E+00  0.00000E+00  9.000E+00
      25     1     1     2     0     0 -3.562566684E+00  1.261643277E+01 -7.556190804E+02  7.660010360E+02  1.250021046E+02  0.00000E+00  9.000E+00
       5     1     1     2   501     0 -1.774104076E+00 -3.438119755E-01  6.130036153E-01  5.118976986E+00  4.750000000E+00  0.00000E+00  9.000E+00
      -5     1     1     2     0   503  1.684906500E+00 -9.184863270E+00 -4.923248437E+01  5.033488493E+01  4.750000000E+00  0.00000E+00  9.000E+00
      21     1     1     2   503   511  3.651764260E+00 -3.087757529E+00 -7.699326584E+01  7.714163995E+01  0.000000000E+00  0.00000E+00  9.000E+00
#rwgt            1           9  -2.0569545993620315E-003          11     2270474           0
</event>
<event>
      6   9999  3.45752E-01  1.47878E+01 -1.00000E+00  1.70909E-01
      21    -1     0     0   501   502  0.000000000E+00  0.000000000E+00  3.286870472E+02  3.286870472E+02  0.000000000E+00  0.00000E+00  9.000E+00
       2    -1     0     0   502     0  0.000000000E+00  0.000000000E+00 -1.304010596E+02  1.304010596E+02  0.000000000E+00  0.00000E+00  9.000E+00
      25     1     1     2     0     0 -9.733543943E+01 -2.707804899E+00  2.028071589E+01  1.597358072E+02  1.249908024E+02  0.00000E+00  9.000E+00
       5     1     1     2   501     0  2.722846262E+00 -9.103980199E-01  1.497252192E+02  1.498280564E+02  4.750000000E+00  0.00000E+00  9.000E+00
      -5     1     1     2     0   503  1.004211768E+02  1.721742173E+01  5.727361907E+01  1.169772726E+02  4.750000000E+00  0.00000E+00  9.000E+00
       2     1     1     2   503     0 -5.808583602E+00 -1.359921881E+01 -2.899356656E+01  3.254697064E+01  3.371747881E-07  0.00000E+00  9.000E+00
#rwgt            1           9   4.0388484033960630               11     2274278           0
</event>
<event>
      6   9999 -3.45752E-01  3.00030E+00 -1.00000E+00  2.76900E-01
      21    -1     0     0   501   502  0.000000000E+00  0.000000000E+00  8.671057960E+00  8.671057960E+00  0.000000000E+00  0.00000E+00  9.000E+00
      21    -1     0     0   511   503  0.000000000E+00  0.000000000E+00 -8.158899793E+02  8.158899793E+02  0.000000000E+00  0.00000E+00  9.000E+00
      25     1     1     2     0     0 -3.619858559E+00 -2.122527595E+00 -7.320018437E+02  7.426100634E+02  1.250015942E+02  0.00000E+00  9.000E+00
       5     1     1     2   501     0 -4.959463798E-01 -3.931048290E-01 -9.503883641E-01  4.885307796E+00  4.750000000E+00  0.00000E+00  9.000E+00
      -5     1     1     2     0   503  5.877633556E+00  8.710365833E-02 -9.096143882E+00  1.182609389E+01  4.750000000E+00  0.00000E+00  9.000E+00
      21     1     1     2   511   502 -1.761828617E+00  2.428528765E+00 -6.517054544E+01  6.523957223E+01  0.000000000E+00  0.00000E+00  9.000E+00
#rwgt            1           9  -2.9344356387368998E-004          11     2276778           0
</event>
<event>
      6   9999  3.45752E-01  1.24089E+01 -1.00000E+00  1.77832E-01
      21    -1     0     0   502   503  0.000000000E+00  0.000000000E+00  2.231374940E+03  2.231374940E+03  0.000000000E+00  0.00000E+00  9.000E+00
      21    -1     0     0   501   512  0.000000000E+00  0.000000000E+00 -1.369169587E+01  1.369169587E+01  0.000000000E+00  0.00000E+00  9.000E+00
      25     1     1     2     0     0  4.543140489E+00 -7.258561337E+01  1.690699072E+03  1.696872861E+03  1.249993766E+02  0.00000E+00  9.000E+00
       5     1     1     2   501     0  1.945069882E+00  3.402861531E+00 -6.486194261E-01  6.192412341E+00  4.750000000E+00  0.00000E+00  9.000E+00
      -5     1     1     2     0   503 -9.772650887E+00  8.114904816E+01  5.219863653E+02  5.283682435E+02  4.750000000E+00  0.00000E+00  9.000E+00
      21     1     1     2   502   512  3.284440516E+00 -1.196629632E+01  5.646426432E+00  1.363311881E+01  7.324341373E-07  0.00000E+00  9.000E+00
#rwgt            1           9   1000.1212431799273               11     2282402           0
</event>
<event>
      6   9999  3.45752E-01  1.67502E+01 -1.00000E+00  1.66320E-01
      21    -1     0     0   511   502  0.000000000E+00  0.000000000E+00  3.072576722E+01  3.072576722E+01  0.000000000E+00  0.00000E+00  9.000E+00
      21    -1     0     0   502   503  0.000000000E+00  0.000000000E+00 -3.749367116E+02  3.749367116E+02  0.000000000E+00  0.00000E+00  9.000E+00
      25     1     1     2     0     0  3.701732037E+01  1.458874506E+01 -3.307229222E+02  3.557884230E+02  1.249985488E+02  0.00000E+00  9.000E+00
       5     1     1     2   501     0  3.863769790E-01  4.951847489E-01  2.403282825E+00  5.360295089E+00  4.750000000E+00  0.00000E+00  9.000E+00
      -5     1     1     2     0   503 -2.358283252E+01 -5.620723663E+00 -7.761573466E+00  2.589492319E+01  4.750000000E+00  0.00000E+00  9.000E+00
      21     1     1     2   511   501 -1.382086483E+01 -9.463206144E+00 -8.129731509E+00  1.861883749E+01  4.298152060E-07  0.00000E+00  9.000E+00
#rwgt            1           9   1.0503185729725196E-006          11     2284853           0
</event>
<event>
      6   9999 -3.45752E-01  4.86871E+01 -1.00000E+00  1.35409E-01
      21    -1     0     0   501   512  0.000000000E+00  0.000000000E+00  4.929865273E+01  4.929865273E+01  0.000000000E+00  0.00000E+00  9.000E+00
      21    -1     0     0   502   503  0.000000000E+00  0.000000000E+00 -1.128627438E+03  1.128627438E+03  0.000000000E+00  0.00000E+00  9.000E+00
      25     1     1     2     0     0  4.500956390E+01 -2.537695840E+01 -1.010388010E+03  1.019402821E+03  1.250133145E+02  0.00000E+00  9.000E+00
       5     1     1     2   501     0  3.732837850E+00 -1.780910752E+01  4.130643690E+00  1.925417115E+01  4.750000000E+00  0.00000E+00  9.000E+00
      -5     1     1     2     0   503 -6.812656451E+01 -1.475831355E+00 -5.362346062E+01  8.684149296E+01  4.750000000E+00  0.00000E+00  9.000E+00
      21     1     1     2   502   512  1.938416275E+01  4.466189728E+01 -1.944795882E+01  5.242760662E+01  5.331201500E-07  0.00000E+00  9.000E+00
#rwgt            1           9  -2.8864794684326742E-004          11     2286877           0
</event>
<event>
      6   9999  3.45752E-01  2.28264E+01 -1.00000E+00  1.55949E-01
      21    -1     0     0   501   511  0.000000000E+00  0.000000000E+00  2.254466658E+01  2.254466658E+01  0.000000000E+00  0.00000E+00  9.000E+00
      21    -1     0     0   502   503  0.000000000E+00  0.000000000E+00 -1.618072201E+03  1.618072201E+03  0.000000000E+00  0.00000E+00  9.000E+00
      25     1     1     2     0     0 -1.924453846E+00  1.942154775E+01 -1.557801875E+03  1.562930666E+03  1.249987320E+02  0.00000E+00  9.000E+00
       5     1     1     2   501     0 -4.793337611E-01  2.933171927E+00 -2.150241977E+00  6.001608032E+00  4.750000000E+00  0.00000E+00  9.000E+00
      -5     1     1     2     0   503 -1.097443648E+00  2.015997596E-01 -4.623509145E+01  4.649184022E+01  4.750000000E+00  0.00000E+00  9.000E+00
      21     1     1     2   502   511  3.501231255E+00 -2.255631944E+01  1.065967449E+01  2.519275346E+01  5.196212463E-07  0.00000E+00  9.000E+00
#rwgt            1           9   8.5395302650070253E-004          11     2288000           0
</event>
<event>
      6   9999 -3.45752E-01  1.16036E+01 -1.00000E+00  1.80637E-01
      21    -1     0     0   501   512  0.000000000E+00  0.000000000E+00  4.332464634E+02  4.332464634E+02  0.000000000E+00  0.00000E+00  9.000E+00
      21    -1     0     0   502   503  0.000000000E+00  0.000000000E+00 -9.370270252E+02  9.370270252E+02  0.000000000E+00  0.00000E+00  9.000E+00
      25     1     1     2     0     0  6.948466541E+01  4.829721646E+00 -7.788474307E+02  7.918832895E+02  1.249975158E+02  0.00000E+00  9.000E+00
       5     1     1     2   501     0  8.539175146E-01  2.876369237E-01  1.729924346E+00  5.134885429E+00  4.750000000E+00  0.00000E+00  9.000E+00
      -5     1     1     2     0   503 -6.485641961E+01  5.109535694E+00 -1.427808412E+02  1.569757740E+02  4.750000000E+00  0.00000E+00  9.000E+00
      21     1     1     2   502   512 -5.482163309E+00 -1.022689426E+01  4.161177858E+02  4.162795396E+02  5.394796609E-06  0.00000E+00  9.000E+00
#rwgt            1           9  -3.0196684044768364E-004          11     2290237           0
</event>
<event>
      6   9999  3.45752E-01  1.08683E+01 -1.00000E+00  1.83463E-01
      21    -1     0     0   501   511  0.000000000E+00  0.000000000E+00  1.696920045E+02  1.696920045E+02  0.000000000E+00  0.00000E+00  9.000E+00
      21    -1     0     0   502   503  0.000000000E+00  0.000000000E+00 -6.426602595E+02  6.426602595E+02  0.000000000E+00  0.00000E+00  9.000E+00
      25     1     1     2     0     0 -6.079717920E+00 -1.653043646E+01 -5.302383694E+02  5.450573060E+02  1.249980805E+02  0.00000E+00  9.000E+00
       5     1     1     2   501     0  8.644242523E+00 -1.355045767E+00  1.326126609E+02  1.329858617E+02  4.750000000E+00  0.00000E+00  9.000E+00
      -5     1     1     2     0   503 -2.822825573E+00  7.020276166E+00 -1.036254692E+02  1.040098697E+02  4.750000000E+00  0.00000E+00  9.000E+00
      21     1     1     2   502   511  2.583009701E-01  1.086520607E+01  2.828292271E+01  3.029922671E+01  4.768371582E-07  0.00000E+00  9.000E+00
#rwgt            1           9   3.1150505251532085E-002          11     2292815           0
</event>
<event>
      6   9999 -3.45752E-01  5.85369E+00 -1.00000E+00  2.15562E-01
      21    -1     0     0   512   502  0.000000000E+00  0.000000000E+00  2.584314877E+01  2.584314877E+01  0.000000000E+00  0.00000E+00  9.000E+00
      21    -1     0     0   502   503  0.000000000E+00  0.000000000E+00 -7.545717374E+02  7.545717374E+02  0.000000000E+00  0.00000E+00  9.000E+00
      25     1     1     2     0     0  5.158434954E+00  1.456348377E+00 -7.054125586E+02  7.164206213E+02  1.249915936E+02  0.00000E+00  9.000E+00
       5     1     1     2   501     0  2.021147970E+00 -1.791961250E+00  4.330376463E+00  6.972146337E+00  4.750000000E+00  0.00000E+00  9.000E+00
      -5     1     1     2     0   503 -1.665838818E+00  2.301393444E+00 -4.156018937E+01  4.192711856E+01  4.750000000E+00  0.00000E+00  9.000E+00
      21     1     1     2   512   501 -5.513744106E+00 -1.965780571E+00  1.391378289E+01  1.509499989E+01  1.143415337E-06  0.00000E+00  9.000E+00
#rwgt            1           9  -1.3015471687800894E-004          11     2296998           0
</event>
<event>
      6   9999  3.45752E-01  3.52591E+01 -1.00000E+00  1.43439E-01
      21    -1     0     0   501   511  0.000000000E+00  0.000000000E+00  6.258687110E+01  6.258687110E+01  0.000000000E+00  0.00000E+00  9.000E+00
      21    -1     0     0   502   503  0.000000000E+00  0.000000000E+00 -9.052398401E+02  9.052398401E+02  0.000000000E+00  0.00000E+00  9.000E+00
      25     1     1     2     0     0 -3.568224290E+00 -1.653904310E+01 -8.651976378E+02  8.743441906E+02  1.249981560E+02  0.00000E+00  9.000E+00
       5     1     1     2   501     0  4.663489540E-01 -1.748850634E+01  8.656956513E+00  2.008906995E+01  4.750000000E+00  0.00000E+00  9.000E+00
      -5     1     1     2     0   503 -2.158322280E+00 -8.370056836E-01 -2.227107318E+01  2.288934543E+01  4.750000000E+00  0.00000E+00  9.000E+00
      21     1     1     2   502   511  5.260197616E+00  3.486455513E+01  3.615878544E+01  5.050410525E+01  1.907348633E-06  0.00000E+00  9.000E+00
#rwgt            1           9   3.4030065469495417E-003          11     2300496           0
</event>
<event>
      6   9999  3.45752E-01  4.32842E+00 -1.00000E+00  2.40964E-01
      21    -1     0     0   501   502  0.000000000E+00  0.000000000E+00  8.002895580E+02  8.002895580E+02  0.000000000E+00  0.00000E+00  9.000E+00
      21    -1     0     0   512   503  0.000000000E+00  0.000000000E+00 -2.172511024E+02  2.172511024E+02  0.000000000E+00  0.00000E+00  9.000E+00
      25     1     1     2     0     0 -1.089880212E+02 -1.522195425E+01  1.015398821E+02  1.950510639E+02  1.249978928E+02  0.00000E+00  9.000E+00
       5     1     1     2   501     0  1.152946081E-01 -2.201546553E+00  6.305969828E+02  6.306187258E+02  4.750000000E+00  0.00000E+00  9.000E+00
      -5     1     1     2     0   503  1.055793557E+02  2.023222640E+01 -1.149760265E+02  1.574750537E+02  4.750000000E+00  0.00000E+00  9.000E+00
      21     1     1     2   512   502  3.293370882E+00 -2.808725592E+00 -3.412238272E+01  3.439581709E+01  8.259061849E-07  0.00000E+00  9.000E+00
#rwgt            1           9   1.0053740954781385               11     2301527           0
</event>
<event>
      6   9999  3.45752E-01  7.05601E+00 -1.00000E+00  2.04698E-01
      21    -1     0     0   501   502  0.000000000E+00  0.000000000E+00  2.571028372E+01  2.571028372E+01  0.000000000E+00  0.00000E+00  9.000E+00
      21    -1     0     0   502   511  0.000000000E+00  0.000000000E+00 -1.244762372E+03  1.244762372E+03  0.000000000E+00  0.00000E+00  9.000E+00
      25     1     1     2     0     0  2.297256336E+01  1.622621454E+01 -9.626062446E+02  9.710957230E+02  1.250003694E+02  0.00000E+00  9.000E+00
       5     1     1     2   501     0 -1.235041377E+00 -2.062594409E-01  1.979171708E+01  2.039221507E+01  4.750000000E+00  0.00000E+00  9.000E+00
      -5     1     1     2     0   503 -1.512194400E+01 -1.356609162E+01 -8.178406072E+01  8.440324117E+01  4.750000000E+00  0.00000E+00  9.000E+00
      21     1     1     2   503   511 -6.615577980E+00 -2.453863474E+00 -1.944535000E+02  1.945814764E+02  2.697398305E-06  0.00000E+00  9.000E+00
#rwgt            1           9   3.6834581051634008E-002          11     2309488           0
</event>
<event>
      6   9999 -3.45752E-01  6.08319E+01 -1.00000E+00  1.30383E-01
      21    -1     0     0   512   503  0.000000000E+00  0.000000000E+00  5.311144941E+01  5.311144941E+01  0.000000000E+00  0.00000E+00  9.000E+00
      21    -1     0     0   501   502  0.000000000E+00  0.000000000E+00 -1.365844986E+03  1.365844986E+03  0.000000000E+00  0.00000E+00  9.000E+00
      25     1     1     2     0     0  1.096099627E+02  2.081232130E+02 -7.860131330E+02  8.299208010E+02  1.249890995E+02  0.00000E+00  9.000E+00
       5     1     1     2   501     0  2.147667726E+01 -2.400898569E+01 -6.113420268E+01  6.926494277E+01  4.750000000E+00  0.00000E+00  9.000E+00
      -5     1     1     2     0   503 -9.275144537E+01 -1.368815153E+02 -3.830411724E+02  4.172319284E+02  4.750000000E+00  0.00000E+00  9.000E+00
      21     1     1     2   512   502 -3.833519461E+01 -4.723271210E+01 -8.254502881E+01  1.025387635E+02  1.907348633E-06  0.00000E+00  9.000E+00
#rwgt            1           9  -8.9536248670762301E-004          11     2313368           0
</event>
<event>
      6   9999  3.45752E-01  3.57516E+00 -1.00000E+00  2.58395E-01
      21    -1     0     0   501   511  0.000000000E+00  0.000000000E+00  3.262941160E+01  3.262941160E+01  0.000000000E+00  0.00000E+00  9.000E+00
      21    -1     0     0   502   503  0.000000000E+00  0.000000000E+00 -8.554472771E+02  8.554472771E+02  0.000000000E+00  0.00000E+00  9.000E+00
      25     1     1     2     0     0  5.493167951E-01 -5.473453707E+00 -7.761257923E+02  7.861372560E+02  1.249411035E+02  0.00000E+00  9.000E+00
       5     1     1     2   501     0  2.982169720E+00  5.059372516E-01  6.820174192E+00  8.844579399E+00  4.750000000E+00  0.00000E+00  9.000E+00
      -5     1     1     2     0   503 -3.109407069E+00  1.417359580E+00 -7.302409975E+01  7.325816654E+01  4.750000000E+00  0.00000E+00  9.000E+00
      21     1     1     2   502   511 -4.220794468E-01  3.550156875E+00  1.951185229E+01  1.983668683E+01  7.539457465E-07  0.00000E+00  9.000E+00
#rwgt            1           9   8.7461732873026610E-005          11     2314409           0
</event>
<event>
      6   9999  3.45752E-01  4.79928E+00 -1.00000E+00  2.32537E-01
      21    -1     0     0   512   502  0.000000000E+00  0.000000000E+00  2.003079634E+00  2.003079634E+00  0.000000000E+00  0.00000E+00  9.000E+00
      21    -1     0     0   502   503  0.000000000E+00  0.000000000E+00 -3.690716437E+03  3.690716437E+03  0.000000000E+00  0.00000E+00  9.000E+00
      25     1     1     2     0     0  5.396713520E-01  4.722333005E+00 -3.477015127E+03  3.479264055E+03  1.249863096E+02  0.00000E+00  9.000E+00
       5     1     1     2   501     0 -5.728331040E-01  1.383626918E-01 -3.328880768E+01  3.363115369E+01  4.750000000E+00  0.00000E+00  9.000E+00
      -5     1     1     2     0   503 -2.432986265E+00 -7.435098575E-01 -1.704133805E+02  1.704985484E+02  4.750000000E+00  0.00000E+00  9.000E+00
      21     1     1     2   512   501  2.466148017E+00 -4.117185840E+00 -7.996041766E+00  9.325759444E+00  1.124618188E-06  0.00000E+00  9.000E+00
#rwgt            1           9   6.5186573819711005E-004          11     2319665           0
</event>
<event>
      6   9999  3.45752E-01  4.53464E+01 -1.00000E+00  1.37098E-01
      21    -1     0     0   502   511  0.000000000E+00  0.000000000E+00  3.694928979E+01  3.694928979E+01  0.000000000E+00  0.00000E+00  9.000E+00
      21    -1     0     0   501   502  0.000000000E+00  0.000000000E+00 -1.089009329E+03  1.089009329E+03  0.000000000E+00  0.00000E+00  9.000E+00
      25     1     1     2     0     0 -5.452111735E+01 -4.236606239E+00 -3.230010603E+02  3.506371658E+02  1.250049439E+02  0.00000E+00  9.000E+00
       5     1     1     2   501     0  1.054100292E+01  8.966022470E+01 -3.045069817E+02  3.176430907E+02  4.750000000E+00  0.00000E+00  9.000E+00
      -5     1     1     2     0   503  4.366181692E+00 -1.074923434E+02 -3.765456696E+02  3.916412532E+02  4.750000000E+00  0.00000E+00  9.000E+00
      21     1     1     2   503   511  3.961393274E+01  2.206872497E+01 -4.800632751E+01  6.603710903E+01  1.507891493E-06  0.00000E+00  9.000E+00
#rwgt            1           9   3.6644495328104174               11     2322962           0
</event>
<event>
      6   9999  3.45752E-01  4.03338E+00 -1.00000E+00  2.47105E-01
      21    -1     0     0   501   512  0.000000000E+00  0.000000000E+00  3.793729356E+01  3.793729356E+01  0.000000000E+00  0.00000E+00  9.000E+00
      21    -1     0     0   502   503  0.000000000E+00  0.000000000E+00 -1.039038928E+03  1.039038928E+03  0.000000000E+00  0.00000E+00  9.000E+00
      25     1     1     2     0     0 -1.952535666E+01 -1.506321317E+01 -5.137668020E+02  5.293285978E+02  1.249971909E+02  0.00000E+00  9.000E+00
       5     1     1     2   501     0 -9.388549566E-01  3.068696014E+00  1.401559354E+01  1.514257924E+01  4.750000000E+00  0.00000E+00  9.000E+00
      -5     1     1     2     0   503  1.659507214E+01  1.085524059E+01 -5.164620382E+02  5.168644233E+02  4.750000000E+00  0.00000E+00  9.000E+00
      21     1     1     2   502   512  3.869139480E+00  1.139276569E+00  1.511161247E+01  1.564062092E+01  7.152557373E-07  0.00000E+00  9.000E+00
#rwgt            1           9   2.4517234931229703E-002          11     2324241           0
</event>
<event>
      6   9999  3.45752E-01  6.65557E+00 -1.00000E+00  2.07971E-01
      21    -1     0     0   501   502  0.000000000E+00  0.000000000E+00  2.857396807E+01  2.857396807E+01  0.000000000E+00  0.00000E+00  9.000E+00
      21    -1     0     0   502   511  0.000000000E+00  0.000000000E+00 -1.874840473E+03  1.874840473E+03  0.000000000E+00  0.00000E+00  9.000E+00
      25     1     1     2     0     0 -4.696648969E+00  1.341951048E+01 -1.615363964E+03  1.620255481E+03  1.249997859E+02  0.00000E+00  9.000E+00
       5     1     1     2   501     0 -3.238227376E+00 -7.153669578E+00  2.507904465E+01  2.670546921E+01  4.750000000E+00  0.00000E+00  9.000E+00
      -5     1     1     2     0   503  7.380293333E+00  3.665797388E-01 -1.605115123E+02  1.607517066E+02  4.750000000E+00  0.00000E+00  9.000E+00
      21     1     1     2   503   511  5.545830116E-01 -6.632420640E+00 -9.547007391E+01  9.570178462E+01  0.000000000E+00  0.00000E+00  9.000E+00
#rwgt            1           9   5.6939815138825267E-003          11     2330099           0
</event>
<event>
      6   9999 -3.45752E-01  5.28818E+00 -1.00000E+00  2.21994E-01
      21    -1     0     0   501   502  0.000000000E+00  0.000000000E+00  9.605878664E+00  9.605878664E+00  0.000000000E+00  0.00000E+00  9.000E+00
      21    -1     0     0   512   503  0.000000000E+00  0.000000000E+00 -8.527566411E+02  8.527566411E+02  0.000000000E+00  0.00000E+00  9.000E+00
      25     1     1     2     0     0 -1.421939128E+01  1.041166833E+01 -5.840510462E+02  5.975378360E+02  1.250009876E+02  0.00000E+00  9.000E+00
       5     1     1     2   501     0  3.715279392E-01  1.848593756E+00 -4.112973998E-01  5.127084692E+00  4.750000000E+00  0.00000E+00  9.000E+00
      -5     1     1     2     0   503  1.505105558E+01 -7.110783695E+00 -1.794876213E+02  1.803204542E+02  4.750000000E+00  0.00000E+00  9.000E+00
      21     1     1     2   512   502 -1.203192240E+00 -5.149478392E+00 -7.920079756E+01  7.937714490E+01  9.536743164E-07  0.00000E+00  9.000E+00
#rwgt            1           9  -2.9358597583143530E-003          11     2335286           0
</event>
<event>
      6   9999  3.45752E-01  9.62355E+00 -1.00000E+00  1.88966E-01
      21    -1     0     0   501   502  0.000000000E+00  0.000000000E+00  2.619464851E+01  2.619464851E+01  0.000000000E+00  0.00000E+00  9.000E+00
      21    -1     0     0   511   503  0.000000000E+00  0.000000000E+00 -4.119221419E+02  4.119221419E+02  0.000000000E+00  0.00000E+00  9.000E+00
      25     1     1     2     0     0  7.592168871E+00 -3.033008737E+00 -1.498172021E+02  1.952870924E+02  1.250000570E+02  0.00000E+00  9.000E+00
       5     1     1     2   501     0  7.482159149E-01 -7.425379254E-02  9.732713695E-01  4.906638140E+00  4.750000000E+00  0.00000E+00  9.000E+00
      -5     1     1     2     0   503  7.652694757E-01 -7.190583106E-03 -1.348988166E+01  1.432218895E+01  4.750000000E+00  0.00000E+00  9.000E+00
      21     1     1     2   511   502 -9.105654262E+00  3.114453113E+00 -2.233936810E+02  2.236008709E+02  2.697398305E-06  0.00000E+00  9.000E+00
#rwgt            1           9   6.0743889231223034E-003          11     2338636           0
</event>
<event>
      6   9999  3.45752E-01  2.44156E+01 -1.00000E+00  1.53867E-01
      21    -1     0     0   501   512  0.000000000E+00  0.000000000E+00  1.193991595E+01  1.193991595E+01  0.000000000E+00  0.00000E+00  9.000E+00
      21    -1     0     0   502   503  0.000000000E+00  0.000000000E+00 -7.840795617E+02  7.840795617E+02  0.000000000E+00  0.00000E+00  9.000E+00
      25     1     1     2     0     0  2.075065532E+01  1.747223525E+01 -6.416195464E+02  6.542446865E+02  1.249983950E+02  0.00000E+00  9.000E+00
       5     1     1     2   501     0  6.212942609E-01  1.871906826E+00 -4.408950683E+00  6.774318257E+00  4.750000000E+00  0.00000E+00  9.000E+00
      -5     1     1     2     0   503 -1.452625779E+01  4.092070739E+00 -9.018992396E+01  9.156714526E+01  4.750000000E+00  0.00000E+00  9.000E+00
      21     1     1     2   502   512 -6.845691793E+00 -2.343621282E+01 -3.592122472E+01  4.343332767E+01  9.536743164E-07  0.00000E+00  9.000E+00
#rwgt            1           9   3.1944896990757417E-003          11     2340907           0
</event>
<event>
      6   9999  3.45752E-01  8.82263E+00 -1.00000E+00  1.93112E-01
      21    -1     0     0   511   502  0.000000000E+00  0.000000000E+00  1.860355517E+01  1.860355517E+01  0.000000000E+00  0.00000E+00  9.000E+00
      21    -1     0     0   502   503  0.000000000E+00  0.000000000E+00 -8.263586263E+02  8.263586263E+02  0.000000000E+00  0.00000E+00  9.000E+00
      25     1     1     2     0     0 -5.651189102E+00  3.529100205E+00 -7.940283291E+02  8.038351177E+02  1.250020738E+02  0.00000E+00  9.000E+00
       5     1     1     2   501     0 -4.649123599E+00 -2.179746900E+00  6.706760441E+00  9.690654384E+00  4.750000000E+00  0.00000E+00  9.000E+00
      -5     1     1     2     0   503  1.599584163E+00  1.121968534E-01 -2.192300451E+01  2.248892804E+01  4.750000000E+00  0.00000E+00  9.000E+00
      21     1     1     2   511   501  8.700728538E+00 -1.461550159E+00  1.489502099E+00  8.947481348E+00  3.839760639E-07  0.00000E+00  9.000E+00
#rwgt            1           9   3.2263290437653541E-004          11     2342047           0
</event>
<event>
      6   9999  3.45752E-01  1.35484E+01 -1.00000E+00  1.74293E-01
      21    -1     0     0   512   502  0.000000000E+00  0.000000000E+00  1.020226041E+02  1.020226041E+02  0.000000000E+00  0.00000E+00  9.000E+00
      21    -1     0     0   502   503  0.000000000E+00  0.000000000E+00 -1.333479056E+03  1.333479056E+03  0.000000000E+00  0.00000E+00  9.000E+00
      25     1     1     2     0     0  5.344295200E+00 -7.914642257E+00 -1.131437852E+03  1.138441784E+03  1.257254097E+02  0.00000E+00  9.000E+00
       5     1     1     2   501     0 -1.424093390E+01  3.845268618E+00  4.556707705E+01  4.813014960E+01  4.750000000E+00  0.00000E+00  9.000E+00
      -5     1     1     2     0   503 -2.152655504E+00 -3.771088738E+00 -1.963159650E+02  1.964214236E+02  4.750000000E+00  0.00000E+00  9.000E+00
      21     1     1     2   512   501  1.104929421E+01  7.840462377E+00  5.073028825E+01  5.250830314E+01  9.536743164E-07  0.00000E+00  9.000E+00
#rwgt            1           9   4.1227128987726761E-004          11     2345516           0
</event>
<event>
      6   9999  3.45752E-01  4.59265E+01 -1.00000E+00  1.36792E-01
      21    -1     0     0   511   503  0.000000000E+00  0.000000000E+00  3.213134434E+01  3.213134434E+01  0.000000000E+00  0.00000E+00  9.000E+00
      21    -1     0     0   501   502  0.000000000E+00  0.000000000E+00 -8.128455146E+02  8.128455146E+02  0.000000000E+00  0.00000E+00  9.000E+00
      25     1     1     2     0     0  1.482032625E+01  3.353899877E+01 -5.065932932E+02  5.230758929E+02  1.250084737E+02  0.00000E+00  9.000E+00
       5     1     1     2   501     0  3.548592423E+00  2.449405493E+00 -7.454804020E+01  7.482355841E+01  4.750000000E+00  0.00000E+00  9.000E+00
      -5     1     1     2     0   503  2.282652354E+01 -1.568626797E+01 -1.991766507E+02  2.011492228E+02  4.750000000E+00  0.00000E+00  9.000E+00
      21     1     1     2   511   502 -4.119544222E+01 -2.030213630E+01 -3.961862230E-01  4.592818482E+01  1.546296161E-06  0.00000E+00  9.000E+00
#rwgt            1           9   9.4012054878224921E-002          11     2348813           0
</event>
<event>
      6   9999  3.45752E-01  7.01386E+00 -1.00000E+00  2.05029E-01
      21    -1     0     0   501   502  0.000000000E+00  0.000000000E+00  9.430673195E+00  9.430673195E+00  0.000000000E+00  0.00000E+00  9.000E+00
      21    -1     0     0   502   512  0.000000000E+00  0.000000000E+00 -2.083630422E+03  2.083630422E+03  0.000000000E+00  0.00000E+00  9.000E+00
      25     1     1     2     0     0  2.439784420E+01 -1.157029863E+01 -7.305160436E+02  7.416264163E+02  1.250076987E+02  0.00000E+00  9.000E+00
       5     1     1     2   501     0 -6.912490236E-01  2.796452365E+00  1.274667868E+00  5.699583249E+00  4.750000000E+00  0.00000E+00  9.000E+00
      -5     1     1     2     0   503 -2.998357379E+01  1.190335123E+01 -7.206623064E+02  7.213996305E+02  4.750000000E+00  0.00000E+00  9.000E+00
      21     1     1     2   503   512  6.276978611E+00 -3.129504970E+00 -6.242960669E+02  6.243354655E+02  0.000000000E+00  0.00000E+00  9.000E+00
#rwgt            1           9   6.9174571821575663E-004          11     2349726           0
</event>
<event>
      6   9999  3.45752E-01  3.63452E+01 -1.00000E+00  1.42643E-01
      21    -1     0     0   502   511  0.000000000E+00  0.000000000E+00  7.569062162E+00  7.569062162E+00  0.000000000E+00  0.00000E+00  9.000E+00
      21    -1     0     0   501   502  0.000000000E+00  0.000000000E+00 -5.683931145E+03  5.683931145E+03  0.000000000E+00  0.00000E+00  9.000E+00
      25     1     1     2     0     0 -4.289880045E+01  3.919682229E+01 -3.254961873E+03  3.257879340E+03  1.249971927E+02  0.00000E+00  9.000E+00
       5     1     1     2   501     0  1.995903978E+01 -1.379263061E+01 -2.254633791E+03  2.254769322E+03  4.750000000E+00  0.00000E+00  9.000E+00
      -5     1     1     2     0   503 -2.063104280E+00  9.744461797E-01 -1.175578956E+02  1.176759417E+02  4.750000000E+00  0.00000E+00  9.000E+00
      21     1     1     2   503   511  2.500286495E+01 -2.637863785E+01 -4.920852304E+01  6.117560405E+01  2.780414531E-06  0.00000E+00  9.000E+00
#rwgt            1           9   4.8358092173791576E-004          11     2353310           0
</event>
<event>
      6   9999  3.45752E-01  1.17997E+01 -1.00000E+00  1.79928E-01
      21    -1     0     0   501   512  0.000000000E+00  0.000000000E+00  1.420908463E+02  1.420908463E+02  0.000000000E+00  0.00000E+00  9.000E+00
      21    -1     0     0   502   503  0.000000000E+00  0.000000000E+00 -1.409524314E+02  1.409524314E+02  0.000000000E+00  0.00000E+00  9.000E+00
      25     1     1     2     0     0  4.646954653E+01 -2.026209156E+01  2.926230638E+00  1.349212825E+02  1.250008741E+02  0.00000E+00  9.000E+00
       5     1     1     2   501     0  1.300583755E+00  5.874594273E-01  2.006089116E+01  2.066490941E+01  4.750000000E+00  0.00000E+00  9.000E+00
      -5     1     1     2     0   503 -3.766489453E+01  1.358232180E+01 -6.841874482E+01  7.941543230E+01  4.750000000E+00  0.00000E+00  9.000E+00
      21     1     1     2   502   512 -1.010523575E+01  6.092310332E+00  4.657003795E+01  4.804165348E+01  6.743495762E-07  0.00000E+00  9.000E+00
#rwgt            1           9   1.5167777194402064E-003          11     2353873           0
</event>
<event>
      6   9999  3.45752E-01  1.49824E+01 -1.00000E+00  1.70416E-01
      21    -1     0     0   501   502  0.000000000E+00  0.000000000E+00  9.194485953E+01  9.194485953E+01  0.000000000E+00  0.00000E+00  9.000E+00
      21    -1     0     0   511   503  0.000000000E+00  0.000000000E+00 -5.578334386E+02  5.578334386E+02  0.000000000E+00  0.00000E+00  9.000E+00
      25     1     1     2     0     0 -2.209792967E+01 -7.867611124E+01 -7.273044809E+01  1.661117655E+02  1.250006063E+02  0.00000E+00  9.000E+00
       5     1     1     2   501     0 -5.401776383E-01  8.219877027E-01  3.048292209E+01  3.086646230E+01  4.750000000E+00  0.00000E+00  9.000E+00
      -5     1     1     2     0   503  8.221410174E+00  8.193224214E+01 -1.036696212E+02  1.324780614E+02  4.750000000E+00  0.00000E+00  9.000E+00
      21     1     1     2   511   502  1.441669714E+01 -4.078118595E+00 -3.199714319E+02  3.203220090E+02  0.000000000E+00  0.00000E+00  9.000E+00
#rwgt            1           9   1.1473863347090561E-003          11     2357040           0
</event>
<event>
      6   9999  3.45752E-01  9.69401E+00 -1.00000E+00  1.88627E-01
      21    -1     0     0   512   502  0.000000000E+00  0.000000000E+00  2.881552753E+01  2.881552753E+01  0.000000000E+00  0.00000E+00  9.000E+00
      21    -1     0     0   502   503  0.000000000E+00  0.000000000E+00 -7.657855315E+02  7.657855315E+02  0.000000000E+00  0.00000E+00  9.000E+00
      25     1     1     2     0     0 -1.229383502E+01  5.528089902E+00 -6.749778051E+02  6.865872176E+02  1.250010875E+02  0.00000E+00  9.000E+00
       5     1     1     2   501     0 -2.201742507E-01  9.912031669E-01  6.484517402E-01  4.900403053E+00  4.750000000E+00  0.00000E+00  9.000E+00
      -5     1     1     2     0   503  3.438156877E+00 -3.113020659E+00 -8.157345326E+01  8.184315853E+01  4.750000000E+00  0.00000E+00  9.000E+00
      21     1     1     2   512   501  9.075852390E+00 -3.406272410E+00  1.893280265E+01  2.127027984E+01  1.143415337E-06  0.00000E+00  9.000E+00
#rwgt            1           9   2.5660114910358235E-003          11     2359788           0
</event>
<event>
      6   9999 -3.45752E-01  6.65044E+00 -1.00000E+00  2.08015E-01
      21    -1     0     0   511   502  0.000000000E+00  0.000000000E+00  2.152751847E+02  2.152751847E+02  0.000000000E+00  0.00000E+00  9.000E+00
      21    -1     0     0   502   503  0.000000000E+00  0.000000000E+00 -1.269417803E+03  1.269417803E+03  0.000000000E+00  0.00000E+00  9.000E+00
      25     1     1     2     0     0  1.740044959E+00  1.252731664E+01 -1.056464645E+03  1.063909026E+03  1.249996356E+02  0.00000E+00  9.000E+00
       5     1     1     2   501     0 -7.379448584E-01  6.679295891E-01 -6.474627991E+00  8.091600594E+00  4.750000000E+00  0.00000E+00  9.000E+00
      -5     1     1     2     0   503 -3.358086352E+00 -6.976108453E+00 -2.017931972E+02  2.019975242E+02  4.750000000E+00  0.00000E+00  9.000E+00
      21     1     1     2   511   501  2.355986251E+00 -6.219137771E+00  2.105898520E+02  2.106948365E+02  5.394796609E-06  0.00000E+00  9.000E+00
#rwgt            1           9  -5.3564465114658115E-003          11     2362413           0
</event>
<event>
      6   9999  3.45752E-01  2.12829E+01 -1.00000E+00  1.58176E-01
      21    -1     0     0   512   502  0.000000000E+00  0.000000000E+00  2.271493374E+02  2.271493374E+02  0.000000000E+00  0.00000E+00  9.000E+00
      21    -1     0     0   502   503  0.000000000E+00  0.000000000E+00 -4.459712494E+02  4.459712494E+02  0.000000000E+00  0.00000E+00  9.000E+00
      25     1     1     2     0     0  1.576611623E+01 -1.299234294E+01 -4.152078082E+02  4.340967519E+02  1.250003783E+02  0.00000E+00  9.000E+00
       5     1     1     2   501     0  2.441952622E+00 -2.727202626E+00  1.674067589E+02  1.675141373E+02  4.750000000E+00  0.00000E+00  9.000E+00
      -5     1     1     2     0   503 -6.807213707E+00 -2.252153563E+00 -1.799186212E+01  1.994191457E+01  4.750000000E+00  0.00000E+00  9.000E+00
      21     1     1     2   512   501 -1.140085515E+01  1.797169913E+01  4.697099940E+01  5.156778309E+01  6.743495762E-07  0.00000E+00  9.000E+00
#rwgt            1           9   9.8746505193539214E-003          11     2365225           0
</event>
<event>
      6   9999  3.45752E-01  6.32937E+00 -1.00000E+00  2.10875E-01
      21    -1     0     0   501   502  0.000000000E+00  0.000000000E+00  1.745517475E+01  1.745517475E+01  0.000000000E+00  0.00000E+00  9.000E+00
      21    -1     0     0   511   503  0.000000000E+00  0.000000000E+00 -8.863590200E+02  8.863590200E+02  0.000000000E+00  0.00000E+00  9.000E+00
      25     1     1     2     0     0  3.996419565E+00  4.320448146E+01 -4.327393727E+02  4.525162556E+02  1.249999933E+02  0.00000E+00  9.000E+00
       5     1     1     2   501     0 -1.050812363E+00  1.038852277E+00  4.655384756E+00  6.813114406E+00  4.750000000E+00  0.00000E+00  9.000E+00
      -5     1     1     2     0   503 -8.459148382E+00 -4.735166933E+01 -4.185908377E+02  4.213722697E+02  4.750000000E+00  0.00000E+00  9.000E+00
      21     1     1     2   511   502  5.513541180E+00  3.108335597E+00 -2.222901961E+01  2.311255501E+01  2.384185791E-07  0.00000E+00  9.000E+00
#rwgt            1           9   1.9258996577626555E-002          11     2367525           0
</event>
<event>
      6   9999  3.45752E-01  1.64001E+01 -1.00000E+00  1.67080E-01
      21    -1     0     0   501   502  0.000000000E+00  0.000000000E+00  3.504877157E+03  3.504877157E+03  0.000000000E+00  0.00000E+00  9.000E+00
      21    -1     0     0   512   503  0.000000000E+00  0.000000000E+00 -5.572675046E+01  5.572675046E+01  0.000000000E+00  0.00000E+00  9.000E+00
      25     1     1     2     0     0 -1.447328443E+01  3.644963016E+00  4.062706352E+01  1.322806742E+02  1.249994270E+02  0.00000E+00  9.000E+00
       5     1     1     2   501     0  1.611616302E+00 -1.198553729E+01  3.360609442E+03  3.360634559E+03  4.750000000E+00  0.00000E+00  9.000E+00
      -5     1     1     2     0   503  1.733774041E+01 -7.436831315E+00  2.760359697E+00  1.964906583E+01  4.750000000E+00  0.00000E+00  9.000E+00
      21     1     1     2   512   502 -4.476072281E+00  1.577740559E+01  4.515354083E+01  4.803960865E+01  0.000000000E+00  0.00000E+00  9.000E+00
#rwgt            1           9   1.1229164022317842E-002          11     2371188           0
</event>
<event>
      6   9999  3.45752E-01  4.05873E+01 -1.00000E+00  1.39820E-01
      21    -1     0     0   511   503  0.000000000E+00  0.000000000E+00  3.063370128E+01  3.063370128E+01  0.000000000E+00  0.00000E+00  9.000E+00
      21    -1     0     0   501   502  0.000000000E+00  0.000000000E+00 -1.485535799E+03  1.485535799E+03  0.000000000E+00  0.00000E+00  9.000E+00
      25     1     1     2     0     0  6.875294664E+01 -1.677012891E+02 -9.012301403E+02  9.277358116E+02  1.250091209E+02  0.00000E+00  9.000E+00
       5     1     1     2   501     0 -4.358746970E+01  1.287471636E+02 -3.437504628E+02  3.696791079E+02  4.750000000E+00  0.00000E+00  9.000E+00
      -5     1     1     2     0   503 -1.932293179E+01 -1.210442413E+00 -8.892768167E+01  9.113471310E+01  4.750000000E+00  0.00000E+00  9.000E+00
      21     1     1     2   511   502 -5.842545154E+00  4.016456794E+01 -1.209938130E+02  1.276198677E+02  1.348699152E-06  0.00000E+00  9.000E+00
#rwgt            1           9   17.789289377012345               11     2374349           0
</event>
<event>
      6   9999  3.45752E-01  5.96441E+00 -1.00000E+00  2.14418E-01
      21    -1     0     0   501   502  0.000000000E+00  0.000000000E+00  1.976725573E+01  1.976725573E+01  0.000000000E+00  0.00000E+00  9.000E+00
       1    -1     0     0   502     0  0.000000000E+00  0.000000000E+00 -2.734281280E+03  2.734281280E+03  0.000000000E+00  0.00000E+00  9.000E+00
      25     1     1     2     0     0 -3.925757359E+00 -1.687717575E+01 -4.886833055E+02  5.047126624E+02  1.249929915E+02  0.00000E+00  9.000E+00
       5     1     1     2   501     0 -1.157964865E+00  9.192573127E-01  1.097032512E+01  1.204559878E+01  4.750000000E+00  0.00000E+00  9.000E+00
      -5     1     1     2     0   503 -1.122652039E-01  1.888637763E+01 -3.951859076E+02  3.956654798E+02  4.750000000E+00  0.00000E+00  9.000E+00
       1     1     1     2   503     0  5.195987428E+00 -2.928459195E+00 -1.841615136E+03  1.841624795E+03  2.157918644E-05  0.00000E+00  9.000E+00
#rwgt            1           9   7.7910017968224902E-004          11     2375551           0
</event>
<event>
      6   9999  3.45752E-01  4.28807E+00 -1.00000E+00  2.41760E-01
      21    -1     0     0   501   511  0.000000000E+00  0.000000000E+00  1.280804372E+01  1.280804372E+01  0.000000000E+00  0.00000E+00  9.000E+00
      21    -1     0     0   502   503  0.000000000E+00  0.000000000E+00 -9.829307163E+02  9.829307163E+02  0.000000000E+00  0.00000E+00  9.000E+00
      25     1     1     2     0     0 -4.339174172E+00 -4.601999318E+01 -6.495932956E+02  6.631234051E+02  1.249981302E+02  0.00000E+00  9.000E+00
       5     1     1     2   501     0 -4.868429558E-01 -6.994909138E-01 -3.235264243E+00  5.809968874E+00  4.750000000E+00  0.00000E+00  9.000E+00
      -5     1     1     2     0   503  7.189788585E-01  4.548670623E+01 -3.189468130E+02  3.222098531E+02  4.750000000E+00  0.00000E+00  9.000E+00
      21     1     1     2   502   511  4.107038269E+00  1.232777857E+00  1.652700300E+00  4.595532926E+00  1.173318606E-07  0.00000E+00  9.000E+00
#rwgt            1           9   2.6989555653331512E-002          11     2380146           0
</event>
<event>
      6   9999  3.45752E-01  6.41271E+00 -1.00000E+00  2.10111E-01
      21    -1     0     0   512   503  0.000000000E+00  0.000000000E+00  2.943019106E+02  2.943019106E+02  0.000000000E+00  0.00000E+00  9.000E+00
      21    -1     0     0   501   502  0.000000000E+00  0.000000000E+00 -2.936807142E+01  2.936807142E+01  0.000000000E+00  0.00000E+00  9.000E+00
      25     1     1     2     0     0  5.496213199E+00  2.250602004E+00  1.104834710E+02  1.668789739E+02  1.249268626E+02  0.00000E+00  9.000E+00
       5     1     1     2   501     0  1.309358214E-01 -9.103248391E-02  1.032290130E+01  1.136442794E+01  4.750000000E+00  0.00000E+00  9.000E+00
      -5     1     1     2     0   503  6.731931966E-01 -9.643533088E-01  9.874049563E+00  1.102009624E+01  4.750000000E+00  0.00000E+00  9.000E+00
      21     1     1     2   512   502 -6.300342217E+00 -1.195216211E+00  1.342534174E+02  1.344064840E+02  1.907348633E-06  0.00000E+00  9.000E+00
#rwgt            1           9   5.9835781855379537E-004          11     2384926           0
</event>
<event>
      6   9999 -3.45752E-01  7.78543E+00 -1.00000E+00  1.99424E-01
      21    -1     0     0   501   502  0.000000000E+00  0.000000000E+00  4.677995222E+02  4.677995222E+02  0.000000000E+00  0.00000E+00  9.000E+00
      -1    -1     0     0     0   503  0.000000000E+00  0.000000000E+00 -5.528322315E+02  5.528322315E+02  0.000000000E+00  0.00000E+00  9.000E+00
      25     1     1     2     0     0  3.901303519E+01 -7.574321222E+00  1.095524985E+02  1.708981241E+02  1.250001266E+02  0.00000E+00  9.000E+00
       5     1     1     2   501     0 -4.584585009E-01  8.164087748E+00  3.005420366E+02  3.006907726E+02  4.750000000E+00  0.00000E+00  9.000E+00
      -5     1     1     2     0   503 -3.923598387E+01  7.165781635E+00  1.194929749E+01  4.190655161E+01  4.750000000E+00  0.00000E+00  9.000E+00
      -1     1     1     2     0   502  6.814071905E-01 -7.755548161E+00 -5.070765418E+02  5.071363053E+02  7.629394531E-06  0.00000E+00  9.000E+00
#rwgt            1           9  -3.2317436566145002E-003          11     2387804           0
</event>
<event>
      6   9999 -3.45752E-01  3.53387E+01 -1.00000E+00  1.43380E-01
       4    -1     0     0   501     0  0.000000000E+00  0.000000000E+00  9.817410278E+01  9.817410278E+01  0.000000000E+00  0.00000E+00  9.000E+00
      21    -1     0     0   502   503  0.000000000E+00  0.000000000E+00 -3.096294399E+03  3.096294399E+03  0.000000000E+00  0.00000E+00  9.000E+00
      25     1     1     2     0     0  2.920118231E+01 -8.855897928E+00 -2.887524299E+03  2.890389849E+03  1.250030504E+02  0.00000E+00  9.000E+00
       5     1     1     2   501     0  5.158823002E+00 -7.567533731E+00  3.891420031E+00  1.102663464E+01  4.750000000E+00  0.00000E+00  9.000E+00
      -5     1     1     2     0   503 -4.718359029E+00 -2.817080297E+00 -2.002044316E+02  2.003361570E+02  4.750000000E+00  0.00000E+00  9.000E+00
       4     1     1     2   502     0 -2.964164629E+01  1.924051196E+01  8.571701428E+01  9.271586182E+01  3.438521648E-06  0.00000E+00  9.000E+00
#rwgt            1           9  -2.5947335924711136E-002          11     2392561           0
</event>
<event>
      6   9999  3.45752E-01  8.15301E+00 -1.00000E+00  1.97046E-01
      21    -1     0     0   502   503  0.000000000E+00  0.000000000E+00  1.578331149E+01  1.578331149E+01  0.000000000E+00  0.00000E+00  9.000E+00
      21    -1     0     0   501   511  0.000000000E+00  0.000000000E+00 -4.136029203E+02  4.136029203E+02  0.000000000E+00  0.00000E+00  9.000E+00
      25     1     1     2     0     0  1.048124309E+01 -3.407341039E+00 -3.459994919E+02  3.683201780E+02  1.257880704E+02  0.00000E+00  9.000E+00
       5     1     1     2   501     0  3.284909183E-01  2.099443043E-01 -1.515740839E+00  5.001195176E+00  4.750000000E+00  0.00000E+00  9.000E+00
      -5     1     1     2     0   503 -3.111885445E+00  5.113783501E-01 -6.418836184E-01  5.737582541E+00  4.750000000E+00  0.00000E+00  9.000E+00
      21     1     1     2   502   511 -7.697848562E+00  2.686018384E+00 -4.966249243E+01  5.032727612E+01  0.000000000E+00  0.00000E+00  9.000E+00
#rwgt            1           9   2.1999525928090546E-004          11     2393594           0
</event>
<event>
      6   9999 -3.45752E-01  1.12281E+01 -1.00000E+00  1.82046E-01
      21    -1     0     0   502   503  0.000000000E+00  0.000000000E+00  4.376443083E+03  4.376443083E+03  0.000000000E+00  0.00000E+00  9.000E+00
      21    -1     0     0   512   502  0.000000000E+00  0.000000000E+00 -1.233679213E+02  1.233679213E+02  0.000000000E+00  0.00000E+00  9.000E+00
      25     1     1     2     0     0  1.678396823E+01 -5.144771628E+00  4.091276771E+03  4.093223503E+03  1.249994261E+02  0.00000E+00  9.000E+00
       5     1     1     2   501     0  1.393905314E+00  1.408556779E+01  9.001287449E+01  9.124267787E+01  4.750000000E+00  0.00000E+00  9.000E+00
      -5     1     1     2     0   503 -1.218688582E+01  5.554855108E-01  1.930842299E+02  1.935275461E+02  4.750000000E+00  0.00000E+00  9.000E+00
      21     1     1     2   512   501 -5.990987719E+00 -9.496281673E+00 -1.212987134E+02  1.218172778E+02  5.722045898E-06  0.00000E+00  9.000E+00
#rwgt            1           9  -2.8513345391722062E-004          11     2396275           0
</event>
<event>
      6   9999 -3.45752E-01  8.01001E+00 -1.00000E+00  1.97951E-01
      21    -1     0     0   502   511  0.000000000E+00  0.000000000E+00  7.091564857E+01  7.091564857E+01  0.000000000E+00  0.00000E+00  9.000E+00
      21    -1     0     0   501   502  0.000000000E+00  0.000000000E+00 -1.499751716E+03  1.499751716E+03  0.000000000E+00  0.00000E+00  9.000E+00
      25     1     1     2     0     0  4.760901797E+01 -4.991380028E+01 -8.528081943E+02  8.646758932E+02  1.249983116E+02  0.00000E+00  9.000E+00
       5     1     1     2   501     0  3.617700515E+00 -4.576149782E+00 -6.120980436E+02  6.121442692E+02  4.750000000E+00  0.00000E+00  9.000E+00
      -5     1     1     2     0   503 -4.807853071E+01  6.185535555E+01  3.112187166E+01  8.443200531E+01  4.750000000E+00  0.00000E+00  9.000E+00
      21     1     1     2   503   511 -3.148187774E+00 -7.365405495E+00  4.948298325E+00  9.415197326E+00  5.092623082E-07  0.00000E+00  9.000E+00
#rwgt            1           9  -22123.247021107316               11     2398224           0
</event>
<event>
      6   9999  3.45752E-01  2.03923E+00 -1.00000E+00  3.29656E-01
      21    -1     0     0   501   502  0.000000000E+00  0.000000000E+00  4.902447120E+02  4.902447120E+02  0.000000000E+00  0.00000E+00  9.000E+00
      21    -1     0     0   512   503  0.000000000E+00  0.000000000E+00 -2.974274735E+01  2.974274735E+01  0.000000000E+00  0.00000E+00  9.000E+00
      25     1     1     2     0     0 -1.732078810E+01 -2.041204838E+01  2.397845034E+02  2.717313126E+02  1.249985470E+02  0.00000E+00  9.000E+00
       5     1     1     2   501     0  2.693856525E+00 -1.644903618E+00  2.198039090E+02  2.198778831E+02  4.750000000E+00  0.00000E+00  9.000E+00
      -5     1     1     2     0   503  1.580422519E+01  2.039188630E+01  2.510050325E-01  2.623410117E+01  4.750000000E+00  0.00000E+00  9.000E+00
      21     1     1     2   512   502 -1.177293622E+00  1.665065698E+00  6.625472539E-01  2.144162521E+00  3.332000937E-08  0.00000E+00  9.000E+00
#rwgt            1           9   6.8653031025921211E-003          11     2403009           0
</event>
<event>
      6   9999  3.45752E-01  7.17062E+00 -1.00000E+00  2.03815E-01
      21    -1     0     0   501   511  0.000000000E+00  0.000000000E+00  1.563532844E+01  1.563532844E+01  0.000000000E+00  0.00000E+00  9.000E+00
      21    -1     0     0   502   503  0.000000000E+00  0.000000000E+00 -9.114772484E+02  9.114772484E+02  0.000000000E+00  0.00000E+00  9.000E+00
      25     1     1     2     0     0 -1.104215034E+00 -1.318813222E+01 -6.109001775E+02  6.236985569E+02  1.250028674E+02  0.00000E+00  9.000E+00
       5     1     1     2   501     0 -1.731835842E+00  4.248409048E-01  7.403972058E+00  8.975580617E+00  4.750000000E+00  0.00000E+00  9.000E+00
      -5     1     1     2     0   503 -4.295862601E+00  1.350730084E+01 -2.779886654E+02  2.783903055E+02  4.750000000E+00  0.00000E+00  9.000E+00
      21     1     1     2   502   511  7.131913477E+00 -7.440095233E-01 -1.435704905E+01  1.604813376E+01  3.371747881E-07  0.00000E+00  9.000E+00
#rwgt            1           9   7.2396069019397549E-004          11     2412566           0
</event>
<event>
      6   9999  3.45752E-01  1.63816E+01 -1.00000E+00  1.67121E-01
      21    -1     0     0   512   502  0.000000000E+00  0.000000000E+00  8.163271535E+01  8.163271535E+01  0.000000000E+00  0.00000E+00  9.000E+00
      21    -1     0     0   502   503  0.000000000E+00  0.000000000E+00 -2.474905784E+03  2.474905784E+03  0.000000000E+00  0.00000E+00  9.000E+00
      25     1     1     2     0     0 -2.749443378E+02  1.976560552E+02 -1.378118563E+03  1.424604653E+03  1.250013599E+02  0.00000E+00  9.000E+00
       5     1     1     2   501     0  2.235395581E+00 -6.521713275E+00  1.817273219E+01  2.000850901E+01  4.750000000E+00  0.00000E+00  9.000E+00
      -5     1     1     2     0   503  2.882389853E+02 -1.963472349E+02 -1.037881754E+03  1.094922393E+03  4.750000000E+00  0.00000E+00  9.000E+00
      21     1     1     2   512   501 -1.553004312E+01  5.212892969E+00  4.554515765E+00  1.700294405E+01  7.052516679E-07  0.00000E+00  9.000E+00
#rwgt            1           9   8.1573649959072674E-005          11     2415942           0
</event>
<event>
      6   9999  3.45752E-01  1.23327E+01 -1.00000E+00  1.78086E-01
      21    -1     0     0   511   503  0.000000000E+00  0.000000000E+00  9.230719466E+01  9.230719466E+01  0.000000000E+00  0.00000E+00  9.000E+00
      21    -1     0     0   501   502  0.000000000E+00  0.000000000E+00 -6.230789317E+01  6.230789317E+01  0.000000000E+00  0.00000E+00  9.000E+00
      25     1     1     2     0     0 -1.154511916E+01  3.323789707E+00  1.562201534E+01  1.265440066E+02  1.250000035E+02  0.00000E+00  9.000E+00
       5     1     1     2   501     0 -1.790828746E-01 -4.178583594E-01 -5.048422676E-02  4.771972856E+00  4.750000000E+00  0.00000E+00  9.000E+00
      -5     1     1     2     0   503 -1.113726052E-01  5.604129300E-01  6.833873158E-01  4.832802989E+00  4.750000000E+00  0.00000E+00  9.000E+00
      21     1     1     2   511   502  1.183557464E+01 -3.466344278E+00  1.374438306E+01  1.846630541E+01  2.920019320E-07  0.00000E+00  9.000E+00
#rwgt            1           9   7.5049432505572200E-003          11     2419131           0
</event>
<event>
      6   9999  3.45752E-01  1.22177E+01 -1.00000E+00  1.78473E-01
       2    -1     0     0   501     0  0.000000000E+00  0.000000000E+00  1.210639777E+02  1.210639777E+02  0.000000000E+00  0.00000E+00  9.000E+00
      21    -1     0     0   502   503  0.000000000E+00  0.000000000E+00 -9.230674293E+02  9.230674293E+02  0.000000000E+00  0.00000E+00  9.000E+00
      25     1     1     2     0     0 -2.357007250E+01 -1.340342262E+01 -8.607560985E+02  8.702077536E+02  1.250010933E+02  0.00000E+00  9.000E+00
       5     1     1     2   501     0 -3.060870145E+00 -3.496169968E+00  7.867467324E+00  1.029813928E+01  4.750000000E+00  0.00000E+00  9.000E+00
      -5     1     1     2     0   503  1.441533689E+01  1.712630136E+01 -5.367725042E+01  5.835170819E+01  4.750000000E+00  0.00000E+00  9.000E+00
       2     1     1     2   502     0  1.221560576E+01 -2.267087730E-01  1.045624301E+02  1.052738059E+02  3.303624740E-06  0.00000E+00  9.000E+00
#rwgt            1           9   1.5261076996850548E-004          11     2421017           0
</event>
<event>
      6   9999 -3.45752E-01  2.20077E+02 -1.00000E+00  1.07476E-01
      21    -1     0     0   501   511  0.000000000E+00  0.000000000E+00  2.659537870E+02  2.659537870E+02  0.000000000E+00  0.00000E+00  9.000E+00
      21    -1     0     0   502   503  0.000000000E+00  0.000000000E+00 -1.521467289E+03  1.521467289E+03  0.000000000E+00  0.00000E+00  9.000E+00
      25     1     1     2     0     0 -3.759396767E+02  2.973004610E+01 -1.005771598E+03  1.081395585E+03  1.250015513E+02  0.00000E+00  9.000E+00
       5     1     1     2   501     0  1.757723039E+02 -2.164709973E+01 -3.156213847E+02  3.619446376E+02  4.750000000E+00  0.00000E+00  9.000E+00
      -5     1     1     2     0   503 -1.832373856E+01  1.828738659E+01 -7.721265275E+01  8.157538935E+01  4.750000000E+00  0.00000E+00  9.000E+00
      21     1     1     2   502   511  2.184911114E+02 -2.637033296E+01  1.430921332E+02  2.625054643E+02  4.264961200E-06  0.00000E+00  9.000E+00
#rwgt            1           9  -3.2448840331672117E-004          11     2423600           0
</event>
<event>
      6   9999  3.45752E-01  1.19427E+01 -1.00000E+00  1.79422E-01
      21    -1     0     0   501   512  0.000000000E+00  0.000000000E+00  8.322694429E+00  8.322694429E+00  0.000000000E+00  0.00000E+00  9.000E+00
      21    -1     0     0   502   503  0.000000000E+00  0.000000000E+00 -4.075107782E+03  4.075107782E+03  0.000000000E+00  0.00000E+00  9.000E+00
      25     1     1     2     0     0 -4.104250095E+01 -2.962768036E+01 -2.880400247E+03  2.883555683E+03  1.250020318E+02  0.00000E+00  9.000E+00
       5     1     1     2   501     0  9.914543585E-02  1.637318581E-01 -1.022206025E+01  1.127340470E+01  4.750000000E+00  0.00000E+00  9.000E+00
      -5     1     1     2     0   503  5.287677473E+01  2.993584675E+01 -1.175024947E+03  1.176604562E+03  4.750000000E+00  0.00000E+00  9.000E+00
      21     1     1     2   502   512 -1.193341922E+01 -4.718982486E-01 -1.137833851E+00  1.199682658E+01  1.166485893E-06  0.00000E+00  9.000E+00
#rwgt            1           9   4.0077900565369737E-005          11     2423944           0
</event>
<event>
      6   9999  3.45752E-01  1.86241E+01 -1.00000E+00  1.62610E-01
      21    -1     0     0   501   502  0.000000000E+00  0.000000000E+00  3.112097530E+03  3.112097530E+03  0.000000000E+00  0.00000E+00  9.000E+00
      21    -1     0     0   502   511  0.000000000E+00  0.000000000E+00 -7.782038158E+00  7.782038158E+00  0.000000000E+00  0.00000E+00  9.000E+00
      25     1     1     2     0     0  4.057862479E+01  1.300718418E+01  6.220572615E+02  6.359218410E+02  1.250021582E+02  0.00000E+00  9.000E+00
       5     1     1     2   501     0  5.182245298E+00 -6.762120266E-01  1.718488971E+03  1.718503483E+03  4.750000000E+00  0.00000E+00  9.000E+00
      -5     1     1     2     0   503 -2.846639649E+01 -5.420133098E+00  5.802084400E+02  5.809510391E+02  4.750000000E+00  0.00000E+00  9.000E+00
      21     1     1     2   503   511 -1.729447360E+01 -6.910839054E+00  1.835608190E+02  1.845032054E+02  2.697398305E-06  0.00000E+00  9.000E+00
#rwgt            1           9   4.3549915361367026E-005          11     2426293           0
</event>
<event>
      6   9999  3.45752E-01  2.93273E+01 -1.00000E+00  1.48478E-01
      21    -1     0     0   512   502  0.000000000E+00  0.000000000E+00  1.316675529E+01  1.316675529E+01  0.000000000E+00  0.00000E+00  9.000E+00
      21    -1     0     0   502   503  0.000000000E+00  0.000000000E+00 -8.377346533E+02  8.377346533E+02  0.000000000E+00  0.00000E+00  9.000E+00
      25     1     1     2     0     0  3.417408911E+01 -2.432941391E+01 -5.656183238E+02  5.807831521E+02  1.250007709E+02  0.00000E+00  9.000E+00
       5     1     1     2   501     0  1.813242888E-01  3.998883639E+00 -1.157958183E+01  1.314051613E+01  4.750000000E+00  0.00000E+00  9.000E+00
      -5     1     1     2     0   503 -2.689083394E+01 -8.030944337E+00 -1.940330652E+02  1.961096783E+02  4.750000000E+00  0.00000E+00  9.000E+00
      21     1     1     2   512   501 -7.464579453E+00  2.836147461E+01 -5.333692713E+01  6.086806210E+01  9.536743164E-07  0.00000E+00  9.000E+00
#rwgt            1           9   2.0384042378329458E-003          11     2428074           0
</event>
<event>
      6   9999 -3.45752E-01  4.60323E+01 -1.00000E+00  1.36737E-01
      21    -1     0     0   511   503  0.000000000E+00  0.000000000E+00  1.205031838E+02  1.205031838E+02  0.000000000E+00  0.00000E+00  9.000E+00
      21    -1     0     0   501   502  0.000000000E+00  0.000000000E+00 -1.441728231E+03  1.441728231E+03  0.000000000E+00  0.00000E+00  9.000E+00
      25     1     1     2     0     0  1.512240091E+01  9.516849437E+01 -9.959815827E+01  1.866302531E+02  1.250013157E+02  0.00000E+00  9.000E+00
       5     1     1     2   501     0 -7.787502058E+01 -6.929627796E+01 -1.243128052E+03  1.247500064E+03  4.750000000E+00  0.00000E+00  9.000E+00
      -5     1     1     2     0   503  5.058315269E+01  1.852230233E+01 -2.767067382E+01  6.074503856E+01  4.750000000E+00  0.00000E+00  9.000E+00
      21     1     1     2   511   502  1.216946697E+01 -4.439451874E+01  4.917183671E+01  6.735605946E+01  1.784161275E-06  0.00000E+00  9.000E+00
#rwgt            1           9  -3.4357886217507567E-004          11     2429175           0
</event>
<event>
      6   9999  3.45752E-01  4.83380E+00 -1.00000E+00  2.31975E-01
      21    -1     0     0   501   512  0.000000000E+00  0.000000000E+00  1.544826737E+01  1.544826737E+01  0.000000000E+00  0.00000E+00  9.000E+00
      21    -1     0     0   502   503  0.000000000E+00  0.000000000E+00 -8.342862156E+02  8.342862156E+02  0.000000000E+00  0.00000E+00  9.000E+00
      25     1     1     2     0     0  6.654372956E+00  1.401460926E+01 -4.696717167E+02  4.862683922E+02  1.249989513E+02  0.00000E+00  9.000E+00
       5     1     1     2   501     0 -1.912405327E+00  7.314524031E-01  1.537426325E+00  5.396155711E+00  4.750000000E+00  0.00000E+00  9.000E+00
      -5     1     1     2     0   503 -7.497551812E+00 -1.077462153E+01 -3.526009143E+02  3.528771359E+02  4.750000000E+00  0.00000E+00  9.000E+00
      21     1     1     2   502   512  2.755584183E+00 -3.971440132E+00  1.897256491E+00  5.192799159E+00  1.134838627E-07  0.00000E+00  9.000E+00
#rwgt            1           9   1.1261584640135937E-002          11     2430756           0
</event>
<event>
      6   9999  3.45752E-01  2.15202E+01 -1.00000E+00  1.57819E-01
      21    -1     0     0   502   503  0.000000000E+00  0.000000000E+00  1.869842889E+01  1.869842889E+01  0.000000000E+00  0.00000E+00  9.000E+00
      21    -1     0     0   501   511  0.000000000E+00  0.000000000E+00 -1.262692261E+03  1.262692261E+03  0.000000000E+00  0.00000E+00  9.000E+00
      25     1     1     2     0     0 -1.931754700E+01  7.926652091E+01 -8.402780960E+02  8.534335220E+02  1.250005961E+02  0.00000E+00  9.000E+00
       5     1     1     2   501     0 -3.490831215E-03 -6.107229622E-01 -7.407504320E+00  8.820805801E+00  4.750000000E+00  0.00000E+00  9.000E+00
      -5     1     1     2     0   503  3.157436579E+01 -6.096468962E+01 -9.633313531E+01  1.183903265E+02  4.750000000E+00  0.00000E+00  9.000E+00
      21     1     1     2   502   511 -1.225332796E+01 -1.769110833E+01 -2.999750966E+02  3.007460356E+02  3.814697266E-06  0.00000E+00  9.000E+00
#rwgt            1           9   8.6422135575601005E-006          11     2435350           0
</event>
<event>
      6   9999  3.45752E-01  4.89963E+01 -1.00000E+00  1.35260E-01
      21    -1     0     0   502   503  0.000000000E+00  0.000000000E+00  1.399518110E+01  1.399518110E+01  0.000000000E+00  0.00000E+00  9.000E+00
      21    -1     0     0   501   512  0.000000000E+00  0.000000000E+00 -1.252500398E+03  1.252500398E+03  0.000000000E+00  0.00000E+00  9.000E+00
      25     1     1     2     0     0 -3.738158079E+01 -5.884704633E+01 -4.315282904E+02  4.546477672E+02  1.250102769E+02  0.00000E+00  9.000E+00
       5     1     1     2   501     0  7.764657925E+00  8.545744334E+00 -7.873823575E+01  7.972196641E+01  4.750000000E+00  0.00000E+00  9.000E+00
      -5     1     1     2     0   503  2.279961998E+01  1.781632238E+00 -3.411390722E+02  3.419377515E+02  4.750000000E+00  0.00000E+00  9.000E+00
      21     1     1     2   502   512  6.817302888E+00  4.851966976E+01 -3.870996184E+02  3.901880938E+02  0.000000000E+00  0.00000E+00  9.000E+00
#rwgt            1           9   3.2359040161261022E-005          11     2437144           0
</event>
<event>
      6   9999 -3.45752E-01  6.35354E+00 -1.00000E+00  2.10652E-01
      21    -1     0     0   511   502  0.000000000E+00  0.000000000E+00  3.008163760E+01  3.008163760E+01  0.000000000E+00  0.00000E+00  9.000E+00
      21    -1     0     0   502   503  0.000000000E+00  0.000000000E+00 -6.111676308E+02  6.111676308E+02  0.000000000E+00  0.00000E+00  9.000E+00
      25     1     1     2     0     0  5.409777663E+00  1.755171834E+00 -5.998606978E+02  6.127738515E+02  1.250063597E+02  0.00000E+00  9.000E+00
       5     1     1     2   501     0 -5.209088746E-01 -4.494449546E+00  1.490026224E+01  1.628040963E+01  4.750000000E+00  0.00000E+00  9.000E+00
      -5     1     1     2     0   503  1.589686492E-02 -1.299373914E+00  3.039034711E+00  5.786782980E+00  4.750000000E+00  0.00000E+00  9.000E+00
      21     1     1     2   511   501 -4.904765654E+00  4.038651626E+00  8.354076419E-01  6.408224326E+00  1.537782508E-07  0.00000E+00  9.000E+00
#rwgt            1           9  -9.7970356612448337E-002          11     2438918           0
</event>
<event>
      6   9999  3.45752E-01  2.11082E+01 -1.00000E+00  1.58443E-01
      21    -1     0     0   501   502  0.000000000E+00  0.000000000E+00  2.108139816E+02  2.108139816E+02  0.000000000E+00  0.00000E+00  9.000E+00
      -3    -1     0     0     0   503  0.000000000E+00  0.000000000E+00 -1.297544172E+03  1.297544172E+03  0.000000000E+00  0.00000E+00  9.000E+00
      25     1     1     2     0     0 -1.236935495E+02 -1.154206040E+02  6.165734858E+01  2.192027128E+02  1.250047626E+02  0.00000E+00  9.000E+00
       5     1     1     2   501     0 -2.193781928E-01  2.682586511E-02  4.190543442E+00  6.338138588E+00  4.750000000E+00  0.00000E+00  9.000E+00
      -5     1     1     2     0   503  1.034741200E+02  1.206674978E+02 -3.221921051E+01  1.622596023E+02  4.750000000E+00  0.00000E+00  9.000E+00
      -3     1     1     2     0   502  2.043880769E+01 -5.273719600E+00 -1.120358872E+03  1.120557700E+03  0.000000000E+00  0.00000E+00  9.000E+00
#rwgt            1           9   6.9397821906992427E-006          11     2443083           0
</event>
<event>
      6   9999  3.45752E-01  6.59958E+00 -1.00000E+00  2.08454E-01
      21    -1     0     0   511   502  0.000000000E+00  0.000000000E+00  1.478837476E+01  1.478837476E+01  0.000000000E+00  0.00000E+00  9.000E+00
      21    -1     0     0   502   503  0.000000000E+00  0.000000000E+00 -8.166823587E+02  8.166823587E+02  0.000000000E+00  0.00000E+00  9.000E+00
      25     1     1     2     0     0 -3.915007286E+01 -1.989941736E+01 -6.991472360E+02  7.115904161E+02  1.250013910E+02  0.00000E+00  9.000E+00
       5     1     1     2   501     0  2.476804406E-01 -2.559467055E-02 -1.474038995E+00  4.979687907E+00  4.750000000E+00  0.00000E+00  9.000E+00
      -5     1     1     2     0   503  3.557549859E+01  2.562467621E+01 -9.814461400E+01  1.075972485E+02  4.750000000E+00  0.00000E+00  9.000E+00
      21     1     1     2   511   501  3.326893828E+00 -5.699664188E+00 -3.128094989E+00  7.303380906E+00  2.384185791E-07  0.00000E+00  9.000E+00
#rwgt            1           9   2.6405537558774159E-004          11     2445168           0
</event>
<event>
      6   9999  3.45752E-01  7.68762E+01 -1.00000E+00  1.25497E-01
      21    -1     0     0   512   502  0.000000000E+00  0.000000000E+00  7.215284963E+01  7.215284963E+01  0.000000000E+00  0.00000E+00  9.000E+00
       2    -1     0     0   501     0  0.000000000E+00  0.000000000E+00 -1.242583462E+03  1.242583462E+03  0.000000000E+00  0.00000E+00  9.000E+00
      25     1     1     2     0     0  5.964010325E+01 -5.343402600E+01 -3.279441399E+02  3.599770300E+02  1.249958645E+02  0.00000E+00  9.000E+00
       5     1     1     2   501     0 -8.804913022E+00  1.218017504E+02 -4.316544382E+02  4.486215659E+02  4.750000000E+00  0.00000E+00  9.000E+00
      -5     1     1     2     0   502 -1.253552463E+02 -4.948074347E+01 -4.074515866E+02  4.291871849E+02  4.750000000E+00  0.00000E+00  9.000E+00
       2     1     1     2   512     0  7.452005609E+01 -1.888698090E+01 -3.380447875E+00  7.695053109E+01  7.896209538E-07  0.00000E+00  9.000E+00
#rwgt            1           3   2.2171982773110618E-005          11     2448597           0
</event>
<event>
      6   9999 -3.45752E-01  1.17213E+01 -1.00000E+00  1.80209E-01
      21    -1     0     0   501   502  0.000000000E+00  0.000000000E+00  3.531776436E+03  3.531776436E+03  0.000000000E+00  0.00000E+00  9.000E+00
      21    -1     0     0   502   511  0.000000000E+00  0.000000000E+00 -1.625837567E+01  1.625837567E+01  0.000000000E+00  0.00000E+00  9.000E+00
      25     1     1     2     0     0  5.199451543E+01 -6.304749430E+01  1.535894625E+03  1.543133644E+03  1.249428905E+02  0.00000E+00  9.000E+00
       5     1     1     2   501     0 -3.483498041E-01 -9.344865652E-01  1.322851553E+03  1.322860457E+03  4.750000000E+00  0.00000E+00  9.000E+00
      -5     1     1     2     0   503 -5.862669291E+01  7.339798696E+01  6.623955193E+02  6.690401633E+02  4.750000000E+00  0.00000E+00  9.000E+00
      21     1     1     2   503   511  6.980527283E+00 -9.416006094E+00 -5.623637724E+00  1.300054742E+01  1.202478469E-06  0.00000E+00  9.000E+00
#rwgt            1           9 -0.26583869013718464               11     2449839           0
</event>
<event>
      6   9999  3.45752E-01  1.23593E+01 -1.00000E+00  1.77997E-01
      21    -1     0     0   512   502  0.000000000E+00  0.000000000E+00  1.869603294E+02  1.869603294E+02  0.000000000E+00  0.00000E+00  9.000E+00
      21    -1     0     0   502   503  0.000000000E+00  0.000000000E+00 -4.649412061E+02  4.649412061E+02  0.000000000E+00  0.00000E+00  9.000E+00
      25     1     1     2     0     0 -1.074225986E+02 -3.880545496E+01 -4.175023688E+02  4.505317995E+02  1.250007853E+02  0.00000E+00  9.000E+00
       5     1     1     2   501     0  3.129728200E-01 -2.253343017E+00  4.683273644E+01  4.712794510E+01  4.750000000E+00  0.00000E+00  9.000E+00
      -5     1     1     2     0   503  1.064901752E+02  2.871503183E+01  8.737133022E+01  1.407871525E+02  4.750000000E+00  0.00000E+00  9.000E+00
      21     1     1     2   512   501  6.194504875E-01  1.234376615E+01  5.317425444E+00  1.345463842E+01  2.731427965E-07  0.00000E+00  9.000E+00
#rwgt            1           9   1.9815813613230713E-003          11     2452426           0
</event>
<event>
      6   9999  3.45752E-01  5.34496E+00 -1.00000E+00  2.21299E-01
      21    -1     0     0   501   502  0.000000000E+00  0.000000000E+00  1.893301477E+02  1.893301477E+02  0.000000000E+00  0.00000E+00  9.000E+00
      21    -1     0     0   502   511  0.000000000E+00  0.000000000E+00 -7.569779405E+01  7.569779405E+01  0.000000000E+00  0.00000E+00  9.000E+00
      25     1     1     2     0     0  2.825534336E+00 -1.986009932E+01  1.576183482E+01  1.275634890E+02  1.249864037E+02  0.00000E+00  9.000E+00
       5     1     1     2   501     0  2.083517297E+00  5.084158645E-01  1.093941727E+02  1.095182498E+02  4.750000000E+00  0.00000E+00  9.000E+00
      -5     1     1     2     0   503 -6.784511960E+00  1.434656112E+01 -1.559187939E+00  1.663871947E+01  4.750000000E+00  0.00000E+00  9.000E+00
      21     1     1     2   503   511  1.875460327E+00  5.005122334E+00 -9.964465912E+00  1.130748345E+01  1.192092896E-07  0.00000E+00  9.000E+00
#rwgt            1           9   4.5328307698197816E-003          11     2456425           0
</event>
<event>
      6   9999  3.45752E-01  4.15529E+01 -1.00000E+00  1.39233E-01
      21    -1     0     0   512   502  0.000000000E+00  0.000000000E+00  9.528699162E+02  9.528699162E+02  0.000000000E+00  0.00000E+00  9.000E+00
      21    -1     0     0   502   503  0.000000000E+00  0.000000000E+00 -1.269252971E+02  1.269252971E+02  0.000000000E+00  0.00000E+00  9.000E+00
      25     1     1     2     0     0 -1.550162896E+02  2.290069187E+02  4.445605421E+02  5.382675579E+02  1.249946778E+02  0.00000E+00  9.000E+00
       5     1     1     2   501     0  1.512510083E+02 -1.985094699E+02  1.431623065E+02  2.877514304E+02  4.750000000E+00  0.00000E+00  9.000E+00
      -5     1     1     2     0   503 -1.716224913E+00  1.069229607E+01 -1.337127076E-01  1.182586159E+01  4.750000000E+00  0.00000E+00  9.000E+00
      21     1     1     2   512   501  5.481506141E+00 -4.118974486E+01  2.383554832E+02  2.419503634E+02  0.000000000E+00  0.00000E+00  9.000E+00
#rwgt            1           9   7.9124228877532445E-004          11     2461177           0
</event>
<event>
      6   9999  3.45752E-01  3.29026E+00 -1.00000E+00  2.66826E-01
      21    -1     0     0   511   502  0.000000000E+00  0.000000000E+00  4.771688248E+01  4.771688248E+01  0.000000000E+00  0.00000E+00  9.000E+00
      21    -1     0     0   502   503  0.000000000E+00  0.000000000E+00 -7.388983928E+02  7.388983928E+02  0.000000000E+00  0.00000E+00  9.000E+00
      25     1     1     2     0     0  1.514584013E+01 -1.778830341E+01 -6.041730131E+02  6.174095982E+02  1.249950476E+02  0.00000E+00  9.000E+00
       5     1     1     2   501     0 -5.135369986E-02  3.848904550E-01 -4.312412826E+00  6.427299763E+00  4.750000000E+00  0.00000E+00  9.000E+00
      -5     1     1     2     0   503 -1.180780928E+01  1.755684290E+01 -1.217096437E+02  1.236263199E+02  4.750000000E+00  0.00000E+00  9.000E+00
      21     1     1     2   511   501 -3.286677149E+00 -1.534299498E-01  3.901355936E+01  3.915205744E+01  2.236564522E-06  0.00000E+00  9.000E+00
#rwgt            1           9   6.6286685121777868E-004          11     2462737           0
</event>
<event>
      6   9999  3.45752E-01  2.51201E+01 -1.00000E+00  1.53005E-01
       2    -1     0     0   501     0  0.000000000E+00  0.000000000E+00  3.643411224E+02  3.643411224E+02  0.000000000E+00  0.00000E+00  9.000E+00
      21    -1     0     0   502   503  0.000000000E+00  0.000000000E+00 -5.970250537E+01  5.970250537E+01  0.000000000E+00  0.00000E+00  9.000E+00
      25     1     1     2     0     0  1.475999273E+01  3.800089197E+01  9.182260575E+01  1.603645385E+02  1.249938763E+02  0.00000E+00  9.000E+00
       5     1     1     2   501     0  5.374317838E-01  4.835969835E-01  5.400114871E+00  7.228169864E+00  4.750000000E+00  0.00000E+00  9.000E+00
      -5     1     1     2     0   503  6.058617961E+00 -2.525802491E+01 -1.649592041E+01  3.113442731E+01  4.750000000E+00  0.00000E+00  9.000E+00
       2     1     1     2   502     0 -2.135604247E+01 -1.322646404E+01  2.239118168E+02  2.253164921E+02  2.697398305E-06  0.00000E+00  9.000E+00
#rwgt            1           9   5.2204745325004659E-002          11     2467945           0
</event>
<event>
      6   9999  3.45752E-01  7.69822E+00 -1.00000E+00  2.00013E-01
      21    -1     0     0   511   503  0.000000000E+00  0.000000000E+00  2.484434417E+02  2.484434417E+02  0.000000000E+00  0.00000E+00  9.000E+00
      21    -1     0     0   501   502  0.000000000E+00  0.000000000E+00 -8.503273712E+02  8.503273712E+02  0.000000000E+00  0.00000E+00  9.000E+00
      25     1     1     2     0     0 -6.156709537E+00  5.506973149E-01 -8.419055654E+02  8.511569620E+02  1.249999388E+02  0.00000E+00  9.000E+00
       5     1     1     2   501     0 -9.690076438E-01 -1.857265546E+00  2.264241245E+00  5.663717819E+00  4.750000000E+00  0.00000E+00  9.000E+00
      -5     1     1     2     0   503  1.673743633E+00 -4.128377702E+00  3.181073046E+00  7.247526883E+00  4.750000000E+00  0.00000E+00  9.000E+00
      21     1     1     2   511   502  5.451973548E+00  5.434945933E+00  2.345763216E+02  2.347026061E+02  3.814697266E-06  0.00000E+00  9.000E+00
#rwgt            1           9   8.4744506742202672E-002          11     2469854           0
</event>
<event>
      6   9999  3.45752E-01  3.35623E+01 -1.00000E+00  1.44753E-01
      21    -1     0     0   512   503  0.000000000E+00  0.000000000E+00  7.746299512E+01  7.746299512E+01  0.000000000E+00  0.00000E+00  9.000E+00
      21    -1     0     0   501   502  0.000000000E+00  0.000000000E+00 -1.189068567E+03  1.189068567E+03  0.000000000E+00  0.00000E+00  9.000E+00
      25     1     1     2     0     0  1.021172836E+02 -1.598036403E+02 -7.637666239E+02  7.968238321E+02  1.249944820E+02  0.00000E+00  9.000E+00
       5     1     1     2   501     0  5.491099492E+00  1.690411847E+01 -2.211664865E+01  2.876821236E+01  4.750000000E+00  0.00000E+00  9.000E+00
      -5     1     1     2     0   503 -8.841985323E+01  1.704354239E+02 -3.501922760E+02  3.994039269E+02  4.750000000E+00  0.00000E+00  9.000E+00
      21     1     1     2   512   502 -1.918852983E+01 -2.753590210E+01  2.446997635E+01  4.153559105E+01  4.768371582E-07  0.00000E+00  9.000E+00
#rwgt            1           9   5.2712233781338240E-004          11     2472949           0
</event>
<event>
      6   9999  3.45752E-01  6.85039E+00 -1.00000E+00  2.06342E-01
      21    -1     0     0   501   511  0.000000000E+00  0.000000000E+00  2.861547446E+01  2.861547446E+01  0.000000000E+00  0.00000E+00  9.000E+00
      21    -1     0     0   502   503  0.000000000E+00  0.000000000E+00 -1.033402849E+03  1.033402849E+03  0.000000000E+00  0.00000E+00  9.000E+00
      25     1     1     2     0     0  1.330500673E+01 -2.311352209E+01 -4.190119277E+02  4.380714950E+02  1.249975244E+02  0.00000E+00  9.000E+00
       5     1     1     2   501     0  9.090616212E-01  2.757795440E-03  1.213928503E+01  1.306717803E+01  4.750000000E+00  0.00000E+00  9.000E+00
      -5     1     1     2     0   503 -1.941930016E+01  2.756424261E+01 -6.019611389E+02  6.029234379E+02  4.750000000E+00  0.00000E+00  9.000E+00
      21     1     1     2   502   511  5.205231812E+00 -4.453478318E+00  4.046407049E+00  7.956212501E+00  6.307962682E-07  0.00000E+00  9.000E+00
#rwgt            1           9  0.49945619678488018               11     2474564           0
</event>
<event>
      6   9999  3.45752E-01  4.69796E+00 -1.00000E+00  2.34227E-01
      21    -1     0     0   501   502  0.000000000E+00  0.000000000E+00  1.296489641E+03  1.296489641E+03  0.000000000E+00  0.00000E+00  9.000E+00
      21    -1     0     0   512   503  0.000000000E+00  0.000000000E+00 -8.890303624E+00  8.890303624E+00  0.000000000E+00  0.00000E+00  9.000E+00
      25     1     1     2     0     0 -1.070058490E+00 -1.536310264E+01  5.257726101E+02  5.406464498E+02  1.249983049E+02  0.00000E+00  9.000E+00
       5     1     1     2   501     0  1.245182952E+00 -7.989262784E-01  6.550923385E+02  6.551112296E+02  4.750000000E+00  0.00000E+00  9.000E+00
      -5     1     1     2     0   503 -3.995297976E-01  1.146943337E+01  1.026451382E+02  1.033938800E+02  4.750000000E+00  0.00000E+00  9.000E+00
      21     1     1     2   512   502  2.244053358E-01  4.692595548E+00  4.089250486E+00  6.228385044E+00  1.685873940E-07  0.00000E+00  9.000E+00
#rwgt            1           9   8.5047507644651493E-003          11     2478486           0
</event>
<event>
      6   9999  3.45752E-01  6.58374E+00 -1.00000E+00  2.08591E-01
      21    -1     0     0   501   502  0.000000000E+00  0.000000000E+00  1.555320298E+01  1.555320298E+01  0.000000000E+00  0.00000E+00  9.000E+00
      21    -1     0     0   502   511  0.000000000E+00  0.000000000E+00 -9.709946623E+02  9.709946623E+02  0.000000000E+00  0.00000E+00  9.000E+00
      25     1     1     2     0     0  9.850927478E+00 -3.194794311E+00 -6.731773565E+02  6.847625814E+02  1.249991684E+02  0.00000E+00  9.000E+00
       5     1     1     2   501     0 -1.677756122E+00  4.557081714E+00  8.078304315E+00  1.055477901E+01  4.750000000E+00  0.00000E+00  9.000E+00
      -5     1     1     2     0   503 -1.370163715E+01  2.212868102E+00 -1.452723933E+02  1.460111721E+02  4.750000000E+00  0.00000E+00  9.000E+00
      21     1     1     2   503   511  5.528465796E+00 -3.575155505E+00 -1.450700139E+02  1.452193327E+02  1.907348633E-06  0.00000E+00  9.000E+00
#rwgt            1           9  0.50887844988321718               11     2482588           0
</event>
<event>
      6   9999  3.45752E-01  9.27786E+00 -1.00000E+00  1.90689E-01
      21    -1     0     0   501   512  0.000000000E+00  0.000000000E+00  4.129575933E+01  4.129575933E+01  0.000000000E+00  0.00000E+00  9.000E+00
      21    -1     0     0   502   503  0.000000000E+00  0.000000000E+00 -9.904826468E+02  9.904826468E+02  0.000000000E+00  0.00000E+00  9.000E+00
      25     1     1     2     0     0 -2.918445713E+00  4.682396932E+00 -9.341390704E+02  9.424814578E+02  1.250002127E+02  0.00000E+00  9.000E+00
       5     1     1     2   501     0  4.367420957E+00  3.025228454E-01  1.513769289E+01  1.645837574E+01  4.750000000E+00  0.00000E+00  9.000E+00
      -5     1     1     2     0   503  1.933383158E+00  3.654426569E+00 -5.029727108E+01  5.068994755E+01  4.750000000E+00  0.00000E+00  9.000E+00
      21     1     1     2   502   512 -3.382358402E+00 -8.639346346E+00  2.011176117E+01  2.214862504E+01  1.752011592E-06  0.00000E+00  9.000E+00
#rwgt            1           9   1.7551347670207451E-004          11     2486460           0
</event>
<event>
      6   9999  3.45752E-01  1.93331E+01 -1.00000E+00  1.61343E-01
      21    -1     0     0   501   502  0.000000000E+00  0.000000000E+00  3.038025223E+01  3.038025223E+01  0.000000000E+00  0.00000E+00  9.000E+00
       2    -1     0     0   502     0  0.000000000E+00  0.000000000E+00 -1.479114028E+03  1.479114028E+03  0.000000000E+00  0.00000E+00  9.000E+00
      25     1     1     2     0     0 -3.172803934E+01  4.692297677E+01 -3.866195408E+02  4.102539610E+02  1.250008359E+02  0.00000E+00  9.000E+00
       5     1     1     2   501     0  3.464830060E-01  3.384714948E-01  1.595636037E+01  1.665540602E+01  4.750000000E+00  0.00000E+00  9.000E+00
      -5     1     1     2     0   503  4.805425934E+01 -5.704876331E+01 -6.907054660E+02  6.947376314E+02  4.750000000E+00  0.00000E+00  9.000E+00
       2     1     1     2   503     0 -1.667270301E+01  9.787315043E+00 -3.873651296E+02  3.878472820E+02  5.394796609E-06  0.00000E+00  9.000E+00
#rwgt            1           9   3.6766487325520297E-003          11     2489517           0
</event>
<event>
      6   9999  3.45752E-01  6.64609E+00 -1.00000E+00  2.08053E-01
      21    -1     0     0   501   502  0.000000000E+00  0.000000000E+00  8.608207163E+00  8.608207163E+00  0.000000000E+00  0.00000E+00  9.000E+00
      21    -1     0     0   502   511  0.000000000E+00  0.000000000E+00 -1.549481980E+03  1.549481980E+03  0.000000000E+00  0.00000E+00  9.000E+00
      25     1     1     2     0     0  2.036057370E+00  5.312927051E+00 -5.411364300E+02  5.554102909E+02  1.249783290E+02  0.00000E+00  9.000E+00
       5     1     1     2   501     0  1.279600242E-01 -1.074649467E+00 -3.306274932E+00  5.887715955E+00  4.750000000E+00  0.00000E+00  9.000E+00
      -5     1     1     2     0   503  2.150139906E-01 -1.044397309E+01 -1.972760660E+02  1.976095431E+02  4.750000000E+00  0.00000E+00  9.000E+00
      21     1     1     2   503   511 -2.379031385E+00  6.205695503E+00 -7.991550018E+02  7.991826370E+02  0.000000000E+00  0.00000E+00  9.000E+00
#rwgt            1           9   1.1542202863378713E-004          11     2491841           0
</event>
<event>
      6   9999  3.45752E-01  1.16887E+01 -1.00000E+00  1.80327E-01
      21    -1     0     0   512   502  0.000000000E+00  0.000000000E+00  4.015213351E+02  4.015213351E+02  0.000000000E+00  0.00000E+00  9.000E+00
      21    -1     0     0   502   503  0.000000000E+00  0.000000000E+00 -1.839640363E+02  1.839640363E+02  0.000000000E+00  0.00000E+00  9.000E+00
      25     1     1     2     0     0 -1.061372263E+01  3.690705020E+00 -1.538915062E+02  1.985801605E+02  1.250008481E+02  0.00000E+00  9.000E+00
       5     1     1     2   501     0 -3.206212126E-01  1.507280308E-01  1.270545712E+00  4.929736637E+00  4.750000000E+00  0.00000E+00  9.000E+00
      -5     1     1     2     0   503  1.053699990E-01  5.585131265E-01 -4.822381563E+00  6.792709598E+00  4.750000000E+00  0.00000E+00  9.000E+00
      21     1     1     2   512   501  1.082897384E+01 -4.399946177E+00  3.750006409E+02  3.751827647E+02  0.000000000E+00  0.00000E+00  9.000E+00
#rwgt            1           9   1.0336759085110027E-004          11     2495103           0
</event>
<event>
      6   9999 -3.45752E-01  9.28785E+00 -1.00000E+00  1.90638E-01
      21    -1     0     0   501   511  0.000000000E+00  0.000000000E+00  1.079945778E+02  1.079945778E+02  0.000000000E+00  0.00000E+00  9.000E+00
      21    -1     0     0   502   503  0.000000000E+00  0.000000000E+00 -1.538791734E+02  1.538791734E+02  0.000000000E+00  0.00000E+00  9.000E+00
      25     1     1     2     0     0  5.724776615E+00  4.873327878E+00 -1.185357621E+02  1.724305617E+02  1.250001973E+02  0.00000E+00  9.000E+00
       5     1     1     2   501     0  1.970417967E+00 -1.232029691E+00  2.143106661E+01  2.207382070E+01  4.750000000E+00  0.00000E+00  9.000E+00
      -5     1     1     2     0   503  9.401407966E-01 -2.214882388E-01 -6.943963435E+00  8.468414842E+00  4.750000000E+00  0.00000E+00  9.000E+00
      21     1     1     2   502   511 -8.635335378E+00 -3.419809948E+00  5.816406330E+01  5.890095396E+01  6.743495762E-07  0.00000E+00  9.000E+00
#rwgt            1           9  -2.5296925485447500E-003          11     2496970           0
</event>
<event>
      6   9999  3.45752E-01  6.42959E+00 -1.00000E+00  2.09958E-01
      21    -1     0     0   501   502  0.000000000E+00  0.000000000E+00  4.763198541E+01  4.763198541E+01  0.000000000E+00  0.00000E+00  9.000E+00
      21    -1     0     0   512   503  0.000000000E+00  0.000000000E+00 -1.411327765E+02  1.411327765E+02  0.000000000E+00  0.00000E+00  9.000E+00
      25     1     1     2     0     0 -6.969829921E+00 -3.365737951E+00 -8.622188150E+01  1.520511942E+02  1.250017843E+02  0.00000E+00  9.000E+00
       5     1     1     2   501     0 -8.536950272E-01 -1.516610596E+00  1.215590130E+01  1.316652343E+01  4.750000000E+00  0.00000E+00  9.000E+00
      -5     1     1     2     0   503  2.458150644E+00  1.339422216E+00 -3.955874189E+00  6.785867451E+00  4.750000000E+00  0.00000E+00  9.000E+00
      21     1     1     2   512   502  5.365374305E+00  3.542926331E+00 -1.547893674E+01  1.676117689E+01  2.384185791E-07  0.00000E+00  9.000E+00
#rwgt            1           9  0.13119056596031026               11     2499298           0
</event>
<event>
      6   9999  3.45752E-01  6.36879E+00 -1.00000E+00  2.10512E-01
      21    -1     0     0   501   502  0.000000000E+00  0.000000000E+00  9.322909623E+02  9.322909623E+02  0.000000000E+00  0.00000E+00  9.000E+00
      21    -1     0     0   511   503  0.000000000E+00  0.000000000E+00 -8.471422836E+01  8.471422836E+01  0.000000000E+00  0.00000E+00  9.000E+00
      25     1     1     2     0     0 -3.980230155E+01  4.864891524E+00  2.014359390E+02  2.404368703E+02  1.250022428E+02  0.00000E+00  9.000E+00
       5     1     1     2   501     0  3.997882227E+00 -2.011814061E-01  6.860518267E+02  6.860799479E+02  4.750000000E+00  0.00000E+00  9.000E+00
      -5     1     1     2     0   503  2.970222153E+01 -6.487089110E+00  1.567847845E+01  3.453522079E+01  4.750000000E+00  0.00000E+00  9.000E+00
      21     1     1     2   511   502  6.102197800E+00  1.823378992E+00 -5.558951022E+01  5.595315162E+01  1.507891493E-06  0.00000E+00  9.000E+00
#rwgt            1           9   1.8387552584865956E-002          11     2502334           0
</event>
<event>
      6   9999  3.45752E-01  1.95288E+01 -1.00000E+00  1.61005E-01
      21    -1     0     0   501   502  0.000000000E+00  0.000000000E+00  6.594087601E+01  6.594087601E+01  0.000000000E+00  0.00000E+00  9.000E+00
      21    -1     0     0   512   503  0.000000000E+00  0.000000000E+00 -1.285684537E+03  1.285684537E+03  0.000000000E+00  0.00000E+00  9.000E+00
      25     1     1     2     0     0 -2.220173541E+01  1.234579034E+01 -9.529842871E+02  9.614809511E+02  1.249849289E+02  0.00000E+00  9.000E+00
       5     1     1     2   501     0  2.970576692E+00 -9.296544372E-01  6.055619952E+01  6.082190710E+01  4.750000000E+00  0.00000E+00  9.000E+00
      -5     1     1     2     0   503  3.743526646E-01 -6.337324882E+00 -2.203621222E+01  2.341920100E+01  4.750000000E+00  0.00000E+00  9.000E+00
      21     1     1     2   512   502  1.885680605E+01 -5.078811017E+00 -3.052793616E+02  3.059033542E+02  0.000000000E+00  0.00000E+00  9.000E+00
#rwgt            1           9   5.9218228305360939E-005          11     2507262           0
</event>
<event>
      6   9999  3.45752E-01  1.42523E+01 -1.00000E+00  1.72319E-01
      21    -1     0     0   501   502  0.000000000E+00  0.000000000E+00  3.397520745E+01  3.397520745E+01  0.000000000E+00  0.00000E+00  9.000E+00
      21    -1     0     0   511   503  0.000000000E+00  0.000000000E+00 -1.445592348E+03  1.445592348E+03  0.000000000E+00  0.00000E+00  9.000E+00
      25     1     1     2     0     0  4.529768946E+01 -1.041332695E+02 -1.163116364E+03  1.175312727E+03  1.249988433E+02  0.00000E+00  9.000E+00
       5     1     1     2   501     0 -2.274877232E+00 -3.215771919E+00  1.446781495E+01  1.572884055E+01  4.750000000E+00  0.00000E+00  9.000E+00
      -5     1     1     2     0   503 -4.404485199E+01  9.313340326E+01 -2.145013795E+02  2.380066892E+02  4.750000000E+00  0.00000E+00  9.000E+00
      21     1     1     2   511   502  1.022039767E+00  1.421563820E+01 -4.846721198E+01  5.051929900E+01  6.743495762E-07  0.00000E+00  9.000E+00
#rwgt            1           9  0.70582856151157869               11     2509986           0
</event>
<event>
      6   9999  3.45752E-01  3.40889E+00 -1.00000E+00  2.63160E-01
      21    -1     0     0   501   502  0.000000000E+00  0.000000000E+00  1.515940262E+03  1.515940262E+03  0.000000000E+00  0.00000E+00  9.000E+00
       2    -1     0     0   502     0  0.000000000E+00  0.000000000E+00 -2.819183482E+01  2.819183482E+01  0.000000000E+00  0.00000E+00  9.000E+00
      25     1     1     2     0     0  1.600637298E+00  2.805175288E+01  3.756097105E+02  3.968591521E+02  1.250002764E+02  0.00000E+00  9.000E+00
       5     1     1     2   501     0  4.158915731E+00 -3.078984131E+00  1.099799499E+03  1.099821929E+03  4.750000000E+00  0.00000E+00  9.000E+00
      -5     1     1     2     0   503 -9.095936074E+00 -2.567210744E+01  2.318517655E+01  3.608196316E+01  4.750000000E+00  0.00000E+00  9.000E+00
       2     1     1     2   503     0  3.336383045E+00  6.993386869E-01 -1.084595862E+01  1.136905206E+01  1.124618188E-06  0.00000E+00  9.000E+00
#rwgt            1           9   2.4647001141625591               11     2512793           0
</event>
<event>
      6   9999  3.45752E-01  1.89266E+01 -1.00000E+00  1.62061E-01
      21    -1     0     0   501   502  0.000000000E+00  0.000000000E+00  2.853573761E+01  2.853573761E+01  0.000000000E+00  0.00000E+00  9.000E+00
      21    -1     0     0   511   503  0.000000000E+00  0.000000000E+00 -1.158061754E+03  1.158061754E+03  0.000000000E+00  0.00000E+00  9.000E+00
      25     1     1     2     0     0  3.100385512E+01  2.945237945E-01 -2.908831480E+02  3.181181803E+02  1.249993805E+02  0.00000E+00  9.000E+00
       5     1     1     2   501     0 -2.811086210E-02  8.806407681E-01  1.302321863E+01  1.389039387E+01  4.750000000E+00  0.00000E+00  9.000E+00
      -5     1     1     2     0   503 -1.400853965E+01  7.211227583E+00 -7.879349152E+02  7.881067402E+02  4.750000000E+00  0.00000E+00  9.000E+00
      21     1     1     2   511   502 -1.696720461E+01 -8.386392145E+00 -6.373117155E+01  6.648217680E+01  6.743495762E-07  0.00000E+00  9.000E+00
#rwgt            1           9   1.6016503021237051E-004          11     2519269           0
</event>
<event>
      6   9999  3.45752E-01  2.15726E+01 -1.00000E+00  1.57741E-01
      21    -1     0     0   512   502  0.000000000E+00  0.000000000E+00  2.640876976E+01  2.640876976E+01  0.000000000E+00  0.00000E+00  9.000E+00
      21    -1     0     0   502   503  0.000000000E+00  0.000000000E+00 -8.438795769E+02  8.438795769E+02  0.000000000E+00  0.00000E+00  9.000E+00
      25     1     1     2     0     0 -2.587698007E+01  1.810636531E+01 -6.054144964E+02  6.189906736E+02  1.250011322E+02  0.00000E+00  9.000E+00
       5     1     1     2   501     0  9.305776676E-01 -5.338798660E+00  2.095274577E+00  7.504759922E+00  4.750000000E+00  0.00000E+00  9.000E+00
      -5     1     1     2     0   503  2.348971574E+01 -3.429089253E+01 -2.179150872E+02  2.218945241E+02  4.750000000E+00  0.00000E+00  9.000E+00
      21     1     1     2   512   501  1.456686657E+00  2.152332588E+01  3.763501985E+00  2.189838899E+01  5.022376641E-07  0.00000E+00  9.000E+00
#rwgt            1           9   2.8275472002170054E-004          11     2521348           0
</event>
<event>
      6   9999  3.45752E-01  1.21326E+01 -1.00000E+00  1.78763E-01
      21    -1     0     0   501   511  0.000000000E+00  0.000000000E+00  3.490155507E+02  3.490155507E+02  0.000000000E+00  0.00000E+00  9.000E+00
      21    -1     0     0   502   503  0.000000000E+00  0.000000000E+00 -3.079011412E+01  3.079011412E+01  0.000000000E+00  0.00000E+00  9.000E+00
      25     1     1     2     0     0  3.045430754E+01  8.374150315E+00  1.241538271E+02  1.789880186E+02  1.249997872E+02  0.00000E+00  9.000E+00
       5     1     1     2   501     0  2.821841433E+00  3.762756266E-01  9.243838361E+01  9.260411241E+01  4.750000000E+00  0.00000E+00  9.000E+00
      -5     1     1     2     0   503 -2.120205015E+01 -7.560331284E+00  8.171009427E+01  8.488691033E+01  4.750000000E+00  0.00000E+00  9.000E+00
      21     1     1     2   502   511 -1.207409883E+01 -1.190094658E+00  1.992313163E+01  2.332662345E+01  4.129530925E-07  0.00000E+00  9.000E+00
#rwgt            1           9   11.761578197789497               11     2522756           0
</event>
<event>
      6   9999  3.45752E-01  9.00319E+00 -1.00000E+00  1.92129E-01
      21    -1     0     0   502   503  0.000000000E+00  0.000000000E+00  1.843108216E+03  1.843108216E+03  0.000000000E+00  0.00000E+00  9.000E+00
      21    -1     0     0   501   512  0.000000000E+00  0.000000000E+00 -9.805948623E+00  9.805948623E+00  0.000000000E+00  0.00000E+00  9.000E+00
      25     1     1     2     0     0 -1.464307573E+01  7.442926219E+00  1.779251188E+03  1.783709771E+03  1.249637521E+02  0.00000E+00  9.000E+00
       5     1     1     2   501     0 -9.516977293E-01  1.811838965E+00 -6.135238400E-02  5.172499697E+00  4.750000000E+00  0.00000E+00  9.000E+00
      -5     1     1     2     0   503  1.171666870E+01 -1.129636540E+00  5.352507344E+01  5.500956636E+01  4.750000000E+00  0.00000E+00  9.000E+00
      21     1     1     2   502   512  3.878104764E+00 -8.125128645E+00  5.873584411E-01  9.022327969E+00  8.106081033E-07  0.00000E+00  9.000E+00
#rwgt            1           9   3.7622760168331691E-004          11     2525070           0
</event>
<event>
      6   9999  3.45752E-01  4.86673E+00 -1.00000E+00  2.31445E-01
      21    -1     0     0   502   511  0.000000000E+00  0.000000000E+00  1.602331529E+01  1.602331529E+01  0.000000000E+00  0.00000E+00  9.000E+00
      21    -1     0     0   501   502  0.000000000E+00  0.000000000E+00 -8.767863201E+02  8.767863201E+02  0.000000000E+00  0.00000E+00  9.000E+00
      25     1     1     2     0     0 -6.431554730E+01  6.342471466E+00 -4.838191061E+02  5.038745254E+02  1.250275704E+02  0.00000E+00  9.000E+00
       5     1     1     2   501     0  1.078633998E+01 -3.012176305E+01 -1.057118247E+02  1.105496184E+02  4.750000000E+00  0.00000E+00  9.000E+00
      -5     1     1     2     0   503  5.148087912E+01  1.936461551E+01 -2.637066711E+02  2.694235330E+02  4.750000000E+00  0.00000E+00  9.000E+00
      21     1     1     2   503   511  2.048328198E+00  4.414676073E+00 -7.525402900E+00  8.961958605E+00  1.884864366E-07  0.00000E+00  9.000E+00
#rwgt            1           9   1.4240466996743254E-003          11     2527880           0
</event>
<event>
      6   9999  3.45752E-01  7.88849E+01 -1.00000E+00  1.24981E-01
      21    -1     0     0   501   502  0.000000000E+00  0.000000000E+00  4.613693193E+03  4.613693193E+03  0.000000000E+00  0.00000E+00  9.000E+00
      21    -1     0     0   502   512  0.000000000E+00  0.000000000E+00 -6.286900189E+02  6.286900189E+02  0.000000000E+00  0.00000E+00  9.000E+00
      25     1     1     2     0     0  4.122923255E+02  4.723013238E+02  1.547358555E+03  1.674215409E+03  1.250009506E+02  0.00000E+00  9.000E+00
       5     1     1     2   501     0 -2.318664682E+01 -5.769106608E-01  2.776863260E+03  2.776964185E+03  4.750000000E+00  0.00000E+00  9.000E+00
      -5     1     1     2     0   503 -3.133956526E+02 -4.938788737E+02 -1.775131153E+02  6.112827869E+02  4.750000000E+00  0.00000E+00  9.000E+00
      21     1     1     2   503   512 -7.571002613E+01  2.215446057E+01 -1.617055261E+02  1.799208308E+02  4.672030912E-06  0.00000E+00  9.000E+00
#rwgt            1           9   1.4396963721799902E-003          11     2532330           0
</event>
<event>
      6   9999  3.45752E-01  1.49743E+01 -1.00000E+00  1.70436E-01
      21    -1     0     0   511   502  0.000000000E+00  0.000000000E+00  2.228574829E+02  2.228574829E+02  0.000000000E+00  0.00000E+00  9.000E+00
      21    -1     0     0   502   503  0.000000000E+00  0.000000000E+00 -7.089037828E+02  7.089037828E+02  0.000000000E+00  0.00000E+00  9.000E+00
      25     1     1     2     0     0  4.495878936E+00  1.123644113E+01 -6.840898865E+02  6.955217567E+02  1.250002822E+02  0.00000E+00  9.000E+00
       5     1     1     2   501     0  6.336195228E+00 -1.578959592E+01  1.612068689E+02  1.621717478E+02  4.750000000E+00  0.00000E+00  9.000E+00
      -5     1     1     2     0   503 -1.727186511E+00 -7.335080983E+00 -1.645544882E+01  1.871178458E+01  4.750000000E+00  0.00000E+00  9.000E+00
      21     1     1     2   511   501 -9.104887653E+00  1.188823577E+01  5.329216654E+01  5.535597658E+01  1.507891493E-06  0.00000E+00  9.000E+00
#rwgt            1           9   1.1560624902776980E-004          11     2534761           0
</event>
<event>
      6   9999  3.45752E-01  2.41856E+01 -1.00000E+00  1.54156E-01
      21    -1     0     0   512   503  0.000000000E+00  0.000000000E+00  5.298979268E+01  5.298979268E+01  0.000000000E+00  0.00000E+00  9.000E+00
      21    -1     0     0   501   502  0.000000000E+00  0.000000000E+00 -8.965684494E+02  8.965684494E+02  0.000000000E+00  0.00000E+00  9.000E+00
      25     1     1     2     0     0 -4.799162872E+01  2.727737938E+00 -2.809259839E+02  3.112178101E+02  1.250059195E+02  0.00000E+00  9.000E+00
       5     1     1     2   501     0  2.928258278E+01 -6.307103584E+00 -5.825534549E+02  5.833423861E+02  4.750000000E+00  0.00000E+00  9.000E+00
      -5     1     1     2     0   503 -4.859016657E+00 -1.851193151E+00 -1.263049625E+01  1.446128952E+01  4.750000000E+00  0.00000E+00  9.000E+00
      21     1     1     2   512   502  2.356806259E+01  5.430558797E+00  3.253127832E+01  4.053675631E+01  2.286830675E-06  0.00000E+00  9.000E+00
#rwgt            1           9  0.17360274171869036               11     2538450           0
</event>
<event>
      6   9999  3.45752E-01  1.78643E+01 -1.00000E+00  1.64046E-01
      21    -1     0     0   501   502  0.000000000E+00  0.000000000E+00  3.255923677E+02  3.255923677E+02  0.000000000E+00  0.00000E+00  9.000E+00
      21    -1     0     0   511   503  0.000000000E+00  0.000000000E+00 -4.955536951E+01  4.955536951E+01  0.000000000E+00  0.00000E+00  9.000E+00
      25     1     1     2     0     0  1.075353094E+01 -1.792287114E+01  1.769770475E+02  2.176706502E+02  1.249910751E+02  0.00000E+00  9.000E+00
       5     1     1     2   501     0  2.699832908E+00 -1.220936310E+00  8.971065764E+01  8.988517329E+01  4.750000000E+00  0.00000E+00  9.000E+00
      -5     1     1     2     0   503 -1.299536553E+00  6.051206176E+00  3.526385453E+01  3.611658660E+01  4.750000000E+00  0.00000E+00  9.000E+00
      21     1     1     2   511   502 -1.215382730E+01  1.309260128E+01 -2.591456145E+01  3.147532719E+01  4.768371582E-07  0.00000E+00  9.000E+00
#rwgt            1           9   7.1152259890618996E-004          11     2539698           0
</event>
<event>
      6   9999  3.45752E-01  1.05826E+01 -1.00000E+00  1.84640E-01
      21    -1     0     0   501   502  0.000000000E+00  0.000000000E+00  1.547086773E+01  1.547086773E+01  0.000000000E+00  0.00000E+00  9.000E+00
      21    -1     0     0   512   503  0.000000000E+00  0.000000000E+00 -1.374269312E+03  1.374269312E+03  0.000000000E+00  0.00000E+00  9.000E+00
      25     1     1     2     0     0  1.987689702E+01 -5.655412656E+00 -3.061011816E+02  3.312840251E+02  1.249963888E+02  0.00000E+00  9.000E+00
       5     1     1     2   501     0  1.163092919E+00  3.744313325E-01  2.372136342E-01  4.910372111E+00  4.750000000E+00  0.00000E+00  9.000E+00
      -5     1     1     2     0   503 -1.781248162E+01  1.535942812E+01 -5.854106447E+02  5.859021949E+02  4.750000000E+00  0.00000E+00  9.000E+00
      21     1     1     2   512   502 -3.227508319E+00 -1.007844680E+01 -4.675238320E+02  4.676435880E+02  7.629394531E-06  0.00000E+00  9.000E+00
#rwgt            1           9   9.8065163445788675E-004          11     2541029           0
</event>
<event>
      6   9999 -3.45752E-01  3.98521E+00 -1.00000E+00  2.48183E-01
      21    -1     0     0   501   502  0.000000000E+00  0.000000000E+00  3.560971621E+00  3.560971621E+00  0.000000000E+00  0.00000E+00  9.000E+00
      21    -1     0     0   502   511  0.000000000E+00  0.000000000E+00 -2.346905550E+03  2.346905550E+03  0.000000000E+00  0.00000E+00  9.000E+00
      25     1     1     2     0     0 -2.365621403E+01 -1.529754611E+01 -1.892928081E+03  1.897260035E+03  1.250011578E+02  0.00000E+00  9.000E+00
       5     1     1     2   501     0  4.655654214E-01 -8.753979354E-01 -6.745843870E+00  8.309752236E+00  4.750000000E+00  0.00000E+00  9.000E+00
      -5     1     1     2     0   503  2.024112057E+01  1.349298031E+01 -2.590392790E+02  2.602223550E+02  4.750000000E+00  0.00000E+00  9.000E+00
      21     1     1     2   503   511  2.949528035E+00  2.679963736E+00 -1.846313749E+02  1.846743797E+02  0.000000000E+00  0.00000E+00  9.000E+00
#rwgt            1           9  -2.5530130675516059E-004          11     2543530           0
</event>
<event>
      6   9999  3.45752E-01  1.09886E+01 -1.00000E+00  1.82982E-01
      21    -1     0     0   501   502  0.000000000E+00  0.000000000E+00  2.719701652E+01  2.719701652E+01  0.000000000E+00  0.00000E+00  9.000E+00
      21    -1     0     0   512   503  0.000000000E+00  0.000000000E+00 -1.122722650E+03  1.122722650E+03  0.000000000E+00  0.00000E+00  9.000E+00
      25     1     1     2     0     0  1.146381269E+01 -8.633803102E-02 -9.611152659E+02  9.692798624E+02  1.250178820E+02  0.00000E+00  9.000E+00
       5     1     1     2   501     0 -7.556831928E-01 -1.062636163E+01  2.107116377E+01  2.408416619E+01  4.750000000E+00  0.00000E+00  9.000E+00
      -5     1     1     2     0   503 -4.320169061E+00  1.771642295E+00 -3.981338409E+01  4.036670199E+01  4.750000000E+00  0.00000E+00  9.000E+00
      21     1     1     2   512   502 -6.387960438E+00  8.941057365E+00 -1.156681470E+02  1.161889357E+02  0.000000000E+00  0.00000E+00  9.000E+00
#rwgt            1           9  0.70937515881988544               11     2547974           0
</event>
<event>
      6   9999  3.45752E-01  2.13901E+01 -1.00000E+00  1.58014E-01
      21    -1     0     0   501   511  0.000000000E+00  0.000000000E+00  3.464415332E+01  3.464415332E+01  0.000000000E+00  0.00000E+00  9.000E+00
      21    -1     0     0   502   503  0.000000000E+00  0.000000000E+00 -8.029469283E+02  8.029469283E+02  0.000000000E+00  0.00000E+00  9.000E+00
      25     1     1     2     0     0  9.230671640E+00 -5.499558349E+00 -7.446239053E+02  7.551195147E+02  1.250010829E+02  0.00000E+00  9.000E+00
       5     1     1     2   501     0 -2.862209918E+01 -4.625548014E+00 -2.187568039E+01  3.662960754E+01  4.750000000E+00  0.00000E+00  9.000E+00
      -5     1     1     2     0   503 -1.986801127E+00  9.413822462E+00 -1.664742024E+01  1.980571970E+01  4.750000000E+00  0.00000E+00  9.000E+00
      21     1     1     2   502   511  2.137822867E+01  7.112839012E-01  1.484423092E+01  2.603623970E+01  9.078709013E-07  0.00000E+00  9.000E+00
#rwgt            1           9   4.8105936468195798E-003          11     2551039           0
</event>
<event>
      6   9999 -3.45752E-01  9.44218E+00 -1.00000E+00  1.89858E-01
      21    -1     0     0   501   502  0.000000000E+00  0.000000000E+00  6.952087488E+01  6.952087488E+01  0.000000000E+00  0.00000E+00  9.000E+00
      21    -1     0     0   512   503  0.000000000E+00  0.000000000E+00 -2.172176990E+03  2.172176990E+03  0.000000000E+00  0.00000E+00  9.000E+00
      25     1     1     2     0     0 -1.210324766E+01 -4.735055095E+01 -2.040327610E+03  2.044736371E+03  1.249860416E+02  0.00000E+00  9.000E+00
       5     1     1     2   501     0  3.799330280E+00 -6.996501861E-01  3.536377027E+01  3.588987558E+01  4.750000000E+00  0.00000E+00  9.000E+00
      -5     1     1     2     0   503  1.251395880E+00  5.432847067E+01  7.846317950E+00  5.511148631E+01  4.750000000E+00  0.00000E+00  9.000E+00
      21     1     1     2   512   502  7.052521502E+00 -6.278269535E+00 -1.055385935E+02  1.059601314E+02  0.000000000E+00  0.00000E+00  9.000E+00
#rwgt            1           9  -2.9817728547030364E-003          11     2552535           0
</event>
<event>
      6   9999  3.45752E-01  1.58665E+01 -1.00000E+00  1.68285E-01
      21    -1     0     0   511   502  0.000000000E+00  0.000000000E+00  9.182850068E+00  9.182850068E+00  0.000000000E+00  0.00000E+00  9.000E+00
      21    -1     0     0   502   503  0.000000000E+00  0.000000000E+00 -5.011471489E+03  5.011471489E+03  0.000000000E+00  0.00000E+00  9.000E+00
      25     1     1     2     0     0  2.165717957E+01 -1.513204154E+01 -4.175735718E+03  4.177689545E+03  1.249925314E+02  0.00000E+00  9.000E+00
       5     1     1     2   501     0  2.910248671E+00  6.717643649E-01  6.119578955E+00  8.302563537E+00  4.750000000E+00  0.00000E+00  9.000E+00
      -5     1     1     2     0   503 -1.669536564E+01  6.843595353E-01 -7.633307448E+02  7.635283832E+02  4.750000000E+00  0.00000E+00  9.000E+00
      21     1     1     2   511   501 -7.872062602E+00  1.377591764E+01 -6.934175485E+01  7.113384738E+01  1.907348633E-06  0.00000E+00  9.000E+00
#rwgt            1           9   2.8668507907313667E-004          11     2557368           0
</event>
<event>
      6   9999  3.45752E-01  1.16296E+01 -1.00000E+00  1.80542E-01
       2    -1     0     0   501     0  0.000000000E+00  0.000000000E+00  1.252871349E+02  1.252871349E+02  0.000000000E+00  0.00000E+00  9.000E+00
      21    -1     0     0   502   503  0.000000000E+00  0.000000000E+00 -1.075036971E+03  1.075036971E+03  0.000000000E+00  0.00000E+00  9.000E+00
      25     1     1     2     0     0 -1.089579068E+01 -2.492882527E+01 -9.903479220E+02  9.985975559E+02  1.251715123E+02  0.00000E+00  9.000E+00
       5     1     1     2   501     0 -2.741526852E+00  6.834760805E+00  1.704544792E+01  1.916610862E+01  4.750000000E+00  0.00000E+00  9.000E+00
      -5     1     1     2     0   503  1.655263310E+01  2.935228410E+01 -7.550642129E+01  8.282106254E+01  4.750000000E+00  0.00000E+00  9.000E+00
       2     1     1     2   502     0 -2.915315570E+00 -1.125821964E+01  9.905905904E+01  9.973937914E+01  5.046370146E-06  0.00000E+00  9.000E+00
#rwgt            1           9   1.0020671969783857E-004          11     2559469           0
</event>
<event>
      6   9999 -3.45752E-01  6.32502E+00 -1.00000E+00  2.10916E-01
      21    -1     0     0   502   503  0.000000000E+00  0.000000000E+00  8.412657975E+00  8.412657975E+00  0.000000000E+00  0.00000E+00  9.000E+00
      21    -1     0     0   501   511  0.000000000E+00  0.000000000E+00 -8.806035977E+02  8.806035977E+02  0.000000000E+00  0.00000E+00  9.000E+00
      25     1     1     2     0     0  1.746799191E+01  1.455706010E+01 -5.303891976E+02  5.453949517E+02  1.250036547E+02  0.00000E+00  9.000E+00
       5     1     1     2   501     0 -8.332082933E-01  8.345925272E-01 -6.204159246E+01  6.223433518E+01  4.750000000E+00  0.00000E+00  9.000E+00
      -5     1     1     2     0   503 -1.780406025E+01 -9.175652512E+00 -1.422793143E+02  1.437607142E+02  4.750000000E+00  0.00000E+00  9.000E+00
      21     1     1     2   502   511  1.169276628E+00 -6.216000120E+00 -1.374808353E+02  1.376262546E+02  1.907348633E-06  0.00000E+00  9.000E+00
#rwgt            1           9  -5.9060090933984999E-004          11     2562832           0
</event>
<event>
      6   9999  3.45752E-01  2.09628E+01 -1.00000E+00  1.58667E-01
      21    -1     0     0   501   512  0.000000000E+00  0.000000000E+00  1.184096413E+01  1.184096413E+01  0.000000000E+00  0.00000E+00  9.000E+00
      21    -1     0     0   502   503  0.000000000E+00  0.000000000E+00 -1.542196275E+03  1.542196275E+03  0.000000000E+00  0.00000E+00  9.000E+00
      25     1     1     2     0     0  2.988723031E+00  1.623039152E+01 -1.474690370E+03  1.480070835E+03  1.250025281E+02  0.00000E+00  9.000E+00
       5     1     1     2   501     0 -9.041803697E-01  5.378466573E+00  1.377588236E+00  7.362451641E+00  4.750000000E+00  0.00000E+00  9.000E+00
      -5     1     1     2     0   503  5.923204376E-01 -8.177119750E-01 -3.791949408E+01  3.822917770E+01  4.750000000E+00  0.00000E+00  9.000E+00
      21     1     1     2   502   512 -2.676863099E+00 -2.079114612E+01 -1.912303468E+01  2.837477416E+01  1.327458468E-06  0.00000E+00  9.000E+00
#rwgt            1           9   1.2514366580597778E-003          11     2565701           0
</event>
<event>
      6   9999  3.45752E-01  1.08717E+01 -1.00000E+00  1.83450E-01
      21    -1     0     0   501   502  0.000000000E+00  0.000000000E+00  9.638556297E+00  9.638556297E+00  0.000000000E+00  0.00000E+00  9.000E+00
       2    -1     0     0   502     0  0.000000000E+00  0.000000000E+00 -1.757937379E+03  1.757937379E+03  0.000000000E+00  0.00000E+00  9.000E+00
      25     1     1     2     0     0  1.694472188E+01  7.952361565E+00 -5.822478221E+02  5.958093053E+02  1.250033535E+02  0.00000E+00  9.000E+00
       5     1     1     2   501     0  4.780848227E-01  1.681635841E+00 -1.260490823E+00  5.216109788E+00  4.750000000E+00  0.00000E+00  9.000E+00
      -5     1     1     2     0   503 -1.959175332E+01  1.019104475E+00 -1.187354853E+02  1.204390025E+02  4.750000000E+00  0.00000E+00  9.000E+00
       2     1     1     2   503     0  2.168946618E+00 -1.065310188E+01 -1.046055024E+03  1.046111517E+03  1.525878906E-05  0.00000E+00  9.000E+00
#rwgt            1           9   7.5965785606758214E-003          11     2567477           0
</event>
<event>
      6   9999  3.45752E-01  1.20501E+01 -1.00000E+00  1.79048E-01
      21    -1     0     0   501   511  0.000000000E+00  0.000000000E+00  1.076493373E+01  1.076493373E+01  0.000000000E+00  0.00000E+00  9.000E+00
      21    -1     0     0   502   503  0.000000000E+00  0.000000000E+00 -7.000353497E+02  7.000353497E+02  0.000000000E+00  0.00000E+00  9.000E+00
      25     1     1     2     0     0 -1.214678397E+01  1.387642389E+00 -6.109960627E+02  6.237707785E+02  1.249973020E+02  0.00000E+00  9.000E+00
       5     1     1     2   501     0  8.980022681E+00 -7.281589964E+00 -2.427998924E+01  2.730829063E+01  4.750000000E+00  0.00000E+00  9.000E+00
      -5     1     1     2     0   503  6.132812762E+00 -5.785437784E+00 -4.045409781E+01  4.159542298E+01  4.750000000E+00  0.00000E+00  9.000E+00
      21     1     1     2   502   511 -2.966051475E+00  1.167938536E+01 -1.354026627E+01  1.812579141E+01  4.460403188E-07  0.00000E+00  9.000E+00
#rwgt            1           9   1.4489139631419733E-003          11     2570273           0
</event>
<event>
      6   9999  3.45752E-01  9.41755E+00 -1.00000E+00  1.89981E-01
      21    -1     0     0   502   503  0.000000000E+00  0.000000000E+00  4.664954346E+01  4.664954346E+01  0.000000000E+00  0.00000E+00  9.000E+00
      21    -1     0     0   501   512  0.000000000E+00  0.000000000E+00 -1.173737374E+02  1.173737374E+02  0.000000000E+00  0.00000E+00  9.000E+00
      25     1     1     2     0     0  5.112415012E+00 -8.187503486E+00 -5.620280364E+01  1.373932652E+02  1.249999288E+02  0.00000E+00  9.000E+00
       5     1     1     2   501     0  1.335888563E-01 -3.239152255E-01 -7.022041022E-01  4.814390684E+00  4.750000000E+00  0.00000E+00  9.000E+00
      -5     1     1     2     0   503 -1.321772565E+00 -4.957250208E-02  1.909840124E-01  4.934421449E+00  4.750000000E+00  0.00000E+00  9.000E+00
      21     1     1     2   502   512 -3.924231304E+00  8.560991213E+00 -1.401017021E+01  1.688120349E+01  2.384185791E-07  0.00000E+00  9.000E+00
#rwgt            1           9   7.5832540261344658E-002          11     2571888           0
</event>
<event>
      6   9999  3.45752E-01  4.36499E+00 -1.00000E+00  2.40254E-01
      21    -1     0     0   511   502  0.000000000E+00  0.000000000E+00  6.708912662E+02  6.708912662E+02  0.000000000E+00  0.00000E+00  9.000E+00
      21    -1     0     0   502   503  0.000000000E+00  0.000000000E+00 -1.018231888E+01  1.018231888E+01  0.000000000E+00  0.00000E+00  9.000E+00
      25     1     1     2     0     0 -1.096365765E+01  7.381031755E+00  5.368662230E+02  5.513851678E+02  1.250023217E+02  0.00000E+00  9.000E+00
       5     1     1     2   501     0 -2.583651722E-01 -3.460350590E-01  4.439874811E+01  4.465420278E+01  4.750000000E+00  0.00000E+00  9.000E+00
      -5     1     1     2     0   503  9.082710313E+00 -1.083978844E+01  1.775282203E+01  2.318882986E+01  4.750000000E+00  0.00000E+00  9.000E+00
      21     1     1     2   511   501  2.139312507E+00  3.804791742E+00  6.169115415E+01  6.184538462E+01  9.536743164E-07  0.00000E+00  9.000E+00
#rwgt            1           9   5.9100079871153323E-002          11     2574195           0
</event>
<event>
      6   9999  3.45752E-01  3.97719E+00 -1.00000E+00  2.48365E-01
      21    -1     0     0   501   502  0.000000000E+00  0.000000000E+00  7.609883068E+00  7.609883068E+00  0.000000000E+00  0.00000E+00  9.000E+00
      21    -1     0     0   512   503  0.000000000E+00  0.000000000E+00 -1.584387453E+03  1.584387453E+03  0.000000000E+00  0.00000E+00  9.000E+00
      25     1     1     2     0     0  5.229652981E+00 -1.801615109E+00 -6.872287103E+02  6.985256940E+02  1.249969991E+02  0.00000E+00  9.000E+00
       5     1     1     2   501     0 -3.102221002E-02 -6.975529662E-02 -8.271549238E+00  9.538703002E+00  4.750000000E+00  0.00000E+00  9.000E+00
      -5     1     1     2     0   503 -8.536261983E+00 -2.915537105E-01 -1.672247470E+01  1.936895538E+01  4.750000000E+00  0.00000E+00  9.000E+00
      21     1     1     2   512   502  3.337631211E+00  2.162924116E+00 -8.645548353E+02  8.645639833E+02  0.000000000E+00  0.00000E+00  9.000E+00
#rwgt            1           9   1.4106595658984947E-004          11     2578024           0
</event>
<event>
      6   9999  3.45752E-01  3.90476E+00 -1.00000E+00  2.50036E-01
      21    -1     0     0   501   511  0.000000000E+00  0.000000000E+00  3.744179175E+02  3.744179175E+02  0.000000000E+00  0.00000E+00  9.000E+00
      21    -1     0     0   502   503  0.000000000E+00  0.000000000E+00 -1.549237382E+02  1.549237382E+02  0.000000000E+00  0.00000E+00  9.000E+00
      25     1     1     2     0     0  6.310018484E+00 -2.204368262E+00 -1.246317546E+02  1.766386705E+02  1.249938803E+02  0.00000E+00  9.000E+00
       5     1     1     2   501     0 -1.305481694E+00  3.090569218E+00  5.363125875E+01  5.394562369E+01  4.750000000E+00  0.00000E+00  9.000E+00
      -5     1     1     2     0   503 -1.241305506E+00  1.555636001E-01 -2.653701286E+00  5.582980379E+00  4.750000000E+00  0.00000E+00  9.000E+00
      21     1     1     2   502   511 -3.763231284E+00 -1.041764556E+00  2.931483764E+02  2.931743811E+02  3.814697266E-06  0.00000E+00  9.000E+00
#rwgt            1           9   1.0691915297644012E-004          11     2582682           0
</event>
<event>
      6   9999  3.45752E-01  1.30252E+01 -1.00000E+00  1.75862E-01
      21    -1     0     0   501   512  0.000000000E+00  0.000000000E+00  3.037128045E+01  3.037128045E+01  0.000000000E+00  0.00000E+00  9.000E+00
      21    -1     0     0   502   503  0.000000000E+00  0.000000000E+00 -1.141588462E+03  1.141588462E+03  0.000000000E+00  0.00000E+00  9.000E+00
      25     1     1     2     0     0 -2.923982623E+01  3.100691952E+01 -5.894362233E+02  6.040504584E+02  1.250019936E+02  0.00000E+00  9.000E+00
       5     1     1     2   501     0 -2.364392304E+00  3.583698340E+00  2.000662153E+01  2.100620503E+01  4.750000000E+00  0.00000E+00  9.000E+00
      -5     1     1     2     0   503  2.158269379E+01 -4.291080842E+01 -5.134689181E+02  5.157325300E+02  4.750000000E+00  0.00000E+00  9.000E+00
      21     1     1     2   502   512  1.002152474E+01  8.320190566E+00 -2.831866188E+01  3.117054924E+01  0.000000000E+00  0.00000E+00  9.000E+00
#rwgt            1           9   1.7388107977656583E-004          11     2587982           0
</event>
<event>
      6   9999  3.45752E-01  5.60782E+01 -1.00000E+00  1.32175E-01
      21    -1     0     0   501   502  0.000000000E+00  0.000000000E+00  3.351537095E+01  3.351537095E+01  0.000000000E+00  0.00000E+00  9.000E+00
      21    -1     0     0   502   511  0.000000000E+00  0.000000000E+00 -1.663955201E+03  1.663955201E+03  0.000000000E+00  0.00000E+00  9.000E+00
      25     1     1     2     0     0 -4.164406098E+01  2.389283406E+01 -7.875924233E+02  7.988940088E+02  1.249988667E+02  0.00000E+00  9.000E+00
       5     1     1     2   501     0 -7.351368964E+00  1.491245278E+01  1.344410475E+01  2.190274700E+01  4.750000000E+00  0.00000E+00  9.000E+00
      -5     1     1     2     0   503  1.050442446E+02 -3.698968184E+01 -3.508649010E+02  3.681457200E+02  4.750000000E+00  0.00000E+00  9.000E+00
      21     1     1     2   503   511 -5.604881465E+01 -1.815604998E+00 -5.054266108E+02  5.085280965E+02  5.394796609E-06  0.00000E+00  9.000E+00
#rwgt            1           9   2.0297103692607461E-002          11     2590688           0
</event>
<event>
      6   9999 -3.45752E-01  4.33511E+01 -1.00000E+00  1.38189E-01
      21    -1     0     0   501   512  0.000000000E+00  0.000000000E+00  1.771131388E+02  1.771131388E+02  0.000000000E+00  0.00000E+00  9.000E+00
      21    -1     0     0   502   503  0.000000000E+00  0.000000000E+00 -9.385930140E+02  9.385930140E+02  0.000000000E+00  0.00000E+00  9.000E+00
      25     1     1     2     0     0  2.080163246E+01 -8.839372214E+01 -8.348052138E+02  8.489827355E+02  1.250031284E+02  0.00000E+00  9.000E+00
       5     1     1     2   501     0 -9.110760664E+00  1.222805441E+01 -4.897359209E+01  5.151219755E+01  4.750000000E+00  0.00000E+00  9.000E+00
      -5     1     1     2     0   503 -1.728846696E+01  3.317751492E+01 -3.536260233E+01  5.169830490E+01  4.750000000E+00  0.00000E+00  9.000E+00
      21     1     1     2   502   512  5.597595159E+00  4.298815280E+01  1.576615329E+02  1.635129149E+02  4.672030912E-06  0.00000E+00  9.000E+00
#rwgt            1           9  -2.7717827257635958E-002          11     2592343           0
</event>
<event>
      6   9999  3.45752E-01  2.51905E+01 -1.00000E+00  1.52920E-01
      21    -1     0     0   511   502  0.000000000E+00  0.000000000E+00  1.021170932E+01  1.021170932E+01  0.000000000E+00  0.00000E+00  9.000E+00
      21    -1     0     0   502   503  0.000000000E+00  0.000000000E+00 -7.511491414E+02  7.511491414E+02  0.000000000E+00  0.00000E+00  9.000E+00
      25     1     1     2     0     0  2.939953665E+00 -3.034558282E+01 -6.356469464E+02  6.485372046E+02  1.249958703E+02  0.00000E+00  9.000E+00
       5     1     1     2   501     0  1.526978721E-01 -1.162146183E+00 -5.451774238E+00  7.325178682E+00  4.750000000E+00  0.00000E+00  9.000E+00
      -5     1     1     2     0   503 -3.977459005E+00  6.332774065E+00 -2.829482859E+01  2.964935130E+01  4.750000000E+00  0.00000E+00  9.000E+00
      21     1     1     2   511   501  8.848074671E-01  2.517495494E+01 -7.154388289E+01  7.584911614E+01  1.907348633E-06  0.00000E+00  9.000E+00
#rwgt            1           9   2.8496205992734665E-004          11     2593015           0
</event>
<event>
      6   9999  3.45752E-01  3.59046E+01 -1.00000E+00  1.42962E-01
      21    -1     0     0   501   502  0.000000000E+00  0.000000000E+00  1.022411151E+02  1.022411151E+02  0.000000000E+00  0.00000E+00  9.000E+00
      21    -1     0     0   512   503  0.000000000E+00  0.000000000E+00 -4.165228638E+02  4.165228638E+02  0.000000000E+00  0.00000E+00  9.000E+00
      25     1     1     2     0     0 -2.094693784E+01  1.427257706E+01 -2.425505934E+02  2.740471981E+02  1.250143823E+02  0.00000E+00  9.000E+00
       5     1     1     2   501     0  6.479333899E+00 -1.708647730E+01  7.367541926E+01  7.605629085E+01  4.750000000E+00  0.00000E+00  9.000E+00
      -5     1     1     2     0   503  3.756481957E+01 -2.467535209E+01 -5.376872732E+01  7.023978366E+01  4.750000000E+00  0.00000E+00  9.000E+00
      21     1     1     2   512   502 -2.309721563E+01  2.748925233E+01 -9.163784734E+01  9.842070630E+01  1.348699152E-06  0.00000E+00  9.000E+00
#rwgt            1           9   2.2899442238361618E-003          11     2594214           0
</event>
<event>
      6   9999 -3.45752E-01  7.31039E+00 -1.00000E+00  2.02766E-01
      21    -1     0     0   511   502  0.000000000E+00  0.000000000E+00  1.509496807E+01  1.509496807E+01  0.000000000E+00  0.00000E+00  9.000E+00
      21    -1     0     0   502   503  0.000000000E+00  0.000000000E+00 -8.389517294E+02  8.389517294E+02  0.000000000E+00  0.00000E+00  9.000E+00
      25     1     1     2     0     0 -2.689260023E+00  6.215673461E+00 -8.220537609E+02  8.315311695E+02  1.250033334E+02  0.00000E+00  9.000E+00
       5     1     1     2   501     0 -2.156079614E+00 -1.002449928E+00  4.361581439E+00  6.873098123E+00  4.750000000E+00  0.00000E+00  9.000E+00
      -5     1     1     2     0   503 -1.821599964E+00 -2.214264037E+00 -6.215799346E+00  8.331857726E+00  4.750000000E+00  0.00000E+00  9.000E+00
      21     1     1     2   511   501  6.666939602E+00 -2.998959496E+00  5.121744218E-02  7.310572135E+00  2.432998901E-07  0.00000E+00  9.000E+00
#rwgt            1           9 -0.18254293090149429               11     2595563           0
</event>
<event>
      6   9999  3.45752E-01  1.05221E+01 -1.00000E+00  1.84895E-01
      21    -1     0     0   501   502  0.000000000E+00  0.000000000E+00  2.772130556E+02  2.772130556E+02  0.000000000E+00  0.00000E+00  9.000E+00
      21    -1     0     0   512   503  0.000000000E+00  0.000000000E+00 -3.874393449E+02  3.874393449E+02  0.000000000E+00  0.00000E+00  9.000E+00
      25     1     1     2     0     0 -1.493366777E+02 -9.967249287E+01 -3.445406859E+01  2.214645355E+02  1.249936338E+02  0.00000E+00  9.000E+00
       5     1     1     2   501     0  2.585498015E-01  5.042983847E+00  1.535037125E+02  1.536601795E+02  4.750000000E+00  0.00000E+00  9.000E+00
      -5     1     1     2     0   503  1.395734938E+02  9.011555599E+01 -2.175315995E+02  2.737592608E+02  4.750000000E+00  0.00000E+00  9.000E+00
      21     1     1     2   512   502  9.504634076E+00  4.513953025E+00 -1.174433369E+01  1.576842461E+01  1.685873940E-07  0.00000E+00  9.000E+00
#rwgt            1           9   7.0605935336581744               11     2598474           0
</event>
<event>
      6   9999  3.45752E-01  2.51041E+01 -1.00000E+00  1.53024E-01
      21    -1     0     0   501   502  0.000000000E+00  0.000000000E+00  9.448265496E+00  9.448265496E+00  0.000000000E+00  0.00000E+00  9.000E+00
      21    -1     0     0   502   511  0.000000000E+00  0.000000000E+00 -1.440731342E+03  1.440731342E+03  0.000000000E+00  0.00000E+00  9.000E+00
      25     1     1     2     0     0 -5.287204704E+00 -2.649546382E+01 -7.467851027E+02  7.576588648E+02  1.250160051E+02  0.00000E+00  9.000E+00
       5     1     1     2   501     0 -4.040905469E+00  7.923637389E-01  3.576711731E-01  6.296601144E+00  4.750000000E+00  0.00000E+00  9.000E+00
      -5     1     1     2     0   503 -9.697829995E-01  2.808353009E+00 -1.705250612E+01  1.794931171E+01  4.750000000E+00  0.00000E+00  9.000E+00
      21     1     1     2   503   511  1.029789317E+01  2.289474708E+01 -6.678031392E+02  6.682748302E+02  7.629394531E-06  0.00000E+00  9.000E+00
#rwgt            1           9   1.0563627957363721E-003          11     2603443           0
</event>
<event>
      6   9999  3.45752E-01  2.02790E+01 -1.00000E+00  1.59752E-01
      21    -1     0     0   512   503  0.000000000E+00  0.000000000E+00  6.276383714E+01  6.276383714E+01  0.000000000E+00  0.00000E+00  9.000E+00
      21    -1     0     0   501   502  0.000000000E+00  0.000000000E+00 -4.629887629E+02  4.629887629E+02  0.000000000E+00  0.00000E+00  9.000E+00
      25     1     1     2     0     0 -1.580213642E+00  1.791436465E+01 -4.165466398E+02  4.352693476E+02  1.249995211E+02  0.00000E+00  9.000E+00
       5     1     1     2   501     0 -1.209682644E-01  6.912757204E-01 -1.507359581E+01  1.581986998E+01  4.750000000E+00  0.00000E+00  9.000E+00
      -5     1     1     2     0   503 -1.800859825E+00  1.368709252E+00 -1.933079379E+01  2.003393495E+01  4.750000000E+00  0.00000E+00  9.000E+00
      21     1     1     2   512   502  3.502041731E+00 -1.997434963E+01  5.072610368E+01  5.462944750E+01  1.507891493E-06  0.00000E+00  9.000E+00
#rwgt            1           9   2.5681085652281025E-004          11     2604477           0
</event>
<event>
      6   9999  3.45752E-01  1.07678E+01 -1.00000E+00  1.83872E-01
      21    -1     0     0   511   503  0.000000000E+00  0.000000000E+00  1.415900376E+01  1.415900376E+01  0.000000000E+00  0.00000E+00  9.000E+00
      21    -1     0     0   501   502  0.000000000E+00  0.000000000E+00 -9.088415343E+02  9.088415343E+02  0.000000000E+00  0.00000E+00  9.000E+00
      25     1     1     2     0     0 -5.536834109E+00 -9.841308407E+00 -2.842487520E+02  3.107244968E+02  1.249994082E+02  0.00000E+00  9.000E+00
       5     1     1     2   501     0  4.887641508E+00 -3.412547739E+00 -5.273446790E+02  5.273997606E+02  4.750000000E+00  0.00000E+00  9.000E+00
      -5     1     1     2     0   503 -3.663116963E-01  2.534074364E+00 -4.405457505E+01  4.438382363E+01  4.750000000E+00  0.00000E+00  9.000E+00
      21     1     1     2   511   502  1.015504297E+00  1.071978178E+01 -3.903452450E+01  4.049245700E+01  0.000000000E+00  0.00000E+00  9.000E+00
#rwgt            1           9   2.0802752474843362E-004          11     2605627           0
</event>
<event>
      6   9999  3.45752E-01  2.96985E+01 -1.00000E+00  1.48122E-01
      21    -1     0     0   512   503  0.000000000E+00  0.000000000E+00  4.189638771E+01  4.189638771E+01  0.000000000E+00  0.00000E+00  9.000E+00
      21    -1     0     0   501   502  0.000000000E+00  0.000000000E+00 -8.586054696E+02  8.586054696E+02  0.000000000E+00  0.00000E+00  9.000E+00
      25     1     1     2     0     0 -6.506975439E+00  2.083209729E+01 -5.949943099E+02  6.083745698E+02  1.250002855E+02  0.00000E+00  9.000E+00
       5     1     1     2   501     0  7.535995117E+00  1.451016470E+01 -1.596003883E+02  1.605060202E+02  4.750000000E+00  0.00000E+00  9.000E+00
      -5     1     1     2     0   503 -3.036303535E+01 -3.070353104E+01 -8.410884244E+01  9.466509711E+01  4.750000000E+00  0.00000E+00  9.000E+00
      21     1     1     2   512   502  2.933401567E+01 -4.638730948E+00  2.199445868E+01  3.695617016E+01  1.752011592E-06  0.00000E+00  9.000E+00
#rwgt            1           9  0.39998712846664403               11     2608379           0
</event>
<event>
      6   9999  3.45752E-01  3.17845E+00 -1.00000E+00  2.70509E-01
      21    -1     0     0   501   511  0.000000000E+00  0.000000000E+00  2.546501239E+01  2.546501239E+01  0.000000000E+00  0.00000E+00  9.000E+00
      21    -1     0     0   502   503  0.000000000E+00  0.000000000E+00 -9.158462341E+02  9.158462341E+02  0.000000000E+00  0.00000E+00  9.000E+00
      25     1     1     2     0     0  5.752904020E+01 -2.034739391E+01 -5.048083872E+02  5.236198200E+02  1.249904045E+02  0.00000E+00  9.000E+00
       5     1     1     2   501     0  8.297932980E-01 -1.446394154E+00  2.359848220E+00  5.559855806E+00  4.750000000E+00  0.00000E+00  9.000E+00
      -5     1     1     2     0   503 -6.118586868E+01  2.034106681E+01 -3.971518112E+02  4.023799115E+02  4.750000000E+00  0.00000E+00  9.000E+00
      21     1     1     2   502   511  2.827035186E+00  1.452721259E+00  9.219128474E+00  9.751659183E+00  5.591411304E-07  0.00000E+00  9.000E+00
#rwgt            1           9   6.0084225894656968E-004          11     2609372           0
</event>
<event>
      6   9999  3.45752E-01  1.27478E+01 -1.00000E+00  1.76731E-01
      21    -1     0     0   501   502  0.000000000E+00  0.000000000E+00  4.481498088E+01  4.481498088E+01  0.000000000E+00  0.00000E+00  9.000E+00
      21    -1     0     0   512   503  0.000000000E+00  0.000000000E+00 -1.367587845E+03  1.367587845E+03  0.000000000E+00  0.00000E+00  9.000E+00
      25     1     1     2     0     0 -1.145168143E+01 -5.442954997E+01 -1.075562012E+03  1.084228946E+03  1.250001960E+02  0.00000E+00  9.000E+00
       5     1     1     2   501     0  3.341547940E-01 -4.763159035E+00  3.286241590E+01  3.354549481E+01  4.750000000E+00  0.00000E+00  9.000E+00
      -5     1     1     2     0   503  3.464673969E+00  6.938785538E+01 -1.684029665E+02  1.822328183E+02  4.750000000E+00  0.00000E+00  9.000E+00
      21     1     1     2   512   502  7.652852667E+00 -1.019514638E+01 -1.116703014E+02  1.123955666E+02  1.348699152E-06  0.00000E+00  9.000E+00
#rwgt            1           9   1.6642574494671900E-004          11     2616076           0
</event>
<event>
      6   9999  3.45752E-01  8.99291E+00 -1.00000E+00  1.92184E-01
      21    -1     0     0   501   511  0.000000000E+00  0.000000000E+00  3.588875683E+01  3.588875683E+01  0.000000000E+00  0.00000E+00  9.000E+00
      21    -1     0     0   502   503  0.000000000E+00  0.000000000E+00 -1.203336460E+03  1.203336460E+03  0.000000000E+00  0.00000E+00  9.000E+00
      25     1     1     2     0     0  1.303974605E+01  2.421263327E+01 -1.078755706E+03  1.086321782E+03  1.249994169E+02  0.00000E+00  9.000E+00
       5     1     1     2   501     0 -4.279103638E+00 -2.960828460E+00  2.909012134E+01  2.993116925E+01  4.750000000E+00  0.00000E+00  9.000E+00
      -5     1     1     2     0   503 -3.474774386E-01 -2.442846027E+01 -9.993383817E+01  1.029864308E+02  4.750000000E+00  0.00000E+00  9.000E+00
      21     1     1     2   502   511 -8.413164970E+00  3.176655459E+00 -1.784828109E+01  1.998583555E+01  4.129530925E-07  0.00000E+00  9.000E+00
#rwgt            1           9   6.5756824521859709E-005          11     2619476           0
</event>
<event>
      6   9999 -3.45752E-01  6.00938E+01 -1.00000E+00  1.30649E-01
      21    -1     0     0   512   503  0.000000000E+00  0.000000000E+00  2.473725842E+01  2.473725842E+01  0.000000000E+00  0.00000E+00  9.000E+00
      21    -1     0     0   501   502  0.000000000E+00  0.000000000E+00 -9.610413777E+02  9.610413777E+02  0.000000000E+00  0.00000E+00  9.000E+00
      25     1     1     2     0     0  3.559595880E+01 -7.590890912E+01 -5.721735989E+02  5.916386557E+02  1.249977477E+02  0.00000E+00  9.000E+00
       5     1     1     2   501     0  5.005058384E-01 -5.329636244E+00 -1.258706787E+02  1.260739695E+02  4.750000000E+00  0.00000E+00  9.000E+00
      -5     1     1     2     0   503 -4.235437345E+01  2.147144634E+01 -1.725186230E+02  1.789976361E+02  4.750000000E+00  0.00000E+00  9.000E+00
      21     1     1     2   512   502  6.257908810E+00  5.976709903E+01 -6.574121875E+01  8.906837481E+01  2.523185073E-06  0.00000E+00  9.000E+00
#rwgt            1           9 -0.13946324613363928               11     2623681           0
</event>
<event>
      6   9999  3.45752E-01  4.00407E+00 -1.00000E+00  2.47759E-01
      21    -1     0     0   501   502  0.000000000E+00  0.000000000E+00  1.465900787E+01  1.465900787E+01  0.000000000E+00  0.00000E+00  9.000E+00
      21    -1     0     0   511   503  0.000000000E+00  0.000000000E+00 -9.636687852E+02  9.636687852E+02  0.000000000E+00  0.00000E+00  9.000E+00
      25     1     1     2     0     0 -2.206651322E+01  8.980575676E+00 -5.846447536E+02  5.983335898E+02  1.250040604E+02  0.00000E+00  9.000E+00
       5     1     1     2   501     0 -2.111776604E+00 -2.340700901E+00  6.263633572E+00  8.469597786E+00  4.750000000E+00  0.00000E+00  9.000E+00
      -5     1     1     2     0   503  2.047041017E+01 -5.128519230E+00 -2.965906953E+02  2.973784499E+02  4.750000000E+00  0.00000E+00  9.000E+00
      21     1     1     2   511   502  3.707879655E+00 -1.511355544E+00 -7.403796204E+01  7.414615560E+01  0.000000000E+00  0.00000E+00  9.000E+00
#rwgt            1           9   4.5782680734577306E-005          11     2624389           0
</event>
<event>
      6   9999  3.45752E-01  9.93394E+00 -1.00000E+00  1.87497E-01
      21    -1     0     0   501   512  0.000000000E+00  0.000000000E+00  1.218077529E+02  1.218077529E+02  0.000000000E+00  0.00000E+00  9.000E+00
      21    -1     0     0   502   503  0.000000000E+00  0.000000000E+00 -2.459503103E+03  2.459503103E+03  0.000000000E+00  0.00000E+00  9.000E+00
      25     1     1     2     0     0  1.779414455E+01  5.973326787E+00 -2.383353645E+03  2.386702900E+03  1.249952975E+02  0.00000E+00  9.000E+00
       5     1     1     2   501     0  2.231989983E+00  1.223015355E+00 -2.375533525E-01  5.394115075E+00  4.750000000E+00  0.00000E+00  9.000E+00
      -5     1     1     2     0   503 -1.124982797E+01 -2.542363274E+00 -7.090375635E+01  7.199255104E+01  4.750000000E+00  0.00000E+00  9.000E+00
      21     1     1     2   502   512 -8.776306567E+00 -4.653978868E+00  1.167996047E+02  1.172212896E+02  8.203816669E-06  0.00000E+00  9.000E+00
#rwgt            1           9   5.9349809159292370E-004          11     2629860           0
</event>
<event>
      6   9999 -3.45752E-01  2.88891E+00 -1.00000E+00  2.81269E-01
      21    -1     0     0   501   502  0.000000000E+00  0.000000000E+00  3.478935351E+00  3.478935351E+00  0.000000000E+00  0.00000E+00  9.000E+00
      21    -1     0     0   502   511  0.000000000E+00  0.000000000E+00 -1.662033480E+03  1.662033480E+03  0.000000000E+00  0.00000E+00  9.000E+00
      25     1     1     2     0     0 -2.121859238E+00 -8.323394748E-01 -1.570724154E+03  1.575691812E+03  1.250004900E+02  0.00000E+00  9.000E+00
       5     1     1     2   501     0  1.129600222E-01  1.412572045E-01 -6.230051223E+00  7.836373639E+00  4.750000000E+00  0.00000E+00  9.000E+00
      -5     1     1     2     0   503 -8.722215485E-01  9.030454541E-01 -4.411851214E+01  4.439123647E+01  4.750000000E+00  0.00000E+00  9.000E+00
      21     1     1     2   503   511  2.881120764E+00 -2.119631838E-01 -3.748182752E+01  3.759299375E+01  6.743495762E-07  0.00000E+00  9.000E+00
#rwgt            1           9  -2.3442815204593778E-005          11     2632065           0
</event>
<event>
      6   9999  3.45752E-01  1.35605E+01 -1.00000E+00  1.74258E-01
      21    -1     0     0   501   502  0.000000000E+00  0.000000000E+00  2.896713640E+01  2.896713640E+01  0.000000000E+00  0.00000E+00  9.000E+00
      21    -1     0     0   502   512  0.000000000E+00  0.000000000E+00 -2.744792295E+02  2.744792295E+02  0.000000000E+00  0.00000E+00  9.000E+00
      25     1     1     2     0     0  3.661901462E+00 -7.640997150E+00 -1.747528332E+02  2.150250610E+02  1.250017191E+02  0.00000E+00  9.000E+00
       5     1     1     2   501     0 -2.981731837E-01 -1.783847062E+00  4.147424137E+00  6.560079616E+00  4.750000000E+00  0.00000E+00  9.000E+00
      -5     1     1     2     0   503 -4.268730181E+00 -4.105440110E+00 -2.205127898E+00  7.905807037E+00  4.750000000E+00  0.00000E+00  9.000E+00
      21     1     1     2   503   512  9.050019030E-01  1.353028432E+01 -7.270155612E+01  7.395541822E+01  0.000000000E+00  0.00000E+00  9.000E+00
#rwgt            1           9   7.6292440165411763E-004          11     2637997           0
</event>
<event>
      6   9999  3.45752E-01  1.66097E+02 -1.00000E+00  1.11760E-01
       2    -1     0     0   501     0  0.000000000E+00  0.000000000E+00  1.982620213E+02  1.982620213E+02  0.000000000E+00  0.00000E+00  9.000E+00
      21    -1     0     0   511   502  0.000000000E+00  0.000000000E+00 -1.430166871E+03  1.430166871E+03  0.000000000E+00  0.00000E+00  9.000E+00
      25     1     1     2     0     0 -2.798032379E+02  7.224715822E+01 -5.650401560E+02  6.468432484E+02  1.250052254E+02  0.00000E+00  9.000E+00
       5     1     1     2   501     0  1.037296765E+02 -1.647474521E+01 -2.844002937E+02  3.032117289E+02  4.750000000E+00  0.00000E+00  9.000E+00
      -5     1     1     2     0   502  1.604045312E+01 -1.130117737E+01 -4.835259720E+02  4.839472501E+02  4.750000000E+00  0.00000E+00  9.000E+00
       2     1     1     2   511     0  1.600331083E+02 -4.447123563E+01  1.010615722E+02  1.944266646E+02  3.015782986E-06  0.00000E+00  9.000E+00
#rwgt            1           4   1.9231323972316577E-005          11     2640283           0
</event>
<event>
      6   9999 -3.45752E-01  7.08578E+00 -1.00000E+00  2.04467E-01
      21    -1     0     0   501   512  0.000000000E+00  0.000000000E+00  1.310972782E+01  1.310972782E+01  0.000000000E+00  0.00000E+00  9.000E+00
      21    -1     0     0   502   503  0.000000000E+00  0.000000000E+00 -8.664081189E+02  8.664081189E+02  0.000000000E+00  0.00000E+00  9.000E+00
      25     1     1     2     0     0 -3.947448052E-01  5.002032084E+00 -6.346002122E+02  6.468144000E+02  1.250050503E+02  0.00000E+00  9.000E+00
       5     1     1     2   501     0 -2.856578219E+00 -2.659706978E+00  4.050559423E+00  7.362310233E+00  4.750000000E+00  0.00000E+00  9.000E+00
      -5     1     1     2     0   503  2.108268103E+00 -9.335305449E+00 -2.131123940E+02  2.133800546E+02  4.750000000E+00  0.00000E+00  9.000E+00
      21     1     1     2   502   512  1.143054921E+00  6.992980343E+00 -9.636344359E+00  1.196108194E+01  1.192092896E-07  0.00000E+00  9.000E+00
#rwgt            1           9  -9.0932128381093855E-004          11     2640554           0
</event>
<event>
      6   9999  3.45752E-01  9.33210E+00 -1.00000E+00  1.90412E-01
      21    -1     0     0   511   502  0.000000000E+00  0.000000000E+00  4.888478028E+01  4.888478028E+01  0.000000000E+00  0.00000E+00  9.000E+00
      21    -1     0     0   502   503  0.000000000E+00  0.000000000E+00 -1.161092714E+03  1.161092714E+03  0.000000000E+00  0.00000E+00  9.000E+00
      25     1     1     2     0     0 -6.071150477E+00  1.258550360E+00 -1.033521668E+03  1.041071788E+03  1.249999442E+02  0.00000E+00  9.000E+00
       5     1     1     2   501     0  4.045210200E+00 -1.112518258E+01  3.126173415E+01  3.376376660E+01  4.750000000E+00  0.00000E+00  9.000E+00
      -5     1     1     2     0   503  4.756495789E+00  9.429449305E-01 -1.207080799E+02  1.208987860E+02  4.750000000E+00  0.00000E+00  9.000E+00
      21     1     1     2   511   501 -2.730555512E+00  8.923687286E+00  1.076007975E+01  1.424315430E+01  3.371747881E-07  0.00000E+00  9.000E+00
#rwgt            1           9   1.8783755802447981E-004          11     2644039           0
</event>
<event>
      6   9999  3.45752E-01  1.90287E+01 -1.00000E+00  1.61878E-01
      21    -1     0     0   512   502  0.000000000E+00  0.000000000E+00  4.015206782E+01  4.015206782E+01  0.000000000E+00  0.00000E+00  9.000E+00
      21    -1     0     0   502   503  0.000000000E+00  0.000000000E+00 -8.250665386E+02  8.250665386E+02  0.000000000E+00  0.00000E+00  9.000E+00
      25     1     1     2     0     0 -1.520508603E+01 -1.403813017E+00 -7.561531267E+02  7.665673825E+02  1.249993423E+02  0.00000E+00  9.000E+00
       5     1     1     2   501     0 -1.967641763E+00  3.967337533E+00  2.978473616E+01  3.048449424E+01  4.750000000E+00  0.00000E+00  9.000E+00
      -5     1     1     2     0   503 -4.949058151E-01  4.503673170E+00 -4.326947251E+01  4.376457192E+01  4.750000000E+00  0.00000E+00  9.000E+00
      21     1     1     2   512   501  1.766763361E+01 -7.067197686E+00 -1.527660780E+01  2.440215782E+01  4.460403188E-07  0.00000E+00  9.000E+00
#rwgt            1           9   1.7694495929569857E-004          11     2647924           0
</event>
<event>
      6   9999  3.45752E-01  2.12009E+01 -1.00000E+00  1.58301E-01
      21    -1     0     0   501   502  0.000000000E+00  0.000000000E+00  3.240350594E+01  3.240350594E+01  0.000000000E+00  0.00000E+00  9.000E+00
      21    -1     0     0   511   503  0.000000000E+00  0.000000000E+00 -1.218457086E+03  1.218457086E+03  0.000000000E+00  0.00000E+00  9.000E+00
      25     1     1     2     0     0  1.071841294E+02 -9.508730941E+01 -5.983770221E+02  6.278626756E+02  1.250057793E+02  0.00000E+00  9.000E+00
       5     1     1     2   501     0  3.597587868E+00  5.708411765E-01  7.834790918E+00  9.859764036E+00  4.750000000E+00  0.00000E+00  9.000E+00
      -5     1     1     2     0   503 -9.397086715E+01  8.159845689E+01 -4.965062910E+02  5.118885538E+02  4.750000000E+00  0.00000E+00  9.000E+00
      21     1     1     2   511   502 -1.681085014E+01  1.291801134E+01 -9.900505812E+01  1.012495987E+02  1.348699152E-06  0.00000E+00  9.000E+00
#rwgt            1           9   5.3876049710381072E-005          11     2650274           0
</event>
<event>
      6   9999  3.45752E-01  8.05448E+00 -1.00000E+00  1.97667E-01
      21    -1     0     0   501   502  0.000000000E+00  0.000000000E+00  7.901362803E+01  7.901362803E+01  0.000000000E+00  0.00000E+00  9.000E+00
      21    -1     0     0   502   512  0.000000000E+00  0.000000000E+00 -5.555474344E+02  5.555474344E+02  0.000000000E+00  0.00000E+00  9.000E+00
      25     1     1     2     0     0 -6.949299356E+00  2.765474702E+00 -3.771747986E+02  3.974204549E+02  1.250049947E+02  0.00000E+00  9.000E+00
       5     1     1     2   501     0  1.759644966E+00 -3.067599470E+00  6.677417555E+01  6.703625539E+01  4.750000000E+00  0.00000E+00  9.000E+00
      -5     1     1     2     0   503 -1.412465877E+00 -4.311613587E+00 -3.834605063E+00  7.606034944E+00  4.750000000E+00  0.00000E+00  9.000E+00
      21     1     1     2   503   512  6.602120267E+00  4.613738355E+00 -1.622985783E+02  1.624983172E+02  1.907348633E-06  0.00000E+00  9.000E+00
#rwgt            1           9  0.11309634020378656               11     2652851           0
</event>
<event>
      6   9999  3.45752E-01  8.82100E+00 -1.00000E+00  1.93121E-01
      21    -1     0     0   511   502  0.000000000E+00  0.000000000E+00  1.311388139E+01  1.311388139E+01  0.000000000E+00  0.00000E+00  9.000E+00
      21    -1     0     0   502   503  0.000000000E+00  0.000000000E+00 -7.136752118E+02  7.136752118E+02  0.000000000E+00  0.00000E+00  9.000E+00
      25     1     1     2     0     0  7.637861933E+00 -1.452350129E+01 -6.739661398E+02  6.856565122E+02  1.250009045E+02  0.00000E+00  9.000E+00
       5     1     1     2   501     0  3.230241502E-01 -5.673583972E-02  1.478570443E+00  4.985602683E+00  4.750000000E+00  0.00000E+00  9.000E+00
      -5     1     1     2     0   503 -6.568188548E+00  5.869877541E+00 -2.479113582E+01  2.673498604E+01  4.750000000E+00  0.00000E+00  9.000E+00
      21     1     1     2   511   501 -1.392697535E+00  8.710359592E+00 -3.282625303E+00  9.411992325E+00  2.950279396E-07  0.00000E+00  9.000E+00
#rwgt            1           9   3.3908486296752027E-003          11     2657263           0
</event>
<event>
      6   9999  3.45752E-01  2.73679E+01 -1.00000E+00  1.50465E-01
      21    -1     0     0   501   502  0.000000000E+00  0.000000000E+00  6.435497262E+01  6.435497262E+01  0.000000000E+00  0.00000E+00  9.000E+00
      21    -1     0     0   502   512  0.000000000E+00  0.000000000E+00 -5.511815003E+02  5.511815003E+02  0.000000000E+00  0.00000E+00  9.000E+00
      25     1     1     2     0     0 -1.467105989E+01 -7.998099707E+00 -9.317697125E+01  1.568103188E+02  1.250132734E+02  0.00000E+00  9.000E+00
       5     1     1     2   501     0 -3.190167541E+00  6.078182850E+00  2.330880518E+01  2.475852126E+01  4.750000000E+00  0.00000E+00  9.000E+00
      -5     1     1     2     0   503  2.206085515E+00  2.436803230E+01 -1.126460505E+01  2.735181234E+01  4.750000000E+00  0.00000E+00  9.000E+00
      21     1     1     2   503   512  1.565514192E+01 -2.244811544E+01 -4.056937566E+02  4.066158205E+02  0.000000000E+00  0.00000E+00  9.000E+00
#rwgt            1           9  0.11244599423636116               11     2659725           0
</event>
<event>
      6   9999  3.45752E-01  4.89511E+01 -1.00000E+00  1.35282E-01
      21    -1     0     0   511   502  0.000000000E+00  0.000000000E+00  5.996983244E+02  5.996983244E+02  0.000000000E+00  0.00000E+00  9.000E+00
      21    -1     0     0   502   503  0.000000000E+00  0.000000000E+00 -1.406235767E+03  1.406235767E+03  0.000000000E+00  0.00000E+00  9.000E+00
      25     1     1     2     0     0  1.617150352E+01  1.439885297E+00 -5.928565499E+02  6.061083637E+02  1.249994762E+02  0.00000E+00  9.000E+00
       5     1     1     2   501     0  3.459993500E+01 -4.331402287E+00  4.588050517E+01  5.782300409E+01  4.750000000E+00  0.00000E+00  9.000E+00
      -5     1     1     2     0   503 -2.251851947E+00 -3.594121997E+00 -7.996625010E+02  7.996878557E+02  4.750000000E+00  0.00000E+00  9.000E+00
      21     1     1     2   511   501 -4.851958658E+01  6.485638986E+00  5.401011033E+02  5.423148676E+02  0.000000000E+00  0.00000E+00  9.000E+00
#rwgt            1           9   3.9462572717022438E-004          11     2661228           0
</event>
<event>
      6   9999  3.45752E-01  2.04016E+01 -1.00000E+00  1.59554E-01
      21    -1     0     0   512   502  0.000000000E+00  0.000000000E+00  1.896087152E+02  1.896087152E+02  0.000000000E+00  0.00000E+00  9.000E+00
      21    -1     0     0   502   503  0.000000000E+00  0.000000000E+00 -2.737687048E+02  2.737687048E+02  0.000000000E+00  0.00000E+00  9.000E+00
      25     1     1     2     0     0  9.355919935E+00 -5.817727904E+00 -2.431734153E+02  2.736424608E+02  1.250020291E+02  0.00000E+00  9.000E+00
       5     1     1     2   501     0 -1.203270312E+01 -9.420107092E+00  1.604898618E+02  1.612857172E+02  4.750000000E+00  0.00000E+00  9.000E+00
      -5     1     1     2     0   503 -1.787477909E+00 -4.669304158E+00 -3.869541098E+00  7.907801648E+00  4.750000000E+00  0.00000E+00  9.000E+00
      21     1     1     2   512   501  4.464261096E+00  1.990713915E+01  2.393105060E+00  2.054144027E+01  3.082776199E-07  0.00000E+00  9.000E+00
#rwgt            1           9   4.8210080279676674E-004          11     2662536           0
</event>
<event>
      6   9999  3.45752E-01  7.40504E+00 -1.00000E+00  2.02074E-01
      21    -1     0     0   501   511  0.000000000E+00  0.000000000E+00  3.720347994E+01  3.720347994E+01  0.000000000E+00  0.00000E+00  9.000E+00
      21    -1     0     0   502   503  0.000000000E+00  0.000000000E+00 -1.239771722E+03  1.239771722E+03  0.000000000E+00  0.00000E+00  9.000E+00
      25     1     1     2     0     0  4.855281188E+01 -4.247669407E+01 -1.095992958E+03  1.104982338E+03  1.249950378E+02  0.00000E+00  9.000E+00
       5     1     1     2   501     0  2.778468613E+00  4.400928821E+00  2.474780400E+01  2.573138871E+01  4.750000000E+00  0.00000E+00  9.000E+00
      -5     1     1     2     0   503 -4.672898887E+01  3.227459599E+01 -1.162305908E+02  1.294502248E+02  4.750000000E+00  0.00000E+00  9.000E+00
      21     1     1     2   502   511 -4.602291625E+00  5.801169259E+00 -1.509249790E+01  1.681125057E+01  0.000000000E+00  0.00000E+00  9.000E+00
#rwgt            1           9   2.0204754867075299E-002          11     2665426           0
</event>
<event>
      6   9999  3.45752E-01  7.41509E+01 -1.00000E+00  1.26226E-01
      21    -1     0     0   512   502  0.000000000E+00  0.000000000E+00  9.439616490E+02  9.439616490E+02  0.000000000E+00  0.00000E+00  9.000E+00
       1    -1     0     0   501     0  0.000000000E+00  0.000000000E+00 -1.026005566E+02  1.026005566E+02  0.000000000E+00  0.00000E+00  9.000E+00
      25     1     1     2     0     0 -9.676671907E+01 -1.478535523E+02  5.800423119E+02  6.191110560E+02  1.249997809E+02  0.00000E+00  9.000E+00
       5     1     1     2   501     0  4.288057301E+01  4.723401981E+00  8.826412230E+01  9.835736807E+01  4.750000000E+00  0.00000E+00  9.000E+00
      -5     1     1     2     0   502  1.099127022E+02  9.455662453E+01  2.026782348E+02  2.492444316E+02  4.750000000E+00  0.00000E+00  9.000E+00
       1     1     1     2   512     0 -5.602655612E+01  4.857352577E+01 -2.962357659E+01  7.984934994E+01  2.500555153E-06  0.00000E+00  9.000E+00
#rwgt            1           1   8.0710299168559336E-006          11     2669802           0
</event>
<event>
      6   9999  3.45752E-01  2.28745E+01 -1.00000E+00  1.55883E-01
      21    -1     0     0   511   503  0.000000000E+00  0.000000000E+00  1.244594046E+01  1.244594046E+01  0.000000000E+00  0.00000E+00  9.000E+00
      21    -1     0     0   501   502  0.000000000E+00  0.000000000E+00 -9.276330973E+02  9.276330973E+02  0.000000000E+00  0.00000E+00  9.000E+00
      25     1     1     2     0     0 -2.585682370E+01  3.810407540E+01 -5.408412624E+02  5.570040439E+02  1.249949514E+02  0.00000E+00  9.000E+00
       5     1     1     2   501     0 -1.536991180E+01 -1.101515341E+01 -1.245771587E+02  1.260936111E+02  4.750000000E+00  0.00000E+00  9.000E+00
      -5     1     1     2     0   503  3.691167825E+01 -4.625126548E+00 -1.614664534E+02  1.657644168E+02  4.750000000E+00  0.00000E+00  9.000E+00
      21     1     1     2   511   502  4.315057245E+00 -2.246379544E+01 -8.830228223E+01  9.121696592E+01  1.651812370E-06  0.00000E+00  9.000E+00
#rwgt            1           9   6.9887080836961613E-004          11     2669945           0
</event>
<event>
      6   9999  3.45752E-01  8.71396E+00 -1.00000E+00  1.93719E-01
      21    -1     0     0   501   502  0.000000000E+00  0.000000000E+00  4.889724081E+03  4.889724081E+03  0.000000000E+00  0.00000E+00  9.000E+00
      21    -1     0     0   512   503  0.000000000E+00  0.000000000E+00 -7.369936639E+01  7.369936639E+01  0.000000000E+00  0.00000E+00  9.000E+00
      25     1     1     2     0     0  1.968190692E+01  3.837994409E+01  1.347671804E+03  1.354143620E+03  1.250010212E+02  0.00000E+00  9.000E+00
       5     1     1     2   501     0  4.776269844E+00 -5.112504368E-01  3.482541382E+03  3.482547934E+03  4.750000000E+00  0.00000E+00  9.000E+00
      -5     1     1     2     0   503 -3.102918433E+01 -4.359189332E+01  4.304630825E+01  6.883756675E+01  4.750000000E+00  0.00000E+00  9.000E+00
      21     1     1     2   512   502  6.571007559E+00  5.723199660E+00 -5.723477901E+01  5.789432686E+01  2.611744678E-06  0.00000E+00  9.000E+00
#rwgt            1           9   2.3589164010017631               11     2671106           0
</event>
<event>
      6   9999 -3.45752E-01  1.54340E+01 -1.00000E+00  1.69305E-01
      21    -1     0     0   511   503  0.000000000E+00  0.000000000E+00  1.087994516E+02  1.087994516E+02  0.000000000E+00  0.00000E+00  9.000E+00
      21    -1     0     0   501   502  0.000000000E+00  0.000000000E+00 -6.213721814E+02  6.213721814E+02  0.000000000E+00  0.00000E+00  9.000E+00
      25     1     1     2     0     0  2.283212933E+01 -6.895422636E+00 -4.582711288E+02  4.756108614E+02  1.249976442E+02  0.00000E+00  9.000E+00
       5     1     1     2   501     0  3.375384739E-01 -2.645063037E-01 -1.062391420E+01  1.164534021E+01  4.750000000E+00  0.00000E+00  9.000E+00
      -5     1     1     2     0   503 -1.234456740E+01 -3.841179896E+00 -1.423644039E+02  1.430291194E+02  4.750000000E+00  0.00000E+00  9.000E+00
      21     1     1     2   511   502 -1.082510040E+01  1.100110884E+01  9.868671704E+01  9.988631195E+01  0.000000000E+00  0.00000E+00  9.000E+00
#rwgt            1           9  -9.0587760657958606E-006          11     2675538           0
</event>
<event>
      6   9999  3.45752E-01  1.51743E+01 -1.00000E+00  1.69938E-01
      21    -1     0     0   501   512  0.000000000E+00  0.000000000E+00  1.457538305E+01  1.457538305E+01  0.000000000E+00  0.00000E+00  9.000E+00
      21    -1     0     0   502   503  0.000000000E+00  0.000000000E+00 -8.873089111E+02  8.873089111E+02  0.000000000E+00  0.00000E+00  9.000E+00
      25     1     1     2     0     0 -1.809143733E+00  5.002314078E+00 -7.991211089E+02  8.088554196E+02  1.249969876E+02  0.00000E+00  9.000E+00
       5     1     1     2   501     0 -2.268855646E+01  1.516490751E+00 -1.981497304E+01  3.053303121E+01  4.750000000E+00  0.00000E+00  9.000E+00
      -5     1     1     2     0   503  1.464305001E+01  5.020038664E+00 -2.257763843E+01  2.778366353E+01  4.750000000E+00  0.00000E+00  9.000E+00
      21     1     1     2   502   512  9.854650180E+00 -1.153884349E+01 -3.121980766E+01  3.471217984E+01  8.259061849E-07  0.00000E+00  9.000E+00
#rwgt            1           9   4.6990226701608580E-003          11     2677267           0
</event>
<event>
      6   9999 -3.45752E-01  2.02599E+01 -1.00000E+00  1.59784E-01
      21    -1     0     0   501   502  0.000000000E+00  0.000000000E+00  1.285431871E+01  1.285431871E+01  0.000000000E+00  0.00000E+00  9.000E+00
      21    -1     0     0   511   503  0.000000000E+00  0.000000000E+00 -7.024557239E+02  7.024557239E+02  0.000000000E+00  0.00000E+00  9.000E+00
      25     1     1     2     0     0  1.393812496E+01 -9.173862970E+00 -5.068467624E+02  5.222982175E+02  1.249934255E+02  0.00000E+00  9.000E+00
       5     1     1     2   501     0  3.290871330E+00 -7.172724231E-02  2.217391380E+00  6.189854880E+00  4.750000000E+00  0.00000E+00  9.000E+00
      -5     1     1     2     0   503  1.150872203E+00  7.224546177E-01 -1.958085350E+01  2.019452330E+01  4.750000000E+00  0.00000E+00  9.000E+00
      21     1     1     2   511   502 -1.837986849E+01  8.523135595E+00 -1.653911807E+02  1.666274469E+02  3.303624740E-06  0.00000E+00  9.000E+00
#rwgt            1           9  -6.7472667510844690E-003          11     2679162           0
</event>
<event>
      6   9999  3.45752E-01  7.44457E+00 -1.00000E+00  2.01789E-01
      21    -1     0     0   501   512  0.000000000E+00  0.000000000E+00  9.156460520E+01  9.156460520E+01  0.000000000E+00  0.00000E+00  9.000E+00
      21    -1     0     0   502   503  0.000000000E+00  0.000000000E+00 -7.861800052E+02  7.861800052E+02  0.000000000E+00  0.00000E+00  9.000E+00
      25     1     1     2     0     0 -2.235291507E+01  9.576033412E+00 -6.907300246E+02  7.023704660E+02  1.249998052E+02  0.00000E+00  9.000E+00
       5     1     1     2   501     0  1.700686174E+00  1.142679167E+00  2.524785868E+00  5.756308958E+00  4.750000000E+00  0.00000E+00  9.000E+00
      -5     1     1     2     0   503  2.019916820E+01 -3.287941084E+00 -8.658537449E+01  8.909773582E+01  4.750000000E+00  0.00000E+00  9.000E+00
      21     1     1     2   502   512  4.530606904E-01 -7.430771496E+00  8.017521325E+01  8.052009966E+01  3.015782986E-06  0.00000E+00  9.000E+00
#rwgt            1           9   8.1809033237355362E-005          11     2680538           0
</event>
<event>
      6   9999  3.45752E-01  9.29259E+00 -1.00000E+00  1.90614E-01
      21    -1     0     0   501   511  0.000000000E+00  0.000000000E+00  1.211554273E+01  1.211554273E+01  0.000000000E+00  0.00000E+00  9.000E+00
      21    -1     0     0   502   503  0.000000000E+00  0.000000000E+00 -1.505722467E+03  1.505722467E+03  0.000000000E+00  0.00000E+00  9.000E+00
      25     1     1     2     0     0 -6.258283992E+00 -6.776927638E+00 -1.321570051E+03  1.327500443E+03  1.249997351E+02  0.00000E+00  9.000E+00
       5     1     1     2   501     0  3.119998257E-03  2.905179258E+00  6.582688068E+00  8.621737554E+00  4.750000000E+00  0.00000E+00  9.000E+00
      -5     1     1     2     0   503 -2.973459246E+00  2.783318137E+00 -1.656107951E+02  1.657289543E+02  4.750000000E+00  0.00000E+00  9.000E+00
      21     1     1     2   502   511  9.228623240E+00  1.088430243E+00 -1.300876590E+01  1.598687454E+01  0.000000000E+00  0.00000E+00  9.000E+00
#rwgt            1           9   4.6123215300210452E-005          11     2683586           0
</event>
<event>
      6   9999 -3.45752E-01  3.01977E+01 -1.00000E+00  1.47654E-01
      21    -1     0     0   501   502  0.000000000E+00  0.000000000E+00  2.766867920E+01  2.766867920E+01  0.000000000E+00  0.00000E+00  9.000E+00
      21    -1     0     0   512   503  0.000000000E+00  0.000000000E+00 -1.208324687E+03  1.208324687E+03  0.000000000E+00  0.00000E+00  9.000E+00
      25     1     1     2     0     0  3.465177463E+01 -6.179846409E-01 -1.064142750E+03  1.072020194E+03  1.250055001E+02  0.00000E+00  9.000E+00
       5     1     1     2   501     0  3.355996107E+00  6.363091866E+00  1.468947076E+01  1.703216661E+01  4.750000000E+00  0.00000E+00  9.000E+00
      -5     1     1     2     0   503 -1.104636808E+01  7.855822353E+00 -2.297229686E+00  1.454565079E+01  4.750000000E+00  0.00000E+00  9.000E+00
      21     1     1     2   512   502 -2.696140266E+01 -1.360092958E+01 -1.289054982E+02  1.323953549E+02  1.907348633E-06  0.00000E+00  9.000E+00
#rwgt            1           9  -5.0784619821974819E-005          11     2687011           0
</event>
<event>
      6   9999  3.45752E-01  2.40863E+01 -1.00000E+00  1.54283E-01
      21    -1     0     0   502   503  0.000000000E+00  0.000000000E+00  3.037027942E+01  3.037027942E+01  0.000000000E+00  0.00000E+00  9.000E+00
      21    -1     0     0   511   502  0.000000000E+00  0.000000000E+00 -2.449817706E+02  2.449817706E+02  0.000000000E+00  0.00000E+00  9.000E+00
      25     1     1     2     0     0  2.609567591E+01  6.510757939E+00 -1.587159612E+02  2.038087083E+02  1.249954358E+02  0.00000E+00  9.000E+00
       5     1     1     2   501     0  7.687372553E-01  3.342397224E-01 -9.802658790E-01  4.922001052E+00  4.750000000E+00  0.00000E+00  9.000E+00
      -5     1     1     2     0   503 -4.644716865E+00  2.452120928E+00 -4.829862145E-01  7.098032649E+00  4.750000000E+00  0.00000E+00  9.000E+00
      21     1     1     2   511   501 -2.221969630E+01 -9.297118589E+00 -5.443227787E+01  5.952330797E+01  0.000000000E+00  0.00000E+00  9.000E+00
#rwgt            1           9   1.9771418687006360E-004          11     2688613           0
</event>
<event>
      6   9999  3.45752E-01  8.85422E+01 -1.00000E+00  1.22725E-01
      21    -1     0     0   501   512  0.000000000E+00  0.000000000E+00  5.936767141E+02  5.936767141E+02  0.000000000E+00  0.00000E+00  9.000E+00
      21    -1     0     0   502   503  0.000000000E+00  0.000000000E+00 -7.783257096E+02  7.783257096E+02  0.000000000E+00  0.00000E+00  9.000E+00
      25     1     1     2     0     0 -1.081744116E+02 -6.880442054E+01 -6.273751344E+02  6.524198910E+02  1.249656086E+02  0.00000E+00  9.000E+00
       5     1     1     2   501     0  9.632648148E+00 -1.594441364E+01  1.723845611E+02  1.734531973E+02  4.750000000E+00  0.00000E+00  9.000E+00
      -5     1     1     2     0   503  1.326163642E+02  3.025873357E+00 -9.946689089E+01  1.658688664E+02  4.750000000E+00  0.00000E+00  9.000E+00
      21     1     1     2   502   512 -3.407460076E+01  8.172296083E+01  3.698084687E+02  3.802604690E+02  5.394796609E-06  0.00000E+00  9.000E+00
#rwgt            1           9   1.4228574644799435E-002          11     2689774           0
</event>
<event>
      6   9999  3.45752E-01  8.55494E+00 -1.00000E+00  1.94628E-01
      21    -1     0     0   501   502  0.000000000E+00  0.000000000E+00  4.068105667E+02  4.068105667E+02  0.000000000E+00  0.00000E+00  9.000E+00
      21    -1     0     0   502   511  0.000000000E+00  0.000000000E+00 -3.250703099E+01  3.250703099E+01  0.000000000E+00  0.00000E+00  9.000E+00
      25     1     1     2     0     0  2.066248506E+01  3.006943149E+01  3.002717904E+02  3.272851300E+02  1.249851959E+02  0.00000E+00  9.000E+00
       5     1     1     2   501     0 -4.209426988E-01 -1.044586869E-01  7.280150066E+01  7.295758427E+01  4.750000000E+00  0.00000E+00  9.000E+00
      -5     1     1     2     0   503 -1.991131254E+01 -2.141641057E+01 -2.522675701E+00  2.973296826E+01  4.750000000E+00  0.00000E+00  9.000E+00
      21     1     1     2   503   511 -3.302298222E-01 -8.548562230E+00  3.752920304E+00  9.341915154E+00  1.685873940E-07  0.00000E+00  9.000E+00
#rwgt            1           9   5.4949861999420770               11     2692102           0
</event>
<event>
      6   9999  3.45752E-01  1.11379E+01 -1.00000E+00  1.82395E-01
      21    -1     0     0   501   512  0.000000000E+00  0.000000000E+00  1.162311501E+02  1.162311501E+02  0.000000000E+00  0.00000E+00  9.000E+00
      21    -1     0     0   502   503  0.000000000E+00  0.000000000E+00 -1.740949391E+03  1.740949391E+03  0.000000000E+00  0.00000E+00  9.000E+00
      25     1     1     2     0     0  8.445405234E+01 -1.507131342E+02 -2.614358912E+02  3.373636213E+02  1.249742052E+02  0.00000E+00  9.000E+00
       5     1     1     2   501     0  6.348565648E+00  1.397686612E+00  6.976754667E+01  7.023055518E+01  4.750000000E+00  0.00000E+00  9.000E+00
      -5     1     1     2     0   503 -8.539908639E+01  1.395761468E+02 -1.428008697E+03  1.437360743E+03  4.750000000E+00  0.00000E+00  9.000E+00
      21     1     1     2   502   512 -5.403531591E+00  9.739300773E+00 -5.041199502E+00  1.222562169E+01  2.064765462E-07  0.00000E+00  9.000E+00
#rwgt            1           9   7.4063430705990322E-004          11     2694909           0
</event>
<event>
      6   9999  3.45752E-01  3.21584E+01 -1.00000E+00  1.45912E-01
      21    -1     0     0   501   502  0.000000000E+00  0.000000000E+00  4.291261921E+03  4.291261921E+03  0.000000000E+00  0.00000E+00  9.000E+00
      21    -1     0     0   511   503  0.000000000E+00  0.000000000E+00 -3.480221114E+01  3.480221114E+01  0.000000000E+00  0.00000E+00  9.000E+00
      25     1     1     2     0     0 -4.938774214E+01 -2.177736647E+01  3.358355917E+03  3.361114993E+03  1.250045317E+02  0.00000E+00  9.000E+00
       5     1     1     2   501     0 -1.587185013E+00 -1.667810062E+00  7.773227986E+02  7.773407210E+02  4.750000000E+00  0.00000E+00  9.000E+00
      -5     1     1     2     0   503  2.366145279E+01  6.470660901E+00  1.451342753E+02  1.472693253E+02  4.750000000E+00  0.00000E+00  9.000E+00
      21     1     1     2   511   502  2.731347436E+01  1.697451564E+01 -2.435328103E+01  4.033909220E+01  4.251612306E-06  0.00000E+00  9.000E+00
#rwgt            1           9   1.2675842565808711E-003          11     2699417           0
</event>
<event>
      6   9999 -3.45752E-01  1.54186E+01 -1.00000E+00  1.69342E-01
      21    -1     0     0   501   502  0.000000000E+00  0.000000000E+00  5.684510203E+01  5.684510203E+01  0.000000000E+00  0.00000E+00  9.000E+00
      21    -1     0     0   512   503  0.000000000E+00  0.000000000E+00 -1.547382051E+02  1.547382051E+02  0.000000000E+00  0.00000E+00  9.000E+00
      25     1     1     2     0     0 -1.230559521E+01 -1.446276193E+01 -1.008918522E+02  1.617566964E+02  1.250018554E+02  0.00000E+00  9.000E+00
       5     1     1     2   501     0 -9.329732313E-01 -6.531832456E-01  1.639130568E+01  1.710363965E+01  4.750000000E+00  0.00000E+00  9.000E+00
      -5     1     1     2     0   503 -7.995970002E-01  8.739093945E+00  2.799729141E+00  1.036398097E+01  4.750000000E+00  0.00000E+00  9.000E+00
      21     1     1     2   512   502  1.403816545E+01  6.376851233E+00 -1.619228573E+01  2.235899009E+01  0.000000000E+00  0.00000E+00  9.000E+00
#rwgt            1           9  -2.7234749889148285E-004          11     2700119           0
</event>
<event>
      6   9999  3.45752E-01  2.47143E+00 -1.00000E+00  3.00955E-01
      21    -1     0     0   511   502  0.000000000E+00  0.000000000E+00  1.047642426E+01  1.047642426E+01  0.000000000E+00  0.00000E+00  9.000E+00
      21    -1     0     0   502   503  0.000000000E+00  0.000000000E+00 -3.328097190E+03  3.328097190E+03  0.000000000E+00  0.00000E+00  9.000E+00
      25     1     1     2     0     0 -2.206895714E+00  3.066412110E+00 -3.219850523E+03  3.222278338E+03  1.250041041E+02  0.00000E+00  9.000E+00
       5     1     1     2   501     0 -1.520334754E+00 -1.052356498E+00 -4.359743607E+00  6.707364332E+00  4.750000000E+00  0.00000E+00  9.000E+00
      -5     1     1     2     0   503  1.257883956E+00 -1.912589666E+00 -1.012402002E+02  1.013774181E+02  4.750000000E+00  0.00000E+00  9.000E+00
      21     1     1     2   511   501  2.469346512E+00 -1.014659464E-01  7.829701576E+00  8.210492939E+00  9.424321831E-07  0.00000E+00  9.000E+00
#rwgt            1           9   1.1822766259963467E-004          11     2701955           0
</event>
<event>
      6   9999  3.45752E-01  5.26215E+00 -1.00000E+00  2.22317E-01
       2    -1     0     0   501     0  0.000000000E+00  0.000000000E+00  2.792566902E+03  2.792566902E+03  0.000000000E+00  0.00000E+00  9.000E+00
      21    -1     0     0   502   503  0.000000000E+00  0.000000000E+00 -1.071949122E+03  1.071949122E+03  0.000000000E+00  0.00000E+00  9.000E+00
      25     1     1     2     0     0  2.269286782E+01  2.672259071E+00 -1.940897668E+02  2.319779916E+02  1.249833741E+02  0.00000E+00  9.000E+00
       5     1     1     2   501     0 -5.806449904E-01  1.275881284E+00  4.428702976E+00  6.643864215E+00  4.750000000E+00  0.00000E+00  9.000E+00
      -5     1     1     2     0   503 -2.283444532E+01 -9.160489421E+00 -8.576221687E+02  8.579881544E+02  4.750000000E+00  0.00000E+00  9.000E+00
       2     1     1     2   502     0  7.222224875E-01  5.212349066E+00  2.767901012E+03  2.767906014E+03  0.000000000E+00  0.00000E+00  9.000E+00
#rwgt            1           9   3.9260772264684343E-003          11     2708692           0
</event>
<event>
      6   9999  3.45752E-01  7.68741E+00 -1.00000E+00  2.00087E-01
      21    -1     0     0   501   511  0.000000000E+00  0.000000000E+00  2.384009675E+02  2.384009675E+02  0.000000000E+00  0.00000E+00  9.000E+00
      21    -1     0     0   502   503  0.000000000E+00  0.000000000E+00 -2.373653909E+02  2.373653909E+02  0.000000000E+00  0.00000E+00  9.000E+00
      25     1     1     2     0     0 -6.742204144E+00 -9.119875517E+00 -2.166815353E+02  2.504087297E+02  1.250000590E+02  0.00000E+00  9.000E+00
       5     1     1     2   501     0  8.987204093E+00  7.996754260E-01  1.072016749E+02  1.076855186E+02  4.750000000E+00  0.00000E+00  9.000E+00
      -5     1     1     2     0   503 -1.709597699E-01  9.178630028E-01 -1.747224181E+00  5.146551474E+00  4.750000000E+00  0.00000E+00  9.000E+00
      21     1     1     2   502   511 -2.074040179E+00  7.402337088E+00  1.122626612E+02  1.125255586E+02  0.000000000E+00  0.00000E+00  9.000E+00
#rwgt            1           9   5.8267340881876946               11     2713498           0
</event>
<event>
      6   9999 -3.45752E-01  2.08804E+01 -1.00000E+00  1.58795E-01
      21    -1     0     0   501   502  0.000000000E+00  0.000000000E+00  3.089610312E+01  3.089610312E+01  0.000000000E+00  0.00000E+00  9.000E+00
      21    -1     0     0   502   512  0.000000000E+00  0.000000000E+00 -1.312931227E+03  1.312931227E+03  0.000000000E+00  0.00000E+00  9.000E+00
      25     1     1     2     0     0  8.722511624E+01  8.310773188E+01 -4.995473903E+02  5.288549562E+02  1.249994142E+02  0.00000E+00  9.000E+00
       5     1     1     2   501     0  3.683741097E+00  8.046683000E-01  1.036806175E+01  1.201152130E+01  4.750000000E+00  0.00000E+00  9.000E+00
      -5     1     1     2     0   503 -7.600259427E+01 -6.929064154E+01 -5.784868245E+02  5.875773617E+02  4.750000000E+00  0.00000E+00  9.000E+00
      21     1     1     2   503   512 -1.490626307E+01 -1.462175864E+01 -2.143689705E+02  2.153834906E+02  0.000000000E+00  0.00000E+00  9.000E+00
#rwgt            1           9  -4.0972598909373445E-003          11     2717872           0
</event>
<event>
      6   9999  3.45752E-01  2.48397E+01 -1.00000E+00  1.53344E-01
      21    -1     0     0   501   502  0.000000000E+00  0.000000000E+00  1.171519123E+03  1.171519123E+03  0.000000000E+00  0.00000E+00  9.000E+00
      21    -1     0     0   502   511  0.000000000E+00  0.000000000E+00 -2.212650481E+02  2.212650481E+02  0.000000000E+00  0.00000E+00  9.000E+00
      25     1     1     2     0     0 -2.895108948E+01  5.360531300E+01  4.149618014E+02  4.376418037E+02  1.250014263E+02  0.00000E+00  9.000E+00
       5     1     1     2   501     0  9.642519782E+00  1.372746552E+01  7.385868717E+02  7.387926307E+02  4.750000000E+00  0.00000E+00  9.000E+00
      -5     1     1     2     0   503  1.732111988E+01 -4.257270476E+01 -1.007630607E+02  1.108522137E+02  4.750000000E+00  0.00000E+00  9.000E+00
      21     1     1     2   503   511  1.987449813E+00 -2.476007376E+01 -1.025315375E+02  1.054975231E+02  2.336015456E-06  0.00000E+00  9.000E+00
#rwgt            1           9   50.350683542377624               11     2719678           0
</event>
<event>
      6   9999  3.45752E-01  1.17519E+01 -1.00000E+00  1.80099E-01
      21    -1     0     0   501   502  0.000000000E+00  0.000000000E+00  6.344823425E+00  6.344823425E+00  0.000000000E+00  0.00000E+00  9.000E+00
      21    -1     0     0   502   512  0.000000000E+00  0.000000000E+00 -2.509865550E+03  2.509865550E+03  0.000000000E+00  0.00000E+00  9.000E+00
      25     1     1     2     0     0 -2.596926830E+01  4.802439695E+00 -2.230720038E+03  2.234375543E+03  1.249988511E+02  0.00000E+00  9.000E+00
       5     1     1     2   501     0  1.548790839E+00 -3.909492845E+00  1.619228508E-01  6.345991363E+00  4.750000000E+00  0.00000E+00  9.000E+00
      -5     1     1     2     0   503  1.842764733E+01 -1.100201088E+01 -1.144890729E+02  1.165801559E+02  4.750000000E+00  0.00000E+00  9.000E+00
      21     1     1     2   503   512  5.992830127E+00  1.010906403E+01 -1.584735381E+02  1.589086828E+02  3.303624740E-06  0.00000E+00  9.000E+00
#rwgt            1           9   2.8276149511468470E-003          11     2722465           0
</event>
<event>
      6   9999 -3.45752E-01  4.14797E+00 -1.00000E+00  2.44629E-01
      21    -1     0     0   501   511  0.000000000E+00  0.000000000E+00  3.212318048E+02  3.212318048E+02  0.000000000E+00  0.00000E+00  9.000E+00
      21    -1     0     0   502   503  0.000000000E+00  0.000000000E+00 -3.167703976E+02  3.167703976E+02  0.000000000E+00  0.00000E+00  9.000E+00
      25     1     1     2     0     0 -7.273682391E+00 -3.845724120E-01 -2.070464602E+02  2.419624070E+02  1.249980613E+02  0.00000E+00  9.000E+00
       5     1     1     2   501     0  1.079967229E+00  3.516050120E-01  3.788810860E+01  3.820158673E+01  4.750000000E+00  0.00000E+00  9.000E+00
      -5     1     1     2     0   503  7.014919062E+00  4.098834800E+00 -9.185258131E+01  9.233346484E+01  4.750000000E+00  0.00000E+00  9.000E+00
      21     1     1     2   502   511 -8.212039000E-01 -4.065867400E+00  2.654723401E+02  2.655047439E+02  3.814697266E-06  0.00000E+00  9.000E+00
#rwgt            1           9 -0.64991106538918930               11     2726473           0
</event>
<event>
      6   9999  3.45752E-01  1.52853E+00 -1.00000E+00  3.85767E-01
      21    -1     0     0   512   502  0.000000000E+00  0.000000000E+00  4.055158039E+01  4.055158039E+01  0.000000000E+00  0.00000E+00  9.000E+00
      21    -1     0     0   502   503  0.000000000E+00  0.000000000E+00 -1.269066258E+03  1.269066258E+03  0.000000000E+00  0.00000E+00  9.000E+00
      25     1     1     2     0     0 -4.770565647E+00  1.619427743E+00 -1.184981546E+03  1.191566460E+03  1.249959281E+02  0.00000E+00  9.000E+00
       5     1     1     2   501     0  6.024000756E+00  1.178510920E+00  3.648028740E+01  3.729680069E+01  4.750000000E+00  0.00000E+00  9.000E+00
      -5     1     1     2     0   503 -1.731156980E+00 -4.249892914E+00 -7.770986474E+01  7.799002546E+01  4.750000000E+00  0.00000E+00  9.000E+00
      21     1     1     2   512   501  4.777218713E-01  1.451954251E+00 -2.303553597E+00  2.764552135E+00  4.214684851E-08  0.00000E+00  9.000E+00
#rwgt            1           9   4.8755460008382250E-003          11     2732041           0
</event>
<event>
      6   9999  3.45752E-01  2.67788E+01 -1.00000E+00  1.51101E-01
      21    -1     0     0   501   502  0.000000000E+00  0.000000000E+00  7.508185106E+02  7.508185106E+02  0.000000000E+00  0.00000E+00  9.000E+00
      21    -1     0     0   511   503  0.000000000E+00  0.000000000E+00 -1.152404425E+01  1.152404425E+01  0.000000000E+00  0.00000E+00  9.000E+00
      25     1     1     2     0     0  1.953302183E+01 -2.282632493E+01  4.301484005E+02  4.489472247E+02  1.249935360E+02  0.00000E+00  9.000E+00
       5     1     1     2   501     0  1.058497821E+00 -2.143566634E+00  1.391501208E+02  1.392516926E+02  4.750000000E+00  0.00000E+00  9.000E+00
      -5     1     1     2     0   503 -4.387288570E+00  3.650286126E+00  7.733869095E+01  7.769432738E+01  4.750000000E+00  0.00000E+00  9.000E+00
      21     1     1     2   511   502 -1.620423108E+01  2.131960544E+01  9.265725408E+01  9.644931007E+01  1.907348633E-06  0.00000E+00  9.000E+00
#rwgt            1           9   5.2351885568934723E-004          11     2745432           0
</event>
<event>
      6   9999  3.45752E-01  3.21617E+01 -1.00000E+00  1.45910E-01
      21    -1     0     0   501   502  0.000000000E+00  0.000000000E+00  2.604587503E+03  2.604587503E+03  0.000000000E+00  0.00000E+00  9.000E+00
      21    -1     0     0   512   503  0.000000000E+00  0.000000000E+00 -6.942104311E+01  6.942104311E+01  0.000000000E+00  0.00000E+00  9.000E+00
      25     1     1     2     0     0  9.142396429E+01 -2.019267110E+02  1.083628584E+03  1.113085177E+03  1.247997045E+02  0.00000E+00  9.000E+00
       5     1     1     2   501     0  2.489282452E+00  2.166590857E+00  1.240975862E+03  1.240989341E+03  4.750000000E+00  0.00000E+00  9.000E+00
      -5     1     1     2     0   503 -7.851584899E+01  1.715236744E+02  2.165379841E+02  2.872218141E+02  4.750000000E+00  0.00000E+00  9.000E+00
      21     1     1     2   512   502 -1.539739775E+01  2.823644569E+01 -5.975970326E+00  3.271221399E+01  1.460009660E-07  0.00000E+00  9.000E+00
#rwgt            1           9   2.0799574546594961E-002          11     2746288           0
</event>
<event>
      6   9999  3.45752E-01  5.96606E+01 -1.00000E+00  1.30807E-01
      21    -1     0     0   511   503  0.000000000E+00  0.000000000E+00  3.273810899E+02  3.273810899E+02  0.000000000E+00  0.00000E+00  9.000E+00
      21    -1     0     0   501   502  0.000000000E+00  0.000000000E+00 -1.198731600E+03  1.198731600E+03  0.000000000E+00  0.00000E+00  9.000E+00
      25     1     1     2     0     0 -1.523485934E+01 -4.012705984E+01 -8.362511146E+02  8.466298318E+02  1.249954542E+02  0.00000E+00  9.000E+00
       5     1     1     2   501     0 -4.186998478E+00 -6.206548175E+00 -5.973525734E+01  6.038969835E+01  4.750000000E+00  0.00000E+00  9.000E+00
      -5     1     1     2     0   503 -4.012511237E+01  5.001474788E+01 -2.909233158E+02  2.979436823E+02  4.750000000E+00  0.00000E+00  9.000E+00
      21     1     1     2   511   502  5.954697018E+01 -3.681139862E+00  3.155591775E+02  3.211494776E+02  7.629394531E-06  0.00000E+00  9.000E+00
#rwgt            1           9   1227.0609111054571               11     2748252           0
</event>
<event>
      6   9999  3.45752E-01  1.91090E+01 -1.00000E+00  1.61736E-01
      21    -1     0     0   501   502  0.000000000E+00  0.000000000E+00  2.363442454E+01  2.363442454E+01  0.000000000E+00  0.00000E+00  9.000E+00
      21    -1     0     0   512   503  0.000000000E+00  0.000000000E+00 -1.233512141E+03  1.233512141E+03  0.000000000E+00  0.00000E+00  9.000E+00
      25     1     1     2     0     0 -9.322618614E+00  5.482694424E+01 -5.833657025E+02  5.991941167E+02  1.250005665E+02  0.00000E+00  9.000E+00
       5     1     1     2   501     0  5.502237793E+00  6.044492167E+00  1.266937929E+01  1.580778852E+01  4.750000000E+00  0.00000E+00  9.000E+00
      -5     1     1     2     0   503  5.699081168E+00 -4.185502946E+01 -4.436834669E+02  4.457150483E+02  4.750000000E+00  0.00000E+00  9.000E+00
      21     1     1     2   512   502 -1.878700347E+00 -1.901640694E+01 -1.954979269E+02  1.964296125E+02  0.000000000E+00  0.00000E+00  9.000E+00
#rwgt            1           9   3.8450277634165871E-004          11     2748705           0
</event>
<event>
      6   9999  3.45752E-01  6.52154E+00 -1.00000E+00  2.09137E-01
      21    -1     0     0   501   502  0.000000000E+00  0.000000000E+00  3.599815288E+03  3.599815288E+03  0.000000000E+00  0.00000E+00  9.000E+00
      21    -1     0     0   511   503  0.000000000E+00  0.000000000E+00 -9.284800046E+00  9.284800046E+00  0.000000000E+00  0.00000E+00  9.000E+00
      25     1     1     2     0     0  4.469742538E+00  6.139249093E+00  5.321187971E+02  5.466564431E+02  1.250007346E+02  0.00000E+00  9.000E+00
       5     1     1     2   501     0 -9.737130887E+00 -7.370952552E-01  3.005121745E+03  3.005141364E+03  4.750000000E+00  0.00000E+00  9.000E+00
      -5     1     1     2     0   503 -1.168952432E+00 -6.452884054E+00  4.859878093E+01  4.926875450E+01  4.750000000E+00  0.00000E+00  9.000E+00
      21     1     1     2   511   502  6.436340782E+00  1.050730216E+00  4.691165648E+00  8.033526734E+00  6.583548198E-07  0.00000E+00  9.000E+00
#rwgt            1           9   4.1970735146487368E-003          11     2750911           0
</event>
<event>
      6   9999  3.45752E-01  5.47798E+01 -1.00000E+00  1.32700E-01
      21    -1     0     0   501   502  0.000000000E+00  0.000000000E+00  6.235957362E+01  6.235957362E+01  0.000000000E+00  0.00000E+00  9.000E+00
       2    -1     0     0   502     0  0.000000000E+00  0.000000000E+00 -1.843738510E+03  1.843738510E+03  0.000000000E+00  0.00000E+00  9.000E+00
      25     1     1     2     0     0 -3.313716366E+01 -8.265764817E+01 -7.933765390E+01  1.727696051E+02  1.249980588E+02  0.00000E+00  9.000E+00
       5     1     1     2   501     0 -1.036816369E+01  7.037081154E+01 -8.827379838E+01  1.134653071E+02  4.750000000E+00  0.00000E+00  9.000E+00
      -5     1     1     2     0   503 -8.968907368E+00 -3.438176306E+00 -8.543107524E+00  1.370436215E+01  4.750000000E+00  0.00000E+00  9.000E+00
       2     1     1     2   503     0  5.247423471E+01  1.572501293E+01 -1.605224377E+03  1.606158810E+03  0.000000000E+00  0.00000E+00  9.000E+00
#rwgt            1           9  0.19664724777630738               11     2755375           0
</event>
<event>
      6   9999  3.45752E-01  1.55317E+01 -1.00000E+00  1.69071E-01
      21    -1     0     0   501   502  0.000000000E+00  0.000000000E+00  1.508617265E+01  1.508617265E+01  0.000000000E+00  0.00000E+00  9.000E+00
      21    -1     0     0   511   503  0.000000000E+00  0.000000000E+00 -9.905696784E+02  9.905696784E+02  0.000000000E+00  0.00000E+00  9.000E+00
      25     1     1     2     0     0  3.359016359E+01  3.221711100E+01 -6.367263562E+02  6.505460129E+02  1.249936833E+02  0.00000E+00  9.000E+00
       5     1     1     2   501     0 -7.886911544E-02  2.142544192E+00  5.196077251E+00  7.359241452E+00  4.750000000E+00  0.00000E+00  9.000E+00
      -5     1     1     2     0   503 -2.086548387E+01 -2.534202998E+01 -1.773513768E+02  1.804263291E+02  4.750000000E+00  0.00000E+00  9.000E+00
      21     1     1     2   511   502 -1.264581061E+01 -9.017625212E+00 -1.666018501E+02  1.673242676E+02  3.303624740E-06  0.00000E+00  9.000E+00
#rwgt            1           9   9.0364857850025199E-004          11     2756054           0
</event>
<event>
      6   9999  3.45752E-01  1.73513E+01 -1.00000E+00  1.65067E-01
      21    -1     0     0   501   502  0.000000000E+00  0.000000000E+00  7.768810513E+01  7.768810513E+01  0.000000000E+00  0.00000E+00  9.000E+00
       3    -1     0     0   502     0  0.000000000E+00  0.000000000E+00 -2.317760422E+03  2.317760422E+03  0.000000000E+00  0.00000E+00  9.000E+00
      25     1     1     2     0     0 -1.658283706E+02 -7.119762859E+01 -6.811031131E+02  7.156086512E+02  1.250045608E+02  0.00000E+00  9.000E+00
       5     1     1     2   501     0 -2.202695725E+00 -5.159443208E+00  4.796294534E+01  4.852296722E+01  4.750000000E+00  0.00000E+00  9.000E+00
      -5     1     1     2     0   503  1.664027433E+02  9.363180687E+01 -7.412613167E+02  7.654722009E+02  4.750000000E+00  0.00000E+00  9.000E+00
       3     1     1     2   503     0  1.628323088E+00 -1.727473507E+01 -8.656708329E+02  8.658447082E+02  1.078959322E-05  0.00000E+00  9.000E+00
#rwgt            1           9   6.2653614689285294E-004          11     2758402           0
</event>
<event>
      6   9999  3.45752E-01  8.20269E+00 -1.00000E+00  1.96737E-01
      21    -1     0     0   501   502  0.000000000E+00  0.000000000E+00  1.184309518E+01  1.184309518E+01  0.000000000E+00  0.00000E+00  9.000E+00
      21    -1     0     0   511   503  0.000000000E+00  0.000000000E+00 -1.590625186E+03  1.590625186E+03  0.000000000E+00  0.00000E+00  9.000E+00
      25     1     1     2     0     0  5.811352509E+00  8.613132449E+00 -1.470461749E+03  1.475801521E+03  1.249976583E+02  0.00000E+00  9.000E+00
       5     1     1     2   501     0 -3.911686128E+00  3.570562459E+00  7.262032875E+00  1.016611165E+01  4.750000000E+00  0.00000E+00  9.000E+00
      -5     1     1     2     0   503 -1.559559086E+00 -3.988062669E+00 -5.013829698E+01  5.054451694E+01  4.750000000E+00  0.00000E+00  9.000E+00
      21     1     1     2   511   502 -3.401072949E-01 -8.195632238E+00 -6.544407731E+01  6.595613176E+01  0.000000000E+00  0.00000E+00  9.000E+00
#rwgt            1           9   1.8917441497726137E-003          11     2761567           0
</event>
<event>
      6   9999 -3.45752E-01  8.80555E+00 -1.00000E+00  1.93207E-01
      21    -1     0     0   501   502  0.000000000E+00  0.000000000E+00  2.047376028E+03  2.047376028E+03  0.000000000E+00  0.00000E+00  9.000E+00
      21    -1     0     0   512   503  0.000000000E+00  0.000000000E+00 -8.593297417E+00  8.593297417E+00  0.000000000E+00  0.00000E+00  9.000E+00
      25     1     1     2     0     0 -1.808450198E+01  1.219240351E+01  1.009449804E+03  1.017393539E+03  1.250000154E+02  0.00000E+00  9.000E+00
       5     1     1     2   501     0 -2.659753901E+00 -1.577887407E+00  9.197340914E+02  9.197515563E+02  4.750000000E+00  0.00000E+00  9.000E+00
      -5     1     1     2     0   503  1.228055618E+01 -8.184805071E+00  1.088922254E+02  1.099903739E+02  4.750000000E+00  0.00000E+00  9.000E+00
      21     1     1     2   512   502  8.463699699E+00 -2.429711035E+00  7.066099363E-01  8.833855665E+00  6.488424855E-07  0.00000E+00  9.000E+00
#rwgt            1           9  -1.5263313744869888E-004          11     2765441           0
</event>
<event>
      6   9999  3.45752E-01  6.28391E+00 -1.00000E+00  2.11299E-01
      21    -1     0     0   511   502  0.000000000E+00  0.000000000E+00  1.706128468E+01  1.706128468E+01  0.000000000E+00  0.00000E+00  9.000E+00
      21    -1     0     0   502   503  0.000000000E+00  0.000000000E+00 -1.040151699E+03  1.040151699E+03  0.000000000E+00  0.00000E+00  9.000E+00
      25     1     1     2     0     0  7.498396355E+00  2.339912330E+01 -5.318277150E+02  5.468725758E+02  1.250006031E+02  0.00000E+00  9.000E+00
       5     1     1     2   501     0 -1.886238935E+00  3.932977643E+00  6.795244049E+00  9.368247015E+00  4.750000000E+00  0.00000E+00  9.000E+00
      -5     1     1     2     0   503 -4.288602305E+00 -2.118916394E+01 -4.910925036E+02  4.915910723E+02  4.750000000E+00  0.00000E+00  9.000E+00
      21     1     1     2   511   501 -1.323555115E+00 -6.142936999E+00 -6.965440063E+00  9.381088870E+00  1.685873940E-07  0.00000E+00  9.000E+00
#rwgt            1           9   25.299140762094744               11     2768770           0
</event>
<event>
      6   9999  3.45752E-01  6.21348E+00 -1.00000E+00  2.11965E-01
      21    -1     0     0   512   502  0.000000000E+00  0.000000000E+00  4.989224680E+02  4.989224680E+02  0.000000000E+00  0.00000E+00  9.000E+00
      21    -1     0     0   502   503  0.000000000E+00  0.000000000E+00 -5.711826721E+01  5.711826721E+01  0.000000000E+00  0.00000E+00  9.000E+00
      25     1     1     2     0     0 -9.689267840E+00  8.702907378E-01  1.486177250E+01  1.262604114E+02  1.250047195E+02  0.00000E+00  9.000E+00
       5     1     1     2   501     0  2.270165995E+00 -3.827982641E-01  1.714740325E+02  1.715552579E+02  4.750000000E+00  0.00000E+00  9.000E+00
      -5     1     1     2     0   503  2.620040014E+00  3.459195502E+00  6.385364128E+00  9.064547327E+00  4.750000000E+00  0.00000E+00  9.000E+00
      21     1     1     2   512   501  4.799061831E+00 -3.946687975E+00  2.490830317E+02  2.491605186E+02  2.697398305E-06  0.00000E+00  9.000E+00
#rwgt            1           9   2.3392535276798365E-002          11     2772911           0
</event>
<event>
      6   9999  3.45752E-01  8.62181E+00 -1.00000E+00  1.94243E-01
      21    -1     0     0   501   511  0.000000000E+00  0.000000000E+00  2.217230885E+02  2.217230885E+02  0.000000000E+00  0.00000E+00  9.000E+00
      21    -1     0     0   502   503  0.000000000E+00  0.000000000E+00 -7.210965514E+02  7.210965514E+02  0.000000000E+00  0.00000E+00  9.000E+00
      25     1     1     2     0     0  2.943616962E+00  3.133551328E+00 -6.757240925E+02  6.872025597E+02  1.250032991E+02  0.00000E+00  9.000E+00
       5     1     1     2   501     0  1.359874190E-01 -7.989356281E-03 -3.154813200E+00  5.703849817E+00  4.750000000E+00  0.00000E+00  9.000E+00
      -5     1     1     2     0   503  5.110941029E+00 -5.818261507E+00 -3.452952271E+01  3.570468210E+01  4.750000000E+00  0.00000E+00  9.000E+00
      21     1     1     2   502   511 -8.190545410E+00  2.692699535E+00  2.140349656E+02  2.142085483E+02  2.697398305E-06  0.00000E+00  9.000E+00
#rwgt            1           9   7.5093861953065558E-005          11     2777308           0
</event>
<event>
      6   9999 -3.45752E-01  9.72677E+00 -1.00000E+00  1.88470E-01
      21    -1     0     0   501   502  0.000000000E+00  0.000000000E+00  7.664720862E+01  7.664720862E+01  0.000000000E+00  0.00000E+00  9.000E+00
      21    -1     0     0   502   512  0.000000000E+00  0.000000000E+00 -8.433332615E+01  8.433332615E+01  0.000000000E+00  0.00000E+00  9.000E+00
      25     1     1     2     0     0  3.011974843E-01 -2.506039316E+00 -1.457549722E+01  1.258752376E+02  1.250030375E+02  0.00000E+00  9.000E+00
       5     1     1     2   501     0 -2.166699178E-01  1.455144437E+00  1.197467366E+01  1.296609812E+01  4.750000000E+00  0.00000E+00  9.000E+00
      -5     1     1     2     0   503  5.535733036E-01  1.075671230E+01 -3.523553480E+00  1.228784896E+01  4.750000000E+00  0.00000E+00  9.000E+00
      21     1     1     2   503   512 -6.381008702E-01 -9.705817420E+00 -1.561740490E+00  9.851350053E+00  1.712013080E-07  0.00000E+00  9.000E+00
#rwgt            1           9 -0.17954810491657727               11     2779556           0
</event>
<event>
      6   9999  3.45752E-01  6.22419E+01 -1.00000E+00  1.29888E-01
      21    -1     0     0   501   502  0.000000000E+00  0.000000000E+00  4.487013274E+02  4.487013274E+02  0.000000000E+00  0.00000E+00  9.000E+00
      21    -1     0     0   502   511  0.000000000E+00  0.000000000E+00 -2.968814249E+03  2.968814249E+03  0.000000000E+00  0.00000E+00  9.000E+00
      25     1     1     2     0     0 -1.409418699E+01 -1.263252235E+01 -2.388863910E+03  2.392206956E+03  1.250004429E+02  0.00000E+00  9.000E+00
       5     1     1     2   501     0  7.604885070E+01  4.208087859E+01  4.394676832E+02  4.480051731E+02  4.750000000E+00  0.00000E+00  9.000E+00
      -5     1     1     2     0   503 -3.754848400E+00 -7.383993268E+00 -2.721754841E+02  2.723429436E+02  4.750000000E+00  0.00000E+00  9.000E+00
      21     1     1     2   503   511 -5.819981531E+01 -2.206436297E+01 -2.985412103E+02  3.049605038E+02  5.394796609E-06  0.00000E+00  9.000E+00
#rwgt            1           9   8.2843364329708211E-004          11     2782249           0
</event>
<event>
      6   9999  3.45752E-01  1.18540E+01 -1.00000E+00  1.79735E-01
      21    -1     0     0   502   512  0.000000000E+00  0.000000000E+00  1.304528398E+02  1.304528398E+02  0.000000000E+00  0.00000E+00  9.000E+00
      21    -1     0     0   501   502  0.000000000E+00  0.000000000E+00 -1.417667784E+03  1.417667784E+03  0.000000000E+00  0.00000E+00  9.000E+00
      25     1     1     2     0     0 -1.853904501E+02 -4.812197717E+01 -7.311899874E+02  7.661261612E+02  1.250006138E+02  0.00000E+00  9.000E+00
       5     1     1     2   501     0  1.373250093E+02 -7.305934456E+01 -5.158116494E+02  5.387764343E+02  4.750000000E+00  0.00000E+00  9.000E+00
      -5     1     1     2     0   503  5.981137190E+01  1.195841388E+02 -1.095220472E+02  1.729028854E+02  4.750000000E+00  0.00000E+00  9.000E+00
      21     1     1     2   503   512 -1.174593108E+01  1.597182900E+00  6.930873985E+01  7.031514282E+01  1.651812370E-06  0.00000E+00  9.000E+00
#rwgt            1           9   3.4183365132955802E-003          11     2784752           0
</event>
<event>
      6   9999  3.45752E-01  5.96144E+00 -1.00000E+00  2.14449E-01
      21    -1     0     0   501   502  0.000000000E+00  0.000000000E+00  4.077988670E+01  4.077988670E+01  0.000000000E+00  0.00000E+00  9.000E+00
      21    -1     0     0   511   503  0.000000000E+00  0.000000000E+00 -2.616835115E+02  2.616835115E+02  0.000000000E+00  0.00000E+00  9.000E+00
      25     1     1     2     0     0  2.084589466E+01 -9.599375098E+00 -1.722134978E+02  2.140325294E+02  1.250029419E+02  0.00000E+00  9.000E+00
       5     1     1     2   501     0  3.715682087E-01  9.231300429E-01  9.171925506E+00  1.037675043E+01  4.750000000E+00  0.00000E+00  9.000E+00
      -5     1     1     2     0   503 -1.536375878E+01  7.548001967E+00  2.017302107E+00  1.787874227E+01  4.750000000E+00  0.00000E+00  9.000E+00
      21     1     1     2   511   502 -5.853704086E+00  1.128243089E+00 -5.987935463E+01  6.017537616E+01  6.743495762E-07  0.00000E+00  9.000E+00
#rwgt            1           9   1.0990628174926221E-004          11     2789165           0
</event>
<event>
      6   9999  3.45752E-01  2.68113E+01 -1.00000E+00  1.51066E-01
      21    -1     0     0   501   502  0.000000000E+00  0.000000000E+00  3.811161462E+01  3.811161462E+01  0.000000000E+00  0.00000E+00  9.000E+00
      -4    -1     0     0     0   503  0.000000000E+00  0.000000000E+00 -2.694027030E+03  2.694027030E+03  0.000000000E+00  0.00000E+00  9.000E+00
      25     1     1     2     0     0  2.468392931E+01  1.725745366E+02 -3.723174895E+02  4.296933820E+02  1.249992900E+02  0.00000E+00  9.000E+00
       5     1     1     2   501     0 -1.550624562E+01 -6.514870214E+00 -9.545951615E+01  9.704622049E+01  4.750000000E+00  0.00000E+00  9.000E+00
      -5     1     1     2     0   503 -3.257825795E+01 -1.529730767E+02 -7.108945613E+02  7.279119073E+02  4.750000000E+00  0.00000E+00  9.000E+00
      -4     1     1     2     0   502  2.340057425E+01 -1.308658968E+01 -1.477243848E+03  1.477487134E+03  2.157918644E-05  0.00000E+00  9.000E+00
#rwgt            1           9   2.4514952506482506E-003          11     2792549           0
</event>
<event>
      6   9999  3.45752E-01  5.70056E+00 -1.00000E+00  2.17202E-01
      21    -1     0     0   511   502  0.000000000E+00  0.000000000E+00  7.634306503E+01  7.634306503E+01  0.000000000E+00  0.00000E+00  9.000E+00
      21    -1     0     0   502   503  0.000000000E+00  0.000000000E+00 -2.233568136E+03  2.233568136E+03  0.000000000E+00  0.00000E+00  9.000E+00
      25     1     1     2     0     0 -1.954699116E-01  1.620274654E+00 -2.092210023E+03  2.095945726E+03  1.250721494E+02  0.00000E+00  9.000E+00
       5     1     1     2   501     0 -5.221188534E+00 -2.729254030E+00  6.027275595E-01  7.591799377E+00  4.750000000E+00  0.00000E+00  9.000E+00
      -5     1     1     2     0   503  4.624439706E-01 -1.710984597E+00 -1.358329214E+02  1.359275041E+02  4.750000000E+00  0.00000E+00  9.000E+00
      21     1     1     2   511   501  4.954214475E+00  2.819963974E+00  7.021514567E+01  7.044617179E+01  4.264961200E-06  0.00000E+00  9.000E+00
#rwgt            1           9   1.2431620363627917E-004          11     2794371           0
</event>
<event>
      6   9999  3.45752E-01  1.11376E+01 -1.00000E+00  1.82396E-01
      21    -1     0     0   501   512  0.000000000E+00  0.000000000E+00  2.055193006E+01  2.055193006E+01  0.000000000E+00  0.00000E+00  9.000E+00
      21    -1     0     0   502   503  0.000000000E+00  0.000000000E+00 -8.411257026E+02  8.411257026E+02  0.000000000E+00  0.00000E+00  9.000E+00
      25     1     1     2     0     0  6.962436398E+00 -2.727360548E+01 -5.916141774E+02  6.053401963E+02  1.250483636E+02  0.00000E+00  9.000E+00
       5     1     1     2   501     0 -2.691497236E+00 -1.707670817E+00  3.015105039E+00  6.466347917E+00  4.750000000E+00  0.00000E+00  9.000E+00
      -5     1     1     2     0   503 -7.832406550E+00  1.842844958E+01 -2.368290904E+02  2.377215491E+02  4.750000000E+00  0.00000E+00  9.000E+00
      21     1     1     2   502   512  3.561467387E+00  1.055282672E+01  4.854390249E+00  1.214953935E+01  7.515859731E-07  0.00000E+00  9.000E+00
#rwgt            1           9   2.7967970742975643E-005          11     2798295           0
</event>
<event>
      6   9999  3.45752E-01  1.05062E+01 -1.00000E+00  1.84963E-01
      21    -1     0     0   511   502  0.000000000E+00  0.000000000E+00  2.487291174E+02  2.487291174E+02  0.000000000E+00  0.00000E+00  9.000E+00
      21    -1     0     0   502   503  0.000000000E+00  0.000000000E+00 -6.014245723E+02  6.014245723E+02  0.000000000E+00  0.00000E+00  9.000E+00
      25     1     1     2     0     0  1.149768048E+01 -1.671493751E+01 -5.710702534E+02  5.849426574E+02  1.250003694E+02  0.00000E+00  9.000E+00
       5     1     1     2   501     0 -9.466045444E-01 -4.907605637E-01 -2.127602337E+00  5.312823901E+00  4.750000000E+00  0.00000E+00  9.000E+00
      -5     1     1     2     0   503 -1.784464492E+01  9.643750745E+00 -1.403908094E+01  2.512153607E+01  4.750000000E+00  0.00000E+00  9.000E+00
      21     1     1     2   511   501  7.293568977E+00  7.561947333E+00  2.345414818E+02  2.347766723E+02  2.697398305E-06  0.00000E+00  9.000E+00
#rwgt            1           9   5.0756583509405505E-002          11     2800961           0
</event>
<event>
      6   9999  3.45752E-01  1.22941E+01 -1.00000E+00  1.78215E-01
      21    -1     0     0   501   502  0.000000000E+00  0.000000000E+00  2.808989386E+01  2.808989386E+01  0.000000000E+00  0.00000E+00  9.000E+00
      21    -1     0     0   502   512  0.000000000E+00  0.000000000E+00 -1.218703602E+03  1.218703602E+03  0.000000000E+00  0.00000E+00  9.000E+00
      25     1     1     2     0     0  4.464972789E+01 -2.291326593E+01 -9.114074833E+02  9.212874681E+02  1.248534431E+02  0.00000E+00  9.000E+00
       5     1     1     2   501     0  4.003103174E+00  2.328804875E+00  1.878243882E+01  1.991960530E+01  4.750000000E+00  0.00000E+00  9.000E+00
      -5     1     1     2     0   503 -4.053691394E+01  2.981905326E+01 -1.801109389E+02  1.870693191E+02  4.750000000E+00  0.00000E+00  9.000E+00
      21     1     1     2   503   512 -8.115917117E+00 -9.234592212E+00 -1.178777248E+02  1.185171034E+02  1.348699152E-06  0.00000E+00  9.000E+00
#rwgt            1           9   9.3195148632732095E-004          11     2803714           0
</event>
<event>
      6   9999  3.45752E-01  1.73686E+01 -1.00000E+00  1.65032E-01
      21    -1     0     0   511   503  0.000000000E+00  0.000000000E+00  7.044197641E+02  7.044197641E+02  0.000000000E+00  0.00000E+00  9.000E+00
      21    -1     0     0   501   502  0.000000000E+00  0.000000000E+00 -8.049584976E+02  8.049584976E+02  0.000000000E+00  0.00000E+00  9.000E+00
      25     1     1     2     0     0 -2.984109857E+00 -1.396447794E+00 -4.856590829E+02  5.013843890E+02  1.245419840E+02  0.00000E+00  9.000E+00
       5     1     1     2   501     0  1.716116580E+01 -1.872946088E+01 -2.259862608E+02  2.274591192E+02  4.750000000E+00  0.00000E+00  9.000E+00
      -5     1     1     2     0   503 -1.887422415E+01  3.404540496E+00 -8.345194730E+01  8.575906507E+01  4.750000000E+00  0.00000E+00  9.000E+00
      21     1     1     2   511   502  4.697168207E+00  1.672136818E+01  6.945585575E+02  6.947756885E+02  7.629394531E-06  0.00000E+00  9.000E+00
#rwgt            1           9   3.0357277554111457               11     2806519           0
</event>
<event>
      6   9999 -3.45752E-01  4.15473E+00 -1.00000E+00  2.44487E-01
      21    -1     0     0   501   502  0.000000000E+00  0.000000000E+00  1.321315063E+01  1.321315063E+01  0.000000000E+00  0.00000E+00  9.000E+00
      21    -1     0     0   512   503  0.000000000E+00  0.000000000E+00 -1.061508011E+03  1.061508011E+03  0.000000000E+00  0.00000E+00  9.000E+00
      25     1     1     2     0     0 -1.067761542E+01  8.781848036E+00 -5.948175896E+02  6.079686242E+02  1.250070033E+02  0.00000E+00  9.000E+00
       5     1     1     2   501     0  1.336278542E+00  3.285558803E+00  5.098716958E+00  7.819204026E+00  4.750000000E+00  0.00000E+00  9.000E+00
      -5     1     1     2     0   503  8.774778579E+00 -7.951484102E+00 -2.589627144E+02  2.592768265E+02  4.750000000E+00  0.00000E+00  9.000E+00
      21     1     1     2   512   502  5.665583008E-01 -4.115922737E+00 -1.996132739E+02  1.996565073E+02  0.000000000E+00  0.00000E+00  9.000E+00
#rwgt            1           9  -3.1349924057830182E-004          11     2807870           0
</event>
<event>
      6   9999  3.45752E-01  1.03069E+01 -1.00000E+00  1.85821E-01
      21    -1     0     0   501   511  0.000000000E+00  0.000000000E+00  4.078639150E+01  4.078639150E+01  0.000000000E+00  0.00000E+00  9.000E+00
      21    -1     0     0   502   503  0.000000000E+00  0.000000000E+00 -1.176678027E+03  1.176678027E+03  0.000000000E+00  0.00000E+00  9.000E+00
      25     1     1     2     0     0  3.778729088E+00  6.258661823E+00 -1.071246215E+03  1.078534954E+03  1.249629750E+02  0.00000E+00  9.000E+00
       5     1     1     2   501     0 -7.892379750E+00 -3.966761513E+00  3.512959687E+01  3.653321682E+01  4.750000000E+00  0.00000E+00  9.000E+00
      -5     1     1     2     0   503 -7.155334980E-01  6.813702939E+00 -7.635221780E+01  7.680600366E+01  4.750000000E+00  0.00000E+00  9.000E+00
      21     1     1     2   502   511  4.829184161E+00 -9.105603249E+00 -2.342280018E+01  2.559024420E+01  4.768371582E-07  0.00000E+00  9.000E+00
#rwgt            1           9   9.1343821722246639E-005          11     2812381           0
</event>
<event>
      6   9999  3.45752E-01  5.11945E+00 -1.00000E+00  2.24132E-01
      21    -1     0     0   501   502  0.000000000E+00  0.000000000E+00  7.920180260E+00  7.920180260E+00  0.000000000E+00  0.00000E+00  9.000E+00
      21    -1     0     0   502   512  0.000000000E+00  0.000000000E+00 -7.997174896E+02  7.997174896E+02  0.000000000E+00  0.00000E+00  9.000E+00
      25     1     1     2     0     0 -2.877810435E+00  6.839223929E-01 -6.089795341E+02  6.216830419E+02  1.249999282E+02  0.00000E+00  9.000E+00
       5     1     1     2   501     0  3.516478402E-01 -6.331354246E-01 -2.947849508E+00  5.637094410E+00  4.750000000E+00  0.00000E+00  9.000E+00
      -5     1     1     2     0   503  2.867415517E+00 -5.158852908E+00 -1.087936777E+02  1.090571531E+02  4.750000000E+00  0.00000E+00  9.000E+00
      21     1     1     2   503   512 -3.412529224E-01  5.108065940E+00 -7.107624798E+01  7.126038043E+01  9.536743164E-07  0.00000E+00  9.000E+00
#rwgt            1           9   7.3557943619394672E-005          11     2816032           0
</event>
<event>
      6   9999  3.45752E-01  7.06747E+00 -1.00000E+00  2.04609E-01
      21    -1     0     0   501   511  0.000000000E+00  0.000000000E+00  3.999599638E+02  3.999599638E+02  0.000000000E+00  0.00000E+00  9.000E+00
      21    -1     0     0   502   503  0.000000000E+00  0.000000000E+00 -1.597474787E+03  1.597474787E+03  0.000000000E+00  0.00000E+00  9.000E+00
      25     1     1     2     0     0 -3.828886491E+00 -1.177805724E+01 -1.477215455E+03  1.482546592E+03  1.250020531E+02  0.00000E+00  9.000E+00
       5     1     1     2   501     0  1.946471213E+00 -5.519921590E+00  7.668504493E+00  1.075298776E+01  4.750000000E+00  0.00000E+00  9.000E+00
      -5     1     1     2     0   503  2.919055963E+00  1.030694499E+01 -1.157234291E+02  1.163152120E+02  4.750000000E+00  0.00000E+00  9.000E+00
      21     1     1     2   502   511 -1.036640685E+00  6.991033833E+00  3.877555565E+02  3.878199592E+02  1.206313194E-05  0.00000E+00  9.000E+00
#rwgt            1           9   1.0903264523075344               11     2820027           0
</event>
<event>
      6   9999  3.45752E-01  3.05466E+00 -1.00000E+00  2.74877E-01
      21    -1     0     0   501   502  0.000000000E+00  0.000000000E+00  3.621908363E+03  3.621908363E+03  0.000000000E+00  0.00000E+00  9.000E+00
       4    -1     0     0   502     0  0.000000000E+00  0.000000000E+00 -4.362613830E+01  4.362613830E+01  0.000000000E+00  0.00000E+00  9.000E+00
      25     1     1     2     0     0  1.353820285E+00 -7.229434527E+00  1.601775458E+03  1.606662298E+03  1.250000864E+02  0.00000E+00  9.000E+00
       5     1     1     2   501     0  1.366534296E+00  2.529467210E+00  1.967732445E+03  1.967740279E+03  4.750000000E+00  0.00000E+00  9.000E+00
      -5     1     1     2     0   503  2.826471539E-01  4.140574039E+00  4.969685101E+01  5.009554614E+01  4.750000000E+00  0.00000E+00  9.000E+00
       4     1     1     2   503     0 -3.003001735E+00  5.593932780E-01 -4.092252997E+01  4.103637898E+01  4.046097457E-06  0.00000E+00  9.000E+00
#rwgt            1           9  0.15312080087112775               11     2823646           0
</event>
<event>
      6   9999  3.45752E-01  7.57848E+00 -1.00000E+00  2.00840E-01
      21    -1     0     0   511   502  0.000000000E+00  0.000000000E+00  1.137856448E+02  1.137856448E+02  0.000000000E+00  0.00000E+00  9.000E+00
      21    -1     0     0   502   503  0.000000000E+00  0.000000000E+00 -8.167197064E+02  8.167197064E+02  0.000000000E+00  0.00000E+00  9.000E+00
      25     1     1     2     0     0  1.921219965E+00 -9.018750096E+00 -7.643343343E+02  7.745425529E+02  1.249966513E+02  0.00000E+00  9.000E+00
       5     1     1     2   501     0 -1.024108007E+00 -1.812469179E-01  4.900519475E+00  6.903567105E+00  4.750000000E+00  0.00000E+00  9.000E+00
      -5     1     1     2     0   503 -2.571364780E+00  1.808765790E+00 -4.596399606E+01  4.631560195E+01  4.750000000E+00  0.00000E+00  9.000E+00
      21     1     1     2   511   501  1.674252822E+00  7.391231224E+00  1.024637493E+02  1.027436292E+02  3.015782986E-06  0.00000E+00  9.000E+00
#rwgt            1           9   1.4096771865923142E-005          11     2829614           0
</event>
<event>
      6   9999  3.45752E-01  1.13293E+01 -1.00000E+00  1.81659E-01
      21    -1     0     0   501   512  0.000000000E+00  0.000000000E+00  2.519217421E+01  2.519217421E+01  0.000000000E+00  0.00000E+00  9.000E+00
      21    -1     0     0   502   503  0.000000000E+00  0.000000000E+00 -8.964603534E+02  8.964603534E+02  0.000000000E+00  0.00000E+00  9.000E+00
      25     1     1     2     0     0  1.315636593E+01  1.726000402E+00 -4.757617742E+02  4.920860652E+02  1.249934427E+02  0.00000E+00  9.000E+00
       5     1     1     2   501     0 -2.334308504E+00 -2.971673975E+00  4.794350292E+00  7.734865036E+00  4.750000000E+00  0.00000E+00  9.000E+00
      -5     1     1     2     0   503 -2.196817279E+01 -7.836219978E-01 -4.076872107E+02  4.083070401E+02  4.750000000E+00  0.00000E+00  9.000E+00
      21     1     1     2   502   512  1.114611536E+01  2.029295570E+00  7.386455404E+00  1.352455735E+01  8.800520337E-07  0.00000E+00  9.000E+00
#rwgt            1           9   1.1150467784807705E-004          11     2832586           0
</event>
<event>
      6   9999 -3.45752E-01  5.50643E+00 -1.00000E+00  2.19386E-01
      21    -1     0     0   501   502  0.000000000E+00  0.000000000E+00  1.157185120E+01  1.157185120E+01  0.000000000E+00  0.00000E+00  9.000E+00
       2    -1     0     0   502     0  0.000000000E+00  0.000000000E+00 -8.382244804E+02  8.382244804E+02  0.000000000E+00  0.00000E+00  9.000E+00
      25     1     1     2     0     0  2.741688140E+00 -5.471815368E-01 -7.286534288E+02  7.393028176E+02  1.250000821E+02  0.00000E+00  9.000E+00
       5     1     1     2   501     0  1.865930723E+00 -1.846379841E+00  4.610838920E+00  7.121316699E+00  4.750000000E+00  0.00000E+00  9.000E+00
      -5     1     1     2     0   503 -1.083299465E-01 -7.808871918E-01 -1.971463358E+01  2.029410746E+01  4.750000000E+00  0.00000E+00  9.000E+00
       2     1     1     2   503     0 -4.499288916E+00  3.174448569E+00 -8.289540571E+01  8.307808985E+01  1.348699152E-06  0.00000E+00  9.000E+00
#rwgt            1           9  -3.5277472086381583E-003          11     2835073           0
</event>
<event>
      6   9999  3.45752E-01  8.07917E+00 -1.00000E+00  1.97510E-01
      21    -1     0     0   501   502  0.000000000E+00  0.000000000E+00  1.179077797E+01  1.179077797E+01  0.000000000E+00  0.00000E+00  9.000E+00
      21    -1     0     0   502   511  0.000000000E+00  0.000000000E+00 -1.690011422E+03  1.690011422E+03  0.000000000E+00  0.00000E+00  9.000E+00
      25     1     1     2     0     0 -2.156136422E+01  1.292902555E+01 -7.167137066E+02  7.279677885E+02  1.250060471E+02  0.00000E+00  9.000E+00
       5     1     1     2   501     0 -3.901793617E-01 -1.807031709E+00  4.749969798E+00  6.967231632E+00  4.750000000E+00  0.00000E+00  9.000E+00
      -5     1     1     2     0   503  2.266463552E+01 -3.074358890E+00 -8.542176662E+02  8.545370215E+02  4.750000000E+00  0.00000E+00  9.000E+00
      21     1     1     2   503   511 -7.130919380E-01 -8.047634956E+00 -1.120392409E+02  1.123301581E+02  0.000000000E+00  0.00000E+00  9.000E+00
#rwgt            1           9  0.11506613782883922               11     2839370           0
</event>
<event>
      6   9999  3.45752E-01  4.29119E+00 -1.00000E+00  2.41698E-01
      21    -1     0     0   512   502  0.000000000E+00  0.000000000E+00  3.503563826E+01  3.503563826E+01  0.000000000E+00  0.00000E+00  9.000E+00
      21    -1     0     0   502   503  0.000000000E+00  0.000000000E+00 -1.117581087E+03  1.117581087E+03  0.000000000E+00  0.00000E+00  9.000E+00
      25     1     1     2     0     0  1.023376041E+01 -4.049433155E+00 -9.105317519E+02  9.191378715E+02  1.250009108E+02  0.00000E+00  9.000E+00
       5     1     1     2   501     0 -8.296008239E+00 -5.202394123E+00  2.372327867E+01  2.610067256E+01  4.750000000E+00  0.00000E+00  9.000E+00
      -5     1     1     2     0   503 -5.141592741E+00  6.397058135E+00 -2.006391730E+02  2.008631339E+02  4.750000000E+00  0.00000E+00  9.000E+00
      21     1     1     2   512   501  3.203840565E+00  2.854769142E+00  4.902197509E+00  6.515047325E+00  3.625608999E-07  0.00000E+00  9.000E+00
#rwgt            1           9   6.2297421752682066E-004          11     2842555           0
</event>
<event>
      6   9999  3.45752E-01  1.65126E+01 -1.00000E+00  1.66833E-01
       1    -1     0     0   501     0  0.000000000E+00  0.000000000E+00  5.100197159E+02  5.100197159E+02  0.000000000E+00  0.00000E+00  9.000E+00
      21    -1     0     0   502   503  0.000000000E+00  0.000000000E+00 -7.279744547E+02  7.279744547E+02  0.000000000E+00  0.00000E+00  9.000E+00
      25     1     1     2     0     0 -1.033223730E+02  2.561179162E+01 -5.451112734E+01  1.729990789E+02  1.250029666E+02  0.00000E+00  9.000E+00
       5     1     1     2   501     0 -5.092120773E+00 -1.146911592E+01  1.468342235E+02  1.474459969E+02  4.750000000E+00  0.00000E+00  9.000E+00
      -5     1     1     2     0   503  9.395323845E+01 -6.171695932E+00 -6.100655689E+02  6.173069428E+02  4.750000000E+00  0.00000E+00  9.000E+00
       1     1     1     2   502     0  1.446125528E+01 -7.970979765E+00  2.997877339E+02  3.002421520E+02  3.814697266E-06  0.00000E+00  9.000E+00
#rwgt            1           9   3.9927442687571444E-004          11     2848718           0
</event>
<event>
      6   9999  3.45752E-01  3.66698E+00 -1.00000E+00  2.55932E-01
      21    -1     0     0   501   502  0.000000000E+00  0.000000000E+00  2.096228760E+01  2.096228760E+01  0.000000000E+00  0.00000E+00  9.000E+00
      21    -1     0     0   511   503  0.000000000E+00  0.000000000E+00 -1.022484036E+03  1.022484036E+03  0.000000000E+00  0.00000E+00  9.000E+00
      25     1     1     2     0     0  1.028407237E+01 -9.846583830E+01 -4.905062328E+02  5.157736583E+02  1.249992746E+02  0.00000E+00  9.000E+00
       5     1     1     2   501     0 -2.460097970E-01 -1.504501109E+00  1.582778479E+00  5.233711123E+00  4.750000000E+00  0.00000E+00  9.000E+00
      -5     1     1     2     0   503 -1.106451034E+01  9.644994521E+01 -4.903849558E+02  4.999249771E+02  4.750000000E+00  0.00000E+00  9.000E+00
      21     1     1     2   511   502  1.026447768E+00  3.520394203E+00 -2.221333780E+01  2.251397669E+01  2.384185791E-07  0.00000E+00  9.000E+00
#rwgt            1           9   1.0772361717262345E-006          11     2852298           0
</event>
<event>
      6   9999  3.45752E-01  8.60959E+00 -1.00000E+00  1.94313E-01
       1    -1     0     0   501     0  0.000000000E+00  0.000000000E+00  4.655668991E+01  4.655668991E+01  0.000000000E+00  0.00000E+00  9.000E+00
      21    -1     0     0   502   503  0.000000000E+00  0.000000000E+00 -8.494222204E+02  8.494222204E+02  0.000000000E+00  0.00000E+00  9.000E+00
      25     1     1     2     0     0  2.802334874E+01 -2.714839058E+01 -4.162400860E+02  4.363523655E+02  1.250009380E+02  0.00000E+00  9.000E+00
       5     1     1     2   501     0 -2.207626007E+00  1.270119118E+01 -2.249809644E+02  2.254000681E+02  4.750000000E+00  0.00000E+00  9.000E+00
      -5     1     1     2     0   503 -2.091370368E+01  7.369400593E+00 -1.967642859E+02  1.980667508E+02  4.750000000E+00  0.00000E+00  9.000E+00
       1     1     1     2   502     0 -4.902019059E+00  7.077798804E+00  3.511980572E+01  3.615972595E+01  1.651812370E-06  0.00000E+00  9.000E+00
#rwgt            1           9   3.1138491734502241E-002          11     2858180           0
</event>
<event>
      6   9999  3.45752E-01  3.75751E+01 -1.00000E+00  1.41779E-01
      21    -1     0     0   501   511  0.000000000E+00  0.000000000E+00  9.481229607E+01  9.481229607E+01  0.000000000E+00  0.00000E+00  9.000E+00
      21    -1     0     0   502   503  0.000000000E+00  0.000000000E+00 -1.466378923E+03  1.466378923E+03  0.000000000E+00  0.00000E+00  9.000E+00
      25     1     1     2     0     0 -1.463907313E+02  7.753044679E+01 -7.382390771E+02  7.668526691E+02  1.249994590E+02  0.00000E+00  9.000E+00
       5     1     1     2   501     0 -3.524261315E+00 -2.550700811E+00  4.448576075E+01  4.494965964E+01  4.750000000E+00  0.00000E+00  9.000E+00
      -5     1     1     2     0   503  1.231376626E+02 -4.861953234E+01 -6.953972403E+02  7.079029786E+02  4.750000000E+00  0.00000E+00  9.000E+00
      21     1     1     2   502   511  2.677733005E+01 -2.636021364E+01  1.758392985E+01  4.148591155E+01  1.168007728E-06  0.00000E+00  9.000E+00
#rwgt            1           9   2.2198428731578086E-004          11     2861129           0
</event>
<event>
      6   9999  3.45752E-01  4.50115E+00 -1.00000E+00  2.37696E-01
      21    -1     0     0   501   512  0.000000000E+00  0.000000000E+00  9.952916005E+01  9.952916005E+01  0.000000000E+00  0.00000E+00  9.000E+00
      21    -1     0     0   502   503  0.000000000E+00  0.000000000E+00 -1.393409601E+03  1.393409601E+03  0.000000000E+00  0.00000E+00  9.000E+00
      25     1     1     2     0     0  8.475154741E+01  9.860569570E+01 -1.015675636E+03  1.031562878E+03  1.249762598E+02  0.00000E+00  9.000E+00
       5     1     1     2   501     0 -2.735583243E+00 -6.322654063E+00  3.497775923E+01  3.596478154E+01  4.750000000E+00  0.00000E+00  9.000E+00
      -5     1     1     2     0   503 -8.196497139E+01 -9.678390432E+01 -3.582770111E+02  3.800925675E+02  4.750000000E+00  0.00000E+00  9.000E+00
      21     1     1     2   502   512 -5.099277241E-02  4.500862686E+00  4.509444706E+01  4.531853397E+01  1.261592536E-06  0.00000E+00  9.000E+00
#rwgt            1           9   1.6206770634860713E-004          11     2862812           0
</event>
<event>
      6   9999  3.45752E-01  2.39232E+01 -1.00000E+00  1.54491E-01
      21    -1     0     0   501   502  0.000000000E+00  0.000000000E+00  2.303442816E+02  2.303442816E+02  0.000000000E+00  0.00000E+00  9.000E+00
      21    -1     0     0   511   503  0.000000000E+00  0.000000000E+00 -6.874209854E+01  6.874209854E+01  0.000000000E+00  0.00000E+00  9.000E+00
      25     1     1     2     0     0  1.727853165E+01  5.051785621E+01  6.312939950E+01  1.498675716E+02  1.249974659E+02  0.00000E+00  9.000E+00
       5     1     1     2   501     0 -3.653797923E-01 -3.424020670E+01  1.075328901E+02  1.129531328E+02  4.750000000E+00  0.00000E+00  9.000E+00
      -5     1     1     2     0   503 -9.075529063E-01  1.502635506E+00  6.111820983E+00  7.937154495E+00  4.750000000E+00  0.00000E+00  9.000E+00
      21     1     1     2   511   502 -1.600559895E+01 -1.778028501E+01 -1.517192752E+01  2.832852127E+01  3.769728732E-07  0.00000E+00  9.000E+00
#rwgt            1           9  0.14000615701668803               11     2870262           0
</event>
<event>
      6   9999 -3.45752E-01  5.42798E+00 -1.00000E+00  2.20304E-01
      21    -1     0     0   512   503  0.000000000E+00  0.000000000E+00  1.052677419E+01  1.052677419E+01  0.000000000E+00  0.00000E+00  9.000E+00
      21    -1     0     0   501   502  0.000000000E+00  0.000000000E+00 -8.125896923E+02  8.125896923E+02  0.000000000E+00  0.00000E+00  9.000E+00
      25     1     1     2     0     0  1.775028545E+01 -1.573980558E+01 -5.470226651E+02  5.616162548E+02  1.249648248E+02  0.00000E+00  9.000E+00
       5     1     1     2   501     0  5.380389280E+00  3.446945782E+00 -1.934468794E+02  1.936106600E+02  4.750000000E+00  0.00000E+00  9.000E+00
      -5     1     1     2     0   503 -2.043149248E+01  7.583571612E+00 -4.196548246E+01  4.752494778E+01  4.750000000E+00  0.00000E+00  9.000E+00
      21     1     1     2   512   502 -2.699182250E+00  4.709288184E+00 -1.962789112E+01  2.036460384E+01  4.129530925E-07  0.00000E+00  9.000E+00
#rwgt            1           9  -1.4969280153643091E-002          11     2871534           0
</event>
<event>
      6   9999  3.45752E-01  4.25355E+01 -1.00000E+00  1.38655E-01
      21    -1     0     0   501   502  0.000000000E+00  0.000000000E+00  1.420684158E+03  1.420684158E+03  0.000000000E+00  0.00000E+00  9.000E+00
      21    -1     0     0   502   511  0.000000000E+00  0.000000000E+00 -1.081381514E+02  1.081381514E+02  0.000000000E+00  0.00000E+00  9.000E+00
      25     1     1     2     0     0 -1.601439777E+02  1.211216306E+01  6.278074430E+01  2.129784132E+02  1.250023381E+02  0.00000E+00  9.000E+00
       5     1     1     2   501     0 -1.318636817E-01  2.300318612E+00  7.320364018E+02  7.320554384E+02  4.750000000E+00  0.00000E+00  9.000E+00
      -5     1     1     2     0   503  1.871444796E+02  1.856242708E+01  5.057405204E+02  5.395958269E+02  4.750000000E+00  0.00000E+00  9.000E+00
      21     1     1     2   503   511 -2.686863819E+01 -3.297490876E+01  1.198834003E+01  4.419263086E+01  1.155776944E-06  0.00000E+00  9.000E+00
#rwgt            1           9   2.1978227540061786E-003          11     2875385           0
</event>
<event>
      6   9999  3.45752E-01  4.54074E+00 -1.00000E+00  2.36978E-01
       3    -1     0     0   502     0  0.000000000E+00  0.000000000E+00  6.270815043E+01  6.270815043E+01  0.000000000E+00  0.00000E+00  9.000E+00
      21    -1     0     0   501   502  0.000000000E+00  0.000000000E+00 -1.147258094E+03  1.147258094E+03  0.000000000E+00  0.00000E+00  9.000E+00
      25     1     1     2     0     0 -2.214398533E+01  3.060652602E+00 -1.473082261E+02  1.944830053E+02  1.249968088E+02  0.00000E+00  9.000E+00
       5     1     1     2   501     0 -1.907082393E+00 -2.626534648E-01 -8.765768389E+02  8.765918223E+02  4.750000000E+00  0.00000E+00  9.000E+00
      -5     1     1     2     0   503  1.982511923E+01 -1.136780149E+00 -9.859677894E+01  1.006887031E+02  4.750000000E+00  0.00000E+00  9.000E+00
       3     1     1     2   503     0  4.225948486E+00 -1.661218989E+00  3.793190020E+01  3.820271381E+01  1.348699152E-06  0.00000E+00  9.000E+00
#rwgt            1           9   1.1061628332956386E-005          11     2877979           0
</event>
<event>
      6   9999 -3.45752E-01  1.76159E+01 -1.00000E+00  1.64535E-01
      21    -1     0     0   502   503  0.000000000E+00  0.000000000E+00  5.595011645E+01  5.595011645E+01  0.000000000E+00  0.00000E+00  9.000E+00
       2    -1     0     0   501     0  0.000000000E+00  0.000000000E+00 -2.629968049E+03  2.629968049E+03  0.000000000E+00  0.00000E+00  9.000E+00
      25     1     1     2     0     0  3.764309074E+01  3.278209665E+01 -8.002937321E+01  1.565888123E+02  1.249947496E+02  0.00000E+00  9.000E+00
       5     1     1     2   501     0 -3.233586487E+01 -7.732279290E+00 -1.677565458E+01  3.754172860E+01  4.750000000E+00  0.00000E+00  9.000E+00
      -5     1     1     2     0   503 -1.887141954E+01 -1.381006356E+01 -1.236304303E+01  2.687481468E+01  4.750000000E+00  0.00000E+00  9.000E+00
       2     1     1     2   502     0  1.356419368E+01 -1.123975380E+01 -2.464849862E+03  2.464912810E+03  4.315837288E-05  0.00000E+00  9.000E+00
#rwgt            1           9  -3149.0746410191014               11     2883299           0
</event>
<event>
      6   9999  3.45752E-01  9.04447E+00 -1.00000E+00  1.91908E-01
      21    -1     0     0   501   502  0.000000000E+00  0.000000000E+00  8.457108534E+00  8.457108534E+00  0.000000000E+00  0.00000E+00  9.000E+00
      21    -1     0     0   511   503  0.000000000E+00  0.000000000E+00 -1.117073661E+03  1.117073661E+03  0.000000000E+00  0.00000E+00  9.000E+00
      25     1     1     2     0     0 -7.178605295E-01 -1.771541729E+00 -7.096022842E+02  7.205304573E+02  1.250003380E+02  0.00000E+00  9.000E+00
       5     1     1     2   501     0 -2.170532177E+00  1.403202583E+00 -4.624412038E-01  5.427387888E+00  4.750000000E+00  0.00000E+00  9.000E+00
      -5     1     1     2     0   503 -4.803032639E+00  5.126953329E+00 -3.917881279E+01  4.008611536E+01  4.750000000E+00  0.00000E+00  9.000E+00
      21     1     1     2   511   502  7.691425345E+00 -4.758614182E+00 -3.593730139E+02  3.594868086E+02  0.000000000E+00  0.00000E+00  9.000E+00
#rwgt            1           9   7.2574562673217045E-003          11     2884891           0
</event>
<event>
      6   9999  3.45752E-01  3.78180E+01 -1.00000E+00  1.41614E-01
      21    -1     0     0   501   512  0.000000000E+00  0.000000000E+00  1.269126090E+01  1.269126090E+01  0.000000000E+00  0.00000E+00  9.000E+00
      21    -1     0     0   502   503  0.000000000E+00  0.000000000E+00 -1.523387826E+03  1.523387826E+03  0.000000000E+00  0.00000E+00  9.000E+00
      25     1     1     2     0     0 -7.190590093E+00  5.256489729E+01 -9.198971621E+02  9.298656489E+02  1.249982528E+02  0.00000E+00  9.000E+00
       5     1     1     2   501     0 -3.223156075E+00  9.181141816E-01 -5.435101131E+00  7.958297120E+00  4.750000000E+00  0.00000E+00  9.000E+00
      -5     1     1     2     0   503 -2.474700334E+01 -3.955752701E+01 -5.245391864E+02  5.266318759E+02  4.750000000E+00  0.00000E+00  9.000E+00
      21     1     1     2   502   512  3.516074951E+01 -1.392548446E+01 -6.082511592E+01  7.162326543E+01  2.697398305E-06  0.00000E+00  9.000E+00
#rwgt            1           9   2.3165473789551454E-002          11     2887742           0
</event>
<event>
      6   9999  3.45752E-01  6.50733E+01 -1.00000E+00  1.28937E-01
      21    -1     0     0   501   502  0.000000000E+00  0.000000000E+00  2.469147579E+02  2.469147579E+02  0.000000000E+00  0.00000E+00  9.000E+00
      21    -1     0     0   511   503  0.000000000E+00  0.000000000E+00 -6.103205838E+02  6.103205838E+02  0.000000000E+00  0.00000E+00  9.000E+00
      25     1     1     2     0     0  1.964671790E+02 -1.452193153E+02 -2.506522642E+02  3.716711394E+02  1.249995052E+02  0.00000E+00  9.000E+00
       5     1     1     2   501     0  7.416662298E+00 -3.368534818E+00  1.299286333E+02  1.302703579E+02  4.750000000E+00  0.00000E+00  9.000E+00
      -5     1     1     2     0   503 -1.404236916E+02  1.341884221E+02 -1.767392699E+02  2.626493438E+02  4.750000000E+00  0.00000E+00  9.000E+00
      21     1     1     2   511   502 -6.346014975E+01  1.439942799E+01 -6.594292508E+01  9.264450066E+01  9.536743164E-07  0.00000E+00  9.000E+00
#rwgt            1           9  0.33434739203766328               11     2888754           0
</event>
<event>
      6   9999 -3.45752E-01  2.87551E+01 -1.00000E+00  1.49039E-01
      21    -1     0     0   501   512  0.000000000E+00  0.000000000E+00  2.535655270E+01  2.535655270E+01  0.000000000E+00  0.00000E+00  9.000E+00
      21    -1     0     0   502   503  0.000000000E+00  0.000000000E+00 -2.203282529E+03  2.203282529E+03  0.000000000E+00  0.00000E+00  9.000E+00
      25     1     1     2     0     0  7.695909539E+01 -5.129244564E+01 -9.160288795E+02  9.291327588E+02  1.250006325E+02  0.00000E+00  9.000E+00
       5     1     1     2   501     0  1.548498619E+01  5.570593795E+00  1.012784202E+01  1.989854257E+01  4.750000000E+00  0.00000E+00  9.000E+00
      -5     1     1     2     0   503 -6.590441854E+01  5.678994928E+01 -1.179594268E+03  1.182807546E+03  4.750000000E+00  0.00000E+00  9.000E+00
      21     1     1     2   502   512 -2.653966304E+01 -1.106809744E+01 -9.243067071E+01  9.680023442E+01  1.907348633E-06  0.00000E+00  9.000E+00
#rwgt            1           9  -8.0522360782468922               11     2890524           0
</event>
<event>
      6   9999  3.45752E-01  1.23174E+01 -1.00000E+00  1.78137E-01
      21    -1     0     0   511   502  0.000000000E+00  0.000000000E+00  2.928137874E+02  2.928137874E+02  0.000000000E+00  0.00000E+00  9.000E+00
      21    -1     0     0   502   503  0.000000000E+00  0.000000000E+00 -1.111381337E+02  1.111381337E+02  0.000000000E+00  0.00000E+00  9.000E+00
      25     1     1     2     0     0  2.733302098E+01 -3.029293591E+01 -3.195223487E+01  1.353163140E+02  1.249992140E+02  0.00000E+00  9.000E+00
       5     1     1     2   501     0 -1.751926656E+00 -7.819941849E+00  2.125605895E+02  2.127646292E+02  4.750000000E+00  0.00000E+00  9.000E+00
      -5     1     1     2     0   503 -1.674239427E+01  2.953405441E+01 -1.345705439E+01  3.682693238E+01  4.750000000E+00  0.00000E+00  9.000E+00
      21     1     1     2   511   501 -8.838700061E+00  8.578823345E+00  1.452435343E+01  1.904404556E+01  1.685873940E-07  0.00000E+00  9.000E+00
#rwgt            1           9   2.7281986650369316               11     2892497           0
</event>
<event>
      6   9999  3.45752E-01  1.40032E+01 -1.00000E+00  1.73001E-01
      21    -1     0     0   502   512  0.000000000E+00  0.000000000E+00  1.117434030E+01  1.117434030E+01  0.000000000E+00  0.00000E+00  9.000E+00
      21    -1     0     0   501   502  0.000000000E+00  0.000000000E+00 -8.577804472E+02  8.577804472E+02  0.000000000E+00  0.00000E+00  9.000E+00
      25     1     1     2     0     0  2.313276734E+01 -3.535455649E+01 -6.304774580E+02  6.441349758E+02  1.249918897E+02  0.00000E+00  9.000E+00
       5     1     1     2   501     0 -1.721256364E+01  3.150481520E+01 -1.009614331E+02  1.072594947E+02  4.750000000E+00  0.00000E+00  9.000E+00
      -5     1     1     2     0   503  2.286002014E+00 -7.497012814E+00 -5.694552560E+01  5.767830088E+01  4.750000000E+00  0.00000E+00  9.000E+00
      21     1     1     2   503   512 -8.206205715E+00  1.134675410E+01 -5.822169016E+01  5.988201605E+01  6.743495762E-07  0.00000E+00  9.000E+00
#rwgt            1           9   8.7341756897812231E-006          11     2895765           0
</event>
<event>
      6   9999  3.45752E-01  8.07735E+00 -1.00000E+00  1.97522E-01
      21    -1     0     0   511   502  0.000000000E+00  0.000000000E+00  1.310788031E+01  1.310788031E+01  0.000000000E+00  0.00000E+00  9.000E+00
      21    -1     0     0   502   503  0.000000000E+00  0.000000000E+00 -7.503913466E+02  7.503913466E+02  0.000000000E+00  0.00000E+00  9.000E+00
      25     1     1     2     0     0 -6.221197984E+00  9.199417274E+00 -6.867615415E+02  6.981330791E+02  1.250001948E+02  0.00000E+00  9.000E+00
       5     1     1     2   501     0 -3.925909251E-01 -4.823699675E-01  5.518890893E+00  7.308041127E+00  4.750000000E+00  0.00000E+00  9.000E+00
      -5     1     1     2     0   503  4.849403657E+00 -8.347508905E-01 -3.105165882E+01  3.179593591E+01  4.750000000E+00  0.00000E+00  9.000E+00
      21     1     1     2   511   501  1.764385252E+00 -7.882296416E+00 -2.498915690E+01  2.626217079E+01  3.371747881E-07  0.00000E+00  9.000E+00
#rwgt            1           9   1.6312309557620778E-003          11     2897818           0
</event>
<event>
      6   9999  3.45752E-01  1.21881E+01 -1.00000E+00  1.78574E-01
      -2    -1     0     0     0   502  0.000000000E+00  0.000000000E+00  2.588758783E+01  2.588758783E+01  0.000000000E+00  0.00000E+00  9.000E+00
       2    -1     0     0   512     0  0.000000000E+00  0.000000000E+00 -1.359896495E+03  1.359896495E+03  0.000000000E+00  0.00000E+00  9.000E+00
      25     1     1     2     0     0  3.338981316E+01  8.594262160E+01 -2.424608973E+02  2.878303124E+02  1.247316647E+02  0.00000E+00  9.000E+00
       5     1     1     2   501     0 -2.870730924E+01 -8.771690592E+00 -4.787527863E+02  4.797164215E+02  4.750000000E+00  0.00000E+00  9.000E+00
      -5     1     1     2     0   502 -7.963326558E+00 -6.543273211E+01 -4.313392666E+02  4.363725271E+02  4.750000000E+00  0.00000E+00  9.000E+00
      21     1     1     2   512   501  3.280822632E+00 -1.173819890E+01 -1.814559573E+02  1.818648222E+02  0.000000000E+00  0.00000E+00  9.000E+00
#rwgt            1           3   1.6068760140457570E-004          11     2900542           0
</event>
<event>
      6   9999  3.45752E-01  3.75279E+00 -1.00000E+00  2.53727E-01
      21    -1     0     0   511   502  0.000000000E+00  0.000000000E+00  5.515739658E+02  5.515739658E+02  0.000000000E+00  0.00000E+00  9.000E+00
      21    -1     0     0   502   503  0.000000000E+00  0.000000000E+00 -7.043857074E+01  7.043857074E+01  0.000000000E+00  0.00000E+00  9.000E+00
      25     1     1     2     0     0 -7.417986439E+01 -3.778615587E+01  2.327455650E+01  1.520265404E+02  1.250596583E+02  0.00000E+00  9.000E+00
       5     1     1     2   501     0  4.989204992E-01 -7.394492626E-01  5.654345833E+01  5.674963337E+01  4.750000000E+00  0.00000E+00  9.000E+00
      -5     1     1     2     0   503  7.097251168E+01  3.592794079E+01  2.615985606E+02  2.734671530E+02  4.750000000E+00  0.00000E+00  9.000E+00
      21     1     1     2   511   501  2.708432212E+00  2.597664346E+00  1.397188196E+02  1.397692098E+02  3.303624740E-06  0.00000E+00  9.000E+00
#rwgt            1           9   4.8707391486853231E-004          11     2905933           0
</event>
<event>
      6   9999  3.45752E-01  4.54589E+00 -1.00000E+00  2.36885E-01
      21    -1     0     0   501   512  0.000000000E+00  0.000000000E+00  4.197789559E+01  4.197789559E+01  0.000000000E+00  0.00000E+00  9.000E+00
      21    -1     0     0   502   503  0.000000000E+00  0.000000000E+00 -1.058342977E+03  1.058342977E+03  0.000000000E+00  0.00000E+00  9.000E+00
      25     1     1     2     0     0 -1.794085161E+00 -2.445444833E+00 -9.477540133E+02  9.559664801E+02  1.250001692E+02  0.00000E+00  9.000E+00
       5     1     1     2   501     0  1.500404790E+00 -7.383743604E+00  1.395218138E+01  1.655284717E+01  4.750000000E+00  0.00000E+00  9.000E+00
      -5     1     1     2     0   503  5.876413498E-01  5.292813258E+00 -1.048314661E+02  1.050740595E+02  4.750000000E+00  0.00000E+00  9.000E+00
      21     1     1     2   502   512 -2.939609781E-01  4.536375179E+00  2.226821696E+01  2.272748555E+01  4.768371582E-07  0.00000E+00  9.000E+00
#rwgt            1           9  0.33113378398598409               11     2912467           0
</event>
<event>
      6   9999  3.45752E-01  3.05045E+01 -1.00000E+00  1.47371E-01
      21    -1     0     0   501   502  0.000000000E+00  0.000000000E+00  5.925392254E+01  5.925392254E+01  0.000000000E+00  0.00000E+00  9.000E+00
      21    -1     0     0   502   511  0.000000000E+00  0.000000000E+00 -3.518497132E+03  3.518497132E+03  0.000000000E+00  0.00000E+00  9.000E+00
      25     1     1     2     0     0  8.472197820E+01  8.959345051E+01 -2.641180796E+02  3.171529617E+02  1.249913644E+02  0.00000E+00  9.000E+00
       5     1     1     2   501     0  1.089304205E+01  7.892460640E+00  2.939133238E+01  3.267050993E+01  4.750000000E+00  0.00000E+00  9.000E+00
      -5     1     1     2     0   503 -9.677379954E+01 -6.700340105E+01 -2.595127724E+03  2.597800048E+03  4.750000000E+00  0.00000E+00  9.000E+00
      21     1     1     2   503   511  1.158779283E+00 -3.048251010E+01 -6.293887384E+02  6.301275348E+02  0.000000000E+00  0.00000E+00  9.000E+00
#rwgt            1           9   9.4613774122575128E-003          11     2917654           0
</event>
<event>
      6   9999  3.45752E-01  1.31853E+01 -1.00000E+00  1.75372E-01
      21    -1     0     0   501   502  0.000000000E+00  0.000000000E+00  1.182114913E+01  1.182114913E+01  0.000000000E+00  0.00000E+00  9.000E+00
      21    -1     0     0   512   503  0.000000000E+00  0.000000000E+00 -9.913162974E+02  9.913162974E+02  0.000000000E+00  0.00000E+00  9.000E+00
      25     1     1     2     0     0  4.642269293E+00 -1.284031916E+01 -7.152289887E+02  7.261977497E+02  1.249969635E+02  0.00000E+00  9.000E+00
       5     1     1     2   501     0 -1.522931491E+00 -8.963931462E-01  4.803141729E+00  6.982514695E+00  4.750000000E+00  0.00000E+00  9.000E+00
      -5     1     1     2     0   503 -5.955069867E+00  8.599090126E-01 -6.266081677E+01  6.312798713E+01  4.750000000E+00  0.00000E+00  9.000E+00
      21     1     1     2   512   502  2.835732065E+00  1.287680330E+01 -2.064084845E+02  2.068291951E+02  2.697398305E-06  0.00000E+00  9.000E+00
#rwgt            1           9   3.4768063618932757E-004          11     2919711           0
</event>
<event>
      6   9999  3.45752E-01  2.39392E+01 -1.00000E+00  1.54471E-01
      21    -1     0     0   501   502  0.000000000E+00  0.000000000E+00  1.746903240E+01  1.746903240E+01  0.000000000E+00  0.00000E+00  9.000E+00
      21    -1     0     0   511   503  0.000000000E+00  0.000000000E+00 -1.041092011E+03  1.041092011E+03  0.000000000E+00  0.00000E+00  9.000E+00
      25     1     1     2     0     0 -1.051419832E+01  2.392373944E+01 -7.396942900E+02  7.506371864E+02  1.250025975E+02  0.00000E+00  9.000E+00
       5     1     1     2   501     0 -9.737649454E+00  1.813533793E+00  7.458305527E+00  1.327778382E+01  4.750000000E+00  0.00000E+00  9.000E+00
      -5     1     1     2     0   503 -2.402867865E+00 -1.800097365E+01 -9.786564154E+01  9.964966191E+01  4.750000000E+00  0.00000E+00  9.000E+00
      21     1     1     2   511   502  2.265471564E+01 -7.736299586E+00 -1.935213528E+02  1.949964114E+02  2.697398305E-06  0.00000E+00  9.000E+00
#rwgt            1           9   3.2148708818690019E-004          11     2921811           0
</event>
<event>
      6   9999  3.45752E-01  2.89538E+01 -1.00000E+00  1.48842E-01
      21    -1     0     0   501   502  0.000000000E+00  0.000000000E+00  2.378417509E+02  2.378417509E+02  0.000000000E+00  0.00000E+00  9.000E+00
      21    -1     0     0   512   503  0.000000000E+00  0.000000000E+00 -1.622905331E+02  1.622905331E+02  0.000000000E+00  0.00000E+00  9.000E+00
      25     1     1     2     0     0 -5.309096663E+01  1.405171387E+02  8.331597155E+01  2.124376973E+02  1.249980285E+02  0.00000E+00  9.000E+00
       5     1     1     2   501     0 -7.423924022E-01  9.896385245E-01  3.030313240E+01  3.069809219E+01  4.750000000E+00  0.00000E+00  9.000E+00
      -5     1     1     2     0   503  3.860253468E+01 -1.168827408E+02 -2.785294991E+01  1.262936265E+02  4.750000000E+00  0.00000E+00  9.000E+00
      21     1     1     2   512   502  1.523082435E+01 -2.462403643E+01 -1.021493627E+01  3.070286800E+01  2.920019320E-07  0.00000E+00  9.000E+00
#rwgt            1           9  0.34231736455883055               11     2923519           0
</event>
<event>
      6   9999  3.45752E-01  1.73752E+01 -1.00000E+00  1.65019E-01
      21    -1     0     0   501   502  0.000000000E+00  0.000000000E+00  1.154139573E+01  1.154139573E+01  0.000000000E+00  0.00000E+00  9.000E+00
       2    -1     0     0   502     0  0.000000000E+00  0.000000000E+00 -1.379772133E+03  1.379772133E+03  0.000000000E+00  0.00000E+00  9.000E+00
      25     1     1     2     0     0  1.919515295E+01  1.405570277E+01 -8.759812099E+02  8.851744534E+02  1.249988647E+02  0.00000E+00  9.000E+00
       5     1     1     2   501     0 -1.466826273E+00  5.386561830E-01  1.010618192E+00  5.101527117E+00  4.750000000E+00  0.00000E+00  9.000E+00
      -5     1     1     2     0   503 -2.749267931E+01 -2.223539551E-01 -4.861047231E+01  5.604852697E+01  4.750000000E+00  0.00000E+00  9.000E+00
       2     1     1     2   503     0  9.764352631E+00 -1.437200500E+01 -4.446496738E+02  4.449890218E+02  9.344061824E-06  0.00000E+00  9.000E+00
#rwgt            1           9   9.2792727466327197E-005          11     2925064           0
</event>
<event>
      6   9999  3.45752E-01  6.11851E+00 -1.00000E+00  2.12882E-01
      21    -1     0     0   501   511  0.000000000E+00  0.000000000E+00  1.081336584E+01  1.081336584E+01  0.000000000E+00  0.00000E+00  9.000E+00
      21    -1     0     0   502   503  0.000000000E+00  0.000000000E+00 -8.201172613E+02  8.201172613E+02  0.000000000E+00  0.00000E+00  9.000E+00
      25     1     1     2     0     0 -3.435227351E+00  4.137050862E-01 -7.316426361E+02  7.422518672E+02  1.249996614E+02  0.00000E+00  9.000E+00
       5     1     1     2   501     0  3.742268586E-01  5.629034442E-01  3.769182168E+00  6.101322827E+00  4.750000000E+00  0.00000E+00  9.000E+00
      -5     1     1     2     0   503 -1.984511207E+00  2.484450034E+00 -6.054468033E+01  6.081390954E+01  4.750000000E+00  0.00000E+00  9.000E+00
      21     1     1     2   502   511  5.045511700E+00 -3.461058565E+00 -2.088576116E+01  2.176352761E+01  2.384185791E-07  0.00000E+00  9.000E+00
#rwgt            1           9   1.7053386982358962E-003          11     2926711           0
</event>
<event>
      6   9999  3.45752E-01  4.07740E+00 -1.00000E+00  2.46140E-01
      21    -1     0     0   501   502  0.000000000E+00  0.000000000E+00  1.280761940E+01  1.280761940E+01  0.000000000E+00  0.00000E+00  9.000E+00
      21    -1     0     0   502   512  0.000000000E+00  0.000000000E+00 -1.033327579E+03  1.033327579E+03  0.000000000E+00  0.00000E+00  9.000E+00
      25     1     1     2     0     0 -9.615042323E-02  4.903762457E+00 -8.046278861E+02  8.142944124E+02  1.250011951E+02  0.00000E+00  9.000E+00
       5     1     1     2   501     0  3.470418387E+00  2.401866325E+00  6.426350015E+00  9.037324833E+00  4.750000000E+00  0.00000E+00  9.000E+00
      -5     1     1     2     0   503 -1.566126245E+00 -3.651073243E+00 -4.349852894E+01  4.393708692E+01  4.750000000E+00  0.00000E+00  9.000E+00
      21     1     1     2   503   512 -1.808141719E+00 -3.654555539E+00 -1.788198949E+02  1.788663746E+02  2.697398305E-06  0.00000E+00  9.000E+00
#rwgt            1           9   6.9808128354290609E-005          11     2930266           0
</event>
<event>
      6   9999  3.45752E-01  1.42377E+01 -1.00000E+00  1.72358E-01
      21    -1     0     0   501   502  0.000000000E+00  0.000000000E+00  2.645865711E+02  2.645865711E+02  0.000000000E+00  0.00000E+00  9.000E+00
      21    -1     0     0   502   511  0.000000000E+00  0.000000000E+00 -6.760470475E+01  6.760470475E+01  0.000000000E+00  0.00000E+00  9.000E+00
      25     1     1     2     0     0 -5.760423588E+00 -3.091578574E+00  1.334158994E+02  1.829403760E+02  1.249985545E+02  0.00000E+00  9.000E+00
       5     1     1     2   501     0 -2.760112334E-01 -7.097371086E-01  6.296581327E+01  6.314931552E+01  4.750000000E+00  0.00000E+00  9.000E+00
      -5     1     1     2     0   503  2.013230785E+00 -9.856135659E+00  4.141059426E+01  4.287885639E+01  4.750000000E+00  0.00000E+00  9.000E+00
      21     1     1     2   503   511  4.023204036E+00  1.365745134E+01 -4.081044060E+01  4.322272793E+01  1.430511475E-06  0.00000E+00  9.000E+00
#rwgt            1           9   1.2328011806784212E-004          11     2935747           0
</event>
<event>
      6   9999 -3.45752E-01  6.38117E+00 -1.00000E+00  2.10399E-01
      21    -1     0     0   501   512  0.000000000E+00  0.000000000E+00  3.719769281E+02  3.719769281E+02  0.000000000E+00  0.00000E+00  9.000E+00
      21    -1     0     0   502   503  0.000000000E+00  0.000000000E+00 -2.349835845E+03  2.349835845E+03  0.000000000E+00  0.00000E+00  9.000E+00
      25     1     1     2     0     0  4.099896002E+01  5.165955140E+01 -1.666654212E+03  1.672634650E+03  1.249831439E+02  0.00000E+00  9.000E+00
       5     1     1     2   501     0 -6.624672236E-01  1.185998113E-01 -3.769834431E+00  6.101399870E+00  4.750000000E+00  0.00000E+00  9.000E+00
      -5     1     1     2     0   503 -3.521903068E+01 -4.796620053E+01 -6.739085783E+02  6.765474639E+02  4.750000000E+00  0.00000E+00  9.000E+00
      21     1     1     2   502   512 -5.117462116E+00 -3.811950679E+00  3.664737078E+02  3.665292592E+02  5.394796609E-06  0.00000E+00  9.000E+00
#rwgt            1           9  -3.7895683648850628E-003          11     2937401           0
</event>
<event>
      6   9999  3.45752E-01  4.20843E+00 -1.00000E+00  2.43371E-01
      21    -1     0     0   501   511  0.000000000E+00  0.000000000E+00  4.320198389E+01  4.320198389E+01  0.000000000E+00  0.00000E+00  9.000E+00
      21    -1     0     0   502   503  0.000000000E+00  0.000000000E+00 -7.976553288E+02  7.976553288E+02  0.000000000E+00  0.00000E+00  9.000E+00
      25     1     1     2     0     0  5.546015873E-01 -5.605393211E+00 -5.568734632E+02  5.707584283E+02  1.250016057E+02  0.00000E+00  9.000E+00
       5     1     1     2   501     0 -1.107719231E+00  7.645659987E-02  1.584248610E+00  5.128862560E+00  4.750000000E+00  0.00000E+00  9.000E+00
      -5     1     1     2     0   503  2.176380378E+00  9.411704377E+00 -2.318070877E+02  2.320569009E+02  4.750000000E+00  0.00000E+00  9.000E+00
      21     1     1     2   502   511 -1.623262734E+00 -3.882767766E+00  3.264295739E+01  3.291312101E+01  1.168007728E-06  0.00000E+00  9.000E+00
#rwgt            1           9   6.8707071050851430E-003          11     2940815           0
</event>
<event>
      6   9999  3.45752E-01  1.29378E+01 -1.00000E+00  1.76133E-01
      21    -1     0     0   501   502  0.000000000E+00  0.000000000E+00  8.535236291E+02  8.535236291E+02  0.000000000E+00  0.00000E+00  9.000E+00
      21    -1     0     0   512   503  0.000000000E+00  0.000000000E+00 -8.148890616E+00  8.148890616E+00  0.000000000E+00  0.00000E+00  9.000E+00
      25     1     1     2     0     0 -1.237157039E+01  4.639979764E+00  6.909190606E+02  7.022600792E+02  1.250019414E+02  0.00000E+00  9.000E+00
       5     1     1     2   501     0 -6.439824054E-01 -2.689228519E-01  1.075443501E+02  1.076514597E+02  4.750000000E+00  0.00000E+00  9.000E+00
      -5     1     1     2     0   503  1.635203911E-01 -2.884231837E+00  2.977272539E+01  3.028734405E+01  4.750000000E+00  0.00000E+00  9.000E+00
      21     1     1     2   512   502  1.285203240E+01 -1.486825075E+00  1.713860243E+01  2.147363683E+01  7.152557373E-07  0.00000E+00  9.000E+00
#rwgt            1           9   1.6491521269735429E-003          11     2945209           0
</event>
<event>
      6   9999 -3.45752E-01  1.50831E+01 -1.00000E+00  1.70164E-01
      21    -1     0     0   501   502  0.000000000E+00  0.000000000E+00  6.269079823E+00  6.269079823E+00  0.000000000E+00  0.00000E+00  9.000E+00
      21    -1     0     0   502   511  0.000000000E+00  0.000000000E+00 -1.447563928E+03  1.447563928E+03  0.000000000E+00  0.00000E+00  9.000E+00
      25     1     1     2     0     0  2.655585769E+00 -1.167822482E+01 -1.268050809E+03  1.274254651E+03  1.250145167E+02  0.00000E+00  9.000E+00
       5     1     1     2   501     0 -3.141333555E+00 -8.059067292E-01 -2.589879813E+00  6.307728561E+00  4.750000000E+00  0.00000E+00  9.000E+00
      -5     1     1     2     0   503 -1.116674111E+01  2.907112904E+00 -4.444859417E+01  4.616695178E+01  4.750000000E+00  0.00000E+00  9.000E+00
      21     1     1     2   503   511  1.165248890E+01  9.577018648E+00 -1.262055652E+02  1.271036761E+02  0.000000000E+00  0.00000E+00  9.000E+00
#rwgt            1           9  -5.0634636945222202E-005          11     2947304           0
</event>
<event>
      6   9999  3.45752E-01  8.20092E+00 -1.00000E+00  1.96748E-01
      21    -1     0     0   512   502  0.000000000E+00  0.000000000E+00  6.158857557E+01  6.158857557E+01  0.000000000E+00  0.00000E+00  9.000E+00
      21    -1     0     0   502   503  0.000000000E+00  0.000000000E+00 -8.921201000E+02  8.921201000E+02  0.000000000E+00  0.00000E+00  9.000E+00
      25     1     1     2     0     0  4.409014216E+01  3.681298482E+01 -5.062651288E+02  5.246220818E+02  1.249992465E+02  0.00000E+00  9.000E+00
       5     1     1     2   501     0  1.132331995E+00 -2.997594764E+00  5.706371850E+00  8.086589504E+00  4.750000000E+00  0.00000E+00  9.000E+00
      -5     1     1     2     0   503 -4.860970375E+01 -4.128410673E+01 -3.723675453E+02  3.778193114E+02  4.750000000E+00  0.00000E+00  9.000E+00
      21     1     1     2   512   501  3.387229594E+00  7.468716672E+00  4.239477778E+01  4.318069286E+01  2.236564522E-06  0.00000E+00  9.000E+00
#rwgt            1           9   1.3708588162358641E-002          11     2949727           0
</event>
<event>
      6   9999  3.45752E-01  6.06056E+00 -1.00000E+00  2.13452E-01
      21    -1     0     0   501   502  0.000000000E+00  0.000000000E+00  9.130049113E+01  9.130049113E+01  0.000000000E+00  0.00000E+00  9.000E+00
      21    -1     0     0   502   511  0.000000000E+00  0.000000000E+00 -2.128183451E+03  2.128183451E+03  0.000000000E+00  0.00000E+00  9.000E+00
      25     1     1     2     0     0 -1.335196970E+02  7.204514162E+01 -7.551748180E+02  7.803408861E+02  1.249995233E+02  0.00000E+00  9.000E+00
       5     1     1     2   501     0 -1.548770824E+00  1.678081049E+01  7.038484251E+01  7.252987554E+01  4.750000000E+00  0.00000E+00  9.000E+00
      -5     1     1     2     0   503  1.301764238E+02 -9.240342452E+01 -8.734093136E+02  8.878911452E+02  4.750000000E+00  0.00000E+00  9.000E+00
      21     1     1     2   503   511  4.892044015E+00  3.577472412E+00 -4.786836709E+02  4.787220355E+02  7.629394531E-06  0.00000E+00  9.000E+00
#rwgt            1           9   1.6530215196943639E-003          11     2953896           0
</event>
<event>
      6   9999  3.45752E-01  6.18450E+00 -1.00000E+00  2.12242E-01
       4    -1     0     0   501     0  0.000000000E+00  0.000000000E+00  5.981158617E+01  5.981158617E+01  0.000000000E+00  0.00000E+00  9.000E+00
      21    -1     0     0   502   503  0.000000000E+00  0.000000000E+00 -8.585324494E+02  8.585324494E+02  0.000000000E+00  0.00000E+00  9.000E+00
      25     1     1     2     0     0  2.421023732E+00  1.665899824E+01 -8.057089607E+02  8.155210847E+02  1.249973063E+02  0.00000E+00  9.000E+00
       5     1     1     2   501     0  3.374629380E+00  1.845229146E+00  5.007568534E+00  7.901343979E+00  4.750000000E+00  0.00000E+00  9.000E+00
      -5     1     1     2     0   503 -3.234222998E+00 -1.287509599E+01 -4.519460040E+01  4.734282100E+01  4.750000000E+00  0.00000E+00  9.000E+00
       4     1     1     2   502     0 -2.561430114E+00 -5.629131402E+00  4.717512933E+01  4.757878594E+01  2.780414531E-06  0.00000E+00  9.000E+00
#rwgt            1           9   4.8551765966071866E-004          11     2960748           0
</event>
<event>
      6   9999  3.45752E-01  1.43995E+01 -1.00000E+00  1.71924E-01
      21    -1     0     0   511   502  0.000000000E+00  0.000000000E+00  5.355262303E+02  5.355262303E+02  0.000000000E+00  0.00000E+00  9.000E+00
      21    -1     0     0   502   503  0.000000000E+00  0.000000000E+00 -1.744116864E+01  1.744116864E+01  0.000000000E+00  0.00000E+00  9.000E+00
      25     1     1     2     0     0  9.683216276E-01  6.354690101E+00  2.220878124E+02  2.549296187E+02  1.249991774E+02  0.00000E+00  9.000E+00
       5     1     1     2   501     0 -6.799832007E+00  5.587432007E+00  1.162685025E+02  1.166978333E+02  4.750000000E+00  0.00000E+00  9.000E+00
      -5     1     1     2     0   503 -1.684104768E+00  3.404782345E-01  1.235151954E+01  1.334446212E+01  4.750000000E+00  0.00000E+00  9.000E+00
      21     1     1     2   511   501  7.515615147E+00 -1.228260034E+01  1.673772272E+02  1.679954848E+02  0.000000000E+00  0.00000E+00  9.000E+00
#rwgt            1           9   7.4035356980047887E-003          11     2964678           0
</event>
<event>
      6   9999  3.45752E-01  3.23399E+00 -1.00000E+00  2.68650E-01
      21    -1     0     0   501   502  0.000000000E+00  0.000000000E+00  1.162243150E+01  1.162243150E+01  0.000000000E+00  0.00000E+00  9.000E+00
       2    -1     0     0   502     0  0.000000000E+00  0.000000000E+00 -2.871828360E+03  2.871828360E+03  0.000000000E+00  0.00000E+00  9.000E+00
      25     1     1     2     0     0  1.828980509E+01  9.921866818E+00 -5.331336220E+02  5.479859225E+02  1.249966077E+02  0.00000E+00  9.000E+00
       5     1     1     2   501     0 -2.329170554E-01 -2.714681278E-01  2.248465846E+00  5.267451372E+00  4.750000000E+00  0.00000E+00  9.000E+00
      -5     1     1     2     0   503 -1.775538022E+01 -1.287030546E+01 -2.875562991E+02  2.884303832E+02  4.750000000E+00  0.00000E+00  9.000E+00
       2     1     1     2   503     0 -3.015078144E-01  3.219906773E+00 -2.041764473E+03  2.041767035E+03  2.157918644E-05  0.00000E+00  9.000E+00
#rwgt            1           9   2.1547589366946155E-005          11     2966467           0
</event>
<event>
      6   9999  3.45752E-01  1.62198E+01 -1.00000E+00  1.67480E-01
      21    -1     0     0   501   502  0.000000000E+00  0.000000000E+00  1.250286570E+02  1.250286570E+02  0.000000000E+00  0.00000E+00  9.000E+00
      21    -1     0     0   511   503  0.000000000E+00  0.000000000E+00 -1.061531284E+03  1.061531284E+03  0.000000000E+00  0.00000E+00  9.000E+00
      25     1     1     2     0     0 -8.200812588E+00  1.218348266E+01  3.640604541E+01  1.310205443E+02  1.250011692E+02  0.00000E+00  9.000E+00
       5     1     1     2   501     0  3.881316459E-01  1.102704947E+00  1.229988491E+01  1.323692839E+01  4.750000000E+00  0.00000E+00  9.000E+00
      -5     1     1     2     0   503  1.308838413E+01  2.051635374E+00  2.674334390E+01  3.022058818E+01  4.750000000E+00  0.00000E+00  9.000E+00
      21     1     1     2   511   502 -5.275703186E+00 -1.533782299E+01 -1.011951901E+03  1.012081880E+03  1.868812365E-05  0.00000E+00  9.000E+00
#rwgt            1           9   6.0566655156133109E-003          11     2971757           0
</event>
<event>
      6   9999  3.45752E-01  6.52551E+01 -1.00000E+00  1.28878E-01
      21    -1     0     0   501   502  0.000000000E+00  0.000000000E+00  1.026054299E+03  1.026054299E+03  0.000000000E+00  0.00000E+00  9.000E+00
      21    -1     0     0   502   512  0.000000000E+00  0.000000000E+00 -3.799638125E+02  3.799638125E+02  0.000000000E+00  0.00000E+00  9.000E+00
      25     1     1     2     0     0  4.262723697E+00 -8.746174205E+01  7.138656042E+02  7.299977130E+02  1.249993318E+02  0.00000E+00  9.000E+00
       5     1     1     2   501     0 -3.405395545E+00 -2.096199492E+00  2.940915867E+02  2.941571258E+02  4.750000000E+00  0.00000E+00  9.000E+00
      -5     1     1     2     0   503 -4.083494465E+01  3.798258788E+01 -1.465110615E+02  1.568382075E+02  4.750000000E+00  0.00000E+00  9.000E+00
      21     1     1     2   503   512  3.997761649E+01  5.157535366E+01 -2.153556431E+02  2.250250651E+02  0.000000000E+00  0.00000E+00  9.000E+00
#rwgt            1           9   180.60865104253736               11     2973251           0
</event>
<event>
      6   9999  3.45752E-01  9.35008E+00 -1.00000E+00  1.90321E-01
      21    -1     0     0   501   502  0.000000000E+00  0.000000000E+00  1.618323362E+01  1.618323362E+01  0.000000000E+00  0.00000E+00  9.000E+00
      21    -1     0     0   511   503  0.000000000E+00  0.000000000E+00 -1.159381408E+03  1.159381408E+03  0.000000000E+00  0.00000E+00  9.000E+00
      25     1     1     2     0     0 -9.038824518E-01 -9.842776005E+00 -7.317506415E+02  7.424159832E+02  1.249991744E+02  0.00000E+00  9.000E+00
       5     1     1     2   501     0  2.811743747E+00 -7.612378992E-01  9.997818018E+00  1.144570885E+01  4.750000000E+00  0.00000E+00  9.000E+00
      -5     1     1     2     0   503  1.277203655E+00  1.813142367E+00 -1.809168515E+02  1.809927855E+02  4.750000000E+00  0.00000E+00  9.000E+00
      21     1     1     2   511   502 -3.185064950E+00  8.790871537E+00 -2.405284995E+02  2.407101642E+02  0.000000000E+00  0.00000E+00  9.000E+00
#rwgt            1           9  0.15465511670679610               11     2975002           0
</event>
<event>
      6   9999  3.45752E-01  3.24482E+01 -1.00000E+00  1.45667E-01
      21    -1     0     0   512   502  0.000000000E+00  0.000000000E+00  2.573670522E+02  2.573670522E+02  0.000000000E+00  0.00000E+00  9.000E+00
      21    -1     0     0   502   503  0.000000000E+00  0.000000000E+00 -9.377563530E+02  9.377563530E+02  0.000000000E+00  0.00000E+00  9.000E+00
      25     1     1     2     0     0  2.435626220E+01 -9.650552231E+00 -8.783077374E+02  8.875453764E+02  1.250038112E+02  0.00000E+00  9.000E+00
       5     1     1     2   501     0  9.462274845E+00 -9.836019519E-01  3.593702164E+00  1.122405066E+01  4.750000000E+00  0.00000E+00  9.000E+00
      -5     1     1     2     0   503 -2.962575583E+00  5.944980724E-01 -4.978239019E+01  5.009969216E+01  4.750000000E+00  0.00000E+00  9.000E+00
      21     1     1     2   512   501 -3.085596146E+01  1.003965611E+01  2.441071247E+02  2.462542860E+02  2.697398305E-06  0.00000E+00  9.000E+00
#rwgt            1           9   3.3161810901787209E-005          11     2977457           0
</event>
<event>
      6   9999  3.45752E-01  1.95606E+01 -1.00000E+00  1.60950E-01
      21    -1     0     0   501   502  0.000000000E+00  0.000000000E+00  5.369496803E+02  5.369496803E+02  0.000000000E+00  0.00000E+00  9.000E+00
      21    -1     0     0   502   511  0.000000000E+00  0.000000000E+00 -1.519897878E+02  1.519897878E+02  0.000000000E+00  0.00000E+00  9.000E+00
      25     1     1     2     0     0  8.739172423E+01 -4.280315539E+00  3.769588437E+02  4.066678904E+02  1.250006749E+02  0.00000E+00  9.000E+00
       5     1     1     2   501     0  9.357972467E-01  1.478561124E+00  1.277676820E+02  1.278679198E+02  4.750000000E+00  0.00000E+00  9.000E+00
      -5     1     1     2     0   503 -7.566949615E+01 -1.211104419E+01 -1.040474029E+02  1.293096075E+02  4.750000000E+00  0.00000E+00  9.000E+00
      21     1     1     2   503   511 -1.265802533E+01  1.491279860E+01 -1.571923018E+01  2.509405039E+01  1.685873940E-07  0.00000E+00  9.000E+00
#rwgt            1           9   2.2327453740393632E-004          11     2979061           0
</event>
<event>
      6   9999  3.45752E-01  5.75070E+00 -1.00000E+00  2.16658E-01
      21    -1     0     0   512   502  0.000000000E+00  0.000000000E+00  4.722130461E+02  4.722130461E+02  0.000000000E+00  0.00000E+00  9.000E+00
      21    -1     0     0   502   503  0.000000000E+00  0.000000000E+00 -1.296945373E+01  1.296945373E+01  0.000000000E+00  0.00000E+00  9.000E+00
      25     1     1     2     0     0 -1.252088154E+00  4.210806597E+00  3.043295332E+02  3.290292211E+02  1.249978599E+02  0.00000E+00  9.000E+00
       5     1     1     2   501     0  1.394819263E-01  9.821952409E-01  6.474216199E+01  6.492375683E+01  4.750000000E+00  0.00000E+00  9.000E+00
      -5     1     1     2     0   503 -5.416836775E-01  3.146127419E-01  1.319141714E+01  1.403454269E+01  4.750000000E+00  0.00000E+00  9.000E+00
      21     1     1     2   512   501  1.654289905E+00 -5.507614580E+00  7.698048014E+01  7.719497921E+01  9.536743164E-07  0.00000E+00  9.000E+00
#rwgt            1           9   1.3870280056549323E-004          11     2981871           0
</event>
</LesHouchesEvents>
 #Random number generator exit values:           11       2984673             0
