<LesHouchesEvents version="3.0">
<!--
file generated with POWHEG-BOX-V2
Input file powheg.input contained:
numevts 1000    ! number of events to be generated

! Production parameters for ttH production
hmass 125.d0      ! mass of the HIggs boson [GeV]
hwidth 0.00498d0  ! width of the Higgs boson [GeV]

hdecaymode -1    ! -1 no decay
                ! 0 all decay channels open
                ! 1-6 d dbar, u ubar,..., t tbar
                ! 7-9 e+ e-, mu+ mu-, tau+ tau-
                ! 10  W+W-
                ! 11  ZZ
                ! 12  gamma gamma

#pythiatune 320	! PYTHIA tune


ih1   1           ! hadron 1 (1 for protons, -1 for antiprotons)
ih2   1           ! hadron 2 (1 for protons, -1 for antiprotons)
ebeam1 6500d0     ! energy of beam 1
ebeam2 6500d0     ! energy of beam 2

! To be set only if using 'native' pdfs
!ndns1 131         ! pdf set for hadron 1 (mlm numbering)
!ndns2 131         ! pdf set for hadron 2 (mlm numbering)
! To be set only if using LHA pdfs
! 10050 cteq6m
! 10042 cteq6l with LO alphas (corr. to vbfnlo LO set)
! 10041 cteq6l with NLO alphas
! 21000 MSTW2008 LO
! 21100 MSTW2008 NLO
! 23300 MSTW2008 NLO, NF=4
! 11082 CT10 Nf4

lhans1  23300      ! pdf set for hadron 1 (LHA numbering)
lhans2  23300      ! pdf set for hadron 2 (LHA numbering)

#bornktmin 1d0    ! Generation cut; minimum kt in underlying born
#bornsuppfact 1d0 ! (default 0d0) switch for Born suppression factor. If < 0 suppfact = 1
delta_mbbmin 0d0 ! generation cut on mbb (no gencut used, if set to 0)

use-old-grid    1 ! if 1 use old grid if file pwggrids.dat is present (<> 1 regenerate)
use-old-ubound  1 ! if 1 use norm of upper bounding function stored in pwgubound.dat, if present; <>

ncall1  500000  ! number of calls for initializing the integration grid
itmx1    2     ! number of iterations for initializing the integration grid
ncall2  50000  ! number of calls for computing the integral and finding upper bound
itmx2     1     ! number of iterations for computing the integral and finding upper bound
foldcsi   1    ! number of folds on csi integration
foldy     1    ! number of folds on  y  integration
foldphi   1    ! number of folds on phi integration
nubound 10000  ! number of bbarra calls to setup norm of upper bounding function
icsimax  1     ! <= 100, number of csi subdivision when computing the upper bounds
iymax    1     ! <= 100, number of y subdivision when computing the upper bounds
xupbound 2d0   ! increase upper bound for radiation generation

#runningscales 2	   ! default 0 (no running scales); 1,2: use running scales
renscfact 1d0   ! (default 1d0) ren scale factor: muren  = muref * renscfact
facscfact 1d0   ! (default 1d0) fac scale factor: mufact = muref * facscfact
testplots  1       ! (default 0, do not) do NLO and PWHG distributions

#bornonly   1      ! (default 0) if 1 do Born only
#fakevirt   1      ! (default 0) if 1 use Born for virtuals

iseed    2

manyseeds  1       ! Used to perform multiple runs with different random
                   ! seeds in the same directory.
                   ! If set to 1, the program asks for an integer j;
                   ! The file pwgseeds.dat at line j is read, and the
                   ! integer at line j is used to initialize the random
                   ! sequence for the generation of the event.
                   ! The event file is called pwgevents-'j'.lhe

#storeinfo_rwgt 1   ! store info for reweighting events
#compute_rwgt 1   ! store info for reweighting events
#xgriditeration 1   ! identifier for grid generation
#parallelstage  4   ! identifier for parallel running stages


toploop 1	! 1 include top loop effects; 0 disregard top loop effects
msbar  1	! 1 MSbar renormalization; 0 On-Shell renormalization
parallelstage 4
End of powheg.input content
PDF package: lha
 Random number generator initialized with:            6             0             0
-->
<init>
     2212     2212  6.50000E+03  6.50000E+03     -1     -1     -1     -1     -4      1
  3.37328E-01  1.60874E-01  1.00000E+00   9999
</init>
<event>
      6   9999  3.45752E-01  9.42141E+00 -1.00000E+00  1.89962E-01
      21    -1     0     0   501   511  0.000000000E+00  0.000000000E+00  3.532161527E+01  3.532161527E+01  0.000000000E+00  0.00000E+00  9.000E+00
      21    -1     0     0   502   503  0.000000000E+00  0.000000000E+00 -1.279864799E+03  1.279864799E+03  0.000000000E+00  0.00000E+00  9.000E+00
      25     1     1     2     0     0 -4.475924098E+01  7.289538702E+01 -2.357897169E+02  2.802484364E+02  1.250010737E+02  0.00000E+00  9.000E+00
       5     1     1     2   501     0 -2.645502524E+00 -6.171708646E-01  8.968329691E+00  1.050585651E+01  4.750000000E+00  0.00000E+00  9.000E+00
      -5     1     1     2     0   503  3.979471718E+01 -6.672390274E+01 -1.007608699E+03  1.010610485E+03  4.750000000E+00  0.00000E+00  9.000E+00
      21     1     1     2   502   511  7.610026320E+00 -5.554313412E+00 -1.011309709E+01  1.382163633E+01  3.769728732E-07  0.00000E+00  9.000E+00
#rwgt            1           9   2.2898620939731305E-004           6          41           0
</event>
<event>
      6   9999  3.45752E-01  6.12302E+00 -1.00000E+00  2.12837E-01
      21    -1     0     0   512   502  0.000000000E+00  0.000000000E+00  1.110751814E+01  1.110751814E+01  0.000000000E+00  0.00000E+00  9.000E+00
      21    -1     0     0   502   503  0.000000000E+00  0.000000000E+00 -7.773028972E+02  7.773028972E+02  0.000000000E+00  0.00000E+00  9.000E+00
      25     1     1     2     0     0 -2.722860328E+00 -1.938908496E+01 -6.797642623E+02  6.914389820E+02  1.250002521E+02  0.00000E+00  9.000E+00
       5     1     1     2   501     0  1.713288320E+00 -1.132109470E+00  3.509000788E-01  5.186777379E+00  4.750000000E+00  0.00000E+00  9.000E+00
      -5     1     1     2     0   503  4.206159105E+00  1.529882362E+01 -8.289205869E+01  8.453047777E+01  4.750000000E+00  0.00000E+00  9.000E+00
      21     1     1     2   512   501 -3.196587097E+00  5.222370810E+00 -3.889958139E+00  7.254178125E+00  2.107342426E-07  0.00000E+00  9.000E+00
#rwgt            1           9   8.9239143878559570E-005           6        4069           0
</event>
<event>
      6   9999  3.45752E-01  7.14156E+00 -1.00000E+00  2.04037E-01
      21    -1     0     0   501   502  0.000000000E+00  0.000000000E+00  1.409353008E+01  1.409353008E+01  0.000000000E+00  0.00000E+00  9.000E+00
      21    -1     0     0   502   511  0.000000000E+00  0.000000000E+00 -1.012795556E+03  1.012795556E+03  0.000000000E+00  0.00000E+00  9.000E+00
      25     1     1     2     0     0 -1.476115875E+01 -1.494501735E+01 -2.922176448E+02  3.185232613E+02  1.249986830E+02  0.00000E+00  9.000E+00
       5     1     1     2   501     0 -3.430088716E-01  1.863126466E-01 -8.306978400E+00  9.577095470E+00  4.750000000E+00  0.00000E+00  9.000E+00
      -5     1     1     2     0   503  9.575706285E+00  1.927953927E+01 -5.420697439E+02  5.425178011E+02  4.750000000E+00  0.00000E+00  9.000E+00
      21     1     1     2   503   511  5.528461336E+00 -4.520834572E+00 -1.561076585E+02  1.562709278E+02  0.000000000E+00  0.00000E+00  9.000E+00
#rwgt            1           9   4.3694381724633470E-004           6        7982           0
</event>
<event>
      6   9999  3.45752E-01  1.45748E+01 -1.00000E+00  1.71461E-01
      21    -1     0     0   512   502  0.000000000E+00  0.000000000E+00  8.440051667E+01  8.440051667E+01  0.000000000E+00  0.00000E+00  9.000E+00
      21    -1     0     0   502   503  0.000000000E+00  0.000000000E+00 -1.051448005E+03  1.051448005E+03  0.000000000E+00  0.00000E+00  9.000E+00
      25     1     1     2     0     0 -1.429835019E+01  1.162096125E+01 -3.549865373E+02  3.768036145E+02  1.250041305E+02  0.00000E+00  9.000E+00
       5     1     1     2   501     0  2.068858007E+00  5.453226898E+00  1.226649342E+01  1.438913541E+01  4.750000000E+00  0.00000E+00  9.000E+00
      -5     1     1     2     0   503  5.360308311E+00 -4.219673894E+00 -6.835832804E+02  6.836338218E+02  4.750000000E+00  0.00000E+00  9.000E+00
      21     1     1     2   512   501  6.869183873E+00 -1.285451425E+01  5.925583623E+01  6.102194975E+01  3.438521648E-06  0.00000E+00  9.000E+00
#rwgt            1           9   1.7047984489819503E-002           6       11651           0
</event>
<event>
      6   9999  3.45752E-01  2.57634E+02 -1.00000E+00  1.05220E-01
      21    -1     0     0   501   511  0.000000000E+00  0.000000000E+00  1.528004558E+02  1.528004558E+02  0.000000000E+00  0.00000E+00  9.000E+00
      21    -1     0     0   502   503  0.000000000E+00  0.000000000E+00 -1.795410877E+03  1.795410877E+03  0.000000000E+00  0.00000E+00  9.000E+00
      25     1     1     2     0     0 -1.374945872E+02 -1.783244260E+02 -2.423542263E+02  3.536458581E+02  1.250018383E+02  0.00000E+00  9.000E+00
       5     1     1     2   501     0  1.599208929E+00 -3.406463794E+01  5.445309315E-01  3.443567976E+01  4.750000000E+00  0.00000E+00  9.000E+00
      -5     1     1     2     0   503 -1.135627492E-01 -6.419268597E+00 -1.272122996E+03  1.272148065E+03  4.750000000E+00  0.00000E+00  9.000E+00
      21     1     1     2   502   511  1.360089410E+02  2.188083325E+02 -1.286777294E+02  2.879817294E+02  4.672030912E-06  0.00000E+00  9.000E+00
#rwgt            1           9   6.5132416276861130E-002           6       13936           0
</event>
<event>
      6   9999  3.45752E-01  3.15747E+00 -1.00000E+00  2.71227E-01
      21    -1     0     0   501   512  0.000000000E+00  0.000000000E+00  3.683928786E+01  3.683928786E+01  0.000000000E+00  0.00000E+00  9.000E+00
      21    -1     0     0   502   503  0.000000000E+00  0.000000000E+00 -1.129053325E+03  1.129053325E+03  0.000000000E+00  0.00000E+00  9.000E+00
      25     1     1     2     0     0 -7.243808677E+00 -1.799344480E+00 -8.215351655E+02  8.310228440E+02  1.249929140E+02  0.00000E+00  9.000E+00
       5     1     1     2   501     0  5.992628798E+00  3.344751236E+00  2.477281870E+01  2.614104067E+01  4.750000000E+00  0.00000E+00  9.000E+00
      -5     1     1     2     0   503 -1.905987754E+00 -1.501616753E+00 -3.016898518E+02  3.017369994E+02  4.750000000E+00  0.00000E+00  9.000E+00
      21     1     1     2   502   512  3.157167633E+00 -4.379000281E-02  6.238161040E+00  6.991729270E+00  3.953724850E-07  0.00000E+00  9.000E+00
#rwgt            1           9   2.3315908485645465E-003           6       14904           0
</event>
<event>
      6   9999 -3.45752E-01  6.26099E+00 -1.00000E+00  2.11514E-01
      21    -1     0     0   501   511  0.000000000E+00  0.000000000E+00  7.929114826E+01  7.929114826E+01  0.000000000E+00  0.00000E+00  9.000E+00
      21    -1     0     0   502   503  0.000000000E+00  0.000000000E+00 -1.650209325E+03  1.650209325E+03  0.000000000E+00  0.00000E+00  9.000E+00
      25     1     1     2     0     0 -3.703009405E+01 -3.574023759E+01 -1.607290341E+03  1.612964922E+03  1.250000362E+02  0.00000E+00  9.000E+00
       5     1     1     2   501     0  1.411383864E+01  6.560883201E+00  6.358172426E+01  6.563111907E+01  4.750000000E+00  0.00000E+00  9.000E+00
      -5     1     1     2     0   503  2.641689961E+01  2.398845537E+01 -1.939288356E+01  4.088942417E+01  4.750000000E+00  0.00000E+00  9.000E+00
      21     1     1     2   502   511 -3.500644199E+00  5.190899018E+00 -7.816676635E+00  1.001500754E+01  1.460009660E-07  0.00000E+00  9.000E+00
#rwgt            1           9  -1.9379946911464855E-004           6       22949           0
</event>
<event>
      6   9999 -3.45752E-01  6.17762E+01 -1.00000E+00  1.30050E-01
      21    -1     0     0   502   512  0.000000000E+00  0.000000000E+00  2.320343073E+03  2.320343073E+03  0.000000000E+00  0.00000E+00  9.000E+00
      21    -1     0     0   501   502  0.000000000E+00  0.000000000E+00 -3.961078931E+03  3.961078931E+03  0.000000000E+00  0.00000E+00  9.000E+00
      25     1     1     2     0     0 -2.468698775E+02  1.386756577E+01  3.885231925E+02  4.771417736E+02  1.248076730E+02  0.00000E+00  9.000E+00
       5     1     1     2   501     0 -1.095558256E+00  1.578459194E+02 -3.886656276E+03  3.889863250E+03  4.750000000E+00  0.00000E+00  9.000E+00
      -5     1     1     2     0   503  2.301470930E+02 -2.308641773E+02  1.802583663E+03  1.831828697E+03  4.750000000E+00  0.00000E+00  9.000E+00
      21     1     1     2   503   512  1.781834276E+01  5.915069213E+01  5.481356260E+01  8.258828224E+01  1.507891493E-06  0.00000E+00  9.000E+00
#rwgt            1           9  -1.5650404812812924E-002           6       28799           0
</event>
<event>
      6   9999 -3.45752E-01  6.59567E+01 -1.00000E+00  1.28651E-01
      21    -1     0     0   501   502  0.000000000E+00  0.000000000E+00  4.035638788E+01  4.035638788E+01  0.000000000E+00  0.00000E+00  9.000E+00
      21    -1     0     0   502   511  0.000000000E+00  0.000000000E+00 -1.483232195E+03  1.483232195E+03  0.000000000E+00  0.00000E+00  9.000E+00
      25     1     1     2     0     0 -1.493155631E+02  3.984034502E+01 -8.384341181E+02  8.616722071E+02  1.249993263E+02  0.00000E+00  9.000E+00
       5     1     1     2   501     0 -1.012420012E+01 -3.792071524E+00  1.355670878E+01  1.797848957E+01  4.750000000E+00  0.00000E+00  9.000E+00
      -5     1     1     2     0   503  9.691916951E+01 -5.705924483E+01 -3.370436852E+02  3.553450310E+02  4.750000000E+00  0.00000E+00  9.000E+00
      21     1     1     2   503   511  6.252059367E+01  2.101097133E+01 -2.809547129E+02  2.885928555E+02  3.814697266E-06  0.00000E+00  9.000E+00
#rwgt            1           9  -2.9631692077567171E-003           6       32634           0
</event>
<event>
      6   9999  3.45752E-01  8.27112E+00 -1.00000E+00  1.96317E-01
       1    -1     0     0   501     0  0.000000000E+00  0.000000000E+00  3.369945523E+02  3.369945523E+02  0.000000000E+00  0.00000E+00  9.000E+00
      21    -1     0     0   502   503  0.000000000E+00  0.000000000E+00 -1.188741741E+03  1.188741741E+03  0.000000000E+00  0.00000E+00  9.000E+00
      25     1     1     2     0     0 -1.957811829E+00 -3.781876615E+01 -1.005315571E+03  1.013765146E+03  1.250051311E+02  0.00000E+00  9.000E+00
       5     1     1     2   501     0 -1.167857549E+01 -9.552672695E-01  2.789284900E+01  3.062474794E+01  4.750000000E+00  0.00000E+00  9.000E+00
      -5     1     1     2     0   503  6.768586456E+00  3.416482760E+01 -1.760411897E+02  1.795163284E+02  4.750000000E+00  0.00000E+00  9.000E+00
       1     1     1     2   502     0  6.867800864E+00  4.609205818E+00  3.017167222E+02  3.018300712E+02  0.000000000E+00  0.00000E+00  9.000E+00
#rwgt            1           9   3.4754667503065143E-005           6       33737           0
</event>
<event>
      6   9999  3.45752E-01  5.73307E+00 -1.00000E+00  2.16848E-01
      21    -1     0     0   501   502  0.000000000E+00  0.000000000E+00  1.485066430E+01  1.485066430E+01  0.000000000E+00  0.00000E+00  9.000E+00
      21    -1     0     0   502   511  0.000000000E+00  0.000000000E+00 -9.650145389E+02  9.650145389E+02  0.000000000E+00  0.00000E+00  9.000E+00
      25     1     1     2     0     0  1.063785617E+00 -4.732530806E+01 -4.824779948E+02  5.006506583E+02  1.250009992E+02  0.00000E+00  9.000E+00
       5     1     1     2   501     0  1.208941736E+00 -5.164740206E-01  2.800732595E+00  5.668764292E+00  4.750000000E+00  0.00000E+00  9.000E+00
      -5     1     1     2     0   503  3.430830265E+00  4.726086156E+01 -3.996065085E+02  4.024341980E+02  4.750000000E+00  0.00000E+00  9.000E+00
      21     1     1     2   503   511 -5.703557618E+00  5.809205134E-01 -7.088010401E+01  7.111158262E+01  1.651812370E-06  0.00000E+00  9.000E+00
#rwgt            1           9   6.1113761140383855E-003           6       37927           0
</event>
<event>
      6   9999  3.45752E-01  3.42887E+01 -1.00000E+00  1.44180E-01
      21    -1     0     0   501   502  0.000000000E+00  0.000000000E+00  3.631256012E+01  3.631256012E+01  0.000000000E+00  0.00000E+00  9.000E+00
      21    -1     0     0   512   503  0.000000000E+00  0.000000000E+00 -2.670527862E+03  2.670527862E+03  0.000000000E+00  0.00000E+00  9.000E+00
      25     1     1     2     0     0 -4.734587695E+01  9.021173852E+01 -3.309879648E+02  3.681828392E+02  1.250031217E+02  0.00000E+00  9.000E+00
       5     1     1     2   501     0 -3.465988061E-01  1.432580931E+00  1.555516674E+01  1.633089499E+01  4.750000000E+00  0.00000E+00  9.000E+00
      -5     1     1     2     0   503  6.108464348E+01 -6.007910330E+01 -1.968639473E+03  1.970508760E+03  4.750000000E+00  0.00000E+00  9.000E+00
      21     1     1     2   512   502 -1.339216773E+01 -3.156521615E+01 -3.501430305E+02  3.518179285E+02  3.814697266E-06  0.00000E+00  9.000E+00
#rwgt            1           9   2.8882549130357402E-003           6       42427           0
</event>
<event>
      6   9999  3.45752E-01  1.43753E+01 -1.00000E+00  1.71988E-01
      21    -1     0     0   501   502  0.000000000E+00  0.000000000E+00  2.262373070E+02  2.262373070E+02  0.000000000E+00  0.00000E+00  9.000E+00
      21    -1     0     0   511   503  0.000000000E+00  0.000000000E+00 -2.487749935E+02  2.487749935E+02  0.000000000E+00  0.00000E+00  9.000E+00
      25     1     1     2     0     0 -1.135012215E+01 -8.212722851E+00  2.728787437E+00  1.258036867E+02  1.249913886E+02  0.00000E+00  9.000E+00
       5     1     1     2   501     0 -3.040265210E+00 -4.860677547E+00  1.582044655E+02  1.583795593E+02  4.750000000E+00  0.00000E+00  9.000E+00
      -5     1     1     2     0   503  1.516865920E-01  1.109656164E+01 -7.372219118E+00  1.414456800E+01  4.750000000E+00  0.00000E+00  9.000E+00
      21     1     1     2   511   502  1.423870077E+01  1.976838753E+00 -1.760987203E+02  1.766844865E+02  0.000000000E+00  0.00000E+00  9.000E+00
#rwgt            1           9   31.942033209420639                6       44273           0
</event>
<event>
      6   9999  3.45752E-01  2.10754E+01 -1.00000E+00  1.58493E-01
      21    -1     0     0   512   503  0.000000000E+00  0.000000000E+00  3.221145267E+01  3.221145267E+01  0.000000000E+00  0.00000E+00  9.000E+00
      21    -1     0     0   501   502  0.000000000E+00  0.000000000E+00 -7.022306659E+02  7.022306659E+02  0.000000000E+00  0.00000E+00  9.000E+00
      25     1     1     2     0     0  4.348032215E+00 -2.215164921E+01 -6.343285690E+02  6.469201150E+02  1.249932031E+02  0.00000E+00  9.000E+00
       5     1     1     2   501     0 -2.192376748E+00  2.009314971E+00 -3.271519334E+01  3.319171942E+01  4.750000000E+00  0.00000E+00  9.000E+00
      -5     1     1     2     0   503  3.895134455E-01 -7.787760982E-01 -2.404748227E+01  2.452757869E+01  4.750000000E+00  0.00000E+00  9.000E+00
      21     1     1     2   512   502 -2.545168912E+00  2.092111033E+01  2.107203141E+01  2.980270542E+01  1.118282261E-06  0.00000E+00  9.000E+00
#rwgt            1           9   1.3362934355511784E-003           6       46963           0
</event>
<event>
      6   9999  3.45752E-01  2.36922E+01 -1.00000E+00  1.54790E-01
      21    -1     0     0   501   502  0.000000000E+00  0.000000000E+00  3.759814697E+01  3.759814697E+01  0.000000000E+00  0.00000E+00  9.000E+00
      21    -1     0     0   511   503  0.000000000E+00  0.000000000E+00 -1.101731914E+03  1.101731914E+03  0.000000000E+00  0.00000E+00  9.000E+00
      25     1     1     2     0     0 -1.356109072E+02 -6.949643486E+01 -3.819066854E+02  4.295549950E+02  1.242767265E+02  0.00000E+00  9.000E+00
       5     1     1     2   501     0 -1.458542648E+00 -2.548136749E-01  3.460527890E+00  6.060530500E+00  4.750000000E+00  0.00000E+00  9.000E+00
      -5     1     1     2     0   503  1.251092740E+02  4.929946791E+01 -5.797632442E+02  5.951728739E+02  4.750000000E+00  0.00000E+00  9.000E+00
      21     1     1     2   511   502  1.196017592E+01  2.045178063E+01 -1.059243653E+02  1.085416616E+02  0.000000000E+00  0.00000E+00  9.000E+00
#rwgt            1           9  0.15064004208552925                6       48937           0
</event>
<event>
      6   9999 -3.45752E-01  9.54675E+00 -1.00000E+00  1.89341E-01
      21    -1     0     0   512   502  0.000000000E+00  0.000000000E+00  1.733369874E+02  1.733369874E+02  0.000000000E+00  0.00000E+00  9.000E+00
      21    -1     0     0   502   503  0.000000000E+00  0.000000000E+00 -7.399431516E+02  7.399431516E+02  0.000000000E+00  0.00000E+00  9.000E+00
      25     1     1     2     0     0  1.045566408E+01  1.923467469E-01 -6.599217763E+02  6.717373338E+02  1.249997477E+02  0.00000E+00  9.000E+00
       5     1     1     2   501     0  1.095190269E+00 -1.541557991E+00 -7.993656119E-01  5.174681454E+00  4.750000000E+00  0.00000E+00  9.000E+00
      -5     1     1     2     0   503 -2.453615422E+00 -1.545714899E+00 -7.087951866E+01  7.109766613E+01  4.750000000E+00  0.00000E+00  9.000E+00
      21     1     1     2   512   501 -9.097238927E+00  2.894926143E+00  1.649944963E+02  1.652704576E+02  1.907348633E-06  0.00000E+00  9.000E+00
#rwgt            1           9  -1.5744507469068797E-003           6       50985           0
</event>
<event>
      6   9999  3.45752E-01  1.10672E+01 -1.00000E+00  1.82671E-01
      21    -1     0     0   501   502  0.000000000E+00  0.000000000E+00  3.843786201E+01  3.843786201E+01  0.000000000E+00  0.00000E+00  9.000E+00
      21    -1     0     0   502   511  0.000000000E+00  0.000000000E+00 -3.211222426E+03  3.211222426E+03  0.000000000E+00  0.00000E+00  9.000E+00
      25     1     1     2     0     0 -2.611870835E+01  9.150642049E+01 -2.427554217E+02  2.891545027E+02  1.249980791E+02  0.00000E+00  9.000E+00
       5     1     1     2   501     0 -4.558379645E+00 -7.955892498E-01  1.360981088E+01  1.513939363E+01  4.750000000E+00  0.00000E+00  9.000E+00
      -5     1     1     2     0   503  3.467538769E+01 -8.039109683E+01 -2.371266147E+03  2.372886599E+03  4.750000000E+00  0.00000E+00  9.000E+00
      21     1     1     2   503   511 -3.998299699E+00 -1.031973441E+01 -5.723728064E+02  5.724797925E+02  0.000000000E+00  0.00000E+00  9.000E+00
#rwgt            1           9   1.1257597749793622E-003           6       53553           0
</event>
<event>
      6   9999 -3.45752E-01  3.15990E+01 -1.00000E+00  1.46394E-01
       2    -1     0     0   502     0  0.000000000E+00  0.000000000E+00  7.865889585E+02  7.865889585E+02  0.000000000E+00  0.00000E+00  9.000E+00
      21    -1     0     0   501   502  0.000000000E+00  0.000000000E+00 -9.419610581E+02  9.419610581E+02  0.000000000E+00  0.00000E+00  9.000E+00
      25     1     1     2     0     0  7.699351959E+01  1.860168489E+01 -4.785802028E+02  5.009372228E+02  1.250002636E+02  0.00000E+00  9.000E+00
       5     1     1     2   501     0 -1.638019891E+00 -1.124712304E+01 -1.485926630E+02  1.491023906E+02  4.750000000E+00  0.00000E+00  9.000E+00
      -5     1     1     2     0   503 -7.317310209E+01 -3.887809160E+01 -2.973475050E+02  3.087133138E+02  4.750000000E+00  0.00000E+00  9.000E+00
       2     1     1     2   503     0 -2.182397616E+00  3.152352975E+01  7.691482712E+02  7.697970895E+02  1.078959322E-05  0.00000E+00  9.000E+00
#rwgt            1           9 -0.13330783292760859                6       58067           0
</event>
<event>
      6   9999  3.45752E-01  3.05162E+00 -1.00000E+00  2.74988E-01
      21    -1     0     0   511   502  0.000000000E+00  0.000000000E+00  6.595351001E+01  6.595351001E+01  0.000000000E+00  0.00000E+00  9.000E+00
      21    -1     0     0   502   503  0.000000000E+00  0.000000000E+00 -1.443398810E+03  1.443398810E+03  0.000000000E+00  0.00000E+00  9.000E+00
      25     1     1     2     0     0  2.172993319E+01  2.348517054E+01 -1.109839522E+03  1.117314721E+03  1.249987098E+02  0.00000E+00  9.000E+00
       5     1     1     2   501     0 -1.189165361E+01  7.426799347E+00  5.885452178E+01  6.068761000E+01  4.750000000E+00  0.00000E+00  9.000E+00
      -5     1     1     2     0   503 -6.884202524E+00 -3.014660052E+01 -3.267868016E+02  3.282809559E+02  4.750000000E+00  0.00000E+00  9.000E+00
      21     1     1     2   511   501 -2.954077054E+00 -7.653693702E-01  3.265019779E-01  3.069033245E+00  7.506251961E-08  0.00000E+00  9.000E+00
#rwgt            1           9   3.9252233424633253E-003           6       59521           0
</event>
<event>
      6   9999  3.45752E-01  4.19047E+00 -1.00000E+00  2.43741E-01
      21    -1     0     0   512   502  0.000000000E+00  0.000000000E+00  5.149701171E+01  5.149701171E+01  0.000000000E+00  0.00000E+00  9.000E+00
      21    -1     0     0   502   503  0.000000000E+00  0.000000000E+00 -7.490663243E+02  7.490663243E+02  0.000000000E+00  0.00000E+00  9.000E+00
      25     1     1     2     0     0  2.357955615E-01  9.537538499E+00 -4.951801337E+02  5.108025170E+02  1.249993053E+02  0.00000E+00  9.000E+00
       5     1     1     2   501     0 -9.167930731E-01 -2.624569741E-01 -2.641692924E+00  5.518191253E+00  4.750000000E+00  0.00000E+00  9.000E+00
      -5     1     1     2     0   503 -3.509464399E+00 -9.280360916E+00 -2.417657766E+02  2.420158975E+02  4.750000000E+00  0.00000E+00  9.000E+00
      21     1     1     2   512   501  4.190461911E+00  5.279390756E-03  4.201829060E+01  4.222673021E+01  2.477718555E-06  0.00000E+00  9.000E+00
#rwgt            1           9   3.0895466703283877E-003           6       69622           0
</event>
<event>
      6   9999  3.45752E-01  5.64758E+00 -1.00000E+00  2.17786E-01
      21    -1     0     0   501   511  0.000000000E+00  0.000000000E+00  2.595019981E+01  2.595019981E+01  0.000000000E+00  0.00000E+00  9.000E+00
      21    -1     0     0   502   503  0.000000000E+00  0.000000000E+00 -2.845087189E+02  2.845087189E+02  0.000000000E+00  0.00000E+00  9.000E+00
      25     1     1     2     0     0 -8.010040333E-01 -2.641351955E-01 -2.504936540E+02  2.799485196E+02  1.249935660E+02  0.00000E+00  9.000E+00
       5     1     1     2   501     0  6.458818103E-02  8.211695536E-01 -2.360334877E-01  4.826665814E+00  4.750000000E+00  0.00000E+00  9.000E+00
      -5     1     1     2     0   503  1.909467501E+00  4.967377683E+00 -1.496798915E+01  1.658083551E+01  4.750000000E+00  0.00000E+00  9.000E+00
      21     1     1     2   502   511 -1.173051648E+00 -5.524412041E+00  7.139157540E+00  9.102897833E+00  4.042583694E-07  0.00000E+00  9.000E+00
#rwgt            1           9   3.3714675251527840E-002           6       74420           0
</event>
<event>
      6   9999  3.45752E-01  6.35654E+01 -1.00000E+00  1.29436E-01
      -2    -1     0     0     0   512  0.000000000E+00  0.000000000E+00  3.437286957E+01  3.437286957E+01  0.000000000E+00  0.00000E+00  9.000E+00
       2    -1     0     0   501     0  0.000000000E+00  0.000000000E+00 -1.205225836E+03  1.205225836E+03  0.000000000E+00  0.00000E+00  9.000E+00
      25     1     1     2     0     0  6.183820832E+01 -5.762245686E+01 -3.210747146E+02  3.547635823E+02  1.249956617E+02  0.00000E+00  9.000E+00
       5     1     1     2   501     0  5.135747485E+01  2.859527824E+01 -5.307307807E+02  5.339971949E+02  4.750000000E+00  0.00000E+00  9.000E+00
      -5     1     1     2     0   502 -5.714011022E+01  5.899935811E+01 -1.736747536E+02  1.921754381E+02  4.750000000E+00  0.00000E+00  9.000E+00
      21     1     1     2   502   512 -5.605557295E+01 -2.997217950E+01 -1.453727174E+02  1.586624901E+02  0.000000000E+00  0.00000E+00  9.000E+00
#rwgt            1           3   2.8985359070522495E-003           6       77508           0
</event>
<event>
      6   9999  3.45752E-01  8.19213E+00 -1.00000E+00  1.96803E-01
      21    -1     0     0   511   502  0.000000000E+00  0.000000000E+00  3.987758192E+01  3.987758192E+01  0.000000000E+00  0.00000E+00  9.000E+00
      21    -1     0     0   502   503  0.000000000E+00  0.000000000E+00 -1.045575688E+03  1.045575688E+03  0.000000000E+00  0.00000E+00  9.000E+00
      25     1     1     2     0     0 -1.570998822E+01  1.018414265E+02 -4.242892034E+02  4.541639871E+02  1.250004767E+02  0.00000E+00  9.000E+00
       5     1     1     2   501     0  1.135344076E+00  1.095454711E-01  2.222573117E+00  5.366874104E+00  4.750000000E+00  0.00000E+00  9.000E+00
      -5     1     1     2     0   503  2.105224257E+01 -1.069661244E+02 -5.988115103E+02  6.086729303E+02  4.750000000E+00  0.00000E+00  9.000E+00
      21     1     1     2   511   501 -6.477598424E+00  5.015152386E+00  1.518003488E+01  1.724947807E+01  9.536743164E-07  0.00000E+00  9.000E+00
#rwgt            1           9   9.8304756585901234E-004           6       79185           0
</event>
<event>
      6   9999 -3.45752E-01  1.62519E+01 -1.00000E+00  1.67409E-01
      21    -1     0     0   501   502  0.000000000E+00  0.000000000E+00  1.816742423E+03  1.816742423E+03  0.000000000E+00  0.00000E+00  9.000E+00
      21    -1     0     0   502   512  0.000000000E+00  0.000000000E+00 -3.378234648E+01  3.378234648E+01  0.000000000E+00  0.00000E+00  9.000E+00
      25     1     1     2     0     0 -9.158092229E+01 -6.290158760E+01  2.999008428E+02  3.433779921E+02  1.249970195E+02  0.00000E+00  9.000E+00
       5     1     1     2   501     0  3.159062633E+00  2.467455554E-01  3.908243103E+02  3.908660187E+02  4.750000000E+00  0.00000E+00  9.000E+00
      -5     1     1     2     0   503  1.031356558E+02  5.575340077E+01  1.093687731E+03  1.099964009E+03  4.750000000E+00  0.00000E+00  9.000E+00
      21     1     1     2   503   512 -1.471379613E+01  6.901441274E+00 -1.452807260E+00  1.631675020E+01  9.654756607E-07  0.00000E+00  9.000E+00
#rwgt            1           9  -3.9430133546180128E-002           6       82936           0
</event>
<event>
      6   9999  3.45752E-01  1.19431E+01 -1.00000E+00  1.79420E-01
      21    -1     0     0   501   502  0.000000000E+00  0.000000000E+00  4.046385634E+01  4.046385634E+01  0.000000000E+00  0.00000E+00  9.000E+00
      21    -1     0     0   502   511  0.000000000E+00  0.000000000E+00 -1.648417555E+03  1.648417555E+03  0.000000000E+00  0.00000E+00  9.000E+00
      25     1     1     2     0     0 -1.641614960E+02  8.917764174E+01 -9.775892659E+02  1.003096375E+03  1.249796606E+02  0.00000E+00  9.000E+00
       5     1     1     2   501     0 -1.494289116E-01  7.892019266E-01  4.544185371E+00  6.622483626E+00  4.750000000E+00  0.00000E+00  9.000E+00
      -5     1     1     2     0   503  1.523719623E+02 -8.965108559E+01 -3.332707244E+02  3.772883118E+02  4.750000000E+00  0.00000E+00  9.000E+00
      21     1     1     2   503   511  1.193896260E+01 -3.157580715E-01 -3.016378942E+02  3.018742416E+02  3.814697266E-06  0.00000E+00  9.000E+00
#rwgt            1           9   7.1653310622275845E-004           6       85893           0
</event>
<event>
      6   9999  3.45752E-01  1.12102E+01 -1.00000E+00  1.82115E-01
      21    -1     0     0   502   503  0.000000000E+00  0.000000000E+00  4.023981740E+02  4.023981740E+02  0.000000000E+00  0.00000E+00  9.000E+00
      21    -1     0     0   501   512  0.000000000E+00  0.000000000E+00 -6.598617065E+01  6.598617065E+01  0.000000000E+00  0.00000E+00  9.000E+00
      25     1     1     2     0     0 -1.336258265E+01  2.420590063E+00  3.567472570E+02  3.782811875E+02  1.250745120E+02  0.00000E+00  9.000E+00
       5     1     1     2   501     0  8.268315028E-01 -2.116255341E-01  1.421544317E+01  1.501232028E+01  4.750000000E+00  0.00000E+00  9.000E+00
      -5     1     1     2     0   503  1.684172371E+00  6.039419329E-01  1.936648169E+01  2.002059678E+01  4.750000000E+00  0.00000E+00  9.000E+00
      21     1     1     2   502   512  1.085157877E+01 -2.812906462E+00 -5.391717853E+01  5.507024010E+01  1.348699152E-06  0.00000E+00  9.000E+00
#rwgt            1           9   8.6822214037492705E-003           6       89452           0
</event>
<event>
      6   9999 -3.45752E-01  4.12163E+00 -1.00000E+00  2.45188E-01
      21    -1     0     0   501   502  0.000000000E+00  0.000000000E+00  1.040097529E+01  1.040097529E+01  0.000000000E+00  0.00000E+00  9.000E+00
      21    -1     0     0   511   503  0.000000000E+00  0.000000000E+00 -1.269002943E+03  1.269002943E+03  0.000000000E+00  0.00000E+00  9.000E+00
      25     1     1     2     0     0 -1.160074093E+01  3.925557891E+00 -4.733448802E+02  4.897247681E+02  1.249999429E+02  0.00000E+00  9.000E+00
       5     1     1     2   501     0  4.822064794E-01  2.696203446E-01 -5.592645818E-01  4.814612663E+00  4.750000000E+00  0.00000E+00  9.000E+00
      -5     1     1     2     0   503  7.109401020E+00 -3.238777110E+00 -2.787114177E+02  2.788613456E+02  4.750000000E+00  0.00000E+00  9.000E+00
      21     1     1     2   511   502  4.009133429E+00 -9.564011252E-01 -5.059864053E+02  5.060031919E+02  0.000000000E+00  0.00000E+00  9.000E+00
#rwgt            1           9  -1.5635238342611463E-002           6       91069           0
</event>
<event>
      6   9999 -3.45752E-01  6.73430E+01 -1.00000E+00  1.28214E-01
      21    -1     0     0   501   512  0.000000000E+00  0.000000000E+00  1.296422282E+02  1.296422282E+02  0.000000000E+00  0.00000E+00  9.000E+00
      21    -1     0     0   502   503  0.000000000E+00  0.000000000E+00 -1.679146725E+03  1.679146725E+03  0.000000000E+00  0.00000E+00  9.000E+00
      25     1     1     2     0     0  2.183312308E+01  2.058636109E+02 -1.006781539E+02  2.619498268E+02  1.250004381E+02  0.00000E+00  9.000E+00
       5     1     1     2   501     0  4.781920818E+01 -1.025714816E+02 -3.758571679E+02  3.925541475E+02  4.750000000E+00  0.00000E+00  9.000E+00
      -5     1     1     2     0   503 -1.358923373E+02 -9.115381399E+01 -1.074525709E+03  1.086924012E+03  4.750000000E+00  0.00000E+00  9.000E+00
      21     1     1     2   502   512  6.624000603E+01 -1.213831533E+01  1.556534145E+00  6.736096716E+01  6.019774043E-07  0.00000E+00  9.000E+00
#rwgt            1           9  -1.2698435437077623E-003           6       95758           0
</event>
<event>
      6   9999 -3.45752E-01  1.95989E+01 -1.00000E+00  1.60885E-01
      21    -1     0     0   501   511  0.000000000E+00  0.000000000E+00  2.135247826E+01  2.135247826E+01  0.000000000E+00  0.00000E+00  9.000E+00
      21    -1     0     0   502   503  0.000000000E+00  0.000000000E+00 -9.673998893E+02  9.673998893E+02  0.000000000E+00  0.00000E+00  9.000E+00
      25     1     1     2     0     0  8.812877442E+00  1.357899821E+01 -8.594787907E+02  8.686702648E+02  1.249887251E+02  0.00000E+00  9.000E+00
       5     1     1     2   501     0  2.651519377E+00  1.013588221E+00  1.350801506E+01  1.459749591E+01  4.750000000E+00  0.00000E+00  9.000E+00
      -5     1     1     2     0   503  2.266876641E+00 -6.079240433E-01 -6.570177591E+01  6.591505260E+01  4.750000000E+00  0.00000E+00  9.000E+00
      21     1     1     2   502   511 -1.373127346E+01 -1.398466239E+01 -3.437485947E+01  3.956955416E+01  4.768371582E-07  0.00000E+00  9.000E+00
#rwgt            1           9  -9.0996040369800170E-004           6       97099           0
</event>
<event>
      6   9999 -3.45752E-01  7.30213E+00 -1.00000E+00  2.02827E-01
      21    -1     0     0   501   502  0.000000000E+00  0.000000000E+00  2.037809682E+02  2.037809682E+02  0.000000000E+00  0.00000E+00  9.000E+00
       1    -1     0     0   502     0  0.000000000E+00  0.000000000E+00 -9.793186793E+01  9.793186793E+01  0.000000000E+00  0.00000E+00  9.000E+00
      25     1     1     2     0     0 -6.191744246E+00  8.811812525E+00  7.001824873E+01  1.437323913E+02  1.250618224E+02  0.00000E+00  9.000E+00
       5     1     1     2   501     0 -3.081868975E+00 -4.735613846E-01  8.045883473E+01  8.065921375E+01  4.750000000E+00  0.00000E+00  9.000E+00
      -5     1     1     2     0   503  2.846601244E+00 -1.180445722E+01  1.348117016E+01  1.875507392E+01  4.750000000E+00  0.00000E+00  9.000E+00
       1     1     1     2   503     0  6.427011977E+00  3.466206078E+00 -5.810915333E+01  5.856615719E+01  1.348699152E-06  0.00000E+00  9.000E+00
#rwgt            1           9 -0.39431860450229023                6       98917           0
</event>
<event>
      6   9999  3.45752E-01  2.23228E+00 -1.00000E+00  3.15455E-01
       1    -1     0     0   501     0  0.000000000E+00  0.000000000E+00  1.009592187E+01  1.009592187E+01  0.000000000E+00  0.00000E+00  9.000E+00
      21    -1     0     0   502   503  0.000000000E+00  0.000000000E+00 -9.519270216E+02  9.519270216E+02  0.000000000E+00  0.00000E+00  9.000E+00
      25     1     1     2     0     0 -1.065707458E+01  1.201684449E+01 -7.505601313E+02  7.610418256E+02  1.248445911E+02  0.00000E+00  9.000E+00
       5     1     1     2   501     0  4.261122243E-01  2.704260804E-01 -4.613196023E+00  6.640691187E+00  4.750000000E+00  0.00000E+00  9.000E+00
      -5     1     1     2     0   503  1.219153355E+01 -1.121991264E+01 -1.897474664E+02  1.905286945E+02  4.750000000E+00  0.00000E+00  9.000E+00
       1     1     1     2   502     0 -1.960571197E+00 -1.067357929E+00  3.089694016E+00  3.811732084E+00  6.474721725E-07  0.00000E+00  9.000E+00
#rwgt            1           9   1.6269381314061204                6      101669           0
</event>
<event>
      6   9999 -3.45752E-01  3.28492E+01 -1.00000E+00  1.45334E-01
      21    -1     0     0   501   502  0.000000000E+00  0.000000000E+00  5.258338572E+02  5.258338572E+02  0.000000000E+00  0.00000E+00  9.000E+00
      21    -1     0     0   502   511  0.000000000E+00  0.000000000E+00 -8.648483542E+01  8.648483542E+01  0.000000000E+00  0.00000E+00  9.000E+00
      25     1     1     2     0     0  8.222685529E+01  1.000595952E+02  7.344082273E+01  1.943972738E+02  1.249942691E+02  0.00000E+00  9.000E+00
       5     1     1     2   501     0  3.662932777E+00  1.190463240E-01  1.698474026E+02  1.699533286E+02  4.750000000E+00  0.00000E+00  9.000E+00
      -5     1     1     2     0   503 -5.458928942E+01 -9.021132431E+01  1.855647128E+02  2.134827831E+02  4.750000000E+00  0.00000E+00  9.000E+00
      21     1     1     2   503   511 -3.130049865E+01 -9.967317252E+00  1.049608371E+01  3.448530704E+01  4.915124924E-07  0.00000E+00  9.000E+00
#rwgt            1           9 -0.30838886505753904                6      108221           0
</event>
<event>
      6   9999  3.45752E-01  9.92682E+00 -1.00000E+00  1.87530E-01
      21    -1     0     0   501   502  0.000000000E+00  0.000000000E+00  1.603024889E+01  1.603024889E+01  0.000000000E+00  0.00000E+00  9.000E+00
      21    -1     0     0   512   503  0.000000000E+00  0.000000000E+00 -9.660843213E+02  9.660843213E+02  0.000000000E+00  0.00000E+00  9.000E+00
      25     1     1     2     0     0  1.746185560E+01  1.426538469E+01 -8.672735887E+02  8.765251477E+02  1.249977571E+02  0.00000E+00  9.000E+00
       5     1     1     2   501     0 -1.390334279E+01 -1.873357620E+01 -2.866655263E+00  2.397978378E+01  4.750000000E+00  0.00000E+00  9.000E+00
      -5     1     1     2     0   503  1.654948382E+00 -3.979383884E+00 -2.525548458E+01  2.605717467E+01  4.750000000E+00  0.00000E+00  9.000E+00
      21     1     1     2   512   502 -5.213461189E+00  8.447575395E+00 -5.465834387E+01  5.555246405E+01  0.000000000E+00  0.00000E+00  9.000E+00
#rwgt            1           9  0.46546697506634821                6      109936           0
</event>
<event>
      6   9999  3.45752E-01  9.01656E+00 -1.00000E+00  1.92057E-01
       1    -1     0     0   501     0  0.000000000E+00  0.000000000E+00  2.724148314E+01  2.724148314E+01  0.000000000E+00  0.00000E+00  9.000E+00
      21    -1     0     0   502   503  0.000000000E+00  0.000000000E+00 -7.289076730E+02  7.289076730E+02  0.000000000E+00  0.00000E+00  9.000E+00
      25     1     1     2     0     0  2.598685485E+01  7.934132001E+00 -6.853287865E+02  6.971646159E+02  1.249987557E+02  0.00000E+00  9.000E+00
       5     1     1     2   501     0 -1.048860523E+00  1.076696559E+00  1.887085132E+00  5.327567379E+00  4.750000000E+00  0.00000E+00  9.000E+00
      -5     1     1     2     0   503 -2.304494452E+01 -1.952290642E-01 -3.043999148E+01  3.847418828E+01  4.750000000E+00  0.00000E+00  9.000E+00
       1     1     1     2   502     0 -1.893049811E+00 -8.815599496E+00  1.221550306E+01  1.518278456E+01  9.684608465E-07  0.00000E+00  9.000E+00
#rwgt            1           9   8.0368985414634080E-004           6      112477           0
</event>
<event>
      6   9999  3.45752E-01  2.55877E+01 -1.00000E+00  1.52451E-01
      21    -1     0     0   501   502  0.000000000E+00  0.000000000E+00  4.749807782E+01  4.749807782E+01  0.000000000E+00  0.00000E+00  9.000E+00
      21    -1     0     0   502   511  0.000000000E+00  0.000000000E+00 -1.066369423E+03  1.066369423E+03  0.000000000E+00  0.00000E+00  9.000E+00
      25     1     1     2     0     0 -6.450269277E+01  1.815325283E+01 -8.373015201E+02  8.492283917E+02  1.249995506E+02  0.00000E+00  9.000E+00
       5     1     1     2   501     0 -4.102869212E+00  4.829769540E+00  3.177073977E+01  3.274297811E+01  4.750000000E+00  0.00000E+00  9.000E+00
      -5     1     1     2     0   503  4.313121878E+01 -2.538891321E+01 -6.938370656E+01  8.568290485E+01  4.750000000E+00  0.00000E+00  9.000E+00
      21     1     1     2   503   511  2.547434320E+01  2.405890840E+00 -1.439568581E+02  1.462132260E+02  0.000000000E+00  0.00000E+00  9.000E+00
#rwgt            1           9  0.32085079778142889                6      115164           0
</event>
<event>
      6   9999  3.45752E-01  2.56601E+00 -1.00000E+00  2.95955E-01
      21    -1     0     0   501   502  0.000000000E+00  0.000000000E+00  2.052060167E+03  2.052060167E+03  0.000000000E+00  0.00000E+00  9.000E+00
      21    -1     0     0   502   512  0.000000000E+00  0.000000000E+00 -3.658649206E+00  3.658649206E+00  0.000000000E+00  0.00000E+00  9.000E+00
      25     1     1     2     0     0  1.959678316E+00 -4.761938899E+00  1.277500531E+03  1.283611944E+03  1.250020010E+02  0.00000E+00  9.000E+00
       5     1     1     2   501     0 -1.220171212E+00 -2.912269774E-01  6.960756543E+02  6.960929913E+02  4.750000000E+00  0.00000E+00  9.000E+00
      -5     1     1     2     0   503 -2.688473047E+00  6.722284549E+00  7.013498263E+01  7.066749808E+01  4.750000000E+00  0.00000E+00  9.000E+00
      21     1     1     2   503   512  1.948965943E+00 -1.669118672E+00  4.690350738E+00  5.346383398E+00  1.032382731E-07  0.00000E+00  9.000E+00
#rwgt            1           9   2.2016694912211654                6      117045           0
</event>
<event>
      6   9999  3.45752E-01  8.73669E+00 -1.00000E+00  1.93591E-01
      21    -1     0     0   501   502  0.000000000E+00  0.000000000E+00  1.621746963E+03  1.621746963E+03  0.000000000E+00  0.00000E+00  9.000E+00
      21    -1     0     0   511   503  0.000000000E+00  0.000000000E+00 -1.293965528E+01  1.293965528E+01  0.000000000E+00  0.00000E+00  9.000E+00
      25     1     1     2     0     0 -1.062304291E+01 -7.705581918E+00  1.194906385E+03  1.201485265E+03  1.248733305E+02  0.00000E+00  9.000E+00
       5     1     1     2   501     0 -6.569583794E-01 -2.095327565E-02  2.921718869E+02  2.922112353E+02  4.750000000E+00  0.00000E+00  9.000E+00
      -5     1     1     2     0   503  2.786963291E+00  5.677633919E+00  1.292320136E+02  1.294738527E+02  4.750000000E+00  0.00000E+00  9.000E+00
      21     1     1     2   511   502  8.493038000E+00  2.048901275E+00 -7.502977626E+00  1.151626520E+01  9.938080311E-07  0.00000E+00  9.000E+00
#rwgt            1           9  0.89493127087308111                6      123606           0
</event>
<event>
      6   9999  3.45752E-01  6.01374E+00 -1.00000E+00  2.13920E-01
      21    -1     0     0   501   502  0.000000000E+00  0.000000000E+00  1.535779941E+01  1.535779941E+01  0.000000000E+00  0.00000E+00  9.000E+00
      21    -1     0     0   502   512  0.000000000E+00  0.000000000E+00 -1.019742015E+03  1.019742015E+03  0.000000000E+00  0.00000E+00  9.000E+00
      25     1     1     2     0     0  1.166373296E+01  6.955637049E+00 -7.662000701E+02  7.764479929E+02  1.249980592E+02  0.00000E+00  9.000E+00
       5     1     1     2   501     0 -1.841955671E+00  2.323679538E+00  9.204066542E+00  1.077356154E+01  4.750000000E+00  0.00000E+00  9.000E+00
      -5     1     1     2     0   503 -4.192846307E+00 -7.162667237E+00 -1.540193133E+02  1.543158940E+02  4.750000000E+00  0.00000E+00  9.000E+00
      21     1     1     2   503   512 -5.628930981E+00 -2.116649350E+00 -9.336889840E+01  9.356236560E+01  0.000000000E+00  0.00000E+00  9.000E+00
#rwgt            1           9   3.8982370978089265E-005           6      125886           0
</event>
<event>
      6   9999  3.45752E-01  7.09053E+00 -1.00000E+00  2.04430E-01
      21    -1     0     0   511   502  0.000000000E+00  0.000000000E+00  2.533691908E+01  2.533691908E+01  0.000000000E+00  0.00000E+00  9.000E+00
      21    -1     0     0   502   503  0.000000000E+00  0.000000000E+00 -1.030478707E+03  1.030478707E+03  0.000000000E+00  0.00000E+00  9.000E+00
      25     1     1     2     0     0  2.302684462E+01 -2.882624919E+01 -8.595362223E+02  8.693660126E+02  1.250342282E+02  0.00000E+00  9.000E+00
       5     1     1     2   501     0  2.598421950E+00  2.069647293E+00  1.487512569E+01  1.596455764E+01  4.750000000E+00  0.00000E+00  9.000E+00
      -5     1     1     2     0   503 -1.979647196E+01  3.079401607E+01 -1.590162054E+02  1.632448707E+02  4.750000000E+00  0.00000E+00  9.000E+00
      21     1     1     2   511   501 -5.828794608E+00 -4.037414173E+00 -1.464485736E+00  7.240184960E+00  3.404515880E-07  0.00000E+00  9.000E+00
#rwgt            1           9   5.7893726413718019E-005           6      129817           0
</event>
<event>
      6   9999  3.45752E-01  1.28803E+01 -1.00000E+00  1.76312E-01
      21    -1     0     0   501   512  0.000000000E+00  0.000000000E+00  2.286516126E+01  2.286516126E+01  0.000000000E+00  0.00000E+00  9.000E+00
      21    -1     0     0   502   503  0.000000000E+00  0.000000000E+00 -7.271851741E+02  7.271851741E+02  0.000000000E+00  0.00000E+00  9.000E+00
      25     1     1     2     0     0 -6.546725767E+00 -2.986401575E+00 -6.640826987E+02  6.757823071E+02  1.249964709E+02  0.00000E+00  9.000E+00
       5     1     1     2   501     0  1.653567347E-01 -5.204533659E+00 -2.982853791E+01  3.064993780E+01  4.750000000E+00  0.00000E+00  9.000E+00
      -5     1     1     2     0   503  9.731485817E+00 -4.246046579E+00 -2.289428408E+01  2.567959250E+01  4.750000000E+00  0.00000E+00  9.000E+00
      21     1     1     2   502   512 -3.350116784E+00  1.243698181E+01  1.248550787E+01  1.793849787E+01  6.951036328E-07  0.00000E+00  9.000E+00
#rwgt            1           9  0.24510730427414509                6      133882           0
</event>
<event>
      6   9999  3.45752E-01  1.51721E+02 -1.00000E+00  1.13213E-01
      21    -1     0     0   501   502  0.000000000E+00  0.000000000E+00  2.346438342E+03  2.346438342E+03  0.000000000E+00  0.00000E+00  9.000E+00
      21    -1     0     0   502   511  0.000000000E+00  0.000000000E+00 -2.113085533E+02  2.113085533E+02  0.000000000E+00  0.00000E+00  9.000E+00
      25     1     1     2     0     0  1.476544802E+02 -2.543548864E+01  8.158192548E+02  8.388288341E+02  1.249957870E+02  0.00000E+00  9.000E+00
       5     1     1     2   501     0 -4.409559305E+00  9.689412343E+00  1.250852406E+03  1.250906724E+03  4.750000000E+00  0.00000E+00  9.000E+00
      -5     1     1     2     0   503 -8.247455753E+01 -1.232730298E+02  2.122475004E+02  2.589784865E+02  4.750000000E+00  0.00000E+00  9.000E+00
      21     1     1     2   503   511 -6.077036335E+01  1.390191060E+02 -1.437893726E+02  2.090328505E+02  3.814697266E-06  0.00000E+00  9.000E+00
#rwgt            1           9   2.3599007478680711E-004           6      135673           0
</event>
<event>
      6   9999  3.45752E-01  5.03659E+01 -1.00000E+00  1.34618E-01
      21    -1     0     0   512   502  0.000000000E+00  0.000000000E+00  9.427592523E+01  9.427592523E+01  0.000000000E+00  0.00000E+00  9.000E+00
      21    -1     0     0   502   503  0.000000000E+00  0.000000000E+00 -1.699556890E+02  1.699556890E+02  0.000000000E+00  0.00000E+00  9.000E+00
      25     1     1     2     0     0  2.401678422E+01  4.009239053E+01 -1.230940237E+02  1.815509423E+02  1.249976011E+02  0.00000E+00  9.000E+00
       5     1     1     2   501     0  3.994625728E+00  5.471712638E+00  1.082849879E+01  1.362774962E+01  4.750000000E+00  0.00000E+00  9.000E+00
      -5     1     1     2     0   503 -5.094797865E+00 -7.137900939E-01  3.579824448E-01  7.011213376E+00  4.750000000E+00  0.00000E+00  9.000E+00
      21     1     1     2   512   501 -2.291661208E+01 -4.485031308E+01  3.622777872E+01  6.204170890E+01  6.743495762E-07  0.00000E+00  9.000E+00
#rwgt            1           9   2.2557644811824498E-002           6      136203           0
</event>
<event>
      6   9999 -3.45752E-01  2.71948E+01 -1.00000E+00  1.50650E-01
      21    -1     0     0   511   503  0.000000000E+00  0.000000000E+00  9.165841119E+01  9.165841119E+01  0.000000000E+00  0.00000E+00  9.000E+00
      21    -1     0     0   501   502  0.000000000E+00  0.000000000E+00 -7.917510810E+02  7.917510810E+02  0.000000000E+00  0.00000E+00  9.000E+00
      25     1     1     2     0     0 -6.688730136E+00  2.690450361E+01 -6.094346119E+02  6.227394801E+02  1.250012896E+02  0.00000E+00  9.000E+00
       5     1     1     2   501     0  1.018343446E+01  2.131632247E+01 -1.092685228E+02  1.118939700E+02  4.750000000E+00  0.00000E+00  9.000E+00
      -5     1     1     2     0   503 -3.306745368E+00 -2.102662725E+01 -6.092983866E+01  6.471523281E+01  4.750000000E+00  0.00000E+00  9.000E+00
      21     1     1     2   511   502 -1.879589559E-01 -2.719419883E+01  7.954030356E+01  8.406080935E+01  0.000000000E+00  0.00000E+00  9.000E+00
#rwgt            1           9  -2.4000793217574302E-002           6      136955           0
</event>
<event>
      6   9999  3.45752E-01  1.50037E+01 -1.00000E+00  1.70362E-01
      21    -1     0     0   501   502  0.000000000E+00  0.000000000E+00  3.314684719E+00  3.314684719E+00  0.000000000E+00  0.00000E+00  9.000E+00
      21    -1     0     0   502   512  0.000000000E+00  0.000000000E+00 -2.397882209E+03  2.397882209E+03  0.000000000E+00  0.00000E+00  9.000E+00
      25     1     1     2     0     0  5.803769632E+00 -6.283611497E+00 -2.024876519E+03  2.028749153E+03  1.250001684E+02  0.00000E+00  9.000E+00
       5     1     1     2   501     0  7.036579440E-01  1.307848213E+00 -1.354576997E+01  1.443107707E+01  4.750000000E+00  0.00000E+00  9.000E+00
      -5     1     1     2     0   503  4.703890907E+00  1.494663605E+01 -9.200006315E+01  9.344572028E+01  4.750000000E+00  0.00000E+00  9.000E+00
      21     1     1     2   503   512 -1.121131848E+01 -9.970872764E+00 -2.641451722E+02  2.645709431E+02  3.814697266E-06  0.00000E+00  9.000E+00
#rwgt            1           9   4.2284296053272857E-005           6      137766           0
</event>
<event>
      6   9999  3.45752E-01  5.22468E+00 -1.00000E+00  2.22786E-01
      21    -1     0     0   501   502  0.000000000E+00  0.000000000E+00  9.650778194E+00  9.650778194E+00  0.000000000E+00  0.00000E+00  9.000E+00
      21    -1     0     0   511   503  0.000000000E+00  0.000000000E+00 -7.710335956E+02  7.710335956E+02  0.000000000E+00  0.00000E+00  9.000E+00
      25     1     1     2     0     0 -1.064504309E+01 -6.188434582E+00 -6.445861361E+02  6.567099122E+02  1.250000331E+02  0.00000E+00  9.000E+00
       5     1     1     2   501     0 -2.814401959E-01 -1.121025688E+00  1.012950270E+00  4.992441830E+00  4.750000000E+00  0.00000E+00  9.000E+00
      -5     1     1     2     0   503  5.764949477E+00  8.119292514E+00 -9.114910887E+01  9.181437851E+01  4.750000000E+00  0.00000E+00  9.000E+00
      21     1     1     2   511   502  5.161533813E+00 -8.098322430E-01 -2.666052279E+01  2.716764132E+01  4.768371582E-07  0.00000E+00  9.000E+00
#rwgt            1           9   1.1195879036735135E-002           6      139250           0
</event>
<event>
      6   9999 -3.45752E-01  1.99775E+01 -1.00000E+00  1.60248E-01
      21    -1     0     0   501   502  0.000000000E+00  0.000000000E+00  5.782683394E+01  5.782683394E+01  0.000000000E+00  0.00000E+00  9.000E+00
      21    -1     0     0   502   512  0.000000000E+00  0.000000000E+00 -1.840645036E+03  1.840645036E+03  0.000000000E+00  0.00000E+00  9.000E+00
      25     1     1     2     0     0  1.308101972E+02 -1.059195865E+02 -9.514804184E+02  9.743042165E+02  1.249938123E+02  0.00000E+00  9.000E+00
       5     1     1     2   501     0 -2.575453385E+00 -6.646256477E+00  2.237555473E+01  2.395899903E+01  4.750000000E+00  0.00000E+00  9.000E+00
      -5     1     1     2     0   503 -1.458116510E+02  1.030708545E+02 -3.228586687E+02  3.689782121E+02  4.750000000E+00  0.00000E+00  9.000E+00
      21     1     1     2   503   512  1.757690713E+01  9.494988472E+00 -5.308546694E+02  5.312304420E+02  0.000000000E+00  0.00000E+00  9.000E+00
#rwgt            1           9  -9.5184795602197367E-003           6      143092           0
</event>
<event>
      6   9999 -3.45752E-01  1.03821E+01 -1.00000E+00  1.85494E-01
       1    -1     0     0   501     0  0.000000000E+00  0.000000000E+00  3.092571552E+01  3.092571552E+01  0.000000000E+00  0.00000E+00  9.000E+00
      21    -1     0     0   502   503  0.000000000E+00  0.000000000E+00 -7.942663169E+02  7.942663169E+02  0.000000000E+00  0.00000E+00  9.000E+00
      25     1     1     2     0     0 -1.193977292E+01  4.199636484E+01 -5.325976325E+02  5.488081490E+02  1.249955738E+02  0.00000E+00  9.000E+00
       5     1     1     2   501     0  9.272200892E+00 -3.290279166E+01 -1.830439469E+02  1.862692041E+02  4.750000000E+00  0.00000E+00  9.000E+00
      -5     1     1     2     0   503  1.035125229E+01 -2.111507349E+00 -6.710964919E+01  6.810194125E+01  4.750000000E+00  0.00000E+00  9.000E+00
       1     1     1     2   502     0 -7.683680264E+00 -6.982065832E+00  1.941062721E+01  2.201273801E+01  1.283923342E-06  0.00000E+00  9.000E+00
#rwgt            1           9  -2.7809541768670369E-005           6      146175           0
</event>
<event>
      6   9999  3.45752E-01  2.26430E+01 -1.00000E+00  1.56202E-01
      21    -1     0     0   501   502  0.000000000E+00  0.000000000E+00  7.808926762E+02  7.808926762E+02  0.000000000E+00  0.00000E+00  9.000E+00
      21    -1     0     0   511   503  0.000000000E+00  0.000000000E+00 -6.782207231E+01  6.782207231E+01  0.000000000E+00  0.00000E+00  9.000E+00
      25     1     1     2     0     0  6.249030234E+01 -5.917574650E+01  3.776025580E+02  4.069588137E+02  1.249999094E+02  0.00000E+00  9.000E+00
       5     1     1     2   501     0  6.082297105E+00  6.185941238E-01  3.501117209E+02  3.501973110E+02  4.750000000E+00  0.00000E+00  9.000E+00
      -5     1     1     2     0   503 -5.201347044E+01  4.311369606E+01 -1.160448937E+01  6.871257940E+01  4.750000000E+00  0.00000E+00  9.000E+00
      21     1     1     2   511   502 -1.655912900E+01  1.544345632E+01 -3.039185682E+00  2.284604443E+01  3.397987560E-07  0.00000E+00  9.000E+00
#rwgt            1           9  0.11119687123591436                6      148785           0
</event>
<event>
      6   9999  3.45752E-01  1.71241E+01 -1.00000E+00  1.65533E-01
      21    -1     0     0   501   512  0.000000000E+00  0.000000000E+00  8.957543824E+01  8.957543824E+01  0.000000000E+00  0.00000E+00  9.000E+00
      21    -1     0     0   502   503  0.000000000E+00  0.000000000E+00 -3.111690754E+02  3.111690754E+02  0.000000000E+00  0.00000E+00  9.000E+00
      25     1     1     2     0     0  4.513335984E+00 -3.556209505E-02 -2.810829670E+02  3.076630567E+02  1.250142019E+02  0.00000E+00  9.000E+00
       5     1     1     2   501     0  2.623681376E-01 -4.123395599E+00  5.215120784E+01  5.252982208E+01  4.750000000E+00  0.00000E+00  9.000E+00
      -5     1     1     2     0   503 -1.537801198E+01 -9.288168114E+00 -5.236639648E+00  1.930642935E+01  4.750000000E+00  0.00000E+00  9.000E+00
      21     1     1     2   502   512  1.060230786E+01  1.344712581E+01  1.257476166E+01  2.124520546E+01  3.769728732E-07  0.00000E+00  9.000E+00
#rwgt            1           9   1.7243199659016174E-003           6      150824           0
</event>
<event>
      6   9999 -3.45752E-01  3.77904E+01 -1.00000E+00  1.41632E-01
      21    -1     0     0   501   502  0.000000000E+00  0.000000000E+00  2.154852345E+03  2.154852345E+03  0.000000000E+00  0.00000E+00  9.000E+00
      21    -1     0     0   502   511  0.000000000E+00  0.000000000E+00 -1.915437051E+01  1.915437051E+01  0.000000000E+00  0.00000E+00  9.000E+00
      25     1     1     2     0     0  3.726316041E+01  1.454146960E+00  4.093585463E+02  4.296399581E+02  1.250016662E+02  0.00000E+00  9.000E+00
       5     1     1     2   501     0 -9.163546766E+00  1.773343103E+00  8.714188076E+02  8.714817360E+02  4.750000000E+00  0.00000E+00  9.000E+00
      -5     1     1     2     0   503 -6.538306105E+01 -9.396499658E+00  8.158323474E+02  8.185158645E+02  4.750000000E+00  0.00000E+00  9.000E+00
      21     1     1     2   503   511  3.728344741E+01  6.169009595E+00  3.908827347E+01  5.436915719E+01  1.066240300E-06  0.00000E+00  9.000E+00
#rwgt            1           9  -2.7366973064435078E-004           6      153003           0
</event>
<event>
      6   9999  3.45752E-01  1.31834E+01 -1.00000E+00  1.75378E-01
      21    -1     0     0   501   502  0.000000000E+00  0.000000000E+00  1.012495452E+03  1.012495452E+03  0.000000000E+00  0.00000E+00  9.000E+00
      21    -1     0     0   512   503  0.000000000E+00  0.000000000E+00 -9.331841523E+01  9.331841523E+01  0.000000000E+00  0.00000E+00  9.000E+00
      25     1     1     2     0     0 -1.920209151E+01 -3.522247167E+00 -2.495283019E+01  1.289455616E+02  1.249927501E+02  0.00000E+00  9.000E+00
       5     1     1     2   501     0  2.803754380E+00  5.499146571E+00  9.522365437E+02  9.522683967E+02  4.750000000E+00  0.00000E+00  9.000E+00
      -5     1     1     2     0   503  3.529331023E+00  8.849000047E-01  3.588191373E+00  6.976879160E+00  4.750000000E+00  0.00000E+00  9.000E+00
      21     1     1     2   512   502  1.286900611E+01 -2.861799408E+00 -1.169486853E+01  1.762302936E+01  2.920019320E-07  0.00000E+00  9.000E+00
#rwgt            1           9   1.5242395310292756E-004           6      154226           0
</event>
<event>
      6   9999  3.45752E-01  2.85260E+01 -1.00000E+00  1.49267E-01
      21    -1     0     0   511   502  0.000000000E+00  0.000000000E+00  5.975080500E+01  5.975080500E+01  0.000000000E+00  0.00000E+00  9.000E+00
      21    -1     0     0   502   503  0.000000000E+00  0.000000000E+00 -7.928057379E+02  7.928057379E+02  0.000000000E+00  0.00000E+00  9.000E+00
      25     1     1     2     0     0  2.454506944E+01  1.666509917E+00 -7.464553175E+02  7.572497544E+02  1.250056471E+02  0.00000E+00  9.000E+00
       5     1     1     2   501     0  2.400066013E+00 -1.807731394E+00 -1.084182387E+01  1.221211917E+01  4.750000000E+00  0.00000E+00  9.000E+00
      -5     1     1     2     0   503  1.580476409E+00 -1.424743836E-02 -2.537375648E+01  2.586287158E+01  4.750000000E+00  0.00000E+00  9.000E+00
      21     1     1     2   511   501 -2.852561186E+01  1.554689157E-01  4.961596492E+01  5.723179778E+01  2.431401974E-06  0.00000E+00  9.000E+00
#rwgt            1           9   5.5472165150415673E-003           6      158070           0
</event>
<event>
      6   9999  3.45752E-01  7.47582E+00 -1.00000E+00  2.01565E-01
      21    -1     0     0   502   503  0.000000000E+00  0.000000000E+00  1.919930898E+01  1.919930898E+01  0.000000000E+00  0.00000E+00  9.000E+00
       2    -1     0     0   501     0  0.000000000E+00  0.000000000E+00 -2.993155854E+03  2.993155854E+03  0.000000000E+00  0.00000E+00  9.000E+00
      25     1     1     2     0     0  5.365750020E+01 -4.602471554E+01 -5.937636643E+02  6.108821616E+02  1.249972984E+02  0.00000E+00  9.000E+00
       5     1     1     2   501     0  3.012432718E+01 -2.535548892E+00 -1.102337850E+02  1.144025959E+02  4.750000000E+00  0.00000E+00  9.000E+00
      -5     1     1     2     0   503 -8.444027128E+01  4.111349889E+01 -2.500579124E+02  2.671553878E+02  4.750000000E+00  0.00000E+00  9.000E+00
       2     1     1     2   502     0  6.584438964E-01  7.446765542E+00 -2.019901183E+03  2.019915017E+03  2.157918644E-05  0.00000E+00  9.000E+00
#rwgt            1           9   4.5012135868248614E-002           6      159039           0
</event>
<event>
      6   9999  3.45752E-01  2.13908E+01 -1.00000E+00  1.58013E-01
      21    -1     0     0   501   502  0.000000000E+00  0.000000000E+00  7.798870279E+01  7.798870279E+01  0.000000000E+00  0.00000E+00  9.000E+00
      21    -1     0     0   511   503  0.000000000E+00  0.000000000E+00 -8.654296958E+02  8.654296958E+02  0.000000000E+00  0.00000E+00  9.000E+00
      25     1     1     2     0     0 -1.228593572E+02 -2.633661472E+01 -2.734604023E+02  3.258747466E+02  1.250028798E+02  0.00000E+00  9.000E+00
       5     1     1     2   501     0  6.112787673E+00 -3.753140188E+00  4.319500609E+01  4.404342500E+01  4.750000000E+00  0.00000E+00  9.000E+00
      -5     1     1     2     0   503  1.140142927E+02  8.874220745E+00 -4.720977876E+02  4.857745303E+02  4.750000000E+00  0.00000E+00  9.000E+00
      21     1     1     2   511   502  2.732276743E+00  2.121553416E+01 -8.507780927E+01  8.772569667E+01  0.000000000E+00  0.00000E+00  9.000E+00
#rwgt            1           9   1.4492260190339409E-003           6      162875           0
</event>
<event>
      6   9999  3.45752E-01  5.60002E+00 -1.00000E+00  2.18318E-01
      21    -1     0     0   501   512  0.000000000E+00  0.000000000E+00  2.264776474E+01  2.264776474E+01  0.000000000E+00  0.00000E+00  9.000E+00
      21    -1     0     0   502   503  0.000000000E+00  0.000000000E+00 -9.264005179E+02  9.264005179E+02  0.000000000E+00  0.00000E+00  9.000E+00
      25     1     1     2     0     0 -2.068324748E+01  3.503923882E+01 -8.575831317E+02  8.676004041E+02  1.250043534E+02  0.00000E+00  9.000E+00
       5     1     1     2   501     0  2.505315519E+01 -2.878174101E+01 -5.521800203E+01  6.728773625E+01  4.750000000E+00  0.00000E+00  9.000E+00
      -5     1     1     2     0   503 -1.994657862E+00 -1.186162191E+00  4.170986758E+00  6.733889757E+00  4.750000000E+00  0.00000E+00  9.000E+00
      21     1     1     2   502   512 -2.375249849E+00 -5.071335623E+00  4.877393820E+00  7.426252576E+00  6.391886052E-07  0.00000E+00  9.000E+00
#rwgt            1           9   1.1384570834280272E-002           6      165011           0
</event>
<event>
      6   9999  3.45752E-01  2.22014E+01 -1.00000E+00  1.56824E-01
      21    -1     0     0   501   502  0.000000000E+00  0.000000000E+00  1.067476980E+01  1.067476980E+01  0.000000000E+00  0.00000E+00  9.000E+00
      21    -1     0     0   502   511  0.000000000E+00  0.000000000E+00 -1.038920956E+03  1.038920956E+03  0.000000000E+00  0.00000E+00  9.000E+00
      25     1     1     2     0     0  5.534811084E+00  3.039224809E+01 -6.372927610E+02  6.501705487E+02  1.250014251E+02  0.00000E+00  9.000E+00
       5     1     1     2   501     0  1.271162798E+00  1.484862991E+00  6.450492515E-01  5.176800315E+00  4.750000000E+00  0.00000E+00  9.000E+00
      -5     1     1     2     0   503  9.196831274E+00 -1.648844251E+01 -1.048767400E+02  1.066683811E+02  4.750000000E+00  0.00000E+00  9.000E+00
      21     1     1     2   503   511 -1.600280516E+01 -1.538866858E+01 -2.867217343E+02  2.875799955E+02  3.814697266E-06  0.00000E+00  9.000E+00
#rwgt            1           9   2.4438650752650907E-004           6      169693           0
</event>
<event>
      6   9999  3.45752E-01  2.83900E+01 -1.00000E+00  1.49404E-01
       2    -1     0     0   501     0  0.000000000E+00  0.000000000E+00  4.598083332E+02  4.598083332E+02  0.000000000E+00  0.00000E+00  9.000E+00
      21    -1     0     0   502   503  0.000000000E+00  0.000000000E+00 -1.534089044E+03  1.534089044E+03  0.000000000E+00  0.00000E+00  9.000E+00
      25     1     1     2     0     0 -9.942409289E+01  4.556478486E+01 -2.576508114E+02  3.065309638E+02  1.249639599E+02  0.00000E+00  9.000E+00
       5     1     1     2   501     0  1.682076609E+01  5.063599348E-01  4.860128927E+01  5.165116060E+01  4.750000000E+00  0.00000E+00  9.000E+00
      -5     1     1     2     0   503  1.089124204E+02 -3.540230661E+01 -1.247318913E+03  1.252574258E+03  4.750000000E+00  0.00000E+00  9.000E+00
       2     1     1     2   502     0 -2.630909361E+01 -1.066883819E+01  3.820877245E+02  3.831409946E+02  9.344061824E-06  0.00000E+00  9.000E+00
#rwgt            1           9   9.7332945851291155E-004           6      171241           0
</event>
<event>
      6   9999 -3.45752E-01  1.22177E+01 -1.00000E+00  1.78474E-01
      21    -1     0     0   501   502  0.000000000E+00  0.000000000E+00  9.503050420E+00  9.503050420E+00  0.000000000E+00  0.00000E+00  9.000E+00
       2    -1     0     0   502     0  0.000000000E+00  0.000000000E+00 -1.502227209E+03  1.502227209E+03  0.000000000E+00  0.00000E+00  9.000E+00
      25     1     1     2     0     0  7.551397862E+00  7.296430711E+00 -5.680964713E+02  5.817801473E+02  1.249971106E+02  0.00000E+00  9.000E+00
       5     1     1     2   501     0 -1.516925331E+01 -4.348446547E+00 -3.088095682E+01  3.500301740E+01  4.750000000E+00  0.00000E+00  9.000E+00
      -5     1     1     2     0   503  1.141666924E+01 -1.456004780E+01 -1.656361660E+02  1.667340316E+02  4.750000000E+00  0.00000E+00  9.000E+00
       2     1     1     2   503     0 -3.798813789E+00  1.161206364E+01 -7.281105643E+02  7.282130628E+02  1.078959322E-05  0.00000E+00  9.000E+00
#rwgt            1           9  -8.2618971764042795E-004           6      173481           0
</event>
<event>
      6   9999  3.45752E-01  1.45972E+01 -1.00000E+00  1.71402E-01
      21    -1     0     0   511   502  0.000000000E+00  0.000000000E+00  1.114485141E+02  1.114485141E+02  0.000000000E+00  0.00000E+00  9.000E+00
      21    -1     0     0   502   503  0.000000000E+00  0.000000000E+00 -1.638693059E+03  1.638693059E+03  0.000000000E+00  0.00000E+00  9.000E+00
      25     1     1     2     0     0 -6.351111631E+01  3.920847817E+01 -1.294025048E+03  1.302189184E+03  1.249995194E+02  0.00000E+00  9.000E+00
       5     1     1     2   501     0  1.170940826E+01 -6.666801575E+00  1.015092913E+02  1.025097810E+02  4.750000000E+00  0.00000E+00  9.000E+00
      -5     1     1     2     0   503  3.863964214E+01 -2.623003366E+01 -3.238577121E+02  3.272421379E+02  4.750000000E+00  0.00000E+00  9.000E+00
      21     1     1     2   511   501  1.316206591E+01 -6.311642934E+00 -1.087107608E+01  1.820047007E+01  1.685873940E-07  0.00000E+00  9.000E+00
#rwgt            1           9   1.5715016733037256E-004           6      176012           0
</event>
<event>
      6   9999  3.45752E-01  3.46858E+02 -1.00000E+00  1.01215E-01
      21    -1     0     0   512   502  0.000000000E+00  0.000000000E+00  2.426068986E+02  2.426068986E+02  0.000000000E+00  0.00000E+00  9.000E+00
      21    -1     0     0   502   503  0.000000000E+00  0.000000000E+00 -2.626966460E+03  2.626966460E+03  0.000000000E+00  0.00000E+00  9.000E+00
      25     1     1     2     0     0  3.440531644E+02 -7.217706444E+01 -1.719451240E+03  1.759465460E+03  1.249961166E+02  0.00000E+00  9.000E+00
       5     1     1     2   501     0  1.461932556E+01  5.848318220E+01 -5.131786176E+02  5.167290038E+02  4.750000000E+00  0.00000E+00  9.000E+00
      -5     1     1     2     0   503 -1.240503374E+01 -6.537341413E+00 -2.359731711E+02  2.364371410E+02  4.750000000E+00  0.00000E+00  9.000E+00
      21     1     1     2   512   501 -3.462674562E+02  2.023122366E+01  8.424346760E+01  3.569417536E+02  1.040335857E-05  0.00000E+00  9.000E+00
#rwgt            1           9   1.3442138771799759E-004           6      180002           0
</event>
<event>
      6   9999  3.45752E-01  2.01340E+01 -1.00000E+00  1.59989E-01
      21    -1     0     0   511   502  0.000000000E+00  0.000000000E+00  1.269694054E+02  1.269694054E+02  0.000000000E+00  0.00000E+00  9.000E+00
      21    -1     0     0   502   503  0.000000000E+00  0.000000000E+00 -7.530405041E+02  7.530405041E+02  0.000000000E+00  0.00000E+00  9.000E+00
      25     1     1     2     0     0 -1.054819184E+01  8.370665265E+00 -6.717165688E+02  6.833815504E+02  1.250034489E+02  0.00000E+00  9.000E+00
       5     1     1     2   501     0  4.618895312E+00  6.681781125E+00 -6.052483446E+00  1.118818344E+01  4.750000000E+00  0.00000E+00  9.000E+00
      -5     1     1     2     0   503 -2.875137660E+00  3.054463548E+00 -6.586320218E+01  6.616736405E+01  4.750000000E+00  0.00000E+00  9.000E+00
      21     1     1     2   511   501  8.804434191E+00 -1.810690994E+01  1.175611558E+02  1.192728116E+02  2.697398305E-06  0.00000E+00  9.000E+00
#rwgt            1           9   4.2084865144822317E-005           6      180230           0
</event>
<event>
      6   9999 -3.45752E-01  5.55791E+00 -1.00000E+00  2.18795E-01
      21    -1     0     0   512   502  0.000000000E+00  0.000000000E+00  3.186232653E+02  3.186232653E+02  0.000000000E+00  0.00000E+00  9.000E+00
      21    -1     0     0   502   503  0.000000000E+00  0.000000000E+00 -1.124875859E+03  1.124875859E+03  0.000000000E+00  0.00000E+00  9.000E+00
      25     1     1     2     0     0 -4.544979187E+01 -7.442526017E-01 -1.047200685E+03  1.055613867E+03  1.250004942E+02  0.00000E+00  9.000E+00
       5     1     1     2   501     0 -3.020033259E+00 -3.766030515E-01  1.868358534E+01  1.951669265E+01  4.750000000E+00  0.00000E+00  9.000E+00
      -5     1     1     2     0   503  4.314337565E+01  2.708096074E+00 -6.655066245E+01  7.949992339E+01  4.750000000E+00  0.00000E+00  9.000E+00
      21     1     1     2   512   501  5.326449471E+00 -1.587240421E+00  2.888151685E+02  2.888686413E+02  5.394796609E-06  0.00000E+00  9.000E+00
#rwgt            1           9  -9.5190409562782467E-005           6      181245           0
</event>
<event>
      6   9999 -3.45752E-01  1.37581E+01 -1.00000E+00  1.73690E-01
      21    -1     0     0   501   502  0.000000000E+00  0.000000000E+00  1.530363702E+01  1.530363702E+01  0.000000000E+00  0.00000E+00  9.000E+00
      21    -1     0     0   511   503  0.000000000E+00  0.000000000E+00 -9.820681683E+02  9.820681683E+02  0.000000000E+00  0.00000E+00  9.000E+00
      25     1     1     2     0     0  3.128145492E+01  6.029724458E+01 -6.924068603E+02  7.068725247E+02  1.250088751E+02  0.00000E+00  9.000E+00
       5     1     1     2   501     0  8.311934754E-01 -1.559047667E-01  1.062338749E+00  4.940268465E+00  4.750000000E+00  0.00000E+00  9.000E+00
      -5     1     1     2     0   503 -2.247791971E+01 -5.032003441E+01 -1.593869639E+02  1.687131574E+02  4.750000000E+00  0.00000E+00  9.000E+00
      21     1     1     2   511   502 -9.634728691E+00 -9.821305404E+00 -1.160330459E+02  1.168458547E+02  2.336015456E-06  0.00000E+00  9.000E+00
#rwgt            1           9  -1.1457081553722229E-004           6      186598           0
</event>
<event>
      6   9999  3.45752E-01  2.36621E+01 -1.00000E+00  1.54830E-01
      21    -1     0     0   501   502  0.000000000E+00  0.000000000E+00  2.760604582E+01  2.760604582E+01  0.000000000E+00  0.00000E+00  9.000E+00
       2    -1     0     0   502     0  0.000000000E+00  0.000000000E+00 -1.364032832E+03  1.364032832E+03  0.000000000E+00  0.00000E+00  9.000E+00
      25     1     1     2     0     0 -1.023307741E+00  8.143256327E+01 -9.249969495E+02  9.369501260E+02  1.249954896E+02  0.00000E+00  9.000E+00
       5     1     1     2   501     0  8.573014462E+00  4.965139866E+00  9.816027627E+00  1.473316291E+01  4.750000000E+00  0.00000E+00  9.000E+00
      -5     1     1     2     0   503  1.206112529E+01 -7.315726906E+01 -1.471741787E+02  1.648643628E+02  4.750000000E+00  0.00000E+00  9.000E+00
       2     1     1     2   503     0 -1.961083201E+01 -1.324043407E+01 -2.740716852E+02  2.750912257E+02  3.814697266E-06  0.00000E+00  9.000E+00
#rwgt            1           9   2.1984056017380834E-004           6      188968           0
</event>
<event>
      6   9999  3.45752E-01  4.33266E+01 -1.00000E+00  1.38203E-01
      -2    -1     0     0     0   502  0.000000000E+00  0.000000000E+00  7.255671535E+01  7.255671535E+01  0.000000000E+00  0.00000E+00  9.000E+00
       2    -1     0     0   511     0  0.000000000E+00  0.000000000E+00 -1.557961125E+03  1.557961125E+03  0.000000000E+00  0.00000E+00  9.000E+00
      25     1     1     2     0     0  2.109240630E+02  3.855531591E+01 -3.243726971E+02  4.084355765E+02  1.250060030E+02  0.00000E+00  9.000E+00
       5     1     1     2   501     0 -1.357044653E+02  9.616050940E+01 -5.982907926E+02  6.209967637E+02  4.750000000E+00  0.00000E+00  9.000E+00
      -5     1     1     2     0   502 -4.041263275E+01 -1.605163645E+02 -4.061292866E+02  4.385912038E+02  4.750000000E+00  0.00000E+00  9.000E+00
      21     1     1     2   511   501 -3.480696497E+01  2.580053917E+01 -1.566116330E+02  1.624942960E+02  0.000000000E+00  0.00000E+00  9.000E+00
#rwgt            1           3   2.2498160202487568E-006           6      191038           0
</event>
<event>
      6   9999  3.45752E-01  2.80979E+01 -1.00000E+00  1.49702E-01
      21    -1     0     0   501   502  0.000000000E+00  0.000000000E+00  8.740616517E+01  8.740616517E+01  0.000000000E+00  0.00000E+00  9.000E+00
      21    -1     0     0   512   503  0.000000000E+00  0.000000000E+00 -1.087824584E+03  1.087824584E+03  0.000000000E+00  0.00000E+00  9.000E+00
      25     1     1     2     0     0 -5.712448587E+01  3.504651900E+01 -5.270253988E+02  5.457769767E+02  1.250010880E+02  0.00000E+00  9.000E+00
       5     1     1     2   501     0  2.416203502E+00 -1.555732059E+00  7.257818814E+01  7.279020700E+01  4.750000000E+00  0.00000E+00  9.000E+00
      -5     1     1     2     0   503  6.240557794E+01 -6.467740614E+00 -4.901262076E+02  4.941483074E+02  4.750000000E+00  0.00000E+00  9.000E+00
      21     1     1     2   512   502 -7.697295566E+00 -2.702304633E+01 -5.584500042E+01  6.251525785E+01  1.348699152E-06  0.00000E+00  9.000E+00
#rwgt            1           9   1.5948946241026569E-004           6      194053           0
</event>
<event>
      6   9999  3.45752E-01  9.71662E+00 -1.00000E+00  1.88518E-01
      21    -1     0     0   501   511  0.000000000E+00  0.000000000E+00  5.693478578E+01  5.693478578E+01  0.000000000E+00  0.00000E+00  9.000E+00
      21    -1     0     0   502   503  0.000000000E+00  0.000000000E+00 -1.009070535E+03  1.009070535E+03  0.000000000E+00  0.00000E+00  9.000E+00
      25     1     1     2     0     0  6.263681597E+01  2.075139137E+01 -1.191651867E+02  1.848722336E+02  1.249936402E+02  0.00000E+00  9.000E+00
       5     1     1     2   501     0 -9.173246839E-01  2.453943382E+00  1.810043259E+01  1.889580595E+01  4.750000000E+00  0.00000E+00  9.000E+00
      -5     1     1     2     0   503 -5.459601122E+01 -2.981356972E+01 -8.501953949E+02  8.524812874E+02  4.750000000E+00  0.00000E+00  9.000E+00
      21     1     1     2   502   511 -7.123480073E+00  6.608234967E+00 -8.756001826E-01  9.755993717E+00  2.789742533E-07  0.00000E+00  9.000E+00
#rwgt            1           9   9.4871387571658340E-005           6      195905           0
</event>
<event>
      6   9999  3.45752E-01  9.02627E+00 -1.00000E+00  1.92005E-01
      21    -1     0     0   501   502  0.000000000E+00  0.000000000E+00  1.114206685E+01  1.114206685E+01  0.000000000E+00  0.00000E+00  9.000E+00
      21    -1     0     0   502   512  0.000000000E+00  0.000000000E+00 -1.130159441E+03  1.130159441E+03  0.000000000E+00  0.00000E+00  9.000E+00
      25     1     1     2     0     0 -2.223391572E+00 -8.447649023E+00 -7.334311640E+02  7.440595348E+02  1.250080504E+02  0.00000E+00  9.000E+00
       5     1     1     2   501     0  1.853752335E+00 -2.882578912E+00  4.067131375E+00  7.130898718E+00  4.750000000E+00  0.00000E+00  9.000E+00
      -5     1     1     2     0   503  2.469498623E+00  2.551611351E+00 -5.199811579E+01  5.233522417E+01  4.750000000E+00  0.00000E+00  9.000E+00
      21     1     1     2   503   512 -2.099859385E+00  8.778616584E+00 -3.376552256E+02  3.377758501E+02  6.607249480E-06  0.00000E+00  9.000E+00
#rwgt            1           9   2.6282624814331906E-004           6      199824           0
</event>
<event>
      6   9999  3.45752E-01  1.03240E+01 -1.00000E+00  1.85747E-01
      21    -1     0     0   501   511  0.000000000E+00  0.000000000E+00  3.652362464E+01  3.652362464E+01  0.000000000E+00  0.00000E+00  9.000E+00
      21    -1     0     0   502   503  0.000000000E+00  0.000000000E+00 -7.546112485E+02  7.546112485E+02  0.000000000E+00  0.00000E+00  9.000E+00
      25     1     1     2     0     0 -1.563113750E+00  2.617812813E+01 -4.531558374E+02  4.708104837E+02  1.249982437E+02  0.00000E+00  9.000E+00
       5     1     1     2   501     0 -9.690491127E+00 -1.528357230E+01 -2.426343181E+02  2.433546137E+02  4.750000000E+00  0.00000E+00  9.000E+00
      -5     1     1     2     0   503  5.079281312E+00 -2.620398869E+00 -4.836483217E+01  4.893245426E+01  4.750000000E+00  0.00000E+00  9.000E+00
      21     1     1     2   502   511  6.174323566E+00 -8.274156959E+00  2.606736373E+01  2.803732149E+01  1.784161275E-06  0.00000E+00  9.000E+00
#rwgt            1           9   3.0869834329109210E-004           6      202676           0
</event>
<event>
      6   9999  3.45752E-01  7.46644E+00 -1.00000E+00  2.01632E-01
      21    -1     0     0   502   503  0.000000000E+00  0.000000000E+00  8.901779267E+00  8.901779267E+00  0.000000000E+00  0.00000E+00  9.000E+00
      21    -1     0     0   501   512  0.000000000E+00  0.000000000E+00 -1.470149173E+03  1.470149173E+03  0.000000000E+00  0.00000E+00  9.000E+00
      25     1     1     2     0     0  2.833749198E+01  1.603216644E+01 -5.525272390E+02  5.674254604E+02  1.250010379E+02  0.00000E+00  9.000E+00
       5     1     1     2   501     0 -1.031614835E+01 -3.864347201E+00 -5.667123024E+01  5.792708290E+01  4.750000000E+00  0.00000E+00  9.000E+00
      -5     1     1     2     0   503 -1.365388788E+01 -6.111990863E+00 -7.552848009E+01  7.714206953E+01  4.750000000E+00  0.00000E+00  9.000E+00
      21     1     1     2   502   512 -4.367455748E+00 -6.055828370E+00 -7.765204439E+02  7.765563390E+02  1.078959322E-05  0.00000E+00  9.000E+00
#rwgt            1           9   4.1629800681314067E-005           6      205389           0
</event>
<event>
      6   9999  3.45752E-01  8.28204E+00 -1.00000E+00  1.96250E-01
      21    -1     0     0   501   511  0.000000000E+00  0.000000000E+00  6.790938405E+01  6.790938405E+01  0.000000000E+00  0.00000E+00  9.000E+00
      21    -1     0     0   502   503  0.000000000E+00  0.000000000E+00 -1.126105792E+02  1.126105792E+02  0.000000000E+00  0.00000E+00  9.000E+00
      25     1     1     2     0     0  1.113531373E+00  6.996630553E+00 -4.212233530E+01  1.321019306E+02  1.250057444E+02  0.00000E+00  9.000E+00
       5     1     1     2   501     0 -6.890042751E+00 -7.607072867E+00 -3.113863322E-02  1.130945252E+01  4.750000000E+00  0.00000E+00  9.000E+00
      -5     1     1     2     0   503  5.227543476E+00 -7.653383700E+00 -1.729859228E+01  2.019171335E+01  4.750000000E+00  0.00000E+00  9.000E+00
      21     1     1     2   502   511  5.489679019E-01  8.263826015E+00  1.475087104E+01  1.691686681E+01  2.920019320E-07  0.00000E+00  9.000E+00
#rwgt            1           9   14197.600540668152                6      207992           0
</event>
<event>
      6   9999 -3.45752E-01  2.36676E+01 -1.00000E+00  1.54822E-01
      21    -1     0     0   512   502  0.000000000E+00  0.000000000E+00  4.119471604E+01  4.119471604E+01  0.000000000E+00  0.00000E+00  9.000E+00
      21    -1     0     0   502   503  0.000000000E+00  0.000000000E+00 -1.082914757E+03  1.082914757E+03  0.000000000E+00  0.00000E+00  9.000E+00
      25     1     1     2     0     0  1.883310241E+01 -3.453134472E+01 -2.179293706E+02  2.542938580E+02  1.250002246E+02  0.00000E+00  9.000E+00
       5     1     1     2   501     0 -2.982415764E-01 -2.281043759E+00  6.693974404E+00  8.524312406E+00  4.750000000E+00  0.00000E+00  9.000E+00
      -5     1     1     2     0   503 -1.311944054E+01  1.377268161E+01 -8.366133804E+02  8.368430661E+02  4.750000000E+00  0.00000E+00  9.000E+00
      21     1     1     2   512   501 -5.415420297E+00  2.303970687E+01  6.128735622E+00  2.444823654E+01  8.554875907E-07  0.00000E+00  9.000E+00
#rwgt            1           9  -7.9795583690434359E-003           6      210130           0
</event>
<event>
      6   9999  3.45752E-01  7.04842E+00 -1.00000E+00  2.04758E-01
      21    -1     0     0   501   502  0.000000000E+00  0.000000000E+00  1.391871588E+01  1.391871588E+01  0.000000000E+00  0.00000E+00  9.000E+00
      21    -1     0     0   502   511  0.000000000E+00  0.000000000E+00 -9.378708335E+02  9.378708335E+02  0.000000000E+00  0.00000E+00  9.000E+00
      25     1     1     2     0     0  2.786963437E+00  4.983341410E+00 -7.699485943E+02  7.800504679E+02  1.250011750E+02  0.00000E+00  9.000E+00
       5     1     1     2   501     0  8.567325885E-01 -2.264221648E+00  7.703012697E+00  9.368009128E+00  4.750000000E+00  0.00000E+00  9.000E+00
      -5     1     1     2     0   503  2.731604586E+00  2.868250566E-01 -3.153050658E+01  3.200436341E+01  4.750000000E+00  0.00000E+00  9.000E+00
      21     1     1     2   503   511 -6.375300611E+00 -3.005944819E+00 -1.301760294E+02  1.303667089E+02  3.303624740E-06  0.00000E+00  9.000E+00
#rwgt            1           9   2.3654352923095152E-004           6      212018           0
</event>
<event>
      6   9999  3.45752E-01  2.05479E+01 -1.00000E+00  1.59320E-01
      21    -1     0     0   501   502  0.000000000E+00  0.000000000E+00  1.729718558E+01  1.729718558E+01  0.000000000E+00  0.00000E+00  9.000E+00
      21    -1     0     0   512   503  0.000000000E+00  0.000000000E+00 -1.512439207E+03  1.512439207E+03  0.000000000E+00  0.00000E+00  9.000E+00
      25     1     1     2     0     0 -4.837972836E+01  1.735939252E+01 -8.060288809E+02  8.172812099E+02  1.249962902E+02  0.00000E+00  9.000E+00
       5     1     1     2   501     0  2.682528414E-01 -1.000036049E+00  7.191288665E-01  4.914435676E+00  4.750000000E+00  0.00000E+00  9.000E+00
      -5     1     1     2     0   503  5.582371657E+01 -3.540500910E+01 -1.179885865E+02  1.353280128E+02  4.750000000E+00  0.00000E+00  9.000E+00
      21     1     1     2   512   502 -7.712241053E+00  1.904565262E+01 -5.718436831E+02  5.722127344E+02  0.000000000E+00  0.00000E+00  9.000E+00
#rwgt            1           9   8.4764114536143784E-005           6      215431           0
</event>
<event>
      6   9999 -3.45752E-01  6.05381E+00 -1.00000E+00  2.13519E-01
      21    -1     0     0   501   511  0.000000000E+00  0.000000000E+00  1.176078311E+01  1.176078311E+01  0.000000000E+00  0.00000E+00  9.000E+00
      21    -1     0     0   502   503  0.000000000E+00  0.000000000E+00 -8.009449932E+02  8.009449932E+02  0.000000000E+00  0.00000E+00  9.000E+00
      25     1     1     2     0     0 -4.520522756E+00  1.915954380E+00 -7.089675789E+02  7.199195044E+02  1.249998355E+02  0.00000E+00  9.000E+00
       5     1     1     2   501     0  8.110169775E-01  1.644426149E+00  4.462342941E+00  6.770294707E+00  4.750000000E+00  0.00000E+00  9.000E+00
      -5     1     1     2     0   503 -1.926255259E+00 -1.349759324E+00 -6.908652760E+01  6.928955986E+01  4.750000000E+00  0.00000E+00  9.000E+00
      21     1     1     2   502   511  5.635761037E+00 -2.210621204E+00 -1.559244647E+01  1.672641729E+01  3.371747881E-07  0.00000E+00  9.000E+00
#rwgt            1           9  -1.1738012191896715E-002           6      217146           0
</event>
<event>
      6   9999  3.45752E-01  9.72406E+00 -1.00000E+00  1.88483E-01
      21    -1     0     0   512   503  0.000000000E+00  0.000000000E+00  1.094980943E+01  1.094980943E+01  0.000000000E+00  0.00000E+00  9.000E+00
      21    -1     0     0   501   502  0.000000000E+00  0.000000000E+00 -7.475667165E+02  7.475667165E+02  0.000000000E+00  0.00000E+00  9.000E+00
      25     1     1     2     0     0  6.491843216E+00  1.676115308E+01 -5.992531478E+02  6.124100870E+02  1.249747943E+02  0.00000E+00  9.000E+00
       5     1     1     2   501     0 -3.562733652E-01  8.805125526E-01 -2.540422905E+01  2.586193316E+01  4.750000000E+00  0.00000E+00  9.000E+00
      -5     1     1     2     0   503  2.630838074E+00 -2.184968543E+01 -1.069727089E+02  1.093162980E+02  4.750000000E+00  0.00000E+00  9.000E+00
      21     1     1     2   512   502 -8.766407924E+00  4.208019804E+00 -4.986821350E+00  1.092820780E+01  3.625608999E-07  0.00000E+00  9.000E+00
#rwgt            1           9   17.145304332773385                6      220397           0
</event>
<event>
      6   9999  3.45752E-01  5.01802E+01 -1.00000E+00  1.34704E-01
      21    -1     0     0   502   503  0.000000000E+00  0.000000000E+00  1.651271961E+03  1.651271961E+03  0.000000000E+00  0.00000E+00  9.000E+00
      21    -1     0     0   511   502  0.000000000E+00  0.000000000E+00 -1.865206709E+01  1.865206709E+01  0.000000000E+00  0.00000E+00  9.000E+00
      25     1     1     2     0     0 -7.209892738E+01 -1.808327882E+00  1.298209729E+03  1.306206173E+03  1.249981590E+02  0.00000E+00  9.000E+00
       5     1     1     2   501     0  2.856937733E+01 -1.358259134E+01  1.383422880E+01  3.485175025E+01  4.750000000E+00  0.00000E+00  9.000E+00
      -5     1     1     2     0   503 -4.699668496E+00  1.534612549E+00  1.702108255E+02  1.703488466E+02  4.750000000E+00  0.00000E+00  9.000E+00
      21     1     1     2   511   501  4.822921854E+01  1.385630667E+01  1.503651097E+02  1.585172576E+02  2.697398305E-06  0.00000E+00  9.000E+00
#rwgt            1           9   2636.9685835067471                6      222355           0
</event>
<event>
      6   9999  3.45752E-01  9.40805E+00 -1.00000E+00  1.90029E-01
      21    -1     0     0   501   502  0.000000000E+00  0.000000000E+00  3.199682170E+01  3.199682170E+01  0.000000000E+00  0.00000E+00  9.000E+00
      21    -1     0     0   512   503  0.000000000E+00  0.000000000E+00 -5.962766200E+02  5.962766200E+02  0.000000000E+00  0.00000E+00  9.000E+00
      25     1     1     2     0     0 -8.190578707E+00  3.321528905E+00 -3.202599690E+02  3.439067026E+02  1.250090165E+02  0.00000E+00  9.000E+00
       5     1     1     2   501     0 -2.064548613E+00 -2.133680176E+00  1.934015860E+01  2.013502388E+01  4.750000000E+00  0.00000E+00  9.000E+00
      -5     1     1     2     0   503  9.601701200E-01  2.665221635E-01 -1.666383638E+01  1.735623529E+01  4.750000000E+00  0.00000E+00  9.000E+00
      21     1     1     2   512   502  9.294957200E+00 -1.454370893E+00 -2.466961516E+02  2.468754800E+02  3.814697266E-06  0.00000E+00  9.000E+00
#rwgt            1           9   7.4351293532088952E-004           6      223706           0
</event>
<event>
      6   9999  3.45752E-01  1.15945E+01 -1.00000E+00  1.80670E-01
      21    -1     0     0   501   502  0.000000000E+00  0.000000000E+00  4.362059912E+01  4.362059912E+01  0.000000000E+00  0.00000E+00  9.000E+00
      21    -1     0     0   502   511  0.000000000E+00  0.000000000E+00 -2.234423638E+03  2.234423638E+03  0.000000000E+00  0.00000E+00  9.000E+00
      25     1     1     2     0     0 -6.323035738E+01 -3.699429098E+01 -2.502474870E+02  2.891626993E+02  1.249984250E+02  0.00000E+00  9.000E+00
       5     1     1     2   501     0  4.173136004E+00 -1.845981608E+00  2.277986477E+01  2.371302282E+01  4.750000000E+00  0.00000E+00  9.000E+00
      -5     1     1     2     0   503  5.047785345E+01  3.104115289E+01 -1.001291436E+03  1.003054669E+03  4.750000000E+00  0.00000E+00  9.000E+00
      21     1     1     2   503   511  8.579367930E+00  7.799119693E+00 -9.620439807E+02  9.621138460E+02  1.078959322E-05  0.00000E+00  9.000E+00
#rwgt            1           9   3.5032138332421546E-005           6      226375           0
</event>
<event>
      6   9999  3.45752E-01  8.34222E+00 -1.00000E+00  1.95886E-01
       2    -1     0     0   501     0  0.000000000E+00  0.000000000E+00  2.325336439E+02  2.325336439E+02  0.000000000E+00  0.00000E+00  9.000E+00
      21    -1     0     0   502   503  0.000000000E+00  0.000000000E+00 -1.144781774E+03  1.144781774E+03  0.000000000E+00  0.00000E+00  9.000E+00
      25     1     1     2     0     0 -5.475639086E+00 -5.426696120E+00 -1.056942217E+03  1.064342977E+03  1.250587455E+02  0.00000E+00  9.000E+00
       5     1     1     2   501     0 -9.542168919E+00 -6.220000218E-01  2.634201390E+01  2.842365332E+01  4.750000000E+00  0.00000E+00  9.000E+00
      -5     1     1     2     0   503  6.967689687E+00  3.860505400E+00 -8.275283846E+01  8.327092514E+01  4.750000000E+00  0.00000E+00  9.000E+00
       2     1     1     2   502     0  8.050118318E+00  2.188190742E+00  2.011049116E+02  2.012778628E+02  4.672030912E-06  0.00000E+00  9.000E+00
#rwgt            1           9   6.5689538330456821E-004           6      229798           0
</event>
<event>
      6   9999  3.45752E-01  3.80701E+01 -1.00000E+00  1.41443E-01
      21    -1     0     0   511   502  0.000000000E+00  0.000000000E+00  3.178340002E+01  3.178340002E+01  0.000000000E+00  0.00000E+00  9.000E+00
      21    -1     0     0   502   503  0.000000000E+00  0.000000000E+00 -2.602640201E+03  2.602640201E+03  0.000000000E+00  0.00000E+00  9.000E+00
      25     1     1     2     0     0 -2.070192984E+02  1.199862227E+01 -1.051988702E+03  1.079493419E+03  1.249994224E+02  0.00000E+00  9.000E+00
       5     1     1     2   501     0 -4.646258228E+00 -3.771081095E+00  7.959911299E+00  1.103319791E+01  4.750000000E+00  0.00000E+00  9.000E+00
      -5     1     1     2     0   503  1.736840577E+02 -5.632417098E+00 -1.417712087E+03  1.428330494E+03  4.750000000E+00  0.00000E+00  9.000E+00
      21     1     1     2   511   501  3.798149893E+01 -2.595124075E+00 -1.091159232E+02  1.155664901E+02  1.348699152E-06  0.00000E+00  9.000E+00
#rwgt            1           9   6.1086280888050185E-004           6      233605           0
</event>
<event>
      6   9999  3.45752E-01  4.63206E+00 -1.00000E+00  2.35361E-01
      21    -1     0     0   512   503  0.000000000E+00  0.000000000E+00  2.649159129E+01  2.649159129E+01  0.000000000E+00  0.00000E+00  9.000E+00
      21    -1     0     0   501   502  0.000000000E+00  0.000000000E+00 -6.304813099E+02  6.304813099E+02  0.000000000E+00  0.00000E+00  9.000E+00
      25     1     1     2     0     0  2.482543817E+01  2.446308054E+00 -6.053948186E+02  6.186677938E+02  1.249986635E+02  0.00000E+00  9.000E+00
       5     1     1     2   501     0 -1.361602350E-01  1.707725893E-01 -3.835256515E+00  6.108960257E+00  4.750000000E+00  0.00000E+00  9.000E+00
      -5     1     1     2     0   503 -2.035880740E+01 -9.730015618E-01 -4.503536147E+00  2.140729102E+01  4.750000000E+00  0.00000E+00  9.000E+00
      21     1     1     2   512   502 -4.330470534E+00 -1.644079082E+00  9.743892693E+00  1.078885610E+01  7.251217997E-07  0.00000E+00  9.000E+00
#rwgt            1           9   2.7803940257862016E-002           6      235310           0
</event>
<event>
      6   9999  3.45752E-01  3.44876E+00 -1.00000E+00  2.61980E-01
      21    -1     0     0   511   502  0.000000000E+00  0.000000000E+00  1.357902509E+01  1.357902509E+01  0.000000000E+00  0.00000E+00  9.000E+00
      21    -1     0     0   502   503  0.000000000E+00  0.000000000E+00 -9.180121944E+02  9.180121944E+02  0.000000000E+00  0.00000E+00  9.000E+00
      25     1     1     2     0     0 -3.024428421E+01  3.091157788E+00 -8.017146055E+02  8.119707172E+02  1.250034599E+02  0.00000E+00  9.000E+00
       5     1     1     2   501     0  3.843616331E-02 -2.762040637E+00  4.710491093E+00  7.237511462E+00  4.750000000E+00  0.00000E+00  9.000E+00
      -5     1     1     2     0   503  2.892773751E+01 -3.532296791E+00 -9.742199928E+01  1.017983279E+02  4.750000000E+00  0.00000E+00  9.000E+00
      21     1     1     2   511   501  1.278110537E+00  3.203179639E+00 -1.000705562E+01  1.058466289E+01  0.000000000E+00  0.00000E+00  9.000E+00
#rwgt            1           9   1.7798067007317352E-004           6      239552           0
</event>
<event>
      6   9999  3.45752E-01  1.67136E+02 -1.00000E+00  1.11661E-01
      -1    -1     0     0     0   502  0.000000000E+00  0.000000000E+00  1.739915598E+02  1.739915598E+02  0.000000000E+00  0.00000E+00  9.000E+00
      21    -1     0     0   501   512  0.000000000E+00  0.000000000E+00 -1.178027751E+03  1.178027751E+03  0.000000000E+00  0.00000E+00  9.000E+00
      25     1     1     2     0     0  1.457027914E+02 -1.208829955E+01 -7.344034400E+02  7.591758319E+02  1.249964023E+02  0.00000E+00  9.000E+00
       5     1     1     2   501     0 -7.365289235E+01 -8.135874488E+01 -2.720011224E+02  2.933447920E+02  4.750000000E+00  0.00000E+00  9.000E+00
      -5     1     1     2     0   502  1.406986851E+01 -4.979311056E+01 -9.339211498E+01  1.068735921E+02  4.750000000E+00  0.00000E+00  9.000E+00
      -1     1     1     2     0   512 -8.611976760E+01  1.432401550E+02  9.576048619E+01  1.926250946E+02  3.015782986E-06  0.00000E+00  9.000E+00
#rwgt            1           1   1.1675154008889316E-002           6      244795           0
</event>
<event>
      6   9999  3.45752E-01  1.24770E+01 -1.00000E+00  1.77607E-01
      21    -1     0     0   502   511  0.000000000E+00  0.000000000E+00  9.547483792E+01  9.547483792E+01  0.000000000E+00  0.00000E+00  9.000E+00
      21    -1     0     0   501   502  0.000000000E+00  0.000000000E+00 -7.820649299E+02  7.820649299E+02  0.000000000E+00  0.00000E+00  9.000E+00
      25     1     1     2     0     0  3.442220064E-01  1.783975815E+01 -6.121679519E+02  6.250534713E+02  1.249954604E+02  0.00000E+00  9.000E+00
       5     1     1     2   501     0 -2.142115668E+01 -1.227765927E+01 -1.184191574E+02  1.210589370E+02  4.750000000E+00  0.00000E+00  9.000E+00
      -5     1     1     2     0   503  1.681160144E+01  6.163207017E+00 -4.127802246E+01  4.524436653E+01  4.750000000E+00  0.00000E+00  9.000E+00
      21     1     1     2   503   511  4.265333236E+00 -1.172530590E+01  8.527503986E+01  8.618299304E+01  1.651812370E-06  0.00000E+00  9.000E+00
#rwgt            1           9  0.31065793097481753                6      245571           0
</event>
<event>
      6   9999  3.45752E-01  8.72266E+00 -1.00000E+00  1.93670E-01
      21    -1     0     0   501   502  0.000000000E+00  0.000000000E+00  4.640085714E+01  4.640085714E+01  0.000000000E+00  0.00000E+00  9.000E+00
      21    -1     0     0   502   512  0.000000000E+00  0.000000000E+00 -2.277610805E+03  2.277610805E+03  0.000000000E+00  0.00000E+00  9.000E+00
      25     1     1     2     0     0 -1.514943195E+00  2.118225243E+01 -1.043349267E+03  1.051025618E+03  1.250046943E+02  0.00000E+00  9.000E+00
       5     1     1     2   501     0  4.686923160E-01 -9.207158535E+00  4.158111009E+01  4.285490237E+01  4.750000000E+00  0.00000E+00  9.000E+00
      -5     1     1     2     0   503  9.168604757E+00 -8.795119144E+00 -1.402389581E+02  1.408933827E+02  4.750000000E+00  0.00000E+00  9.000E+00
      21     1     1     2   503   512 -8.122353878E+00 -3.179974750E+00 -1.089202833E+03  1.089237759E+03  1.525878906E-05  0.00000E+00  9.000E+00
#rwgt            1           9   1.1941220367185958E-004           6      247364           0
</event>
<event>
      6   9999  3.45752E-01  5.34541E+00 -1.00000E+00  2.21293E-01
      21    -1     0     0   501   502  0.000000000E+00  0.000000000E+00  2.039383153E+01  2.039383153E+01  0.000000000E+00  0.00000E+00  9.000E+00
      21    -1     0     0   511   503  0.000000000E+00  0.000000000E+00 -1.076424159E+03  1.076424159E+03  0.000000000E+00  0.00000E+00  9.000E+00
      25     1     1     2     0     0 -2.173363114E+01 -2.031816852E+01 -6.707099945E+02  6.828829885E+02  1.248683332E+02  0.00000E+00  9.000E+00
       5     1     1     2   501     0 -6.070804049E+00  1.917181333E+00  1.239033785E+01  1.471778578E+01  4.750000000E+00  0.00000E+00  9.000E+00
      -5     1     1     2     0   503  2.252556647E+01  1.756018107E+01 -3.122425849E+02  3.135821351E+02  4.750000000E+00  0.00000E+00  9.000E+00
      21     1     1     2   511   502  5.278868717E+00  8.408061193E-01 -8.546808643E+01  8.563508164E+01  9.536743164E-07  0.00000E+00  9.000E+00
#rwgt            1           9   2.1474038783655594E-004           6      251550           0
</event>
<event>
      6   9999  3.45752E-01  2.40902E+01 -1.00000E+00  1.54278E-01
      21    -1     0     0   501   502  0.000000000E+00  0.000000000E+00  4.236517813E+03  4.236517813E+03  0.000000000E+00  0.00000E+00  9.000E+00
      21    -1     0     0   502   512  0.000000000E+00  0.000000000E+00 -2.083637114E+01  2.083637114E+01  0.000000000E+00  0.00000E+00  9.000E+00
      25     1     1     2     0     0  3.475025621E+01  1.036753474E+02  2.163363924E+03  2.169729208E+03  1.250008364E+02  0.00000E+00  9.000E+00
       5     1     1     2   501     0  8.016516265E-01 -9.808280595E-01  1.895236547E+03  1.895242922E+03  4.750000000E+00  0.00000E+00  9.000E+00
      -5     1     1     2     0   503 -2.213105291E+01 -8.268911132E+01  1.336010053E+02  1.587421297E+02  4.750000000E+00  0.00000E+00  9.000E+00
      21     1     1     2   503   512 -1.342085492E+01 -2.000540806E+01  2.347996545E+01  3.363992384E+01  3.371747881E-07  0.00000E+00  9.000E+00
#rwgt            1           9   1.2939814393734473E-002           6      256004           0
</event>
<event>
      6   9999  3.45752E-01  2.66451E+01 -1.00000E+00  1.51249E-01
      21    -1     0     0   501   502  0.000000000E+00  0.000000000E+00  3.182678800E+01  3.182678800E+01  0.000000000E+00  0.00000E+00  9.000E+00
      21    -1     0     0   511   503  0.000000000E+00  0.000000000E+00 -1.225693250E+03  1.225693250E+03  0.000000000E+00  0.00000E+00  9.000E+00
      25     1     1     2     0     0  2.174132395E+01 -9.905254016E+00 -7.060832672E+02  7.174599184E+02  1.249974201E+02  0.00000E+00  9.000E+00
       5     1     1     2   501     0  6.661126215E+00  6.964162148E+00  2.275712181E+01  2.516583498E+01  4.750000000E+00  0.00000E+00  9.000E+00
      -5     1     1     2     0   503 -9.822520715E+00  2.203950347E+01 -4.144253098E+02  4.151543346E+02  4.750000000E+00  0.00000E+00  9.000E+00
      21     1     1     2   511   502 -1.857992946E+01 -1.909841161E+01 -9.611500723E+01  9.973995047E+01  1.907348633E-06  0.00000E+00  9.000E+00
#rwgt            1           9   5.0882670419211677E-002           6      258008           0
</event>
<event>
      6   9999  3.45752E-01  4.20643E+00 -1.00000E+00  2.43412E-01
      21    -1     0     0   501   512  0.000000000E+00  0.000000000E+00  1.277312713E+03  1.277312713E+03  0.000000000E+00  0.00000E+00  9.000E+00
      21    -1     0     0   502   503  0.000000000E+00  0.000000000E+00 -4.307566512E+02  4.307566512E+02  0.000000000E+00  0.00000E+00  9.000E+00
      25     1     1     2     0     0  1.488679029E+01 -4.414407108E+00 -4.054189303E+02  4.245350179E+02  1.249974755E+02  0.00000E+00  9.000E+00
       5     1     1     2   501     0  6.678682860E-01  4.089924703E+00  1.570807827E+01  1.692571284E+01  4.750000000E+00  0.00000E+00  9.000E+00
      -5     1     1     2     0   503 -1.255989601E+01  3.278375502E+00 -1.201809007E+01  1.831654232E+01  4.750000000E+00  0.00000E+00  9.000E+00
      21     1     1     2   502   512 -2.994762559E+00 -2.953893097E+00  1.248285003E+03  1.248292091E+03  1.525878906E-05  0.00000E+00  9.000E+00
#rwgt            1           9   5.5204602358845524E-004           6      259801           0
</event>
<event>
      6   9999 -3.45752E-01  7.39698E+00 -1.00000E+00  2.02132E-01
      21    -1     0     0   501   502  0.000000000E+00  0.000000000E+00  1.363402062E+01  1.363402062E+01  0.000000000E+00  0.00000E+00  9.000E+00
      21    -1     0     0   511   503  0.000000000E+00  0.000000000E+00 -9.113026113E+02  9.113026113E+02  0.000000000E+00  0.00000E+00  9.000E+00
      25     1     1     2     0     0  2.905546383E+01  5.837221544E+00 -6.637481441E+02  6.760663573E+02  1.250033099E+02  0.00000E+00  9.000E+00
       5     1     1     2   501     0  7.189852880E-02 -1.942535234E+00  5.134408363E+00  7.259701218E+00  4.750000000E+00  0.00000E+00  9.000E+00
      -5     1     1     2     0   503 -2.272688619E+01 -7.602679594E+00 -1.280668811E+02  1.303763806E+02  4.750000000E+00  0.00000E+00  9.000E+00
      21     1     1     2   511   502 -6.400476173E+00  3.707993284E+00 -1.109879739E+02  1.112341929E+02  0.000000000E+00  0.00000E+00  9.000E+00
#rwgt            1           9  -2.0535520808446970E-003           6      264876           0
</event>
<event>
      6   9999  3.45752E-01  3.78631E+00 -1.00000E+00  2.52891E-01
      21    -1     0     0   512   502  0.000000000E+00  0.000000000E+00  6.219943633E+00  6.219943633E+00  0.000000000E+00  0.00000E+00  9.000E+00
      21    -1     0     0   502   503  0.000000000E+00  0.000000000E+00 -4.453874885E+03  4.453874885E+03  0.000000000E+00  0.00000E+00  9.000E+00
      25     1     1     2     0     0 -5.364969385E+01 -3.616783146E+01 -1.136950267E+03  1.145629595E+03  1.249994301E+02  0.00000E+00  9.000E+00
       5     1     1     2   501     0  9.761437878E-01 -9.814032365E-01 -4.851781353E+00  6.929523166E+00  4.750000000E+00  0.00000E+00  9.000E+00
      -5     1     1     2     0   503  5.468128462E+01  4.035940046E+01 -3.299023974E+03  3.299727362E+03  4.750000000E+00  0.00000E+00  9.000E+00
      21     1     1     2   512   501 -2.007734557E+00 -3.210165758E+00 -6.828919203E+00  7.808348080E+00  1.884864366E-07  0.00000E+00  9.000E+00
#rwgt            1           9   1.0696942901885225E-003           6      267730           0
</event>
<event>
      6   9999  3.45752E-01  1.10377E+01 -1.00000E+00  1.82787E-01
      21    -1     0     0   501   511  0.000000000E+00  0.000000000E+00  4.312848178E+01  4.312848178E+01  0.000000000E+00  0.00000E+00  9.000E+00
      21    -1     0     0   502   503  0.000000000E+00  0.000000000E+00 -8.745605405E+02  8.745605405E+02  0.000000000E+00  0.00000E+00  9.000E+00
      25     1     1     2     0     0  8.282799284E+01 -1.923024848E+01 -4.418521561E+02  4.670001982E+02  1.250023137E+02  0.00000E+00  9.000E+00
       5     1     1     2   501     0 -4.376469620E+01  8.397229844E+00 -1.412618496E+02  1.482003197E+02  4.750000000E+00  0.00000E+00  9.000E+00
      -5     1     1     2     0   503 -3.432646663E+01  2.080261722E+01 -2.727239682E+02  2.757027031E+02  4.750000000E+00  0.00000E+00  9.000E+00
      21     1     1     2   502   511 -4.736830011E+00 -9.969598578E+00  2.440591515E+01  2.678580125E+01  6.743495762E-07  0.00000E+00  9.000E+00
#rwgt            1           9  0.13980213796905788                6      275705           0
</event>
<event>
      6   9999  3.45752E-01  2.58211E+01 -1.00000E+00  1.52179E-01
      21    -1     0     0   501   512  0.000000000E+00  0.000000000E+00  9.144654471E+01  9.144654471E+01  0.000000000E+00  0.00000E+00  9.000E+00
      21    -1     0     0   502   503  0.000000000E+00  0.000000000E+00 -9.328936909E+02  9.328936909E+02  0.000000000E+00  0.00000E+00  9.000E+00
      25     1     1     2     0     0  3.380102448E+01  2.400437646E+01 -6.517384108E+02  6.649104643E+02  1.249970001E+02  0.00000E+00  9.000E+00
       5     1     1     2   501     0 -1.013736297E+01 -2.118199249E+00  9.286179576E-01  1.143143593E+01  4.750000000E+00  0.00000E+00  9.000E+00
      -5     1     1     2     0   503 -2.178176124E+01 -4.763856662E+01 -2.645382324E+02  2.697163641E+02  4.750000000E+00  0.00000E+00  9.000E+00
      21     1     1     2   502   512 -1.881900268E+00  2.575238941E+01  7.390087906E+01  7.828197133E+01  2.336015456E-06  0.00000E+00  9.000E+00
#rwgt            1           9   5.3579640211423307E-005           6      278670           0
</event>
<event>
      6   9999  3.45752E-01  2.44507E+01 -1.00000E+00  1.53823E-01
      21    -1     0     0   501   502  0.000000000E+00  0.000000000E+00  9.636836347E+01  9.636836347E+01  0.000000000E+00  0.00000E+00  9.000E+00
      21    -1     0     0   502   511  0.000000000E+00  0.000000000E+00 -1.426243541E+03  1.426243541E+03  0.000000000E+00  0.00000E+00  9.000E+00
      25     1     1     2     0     0  9.543856600E+01  1.627220636E+02 -1.931607362E+02  2.975283620E+02  1.250002651E+02  0.00000E+00  9.000E+00
       5     1     1     2   501     0 -2.333383347E+00  4.013877648E+00  3.575353427E+01  3.636528021E+01  4.750000000E+00  0.00000E+00  9.000E+00
      -5     1     1     2     0   503 -7.122930540E+01 -1.558143272E+02 -1.034086032E+03  1.048192827E+03  4.750000000E+00  0.00000E+00  9.000E+00
      21     1     1     2   503   511 -2.187587726E+01 -1.092161404E+01 -1.383819436E+02  1.405254354E+02  2.697398305E-06  0.00000E+00  9.000E+00
#rwgt            1           9   8.5285932181849349E-004           6      280476           0
</event>
<event>
      6   9999  3.45752E-01  3.70473E+00 -1.00000E+00  2.54951E-01
      21    -1     0     0   512   502  0.000000000E+00  0.000000000E+00  9.130847693E+00  9.130847693E+00  0.000000000E+00  0.00000E+00  9.000E+00
      21    -1     0     0   502   503  0.000000000E+00  0.000000000E+00 -7.905381039E+02  7.905381039E+02  0.000000000E+00  0.00000E+00  9.000E+00
      25     1     1     2     0     0  3.500945713E+00 -3.162480275E-01 -7.604738451E+02  7.706870270E+02  1.250026713E+02  0.00000E+00  9.000E+00
       5     1     1     2   501     0 -4.787773767E-01 -7.399244449E-01  8.641004277E-01  4.907737311E+00  4.750000000E+00  0.00000E+00  9.000E+00
      -5     1     1     2     0   503  4.670477677E-01  2.301321772E+00 -1.802121765E+01  1.878406242E+01  4.750000000E+00  0.00000E+00  9.000E+00
      21     1     1     2   512   501 -3.489216104E+00 -1.245149300E+00 -3.776293864E+00  5.290124870E+00  1.460009660E-07  0.00000E+00  9.000E+00
#rwgt            1           9   1.6960091027473512E-004           6      282761           0
</event>
<event>
      6   9999  3.45752E-01  4.85910E+01 -1.00000E+00  1.35455E-01
      21    -1     0     0   501   502  0.000000000E+00  0.000000000E+00  1.562210420E+01  1.562210420E+01  0.000000000E+00  0.00000E+00  9.000E+00
       2    -1     0     0   502     0  0.000000000E+00  0.000000000E+00 -2.154188039E+03  2.154188039E+03  0.000000000E+00  0.00000E+00  9.000E+00
      25     1     1     2     0     0  6.001082033E+01  1.711073030E+01 -8.052578143E+02  8.172879811E+02  1.250016831E+02  0.00000E+00  9.000E+00
       5     1     1     2   501     0  6.693106173E+00 -1.292103131E+01 -5.347101644E+00  1.621433675E+01  4.750000000E+00  0.00000E+00  9.000E+00
      -5     1     1     2     0   503 -2.759306465E+01  2.464470616E+01 -9.039602711E+01  9.778927843E+01  4.750000000E+00  0.00000E+00  9.000E+00
       2     1     1     2   503     0 -3.911086185E+01 -2.883440515E+01 -1.237564992E+03  1.238518547E+03  2.157918644E-05  0.00000E+00  9.000E+00
#rwgt            1           9  0.23264446233989469                6      287147           0
</event>
<event>
      6   9999 -3.45752E-01  5.86268E+00 -1.00000E+00  2.15468E-01
      21    -1     0     0   501   502  0.000000000E+00  0.000000000E+00  9.387410905E+00  9.387410905E+00  0.000000000E+00  0.00000E+00  9.000E+00
      21    -1     0     0   502   511  0.000000000E+00  0.000000000E+00 -8.222524454E+02  8.222524454E+02  0.000000000E+00  0.00000E+00  9.000E+00
      25     1     1     2     0     0  1.761764722E-01 -3.133210795E+00 -6.316913843E+02  6.439472707E+02  1.249969377E+02  0.00000E+00  9.000E+00
       5     1     1     2   501     0 -3.140495134E-01 -3.441495812E-01  8.807555233E-01  4.853379887E+00  4.750000000E+00  0.00000E+00  9.000E+00
      -5     1     1     2     0   503  5.385674414E+00  6.091097419E+00 -1.467088277E+02  1.470107125E+02  4.750000000E+00  0.00000E+00  9.000E+00
      21     1     1     2   503   511 -5.247801373E+00 -2.613737042E+00 -3.534557801E+01  3.582849320E+01  4.768371582E-07  0.00000E+00  9.000E+00
#rwgt            1           9  -4.5857775185069501E-003           6      288085           0
</event>
<event>
      6   9999  3.45752E-01  1.02518E+01 -1.00000E+00  1.86063E-01
      21    -1     0     0   512   502  0.000000000E+00  0.000000000E+00  1.025145693E+01  1.025145693E+01  0.000000000E+00  0.00000E+00  9.000E+00
      21    -1     0     0   502   503  0.000000000E+00  0.000000000E+00 -4.002229413E+03  4.002229413E+03  0.000000000E+00  0.00000E+00  9.000E+00
      25     1     1     2     0     0 -7.444258183E+01  7.702442169E+00 -2.738082799E+03  2.741955884E+03  1.249945382E+02  0.00000E+00  9.000E+00
       5     1     1     2   501     0 -1.642585398E+00 -8.927663570E+00  1.749751863E+00  1.039352660E+01  4.750000000E+00  0.00000E+00  9.000E+00
      -5     1     1     2     0   503  6.821197634E+01 -5.340695224E+00 -1.236617800E+03  1.238518285E+03  4.750000000E+00  0.00000E+00  9.000E+00
      21     1     1     2   512   501  7.873190884E+00  6.565916624E+00 -1.902711009E+01  2.161317455E+01  6.743495762E-07  0.00000E+00  9.000E+00
#rwgt            1           9   3.1242818256910562E-004           6      291716           0
</event>
<event>
      6   9999  3.45752E-01  4.41391E+00 -1.00000E+00  2.39319E-01
      21    -1     0     0   501   502  0.000000000E+00  0.000000000E+00  3.520917788E+02  3.520917788E+02  0.000000000E+00  0.00000E+00  9.000E+00
      21    -1     0     0   502   511  0.000000000E+00  0.000000000E+00 -4.020935384E+01  4.020935384E+01  0.000000000E+00  0.00000E+00  9.000E+00
      25     1     1     2     0     0  2.062399478E+00 -2.887639986E+00  2.890616444E+02  3.149502764E+02  1.249978017E+02  0.00000E+00  9.000E+00
       5     1     1     2   501     0 -2.226012162E-01 -4.370522765E-01  3.316089310E+01  3.350295356E+01  4.750000000E+00  0.00000E+00  9.000E+00
      -5     1     1     2     0   503 -4.268488231E+00 -3.609632269E-01  1.595266116E+01  1.718720990E+01  4.750000000E+00  0.00000E+00  9.000E+00
      21     1     1     2   503   511  2.428689970E+00  3.685655490E+00 -2.629277366E+01  2.666069275E+01  4.768371582E-07  0.00000E+00  9.000E+00
#rwgt            1           9  0.37308220475604698                6      294766           0
</event>
<event>
      6   9999  3.45752E-01  5.13781E+00 -1.00000E+00  2.23894E-01
      21    -1     0     0   501   512  0.000000000E+00  0.000000000E+00  4.749750715E+01  4.749750715E+01  0.000000000E+00  0.00000E+00  9.000E+00
      21    -1     0     0   502   503  0.000000000E+00  0.000000000E+00 -7.510096884E+02  7.510096884E+02  0.000000000E+00  0.00000E+00  9.000E+00
      25     1     1     2     0     0 -5.019700471E+00 -8.660424499E+00 -6.056436513E+02  6.184892827E+02  1.249982402E+02  0.00000E+00  9.000E+00
       5     1     1     2   501     0  6.113874411E-01 -1.168454270E-01 -5.654588673E-01  4.823866829E+00  4.750000000E+00  0.00000E+00  9.000E+00
      -5     1     1     2     0   503  6.053523907E+00  3.909989814E+00 -1.359416502E+02  1.362153733E+02  4.750000000E+00  0.00000E+00  9.000E+00
      21     1     1     2   502   512 -1.645210878E+00  4.867280112E+00  3.863857910E+01  3.897867275E+01  1.430511475E-06  0.00000E+00  9.000E+00
#rwgt            1           9   5.0246611043048024E-003           6      298521           0
</event>
<event>
      6   9999  3.45752E-01  6.80067E+00 -1.00000E+00  2.06751E-01
      21    -1     0     0   501   511  0.000000000E+00  0.000000000E+00  4.319961861E+01  4.319961861E+01  0.000000000E+00  0.00000E+00  9.000E+00
      21    -1     0     0   502   503  0.000000000E+00  0.000000000E+00 -6.129080611E+02  6.129080611E+02  0.000000000E+00  0.00000E+00  9.000E+00
      25     1     1     2     0     0  3.222525754E-01 -4.346991699E+00 -5.901449938E+02  6.032536894E+02  1.249995992E+02  0.00000E+00  9.000E+00
       5     1     1     2   501     0 -1.079756732E+00 -1.782385456E+00  5.395219709E-01  5.215012605E+00  4.750000000E+00  0.00000E+00  9.000E+00
      -5     1     1     2     0   503 -3.404669566E+00  7.511349467E-01 -1.288004373E+01  1.416382735E+01  4.750000000E+00  0.00000E+00  9.000E+00
      21     1     1     2   502   511  4.162173722E+00  5.378242209E+00  3.277707305E+01  3.347515044E+01  1.066240300E-06  0.00000E+00  9.000E+00
#rwgt            1           9   2.3291845191200663E-004           6      302092           0
</event>
<event>
      6   9999  3.45752E-01  5.46407E+01 -1.00000E+00  1.32757E-01
      21    -1     0     0   512   503  0.000000000E+00  0.000000000E+00  2.349815512E+01  2.349815512E+01  0.000000000E+00  0.00000E+00  9.000E+00
      21    -1     0     0   501   502  0.000000000E+00  0.000000000E+00 -9.517294649E+02  9.517294649E+02  0.000000000E+00  0.00000E+00  9.000E+00
      25     1     1     2     0     0 -7.332964346E+01  1.918599850E+01 -5.711660499E+02  5.895776343E+02  1.250031644E+02  0.00000E+00  9.000E+00
       5     1     1     2   501     0  2.262575559E+01 -4.254398794E+00 -1.706032718E+02  1.722151665E+02  4.750000000E+00  0.00000E+00  9.000E+00
      -5     1     1     2     0   503  1.768532261E+00 -3.924077016E+01 -1.254034123E+02  1.314973158E+02  4.750000000E+00  0.00000E+00  9.000E+00
      21     1     1     2   512   502  4.893535561E+01  2.430917045E+01 -6.105857579E+01  8.193750347E+01  6.743495762E-07  0.00000E+00  9.000E+00
#rwgt            1           9   2.1809692913984380E-002           6      304646           0
</event>
<event>
      6   9999  3.45752E-01  8.95916E+01 -1.00000E+00  1.22499E-01
      21    -1     0     0   501   502  0.000000000E+00  0.000000000E+00  2.242012274E+02  2.242012274E+02  0.000000000E+00  0.00000E+00  9.000E+00
       1    -1     0     0   502     0  0.000000000E+00  0.000000000E+00 -3.283548310E+03  3.283548310E+03  0.000000000E+00  0.00000E+00  9.000E+00
      25     1     1     2     0     0  6.375406924E+01 -1.016864493E+02  1.396333986E+02  2.225576534E+02  1.250188297E+02  0.00000E+00  9.000E+00
       5     1     1     2   501     0  7.529205503E+00 -4.920261149E+00  4.113507232E+01  4.237398471E+01  4.750000000E+00  0.00000E+00  9.000E+00
      -5     1     1     2     0   503 -2.466142713E+01  3.010147821E+01 -6.742581460E+02  6.753968426E+02  4.750000000E+00  0.00000E+00  9.000E+00
       1     1     1     2   503     0 -4.662184761E+01  7.650523221E+01 -2.565857408E+03  2.567421057E+03  3.051757812E-05  0.00000E+00  9.000E+00
#rwgt            1           9   5.0697680072639972E-003           6      305575           0
</event>
<event>
      6   9999  3.45752E-01  1.43552E+01 -1.00000E+00  1.72042E-01
      21    -1     0     0   501   502  0.000000000E+00  0.000000000E+00  1.237710147E+03  1.237710147E+03  0.000000000E+00  0.00000E+00  9.000E+00
      21    -1     0     0   502   511  0.000000000E+00  0.000000000E+00 -7.534490011E+01  7.534490011E+01  0.000000000E+00  0.00000E+00  9.000E+00
      25     1     1     2     0     0  2.261374796E+01 -4.543383481E+00  8.282518286E+02  8.379491168E+02  1.250024272E+02  0.00000E+00  9.000E+00
       5     1     1     2   501     0 -7.077361917E-01 -7.273671915E-01  2.765267677E+02  2.765694229E+02  4.750000000E+00  0.00000E+00  9.000E+00
      -5     1     1     2     0   503 -2.405885293E+01 -8.922104986E+00  1.259792200E+02  1.286536387E+02  4.750000000E+00  0.00000E+00  9.000E+00
      21     1     1     2   503   511  2.152841166E+00  1.419285566E+01 -6.839256911E+01  6.988286905E+01  2.523185073E-06  0.00000E+00  9.000E+00
#rwgt            1           9   2.9373379178402000E-003           6      306704           0
</event>
<event>
      6   9999 -3.45752E-01  5.16659E+01 -1.00000E+00  1.34030E-01
      21    -1     0     0   501   502  0.000000000E+00  0.000000000E+00  1.399351994E+03  1.399351994E+03  0.000000000E+00  0.00000E+00  9.000E+00
      21    -1     0     0   512   503  0.000000000E+00  0.000000000E+00 -4.472692185E+02  4.472692185E+02  0.000000000E+00  0.00000E+00  9.000E+00
      25     1     1     2     0     0 -1.731602321E+01  3.100147322E+02  6.053926428E+02  6.917598414E+02  1.249897893E+02  0.00000E+00  9.000E+00
       5     1     1     2   501     0  3.380157560E+00 -1.119007187E+01  6.673039232E+02  6.674232028E+02  4.750000000E+00  0.00000E+00  9.000E+00
      -5     1     1     2     0   503 -3.619836552E+01 -3.113118153E+02 -2.559627371E+02  4.046787038E+02  4.750000000E+00  0.00000E+00  9.000E+00
      21     1     1     2   512   502  5.013423117E+01  1.248715503E+01 -6.465105370E+01  8.275946424E+01  1.348699152E-06  0.00000E+00  9.000E+00
#rwgt            1           9  -13.188142492557345                6      308640           0
</event>
<event>
      6   9999  3.45752E-01  1.93843E+01 -1.00000E+00  1.61254E-01
      21    -1     0     0   501   502  0.000000000E+00  0.000000000E+00  3.399474002E+01  3.399474002E+01  0.000000000E+00  0.00000E+00  9.000E+00
      21    -1     0     0   511   503  0.000000000E+00  0.000000000E+00 -1.239868193E+03  1.239868193E+03  0.000000000E+00  0.00000E+00  9.000E+00
      25     1     1     2     0     0  4.757624408E+01 -4.169643139E+01 -7.375263507E+02  7.507146908E+02  1.250013503E+02  0.00000E+00  9.000E+00
       5     1     1     2   501     0  2.091328586E-01  4.894460832E-01  2.224364740E+01  2.275138773E+01  4.750000000E+00  0.00000E+00  9.000E+00
      -5     1     1     2     0   503 -6.716813196E+01  4.145079754E+01 -4.035685408E+02  4.112418464E+02  4.750000000E+00  0.00000E+00  9.000E+00
      21     1     1     2   511   502  1.938275502E+01 -2.438122268E-01 -8.702220838E+01  8.915500764E+01  9.536743164E-07  0.00000E+00  9.000E+00
#rwgt            1           9   1.3435145467356464E-003           6      310713           0
</event>
<event>
      6   9999  3.45752E-01  1.59142E+01 -1.00000E+00  1.68174E-01
      -2    -1     0     0     0   502  0.000000000E+00  0.000000000E+00  2.321578766E+01  2.321578766E+01  0.000000000E+00  0.00000E+00  9.000E+00
       2    -1     0     0   512     0  0.000000000E+00  0.000000000E+00 -2.012357561E+03  2.012357561E+03  0.000000000E+00  0.00000E+00  9.000E+00
      25     1     1     2     0     0 -3.369034133E+01  2.339147588E+01 -2.078240068E+02  2.459581155E+02  1.249895057E+02  0.00000E+00  9.000E+00
       5     1     1     2   501     0  5.770450517E+01 -4.747802839E+01 -3.938525239E+02  4.009069047E+02  4.750000000E+00  0.00000E+00  9.000E+00
      -5     1     1     2     0   502 -1.057198337E+01  3.260539346E+01 -5.475673490E+02  5.486596784E+02  4.750000000E+00  0.00000E+00  9.000E+00
      21     1     1     2   512   501 -1.344218047E+01 -8.518840951E+00 -8.398978933E+02  8.400486498E+02  0.000000000E+00  0.00000E+00  9.000E+00
#rwgt            1           3  0.68783604381966301                6      313278           0
</event>
<event>
      6   9999  3.45752E-01  2.23539E+00 -1.00000E+00  3.15247E-01
      21    -1     0     0   501   511  0.000000000E+00  0.000000000E+00  1.804542873E+02  1.804542873E+02  0.000000000E+00  0.00000E+00  9.000E+00
      21    -1     0     0   502   503  0.000000000E+00  0.000000000E+00 -7.172852588E+02  7.172852588E+02  0.000000000E+00  0.00000E+00  9.000E+00
      25     1     1     2     0     0  6.468021536E+00 -7.473807066E+00 -6.621526416E+02  6.739215405E+02  1.250057153E+02  0.00000E+00  9.000E+00
       5     1     1     2   501     0  1.001413988E-01  1.074537229E-01 -1.172313635E+01  1.264974310E+01  4.750000000E+00  0.00000E+00  9.000E+00
      -5     1     1     2     0   503 -8.342215298E+00  8.726388274E+00 -3.591898320E+01  3.819002831E+01  4.750000000E+00  0.00000E+00  9.000E+00
      21     1     1     2   502   511  1.774052363E+00 -1.360034931E+00  1.729637896E+02  1.729782341E+02  1.907348633E-06  0.00000E+00  9.000E+00
#rwgt            1           9   2.3998504484770723E-005           6      317785           0
</event>
<event>
      6   9999  3.45752E-01  1.65841E+01 -1.00000E+00  1.66677E-01
      21    -1     0     0   501   502  0.000000000E+00  0.000000000E+00  3.013723055E+01  3.013723055E+01  0.000000000E+00  0.00000E+00  9.000E+00
      21    -1     0     0   512   503  0.000000000E+00  0.000000000E+00 -1.666857971E+03  1.666857971E+03  0.000000000E+00  0.00000E+00  9.000E+00
      25     1     1     2     0     0  1.003519712E+01  7.586640612E+00 -1.265169794E+03  1.271391881E+03  1.249977870E+02  0.00000E+00  9.000E+00
       5     1     1     2   501     0 -1.177816340E+01  2.793088791E+00  2.469754524E+01  2.791160545E+01  4.750000000E+00  0.00000E+00  9.000E+00
      -5     1     1     2     0   503 -6.083662446E+00  4.241395809E+00 -3.599680751E+01  3.705850831E+01  4.750000000E+00  0.00000E+00  9.000E+00
      21     1     1     2   512   502  7.826628721E+00 -1.462112521E+01 -3.602516847E+02  3.606332067E+02  3.814697266E-06  0.00000E+00  9.000E+00
#rwgt            1           9   7.4457616793556294E-002           6      324140           0
</event>
<event>
      6   9999  3.45752E-01  3.60636E+01 -1.00000E+00  1.42846E-01
      21    -1     0     0   502   503  0.000000000E+00  0.000000000E+00  1.031771299E+02  1.031771299E+02  0.000000000E+00  0.00000E+00  9.000E+00
      21    -1     0     0   511   502  0.000000000E+00  0.000000000E+00 -9.437748891E+01  9.437748891E+01  0.000000000E+00  0.00000E+00  9.000E+00
      25     1     1     2     0     0 -2.882357381E+01  1.814512459E+01  1.285873569E+01  1.301886506E+02  1.249947748E+02  0.00000E+00  9.000E+00
       5     1     1     2   501     0 -1.588193855E+00  1.067659880E+00  1.052221514E+01  1.170221214E+01  4.750000000E+00  0.00000E+00  9.000E+00
      -5     1     1     2     0   503  1.680296920E+00  2.583717641E+00  1.036641481E+01  1.181202991E+01  4.750000000E+00  0.00000E+00  9.000E+00
      21     1     1     2   511   501  2.873147075E+01 -2.179650211E+01 -2.494772468E+01  4.385172611E+01  3.371747881E-07  0.00000E+00  9.000E+00
#rwgt            1           9   4.2620724124926889E-004           6      326813           0
</event>
<event>
      6   9999  3.45752E-01  2.93961E+01 -1.00000E+00  1.48412E-01
      21    -1     0     0   501   502  0.000000000E+00  0.000000000E+00  1.154302357E+01  1.154302357E+01  0.000000000E+00  0.00000E+00  9.000E+00
      21    -1     0     0   502   512  0.000000000E+00  0.000000000E+00 -1.008879019E+03  1.008879019E+03  0.000000000E+00  0.00000E+00  9.000E+00
      25     1     1     2     0     0  1.243209041E+01  4.341885639E+01 -7.595414637E+02  7.710830871E+02  1.250045526E+02  0.00000E+00  9.000E+00
       5     1     1     2   501     0 -1.203298254E+00  3.074419104E+00 -8.694612266E-02  5.785329649E+00  4.750000000E+00  0.00000E+00  9.000E+00
      -5     1     1     2     0   503 -1.430464243E+01 -1.725858394E+01 -8.451523626E+01  8.756637012E+01  4.750000000E+00  0.00000E+00  9.000E+00
      21     1     1     2   503   512  3.075850272E+00 -2.923469155E+01 -1.531923494E+02  1.559872558E+02  2.697398305E-06  0.00000E+00  9.000E+00
#rwgt            1           9   3.7234466517477771E-004           6      327413           0
</event>
<event>
      6   9999 -3.45752E-01  1.23365E+01 -1.00000E+00  1.78073E-01
      21    -1     0     0   511   502  0.000000000E+00  0.000000000E+00  6.007516723E+01  6.007516723E+01  0.000000000E+00  0.00000E+00  9.000E+00
      21    -1     0     0   502   503  0.000000000E+00  0.000000000E+00 -2.499946958E+03  2.499946958E+03  0.000000000E+00  0.00000E+00  9.000E+00
      25     1     1     2     0     0  7.370872257E+00 -9.736359854E+00 -2.421832555E+03  2.425087173E+03  1.250029852E+02  0.00000E+00  9.000E+00
       5     1     1     2   501     0  7.126780653E+00  4.748438369E+00  1.704865457E+00  9.940208029E+00  4.750000000E+00  0.00000E+00  9.000E+00
      -5     1     1     2     0   503 -3.074443511E+00  9.646307882E+00 -7.120395074E+01  7.207682401E+01  4.750000000E+00  0.00000E+00  9.000E+00
      21     1     1     2   511   501 -1.142320940E+01 -4.658386398E+00  5.145984892E+01  5.291792066E+01  2.431401974E-06  0.00000E+00  9.000E+00
#rwgt            1           9  -3.1596025337005243E-004           6      328826           0
</event>
<event>
      6   9999  3.45752E-01  4.72125E+00 -1.00000E+00  2.33833E-01
      21    -1     0     0   501   502  0.000000000E+00  0.000000000E+00  3.169474328E+02  3.169474328E+02  0.000000000E+00  0.00000E+00  9.000E+00
      21    -1     0     0   512   503  0.000000000E+00  0.000000000E+00 -1.039870705E+02  1.039870705E+02  0.000000000E+00  0.00000E+00  9.000E+00
      25     1     1     2     0     0 -6.967294908E+00 -1.125038562E+00  1.088539212E+02  1.659050959E+02  1.250020631E+02  0.00000E+00  9.000E+00
       5     1     1     2   501     0  1.076644609E+00  1.669064094E+00  1.756215786E+02  1.756970298E+02  4.750000000E+00  0.00000E+00  9.000E+00
      -5     1     1     2     0   503  1.209994834E+00  7.376036479E-02  2.265795483E+00  5.400542312E+00  4.750000000E+00  0.00000E+00  9.000E+00
      21     1     1     2   512   502  4.680655465E+00 -6.177858970E-01 -7.378093296E+01  7.393183525E+01  1.348699152E-06  0.00000E+00  9.000E+00
#rwgt            1           9   3.2456289457055579E-004           6      331075           0
</event>
<event>
      6   9999  3.45752E-01  9.32799E+00 -1.00000E+00  1.90433E-01
      21    -1     0     0   501   511  0.000000000E+00  0.000000000E+00  2.485168691E+01  2.485168691E+01  0.000000000E+00  0.00000E+00  9.000E+00
      21    -1     0     0   502   503  0.000000000E+00  0.000000000E+00 -8.600692523E+02  8.600692523E+02  0.000000000E+00  0.00000E+00  9.000E+00
      25     1     1     2     0     0 -8.660155335E+00  1.451760162E+00 -7.996139636E+02  8.093728047E+02  1.249989615E+02  0.00000E+00  9.000E+00
       5     1     1     2   501     0 -2.436158671E+00 -1.837868441E-01  6.152426758E+00  8.147607114E+00  4.750000000E+00  0.00000E+00  9.000E+00
      -5     1     1     2     0   503  8.828436998E+00 -1.031606934E+01 -5.176041305E+01  5.372211319E+01  4.750000000E+00  0.00000E+00  9.000E+00
      21     1     1     2   502   511  2.267877007E+00  9.048096018E+00  1.000438443E+01  1.367841422E+01  9.233911863E-07  0.00000E+00  9.000E+00
#rwgt            1           9   1.6713797746809888E-003           6      335234           0
</event>
<event>
      6   9999  3.45752E-01  4.13343E+00 -1.00000E+00  2.44937E-01
      21    -1     0     0   501   502  0.000000000E+00  0.000000000E+00  8.356196472E+00  8.356196472E+00  0.000000000E+00  0.00000E+00  9.000E+00
      21    -1     0     0   512   503  0.000000000E+00  0.000000000E+00 -7.787080278E+02  7.787080278E+02  0.000000000E+00  0.00000E+00  9.000E+00
      25     1     1     2     0     0 -5.595809280E+00  1.164666709E+01 -6.438452613E+02  6.559938257E+02  1.249968836E+02  0.00000E+00  9.000E+00
       5     1     1     2   501     0 -4.057690007E-01  9.861416919E-01 -1.673188709E+00  5.147735849E+00  4.750000000E+00  0.00000E+00  9.000E+00
      -5     1     1     2     0   503  2.167622062E+00 -1.108814076E+01 -8.577329923E+01  8.664448518E+01  4.750000000E+00  0.00000E+00  9.000E+00
      21     1     1     2   512   502  3.833956219E+00 -1.544668014E+00 -3.906008211E+01  3.927817758E+01  4.768371582E-07  0.00000E+00  9.000E+00
#rwgt            1           9   5.0335262028342727E-005           6      338118           0
</event>
<event>
      6   9999 -3.45752E-01  1.33054E+01 -1.00000E+00  1.75010E-01
      21    -1     0     0   501   502  0.000000000E+00  0.000000000E+00  4.062916023E+01  4.062916023E+01  0.000000000E+00  0.00000E+00  9.000E+00
      21    -1     0     0   511   503  0.000000000E+00  0.000000000E+00 -1.271169728E+03  1.271169728E+03  0.000000000E+00  0.00000E+00  9.000E+00
      25     1     1     2     0     0 -4.851019721E+01  1.409321361E+02 -8.058358186E+02  8.289819134E+02  1.249981599E+02  0.00000E+00  9.000E+00
       5     1     1     2   501     0 -7.258440079E-01  2.540866897E+00  1.589253577E+01  1.679637007E+01  4.750000000E+00  0.00000E+00  9.000E+00
      -5     1     1     2     0   503  4.412691036E+01 -1.311876234E+02 -4.042025091E+02  4.272699470E+02  4.750000000E+00  0.00000E+00  9.000E+00
      21     1     1     2   511   502  5.109130859E+00 -1.228537954E+01 -3.639477624E+01  3.875065814E+01  4.768371582E-07  0.00000E+00  9.000E+00
#rwgt            1           9  -3.0159503310337176E-004           6      342394           0
</event>
<event>
      6   9999  3.45752E-01  4.34270E+00 -1.00000E+00  2.40685E-01
      21    -1     0     0   512   502  0.000000000E+00  0.000000000E+00  2.485058502E+01  2.485058502E+01  0.000000000E+00  0.00000E+00  9.000E+00
      21    -1     0     0   502   503  0.000000000E+00  0.000000000E+00 -2.886877282E+03  2.886877282E+03  0.000000000E+00  0.00000E+00  9.000E+00
      25     1     1     2     0     0 -1.989964681E+01  8.327078307E+00 -2.734360760E+03  2.737301390E+03  1.249991772E+02  0.00000E+00  9.000E+00
       5     1     1     2   501     0  2.453421923E-01 -6.650567518E-01 -6.594110634E+00  8.157652134E+00  4.750000000E+00  0.00000E+00  9.000E+00
      -5     1     1     2     0   503  2.070149043E+01 -3.447466458E+00 -1.426470910E+02  1.442608464E+02  4.750000000E+00  0.00000E+00  9.000E+00
      21     1     1     2   512   501 -1.047185809E+00 -4.214555097E+00  2.157526496E+01  2.200797880E+01  2.236564522E-06  0.00000E+00  9.000E+00
#rwgt            1           9   4.6215793781975240E-005           6      345188           0
</event>
<event>
      6   9999 -3.45752E-01  1.55560E+01 -1.00000E+00  1.69013E-01
      21    -1     0     0   501   502  0.000000000E+00  0.000000000E+00  2.150446844E+01  2.150446844E+01  0.000000000E+00  0.00000E+00  9.000E+00
      21    -1     0     0   511   503  0.000000000E+00  0.000000000E+00 -1.480538498E+03  1.480538498E+03  0.000000000E+00  0.00000E+00  9.000E+00
      25     1     1     2     0     0 -4.964574886E+01  2.344059583E+01 -9.267859095E+02  9.367863493E+02  1.249895202E+02  0.00000E+00  9.000E+00
       5     1     1     2   501     0  7.269005342E-01 -3.925363524E+00  7.775874086E+00  9.948044078E+00  4.750000000E+00  0.00000E+00  9.000E+00
      -5     1     1     2     0   503  3.746778802E+01 -3.004430244E+01 -6.998091460E+01  8.500815347E+01  4.750000000E+00  0.00000E+00  9.000E+00
      21     1     1     2   511   502  1.145106031E+01  1.052907013E+01 -4.700430792E+02  4.703004193E+02  5.394796609E-06  0.00000E+00  9.000E+00
#rwgt            1           9  -2.7899676442238739E-005           6      349806           0
</event>
<event>
      6   9999  3.45752E-01  4.69329E+00 -1.00000E+00  2.34307E-01
      -2    -1     0     0     0   502  0.000000000E+00  0.000000000E+00  1.894459957E+02  1.894459957E+02  0.000000000E+00  0.00000E+00  9.000E+00
      21    -1     0     0   502   503  0.000000000E+00  0.000000000E+00 -8.865362088E+02  8.865362088E+02  0.000000000E+00  0.00000E+00  9.000E+00
      25     1     1     2     0     0 -1.876878381E+01  4.135125953E+00 -5.641155233E+02  5.781161492E+02  1.249903669E+02  0.00000E+00  9.000E+00
       5     1     1     2   501     0  1.723732450E-01 -1.918598232E+00  6.218819784E+00  8.058967131E+00  4.750000000E+00  0.00000E+00  9.000E+00
      -5     1     1     2     0   503  1.404764973E+01 -1.060797115E+00 -3.142931429E+02  3.146445677E+02  4.750000000E+00  0.00000E+00  9.000E+00
      -2     1     1     2     0   501  4.548760837E+00 -1.155730606E+00  1.750996335E+02  1.751625205E+02  3.303624740E-06  0.00000E+00  9.000E+00
#rwgt            1           9   1.3588813314434964E-002           6      352545           0
</event>
<event>
      6   9999  3.45752E-01  3.22778E+01 -1.00000E+00  1.45811E-01
      21    -1     0     0   501   502  0.000000000E+00  0.000000000E+00  2.429886165E+01  2.429886165E+01  0.000000000E+00  0.00000E+00  9.000E+00
       2    -1     0     0   502     0  0.000000000E+00  0.000000000E+00 -2.963046283E+03  2.963046283E+03  0.000000000E+00  0.00000E+00  9.000E+00
      25     1     1     2     0     0 -2.787090541E+01 -1.879497035E+01 -2.929290385E+02  3.202568428E+02  1.250079417E+02  0.00000E+00  9.000E+00
       5     1     1     2   501     0  5.829427694E+00  8.407079728E-01  6.215012233E+00  9.791725802E+00  4.750000000E+00  0.00000E+00  9.000E+00
      -5     1     1     2     0   503  5.288652228E+01  2.746413775E+01 -3.522615888E+02  3.572982683E+02  4.750000000E+00  0.00000E+00  9.000E+00
       2     1     1     2   503     0 -3.084504457E+01 -9.509875369E+00 -2.299771806E+03  2.299998308E+03  3.051757812E-05  0.00000E+00  9.000E+00
#rwgt            1           9   4.5229329975696064                6      357706           0
</event>
<event>
      6   9999  3.45752E-01  1.67522E+01 -1.00000E+00  1.66316E-01
       2    -1     0     0   501     0  0.000000000E+00  0.000000000E+00  1.454909519E+03  1.454909519E+03  0.000000000E+00  0.00000E+00  9.000E+00
      21    -1     0     0   502   503  0.000000000E+00  0.000000000E+00 -1.261259041E+03  1.261259041E+03  0.000000000E+00  0.00000E+00  9.000E+00
      25     1     1     2     0     0  1.263741299E+01 -1.239022086E+02 -7.936126301E+02  8.129924264E+02  1.249968688E+02  0.00000E+00  9.000E+00
       5     1     1     2   501     0  1.902705492E+01  8.813046132E-01  1.019598391E+02  1.038324458E+02  4.750000000E+00  0.00000E+00  9.000E+00
      -5     1     1     2     0   503 -2.516433643E+01  1.075812291E+02 -4.502770946E+02  4.636582676E+02  4.750000000E+00  0.00000E+00  9.000E+00
       2     1     1     2   502     0 -6.500131492E+00  1.543967492E+01  1.335580363E+03  1.335685420E+03  2.157918644E-05  0.00000E+00  9.000E+00
#rwgt            1           9   6.2294270347499790E-003           6      358762           0
</event>
<event>
      6   9999  3.45752E-01  1.50807E+01 -1.00000E+00  1.70170E-01
      21    -1     0     0   502   503  0.000000000E+00  0.000000000E+00  7.207302473E+00  7.207302473E+00  0.000000000E+00  0.00000E+00  9.000E+00
      21    -1     0     0   511   502  0.000000000E+00  0.000000000E+00 -1.371566531E+03  1.371566531E+03  0.000000000E+00  0.00000E+00  9.000E+00
      25     1     1     2     0     0  3.348728759E+00 -1.618045431E+01 -5.939123085E+02  6.071486474E+02  1.249985151E+02  0.00000E+00  9.000E+00
       5     1     1     2   501     0  3.578252703E-01  2.329848255E+00 -5.406062071E+01  5.432006483E+01  4.750000000E+00  0.00000E+00  9.000E+00
      -5     1     1     2     0   503 -7.556672776E+00 -7.303646699E-01 -5.328157851E+01  5.402893526E+01  4.750000000E+00  0.00000E+00  9.000E+00
      21     1     1     2   511   501  3.850118747E+00  1.458097072E+01 -6.631047206E+02  6.632761858E+02  1.078959322E-05  0.00000E+00  9.000E+00
#rwgt            1           9   4.0116227294327263E-003           6      362305           0
</event>
<event>
      6   9999  3.45752E-01  1.22444E+01 -1.00000E+00  1.78383E-01
      21    -1     0     0   512   503  0.000000000E+00  0.000000000E+00  2.686976862E+01  2.686976862E+01  0.000000000E+00  0.00000E+00  9.000E+00
      21    -1     0     0   501   502  0.000000000E+00  0.000000000E+00 -9.713783467E+02  9.713783467E+02  0.000000000E+00  0.00000E+00  9.000E+00
      25     1     1     2     0     0 -4.958724572E+01  2.097004158E+00 -6.449029252E+02  6.587784167E+02  1.250037083E+02  0.00000E+00  9.000E+00
       5     1     1     2   501     0  1.048561152E+01  9.108661417E+00 -2.958552068E+02  2.962191446E+02  4.750000000E+00  0.00000E+00  9.000E+00
      -5     1     1     2     0   503  2.890971731E+01 -4.419645471E+00 -7.275149148E+00  3.050893830E+01  4.750000000E+00  0.00000E+00  9.000E+00
      21     1     1     2   512   502  1.019191689E+01 -6.786020104E+00  3.524703005E+00  1.274161567E+01  4.597678369E-07  0.00000E+00  9.000E+00
#rwgt            1           9   2.5695954067587192                6      363768           0
</event>
<event>
      6   9999 -3.45752E-01  2.90616E+01 -1.00000E+00  1.48736E-01
      21    -1     0     0   501   502  0.000000000E+00  0.000000000E+00  7.095733119E+02  7.095733119E+02  0.000000000E+00  0.00000E+00  9.000E+00
      21    -1     0     0   502   511  0.000000000E+00  0.000000000E+00 -2.504625568E+02  2.504625568E+02  0.000000000E+00  0.00000E+00  9.000E+00
      25     1     1     2     0     0 -7.559573062E+01  1.319009326E+02 -4.175053570E+01  2.012026991E+02  1.250073933E+02  0.00000E+00  9.000E+00
       5     1     1     2   501     0 -1.038443550E+01  1.862773004E+00  5.782506324E+02  5.783663742E+02  4.750000000E+00  0.00000E+00  9.000E+00
      -5     1     1     2     0   503  8.250611761E+01 -1.049105089E+02 -5.847499804E+01  1.457921885E+02  4.750000000E+00  0.00000E+00  9.000E+00
      21     1     1     2   503   511  3.474048509E+00 -2.885319669E+01 -1.891434363E+01  3.467460696E+01  2.384185791E-07  0.00000E+00  9.000E+00
#rwgt            1           9  -2.6277019490002052E-002           6      366157           0
</event>
<event>
      6   9999  3.45752E-01  3.08759E+01 -1.00000E+00  1.47034E-01
      21    -1     0     0   501   502  0.000000000E+00  0.000000000E+00  7.670697001E+01  7.670697001E+01  0.000000000E+00  0.00000E+00  9.000E+00
      21    -1     0     0   502   512  0.000000000E+00  0.000000000E+00 -1.296737528E+03  1.296737528E+03  0.000000000E+00  0.00000E+00  9.000E+00
      25     1     1     2     0     0  6.130326917E+01 -4.537642015E+01 -9.354573843E+01  1.737611935E+02  1.250001474E+02  0.00000E+00  9.000E+00
       5     1     1     2   501     0  8.811089979E-01 -2.564775938E+00  3.410675177E+01  3.454254544E+01  4.750000000E+00  0.00000E+00  9.000E+00
      -5     1     1     2     0   503 -4.670501897E+01  2.122580900E+01 -1.015217509E+03  1.016524003E+03  4.750000000E+00  0.00000E+00  9.000E+00
      21     1     1     2   503   512 -1.547935919E+01  2.671538708E+01 -1.453740622E+02  1.486167569E+02  0.000000000E+00  0.00000E+00  9.000E+00
#rwgt            1           9   33.469119879237631                6      368828           0
</event>
<event>
      6   9999  3.45752E-01  8.52721E+00 -1.00000E+00  1.94789E-01
      21    -1     0     0   501   511  0.000000000E+00  0.000000000E+00  1.030064345E+01  1.030064345E+01  0.000000000E+00  0.00000E+00  9.000E+00
      21    -1     0     0   502   503  0.000000000E+00  0.000000000E+00 -7.397348117E+02  7.397348117E+02  0.000000000E+00  0.00000E+00  9.000E+00
      25     1     1     2     0     0  9.175707998E+00 -2.477648050E+01 -6.579405729E+02  6.702306200E+02  1.250008755E+02  0.00000E+00  9.000E+00
       5     1     1     2   501     0 -7.109393322E+00  5.955488562E+00 -2.835130605E+01  3.020546924E+01  4.750000000E+00  0.00000E+00  9.000E+00
      -5     1     1     2     0   503 -7.181468184E-01  1.040103377E+01 -3.789034691E+01  3.958456931E+01  4.750000000E+00  0.00000E+00  9.000E+00
      21     1     1     2   502   511 -1.348167858E+00  8.419958175E+00 -5.251942372E+00  1.001479660E+01  5.127385418E-07  0.00000E+00  9.000E+00
#rwgt            1           9   6.9104985722739072E-006           6      370784           0
</event>
<event>
      6   9999  3.45752E-01  1.00007E+01 -1.00000E+00  1.87191E-01
      21    -1     0     0   512   502  0.000000000E+00  0.000000000E+00  2.435310910E+02  2.435310910E+02  0.000000000E+00  0.00000E+00  9.000E+00
      21    -1     0     0   502   503  0.000000000E+00  0.000000000E+00 -1.313131781E+02  1.313131781E+02  0.000000000E+00  0.00000E+00  9.000E+00
      25     1     1     2     0     0  2.167046859E+01  1.593371086E+01 -5.314935489E-01  1.278601825E+02  1.249978057E+02  0.00000E+00  9.000E+00
       5     1     1     2   501     0 -5.115741049E+00  3.916405739E+00  1.656781839E+02  1.658714326E+02  4.750000000E+00  0.00000E+00  9.000E+00
      -5     1     1     2     0   503 -1.290689328E+01 -1.053847604E+01 -6.393520551E+01  6.624137962E+01  4.750000000E+00  0.00000E+00  9.000E+00
      21     1     1     2   512   501 -3.647834266E+00 -9.311640554E+00  1.100642811E+01  1.487127447E+01  2.665600750E-07  0.00000E+00  9.000E+00
#rwgt            1           9   19.853641507050870                6      373196           0
</event>
<event>
      6   9999  3.45752E-01  5.31382E+00 -1.00000E+00  2.21679E-01
      21    -1     0     0   501   511  0.000000000E+00  0.000000000E+00  1.308109190E+02  1.308109190E+02  0.000000000E+00  0.00000E+00  9.000E+00
      21    -1     0     0   502   503  0.000000000E+00  0.000000000E+00 -8.695361550E+02  8.695361550E+02  0.000000000E+00  0.00000E+00  9.000E+00
      25     1     1     2     0     0  5.131508243E+00 -2.594630214E+00 -8.340010299E+02  8.433348175E+02  1.249913281E+02  0.00000E+00  9.000E+00
       5     1     1     2   501     0  1.236074615E+00  2.795643536E+00  8.952095096E+00  1.058517878E+01  4.750000000E+00  0.00000E+00  9.000E+00
      -5     1     1     2     0   503 -2.096743740E+00 -3.362756073E+00 -2.967187569E+01  3.030985268E+01  4.750000000E+00  0.00000E+00  9.000E+00
      21     1     1     2   502   511 -4.270839118E+00  3.161742751E+00  1.159955744E+02  1.161172251E+02  3.814697266E-06  0.00000E+00  9.000E+00
#rwgt            1           9   2.6594374843948829E-003           6      376575           0
</event>
<event>
      6   9999  3.45752E-01  8.65861E+00 -1.00000E+00  1.94033E-01
      21    -1     0     0   512   502  0.000000000E+00  0.000000000E+00  9.605793352E+00  9.605793352E+00  0.000000000E+00  0.00000E+00  9.000E+00
      21    -1     0     0   502   503  0.000000000E+00  0.000000000E+00 -7.693461780E+02  7.693461780E+02  0.000000000E+00  0.00000E+00  9.000E+00
      25     1     1     2     0     0 -4.237526452E+00 -7.236584142E+00 -5.357032085E+02  5.501576430E+02  1.250007193E+02  0.00000E+00  9.000E+00
       5     1     1     2   501     0 -8.534061637E-01 -7.650881453E-01 -2.925269443E+00  5.695029698E+00  4.750000000E+00  0.00000E+00  9.000E+00
      -5     1     1     2     0   503 -8.229951014E-03  1.003810667E+00 -2.026462447E+02  2.027043924E+02  4.750000000E+00  0.00000E+00  9.000E+00
      21     1     1     2   512   501  5.099162567E+00  6.997861621E+00 -1.846566204E+01  2.039490624E+01  2.384185791E-07  0.00000E+00  9.000E+00
#rwgt            1           9   1.1643834249750653E-003           6      380823           0
</event>
<event>
      6   9999 -3.45752E-01  2.03570E+01 -1.00000E+00  1.59626E-01
      21    -1     0     0   501   511  0.000000000E+00  0.000000000E+00  7.178068440E+01  7.178068440E+01  0.000000000E+00  0.00000E+00  9.000E+00
      21    -1     0     0   502   503  0.000000000E+00  0.000000000E+00 -9.548377983E+02  9.548377983E+02  0.000000000E+00  0.00000E+00  9.000E+00
      25     1     1     2     0     0  7.889684998E+00 -3.283243501E+01 -7.415150886E+02  7.527338052E+02  1.249933556E+02  0.00000E+00  9.000E+00
       5     1     1     2   501     0 -8.305822798E+00 -2.530352824E+00  1.067791712E+01  1.455918238E+01  4.750000000E+00  0.00000E+00  9.000E+00
      -5     1     1     2     0   503 -1.544098745E+01  2.259717705E+01 -2.028568031E+02  2.047498512E+02  4.750000000E+00  0.00000E+00  9.000E+00
      21     1     1     2   502   511  1.585712525E+01  1.276561078E+01  5.063686073E+01  5.457564387E+01  1.784161275E-06  0.00000E+00  9.000E+00
#rwgt            1           9  -2.5302393671304197                6      383472           0
</event>
<event>
      6   9999 -3.45752E-01  3.50625E+01 -1.00000E+00  1.43587E-01
      21    -1     0     0   501   512  0.000000000E+00  0.000000000E+00  6.376593061E+01  6.376593061E+01  0.000000000E+00  0.00000E+00  9.000E+00
      21    -1     0     0   502   503  0.000000000E+00  0.000000000E+00 -8.401798520E+02  8.401798520E+02  0.000000000E+00  0.00000E+00  9.000E+00
      25     1     1     2     0     0  8.392035021E+01 -9.384147924E+01 -7.399450538E+02  7.609154596E+02  1.249992226E+02  0.00000E+00  9.000E+00
       5     1     1     2   501     0  1.969678594E-01 -2.228828164E+00  6.329242979E+00  8.223642016E+00  4.750000000E+00  0.00000E+00  9.000E+00
      -5     1     1     2     0   503 -6.092465565E+01  6.977426481E+01 -3.208107245E+01  9.814285203E+01  4.750000000E+00  0.00000E+00  9.000E+00
      21     1     1     2   502   512 -2.319266242E+01  2.629604259E+01 -1.071703811E+01  3.666382894E+01  4.298152060E-07  0.00000E+00  9.000E+00
#rwgt            1           9  -1.6708625835971529E-004           6      385218           0
</event>
<event>
      6   9999  3.45752E-01  7.42347E+00 -1.00000E+00  2.01940E-01
      21    -1     0     0   501   511  0.000000000E+00  0.000000000E+00  1.019207333E+01  1.019207333E+01  0.000000000E+00  0.00000E+00  9.000E+00
      21    -1     0     0   502   503  0.000000000E+00  0.000000000E+00 -6.914656104E+02  6.914656104E+02  0.000000000E+00  0.00000E+00  9.000E+00
      25     1     1     2     0     0 -1.802430861E+01  3.062178916E+00 -6.000921375E+02  6.132453258E+02  1.250000138E+02  0.00000E+00  9.000E+00
       5     1     1     2   501     0  3.401519765E+00 -4.764090402E+00 -3.008205643E+01  3.101224779E+01  4.750000000E+00  0.00000E+00  9.000E+00
      -5     1     1     2     0   503  7.209628751E+00  2.093032184E+00 -4.883862156E+01  4.964003411E+01  4.750000000E+00  0.00000E+00  9.000E+00
      21     1     1     2   502   511  7.413160095E+00 -3.911206981E-01 -2.260721545E+00  7.760076024E+00  1.074538015E-07  0.00000E+00  9.000E+00
#rwgt            1           9   6.5690120094433384E-003           6      386570           0
</event>
<event>
      6   9999 -3.45752E-01  1.54885E+01 -1.00000E+00  1.69174E-01
      21    -1     0     0   501   502  0.000000000E+00  0.000000000E+00  1.284943733E+01  1.284943733E+01  0.000000000E+00  0.00000E+00  9.000E+00
       2    -1     0     0   502     0  0.000000000E+00  0.000000000E+00 -1.633674581E+03  1.633674581E+03  0.000000000E+00  0.00000E+00  9.000E+00
      25     1     1     2     0     0 -8.804054944E+00  6.739299772E+00 -6.963207895E+02  7.075381870E+02  1.249988580E+02  0.00000E+00  9.000E+00
       5     1     1     2   501     0  1.941553172E+00  2.522929839E+00  4.781652749E+00  7.453959129E+00  4.750000000E+00  0.00000E+00  9.000E+00
      -5     1     1     2     0   503  2.209282026E+01 -6.445991204E+00 -1.307007914E+02  1.327964717E+02  4.750000000E+00  0.00000E+00  9.000E+00
       2     1     1     2   503     0 -1.523031849E+01 -2.816238408E+00 -7.985852159E+02  7.987354011E+02  1.525878906E-05  0.00000E+00  9.000E+00
#rwgt            1           9  -3.8613132955732897E-002           6      389193           0
</event>
<event>
      6   9999  3.45752E-01  8.92777E+00 -1.00000E+00  1.92536E-01
      21    -1     0     0   501   502  0.000000000E+00  0.000000000E+00  2.075198966E+01  2.075198966E+01  0.000000000E+00  0.00000E+00  9.000E+00
      21    -1     0     0   511   503  0.000000000E+00  0.000000000E+00 -1.516056395E+03  1.516056395E+03  0.000000000E+00  0.00000E+00  9.000E+00
      25     1     1     2     0     0 -2.472389253E+00  1.123607230E+01 -1.103800308E+03  1.110915017E+03  1.249987747E+02  0.00000E+00  9.000E+00
       5     1     1     2   501     0 -1.312321423E+00 -9.263824942E-01  1.652422888E+01  1.726826605E+01  4.750000000E+00  0.00000E+00  9.000E+00
      -5     1     1     2     0   503  3.223229544E+00 -1.399590538E+00 -3.538947829E+01  3.587932184E+01  4.750000000E+00  0.00000E+00  9.000E+00
      21     1     1     2   511   502  5.614811319E-01 -8.910099271E+00 -3.726388484E+02  3.727457800E+02  7.629394531E-06  0.00000E+00  9.000E+00
#rwgt            1           9   1.1867790277493910E-005           6      391124           0
</event>
<event>
      6   9999  3.45752E-01  2.54666E+00 -1.00000E+00  2.96949E-01
       2    -1     0     0   501     0  0.000000000E+00  0.000000000E+00  7.265157334E+02  7.265157334E+02  0.000000000E+00  0.00000E+00  9.000E+00
      21    -1     0     0   502   503  0.000000000E+00  0.000000000E+00 -8.323863579E+02  8.323863579E+02  0.000000000E+00  0.00000E+00  9.000E+00
      25     1     1     2     0     0  1.826214952E+00 -2.074708998E+00 -7.686424015E+02  7.787447581E+02  1.249984696E+02  0.00000E+00  9.000E+00
       5     1     1     2   501     0  1.800090871E+00 -3.143524108E+00  6.070472991E+00  8.516760728E+00  4.750000000E+00  0.00000E+00  9.000E+00
      -5     1     1     2     0   503 -3.776965068E+00  2.676037959E+00 -5.727599765E+01  5.765872918E+01  4.750000000E+00  0.00000E+00  9.000E+00
       2     1     1     2   502     0  1.506592459E-01  2.542195147E+00  7.139773016E+02  7.139818434E+02  1.321449896E-05  0.00000E+00  9.000E+00
#rwgt            1           9   6.0096615834797579E-003           6      394385           0
</event>
<event>
      6   9999 -3.45752E-01  5.77720E+00 -1.00000E+00  2.16373E-01
      21    -1     0     0   501   502  0.000000000E+00  0.000000000E+00  1.119805611E+01  1.119805611E+01  0.000000000E+00  0.00000E+00  9.000E+00
      -2    -1     0     0     0   503  0.000000000E+00  0.000000000E+00 -1.163078876E+03  1.163078876E+03  0.000000000E+00  0.00000E+00  9.000E+00
      25     1     1     2     0     0 -1.138739246E+01 -6.576140961E+00 -7.384149708E+02  7.490351688E+02  1.249963866E+02  0.00000E+00  9.000E+00
       5     1     1     2   501     0 -9.555584599E-01  1.287821233E+00  7.231588293E-01  5.065277306E+00  4.750000000E+00  0.00000E+00  9.000E+00
      -5     1     1     2     0   503  6.611070259E+00  6.010555761E+00 -5.636221130E+00  1.158285453E+01  4.750000000E+00  0.00000E+00  9.000E+00
      -2     1     1     2     0   502  5.731880663E+00 -7.222360330E-01 -4.085527868E+02  4.085936315E+02  5.394796609E-06  0.00000E+00  9.000E+00
#rwgt            1           9  -4.1571480950774656E-004           6      400759           0
</event>
<event>
      6   9999  3.45752E-01  2.98783E+01 -1.00000E+00  1.47952E-01
      21    -1     0     0   501   502  0.000000000E+00  0.000000000E+00  2.017936600E+03  2.017936600E+03  0.000000000E+00  0.00000E+00  9.000E+00
      21    -1     0     0   502   511  0.000000000E+00  0.000000000E+00 -3.952943931E+02  3.952943931E+02  0.000000000E+00  0.00000E+00  9.000E+00
      25     1     1     2     0     0 -2.746977582E+01 -3.031360002E+01  1.070688592E+02  1.695948669E+02  1.250007013E+02  0.00000E+00  9.000E+00
       5     1     1     2   501     0 -1.228711511E+00  4.743995564E+00  1.785937190E+03  1.785950230E+03  4.750000000E+00  0.00000E+00  9.000E+00
      -5     1     1     2     0   503 -5.013743218E-01  3.190060283E+01  9.024755314E+01  9.583883965E+01  4.750000000E+00  0.00000E+00  9.000E+00
      21     1     1     2   503   511  2.919986166E+01 -6.330998382E+00 -3.606113957E+02  3.618470564E+02  5.394796609E-06  0.00000E+00  9.000E+00
#rwgt            1           9   1.7180351973787250E-003           6      404464           0
</event>
<event>
      6   9999  3.45752E-01  1.21089E+01 -1.00000E+00  1.78845E-01
      21    -1     0     0   501   502  0.000000000E+00  0.000000000E+00  7.093449983E+00  7.093449983E+00  0.000000000E+00  0.00000E+00  9.000E+00
       2    -1     0     0   502     0  0.000000000E+00  0.000000000E+00 -1.626338870E+03  1.626338870E+03  0.000000000E+00  0.00000E+00  9.000E+00
      25     1     1     2     0     0 -1.529031015E+00 -4.688842841E+00 -6.360497622E+02  6.482364677E+02  1.250075794E+02  0.00000E+00  9.000E+00
       5     1     1     2   501     0 -6.124003134E+00  5.946122423E+00 -3.547349989E+01  3.679390549E+01  4.750000000E+00  0.00000E+00  9.000E+00
      -5     1     1     2     0   503 -4.413796471E+00 -2.266301929E+00 -3.907581176E+01  3.967492015E+01  4.750000000E+00  0.00000E+00  9.000E+00
       2     1     1     2   503     0  1.206683062E+01  1.009022347E+00 -9.086463466E+02  9.087270271E+02  1.078959322E-05  0.00000E+00  9.000E+00
#rwgt            1           9   4.1533675894260921E-004           6      406342           0
</event>
<event>
      6   9999 -3.45752E-01  2.64664E+01 -1.00000E+00  1.51447E-01
      21    -1     0     0   501   502  0.000000000E+00  0.000000000E+00  1.181735967E+01  1.181735967E+01  0.000000000E+00  0.00000E+00  9.000E+00
      21    -1     0     0   511   503  0.000000000E+00  0.000000000E+00 -9.519262300E+02  9.519262300E+02  0.000000000E+00  0.00000E+00  9.000E+00
      25     1     1     2     0     0  1.445188065E+01 -2.160084992E+01 -7.037207665E+02  7.152087834E+02  1.250009328E+02  0.00000E+00  9.000E+00
       5     1     1     2   501     0  2.718846637E+00 -1.964931852E+00  2.762492216E+00  6.437930371E+00  4.750000000E+00  0.00000E+00  9.000E+00
      -5     1     1     2     0   503  4.135479193E+00  7.864983197E+00 -9.536041549E+01  9.589124825E+01  4.750000000E+00  0.00000E+00  9.000E+00
      21     1     1     2   511   502 -2.130620648E+01  1.570079858E+01 -1.437901806E+02  1.462056276E+02  0.000000000E+00  0.00000E+00  9.000E+00
#rwgt            1           9  -4.5163838188718684E-003           6      408456           0
</event>
<event>
      6   9999 -3.45752E-01  5.97567E+01 -1.00000E+00  1.30772E-01
      21    -1     0     0   502   503  0.000000000E+00  0.000000000E+00  1.801277968E+01  1.801277968E+01  0.000000000E+00  0.00000E+00  9.000E+00
      21    -1     0     0   501   512  0.000000000E+00  0.000000000E+00 -1.285049136E+03  1.285049136E+03  0.000000000E+00  0.00000E+00  9.000E+00
      25     1     1     2     0     0 -6.745289949E+01 -1.752068570E+01 -4.509120877E+02  4.730772619E+02  1.249940674E+02  0.00000E+00  9.000E+00
       5     1     1     2   501     0 -2.966630827E+00 -1.870764447E+01 -4.085625161E+02  4.090289341E+02  4.750000000E+00  0.00000E+00  9.000E+00
      -5     1     1     2     0   503  2.993209076E+01 -7.721960503E+00 -5.419297895E+01  6.256996243E+01  4.750000000E+00  0.00000E+00  9.000E+00
      21     1     1     2   502   512  4.048743956E+01  4.395029068E+01 -3.533687737E+02  3.583857573E+02  6.607249480E-06  0.00000E+00  9.000E+00
#rwgt            1           9 -0.78007727298494056                6      409450           0
</event>
<event>
      6   9999  3.45752E-01  4.66161E+00 -1.00000E+00  2.34849E-01
      21    -1     0     0   501   502  0.000000000E+00  0.000000000E+00  2.045875693E+01  2.045875693E+01  0.000000000E+00  0.00000E+00  9.000E+00
      21    -1     0     0   511   503  0.000000000E+00  0.000000000E+00 -5.282215508E+02  5.282215508E+02  0.000000000E+00  0.00000E+00  9.000E+00
      25     1     1     2     0     0 -7.571204825E+00  3.281488532E+01 -2.519031788E+02  2.832258120E+02  1.250100365E+02  0.00000E+00  9.000E+00
       5     1     1     2   501     0 -3.338815103E+00 -2.007718490E+00 -5.508664888E+00  8.251454943E+00  4.750000000E+00  0.00000E+00  9.000E+00
      -5     1     1     2     0   503  7.635743815E+00 -2.748907427E+01 -5.815088477E+01  6.494645246E+01  4.750000000E+00  0.00000E+00  9.000E+00
      21     1     1     2   511   502  3.274276113E+00 -3.318092563E+00 -1.922000654E+02  1.922565884E+02  5.394796609E-06  0.00000E+00  9.000E+00
#rwgt            1           9   1.9410423620143573                6      410680           0
</event>
<event>
      6   9999  3.45752E-01  9.02032E+00 -1.00000E+00  1.92037E-01
      21    -1     0     0   501   502  0.000000000E+00  0.000000000E+00  1.670176988E+01  1.670176988E+01  0.000000000E+00  0.00000E+00  9.000E+00
      21    -1     0     0   502   512  0.000000000E+00  0.000000000E+00 -9.905322948E+02  9.905322948E+02  0.000000000E+00  0.00000E+00  9.000E+00
      25     1     1     2     0     0 -6.170061699E+01 -2.547896008E+01 -5.576038035E+02  5.753298897E+02  1.250053468E+02  0.00000E+00  9.000E+00
       5     1     1     2   501     0 -1.515677822E+00 -1.033274813E+00  2.816901370E+00  5.819138203E+00  4.750000000E+00  0.00000E+00  9.000E+00
      -5     1     1     2     0   503  6.526316599E+01  1.772721779E+01 -3.557820313E+02  3.621835879E+02  4.750000000E+00  0.00000E+00  9.000E+00
      21     1     1     2   503   512 -2.046871185E+00  8.785017106E+00 -6.326159159E+01  6.390144894E+01  0.000000000E+00  0.00000E+00  9.000E+00
#rwgt            1           9   4.1292251010326764E-003           6      414935           0
</event>
<event>
      6   9999  3.45752E-01  6.48932E+00 -1.00000E+00  2.09423E-01
      21    -1     0     0   501   511  0.000000000E+00  0.000000000E+00  1.021373217E+01  1.021373217E+01  0.000000000E+00  0.00000E+00  9.000E+00
      21    -1     0     0   502   503  0.000000000E+00  0.000000000E+00 -8.229416965E+02  8.229416965E+02  0.000000000E+00  0.00000E+00  9.000E+00
      25     1     1     2     0     0 -5.599319655E-01  2.413383223E+01 -5.019095826E+02  5.178040128E+02  1.250000448E+02  0.00000E+00  9.000E+00
       5     1     1     2   501     0 -3.613152257E-01  1.448718637E-01 -3.027543980E+00  5.646242919E+00  4.750000000E+00  0.00000E+00  9.000E+00
      -5     1     1     2     0   503 -1.102360478E+00 -1.811297015E+01 -2.924150325E+02  2.930160552E+02  4.750000000E+00  0.00000E+00  9.000E+00
      21     1     1     2   502   511  2.023607669E+00 -6.165733943E+00 -1.537580535E+01  1.668911780E+01  3.371747881E-07  0.00000E+00  9.000E+00
#rwgt            1           9   2.7221343470003592                6      417983           0
</event>
<event>
      6   9999  3.45752E-01  1.17201E+01 -1.00000E+00  1.80214E-01
      21    -1     0     0   512   502  0.000000000E+00  0.000000000E+00  2.732676952E+01  2.732676952E+01  0.000000000E+00  0.00000E+00  9.000E+00
      21    -1     0     0   502   503  0.000000000E+00  0.000000000E+00 -1.109758831E+03  1.109758831E+03  0.000000000E+00  0.00000E+00  9.000E+00
      25     1     1     2     0     0 -3.792740941E-01  1.948674342E+00 -9.048761039E+02  9.134714125E+02  1.250012668E+02  0.00000E+00  9.000E+00
       5     1     1     2   501     0  1.619850752E+00  2.969895773E+00  2.125692064E+01  2.204230869E+01  4.750000000E+00  0.00000E+00  9.000E+00
      -5     1     1     2     0   503 -1.296025548E+01 -4.813966430E+00 -1.675130409E+02  1.681497068E+02  4.750000000E+00  0.00000E+00  9.000E+00
      21     1     1     2   512   501  1.171967882E+01 -1.046036858E-01 -3.129983744E+01  3.342217284E+01  0.000000000E+00  0.00000E+00  9.000E+00
#rwgt            1           9   2.3741300807806246E-004           6      421068           0
</event>
<event>
      6   9999  3.45752E-01  2.19436E+01 -1.00000E+00  1.57196E-01
      21    -1     0     0   502   511  0.000000000E+00  0.000000000E+00  2.567469738E+02  2.567469738E+02  0.000000000E+00  0.00000E+00  9.000E+00
      21    -1     0     0   501   502  0.000000000E+00  0.000000000E+00 -7.167487850E+02  7.167487850E+02  0.000000000E+00  0.00000E+00  9.000E+00
      25     1     1     2     0     0 -2.001511214E+01 -1.054409716E+01 -5.864266321E+02  6.000290775E+02  1.250076650E+02  0.00000E+00  9.000E+00
       5     1     1     2   501     0  6.084797571E+00 -3.906039841E+00 -8.535796871E+01  8.579526345E+01  4.750000000E+00  0.00000E+00  9.000E+00
      -5     1     1     2     0   503  2.389495247E+00 -4.213448344E+00 -3.715452487E+01  3.776882382E+01  4.750000000E+00  0.00000E+00  9.000E+00
      21     1     1     2   503   511  1.154081932E+01  1.866358534E+01  2.489373145E+02  2.499025939E+02  2.697398305E-06  0.00000E+00  9.000E+00
#rwgt            1           9   5.0015413191267234E-005           6      424410           0
</event>
<event>
      6   9999  3.45752E-01  3.82081E+00 -1.00000E+00  2.52043E-01
      21    -1     0     0   501   502  0.000000000E+00  0.000000000E+00  3.478532537E+01  3.478532537E+01  0.000000000E+00  0.00000E+00  9.000E+00
      21    -1     0     0   502   512  0.000000000E+00  0.000000000E+00 -1.394310782E+03  1.394310782E+03  0.000000000E+00  0.00000E+00  9.000E+00
      25     1     1     2     0     0 -8.360087136E+01 -7.895437271E+01 -2.767218212E+02  3.246890759E+02  1.250005242E+02  0.00000E+00  9.000E+00
       5     1     1     2   501     0  1.296102111E+00 -3.881398503E-01  6.396242591E+00  8.081147970E+00  4.750000000E+00  0.00000E+00  9.000E+00
      -5     1     1     2     0   503  8.511317017E+01  8.193316495E+01 -9.873375916E+02  9.943919638E+02  4.750000000E+00  0.00000E+00  9.000E+00
      21     1     1     2   503   512 -2.808400913E+00 -2.590652395E+00 -1.018622859E+02  1.019339192E+02  1.348699152E-06  0.00000E+00  9.000E+00
#rwgt            1           9   5.5364692614777997E-005           6      425684           0
</event>
<event>
      6   9999  3.45752E-01  1.98222E+01 -1.00000E+00  1.60507E-01
       2    -1     0     0   502     0  0.000000000E+00  0.000000000E+00  2.311827871E+01  2.311827871E+01  0.000000000E+00  0.00000E+00  9.000E+00
      21    -1     0     0   501   502  0.000000000E+00  0.000000000E+00 -1.829546995E+03  1.829546995E+03  0.000000000E+00  0.00000E+00  9.000E+00
      25     1     1     2     0     0 -5.140939277E+01  9.032504644E+01 -7.721786541E+02  7.891002168E+02  1.249709513E+02  0.00000E+00  9.000E+00
       5     1     1     2   501     0  5.120906674E+01 -4.831906747E+01 -6.968285905E+02  7.003925670E+02  4.750000000E+00  0.00000E+00  9.000E+00
      -5     1     1     2     0   503 -8.981893536E+00 -2.443883519E+01 -3.418406446E+02  3.428637045E+02  4.750000000E+00  0.00000E+00  9.000E+00
       2     1     1     2   503     0  9.182219559E+00 -1.756714378E+01  4.419172496E+00  2.030878583E+01  1.500806607E-06  0.00000E+00  9.000E+00
#rwgt            1           9   4.5636845184084422E-003           6      433664           0
</event>
<event>
      6   9999  3.45752E-01  2.11342E+00 -1.00000E+00  3.23885E-01
      21    -1     0     0   501   502  0.000000000E+00  0.000000000E+00  2.899674864E+00  2.899674864E+00  0.000000000E+00  0.00000E+00  9.000E+00
      21    -1     0     0   511   503  0.000000000E+00  0.000000000E+00 -2.041817191E+03  2.041817191E+03  0.000000000E+00  0.00000E+00  9.000E+00
      25     1     1     2     0     0  1.749611618E+00  7.993175886E-01 -1.781305317E+03  1.785686869E+03  1.250010524E+02  0.00000E+00  9.000E+00
       5     1     1     2   501     0  7.375904871E-01  6.782296568E-01 -8.917172897E+00  1.015295561E+01  4.750000000E+00  0.00000E+00  9.000E+00
      -5     1     1     2     0   503 -5.134443255E-01 -7.220090439E-01 -6.874419551E+01  6.891380006E+01  4.750000000E+00  0.00000E+00  9.000E+00
      21     1     1     2   511   502 -1.973757780E+00 -7.555382015E-01 -1.799508306E+02  1.799632407E+02  1.907348633E-06  0.00000E+00  9.000E+00
#rwgt            1           9   1.8943335404810510E-004           6      435599           0
</event>
<event>
      6   9999 -3.45752E-01  9.93058E+00 -1.00000E+00  1.87513E-01
      21    -1     0     0   501   512  0.000000000E+00  0.000000000E+00  2.545516685E+01  2.545516685E+01  0.000000000E+00  0.00000E+00  9.000E+00
      21    -1     0     0   502   503  0.000000000E+00  0.000000000E+00 -5.053596240E+02  5.053596240E+02  0.000000000E+00  0.00000E+00  9.000E+00
      25     1     1     2     0     0 -1.043272250E+01  2.737756537E+01 -4.576528445E+02  4.753208609E+02  1.250016878E+02  0.00000E+00  9.000E+00
       5     1     1     2   501     0 -5.378253131E-01  1.163261214E-02  8.310783040E+00  9.587544322E+00  4.750000000E+00  0.00000E+00  9.000E+00
      -5     1     1     2     0   503  1.441576052E+01 -1.807539381E+01 -1.695846533E+01  2.906348326E+01  4.750000000E+00  0.00000E+00  9.000E+00
      21     1     1     2   502   512 -3.445212709E+00 -9.313804177E+00 -1.360393035E+01  1.684290236E+01  2.920019320E-07  0.00000E+00  9.000E+00
#rwgt            1           9  -8.2624775641971319E-005           6      442802           0
</event>
<event>
      6   9999  3.45752E-01  1.19182E+01 -1.00000E+00  1.79508E-01
      21    -1     0     0   501   511  0.000000000E+00  0.000000000E+00  2.664997435E+01  2.664997435E+01  0.000000000E+00  0.00000E+00  9.000E+00
      21    -1     0     0   502   503  0.000000000E+00  0.000000000E+00 -8.094470080E+02  8.094470080E+02  0.000000000E+00  0.00000E+00  9.000E+00
      25     1     1     2     0     0 -8.014439227E+00 -4.495206416E+00 -7.218752390E+02  7.326753664E+02  1.249995750E+02  0.00000E+00  9.000E+00
       5     1     1     2   501     0 -6.138545948E-01  4.409626760E-01 -9.236881539E+00  1.041411283E+01  4.750000000E+00  0.00000E+00  9.000E+00
      -5     1     1     2     0   503 -1.747510921E+00  9.918162602E+00 -7.015107501E+01  7.102928669E+01  4.750000000E+00  0.00000E+00  9.000E+00
      21     1     1     2   502   511  1.037580474E+01 -5.863918862E+00  1.846616181E+01  2.197821650E+01  1.450243599E-06  0.00000E+00  9.000E+00
#rwgt            1           9   2.1349961617898286E-003           6      445796           0
</event>
<event>
      6   9999  3.45752E-01  1.51717E+01 -1.00000E+00  1.69944E-01
      21    -1     0     0   501   512  0.000000000E+00  0.000000000E+00  2.456003657E+01  2.456003657E+01  0.000000000E+00  0.00000E+00  9.000E+00
      21    -1     0     0   502   503  0.000000000E+00  0.000000000E+00 -9.496025948E+02  9.496025948E+02  0.000000000E+00  0.00000E+00  9.000E+00
      25     1     1     2     0     0 -4.236304553E+01 -4.089085694E+01 -3.907054723E+02  4.144174310E+02  1.249974048E+02  0.00000E+00  9.000E+00
       5     1     1     2   501     0  2.093135823E+00 -4.523635235E+00  6.696823886E+00  9.604917672E+00  4.750000000E+00  0.00000E+00  9.000E+00
      -5     1     1     2     0   503  3.933783706E+01  3.027142614E+01 -5.273713891E+02  5.297234837E+02  4.750000000E+00  0.00000E+00  9.000E+00
      21     1     1     2   502   512  9.320726518E-01  1.514306603E+01 -1.366252068E+01  2.041679896E+01  2.384185791E-07  0.00000E+00  9.000E+00
#rwgt            1           9   2.0630315119464580E-004           6      448070           0
</event>
<event>
      6   9999  3.45752E-01  1.60833E+01 -1.00000E+00  1.67788E-01
      21    -1     0     0   501   511  0.000000000E+00  0.000000000E+00  3.097208391E+01  3.097208391E+01  0.000000000E+00  0.00000E+00  9.000E+00
      21    -1     0     0   502   503  0.000000000E+00  0.000000000E+00 -5.803154750E+02  5.803154750E+02  0.000000000E+00  0.00000E+00  9.000E+00
      25     1     1     2     0     0 -5.836471759E+01  4.572866177E+01 -3.042077751E+02  3.371524498E+02  1.250274097E+02  0.00000E+00  9.000E+00
       5     1     1     2   501     0 -1.195713659E+01 -1.635477681E+01 -2.595066604E+01  3.326336436E+01  4.750000000E+00  0.00000E+00  9.000E+00
      -5     1     1     2     0   503  5.450436161E+01 -3.228597687E+01 -2.150900941E+02  2.242753237E+02  4.750000000E+00  0.00000E+00  9.000E+00
      21     1     1     2   502   511  1.581749257E+01  2.912091912E+00 -4.094855868E+00  1.659642116E+01  5.527507362E-07  0.00000E+00  9.000E+00
#rwgt            1           9  0.30511993002566334                6      450861           0
</event>
<event>
      6   9999  3.45752E-01  3.19757E+02 -1.00000E+00  1.02280E-01
      21    -1     0     0   512   502  0.000000000E+00  0.000000000E+00  9.174151184E+02  9.174151184E+02  0.000000000E+00  0.00000E+00  9.000E+00
       2    -1     0     0   501     0  0.000000000E+00  0.000000000E+00 -6.572207790E+02  6.572207790E+02  0.000000000E+00  0.00000E+00  9.000E+00
      25     1     1     2     0     0  1.136445570E+02  2.585344894E+02  7.422317113E+02  8.039204046E+02  1.249997442E+02  0.00000E+00  9.000E+00
       5     1     1     2   501     0 -3.325362921E+01  5.083023023E+01  7.089069134E+01  9.347496338E+01  4.750000000E+00  0.00000E+00  9.000E+00
      -5     1     1     2     0   502 -3.916661523E+00  1.112851491E+00  2.009112027E+01  2.104267781E+01  4.750000000E+00  0.00000E+00  9.000E+00
       2     1     1     2   512     0 -7.647426630E+01 -3.104775712E+02 -5.730191836E+02  6.561978515E+02  1.078959322E-05  0.00000E+00  9.000E+00
#rwgt            1           3   2.2373567192764880E-003           6      452783           0
</event>
<event>
      6   9999 -3.45752E-01  3.40901E+01 -1.00000E+00  1.44335E-01
      21    -1     0     0   501   502  0.000000000E+00  0.000000000E+00  2.164912339E+01  2.164912339E+01  0.000000000E+00  0.00000E+00  9.000E+00
       1    -1     0     0   502     0  0.000000000E+00  0.000000000E+00 -2.049790472E+03  2.049790472E+03  0.000000000E+00  0.00000E+00  9.000E+00
      25     1     1     2     0     0 -1.433887076E+00  6.788862806E+00 -9.717596002E+02  9.797906872E+02  1.249997015E+02  0.00000E+00  9.000E+00
       5     1     1     2   501     0 -1.759386886E+01  3.434983411E-01  1.009597200E+01  2.083634716E+01  4.750000000E+00  0.00000E+00  9.000E+00
      -5     1     1     2     0   503 -1.479461874E+01 -2.868009849E+00 -3.119298814E+01  3.496671608E+01  4.750000000E+00  0.00000E+00  9.000E+00
       1     1     1     2   503     0  3.382237468E+01 -4.264351298E+00 -1.035284732E+03  1.035845845E+03  1.525878906E-05  0.00000E+00  9.000E+00
#rwgt            1           9  -5.5552758113924474E-005           6      453160           0
</event>
<event>
      6   9999  3.45752E-01  1.72234E+01 -1.00000E+00  1.65328E-01
      21    -1     0     0   501   511  0.000000000E+00  0.000000000E+00  3.366888737E+01  3.366888737E+01  0.000000000E+00  0.00000E+00  9.000E+00
      21    -1     0     0   502   503  0.000000000E+00  0.000000000E+00 -1.155484160E+03  1.155484160E+03  0.000000000E+00  0.00000E+00  9.000E+00
      25     1     1     2     0     0  3.916168840E+00  3.423470887E+01 -4.961619246E+02  5.128247178E+02  1.250007365E+02  0.00000E+00  9.000E+00
       5     1     1     2   501     0  2.591788438E-01 -2.934707725E-01  2.166111455E+01  2.217926244E+01  4.750000000E+00  0.00000E+00  9.000E+00
      -5     1     1     2     0   503 -8.996730493E+00 -1.740639134E+01 -6.277892987E+02  6.281129593E+02  4.750000000E+00  0.00000E+00  9.000E+00
      21     1     1     2   502   511  4.821382809E+00 -1.653484675E+01 -1.952516440E+01  2.603610827E+01  3.371747881E-07  0.00000E+00  9.000E+00
#rwgt            1           9   4.8656821098946226E-003           6      454598           0
</event>
<event>
      6   9999  3.45752E-01  7.56839E+00 -1.00000E+00  2.00910E-01
      21    -1     0     0   512   502  0.000000000E+00  0.000000000E+00  4.619792017E+01  4.619792017E+01  0.000000000E+00  0.00000E+00  9.000E+00
      21    -1     0     0   502   503  0.000000000E+00  0.000000000E+00 -1.232202659E+03  1.232202659E+03  0.000000000E+00  0.00000E+00  9.000E+00
      25     1     1     2     0     0  1.847832896E+01 -7.000376057E+01 -2.249057198E+02  2.672982413E+02  1.249951674E+02  0.00000E+00  9.000E+00
       5     1     1     2   501     0  2.198848177E+00  9.561621348E-01  2.036264610E+01  2.104635445E+01  4.750000000E+00  0.00000E+00  9.000E+00
      -5     1     1     2     0   503 -2.689340866E+01  6.473031422E+01 -9.797894746E+02  9.823050677E+02  4.750000000E+00  0.00000E+00  9.000E+00
      21     1     1     2   512   501  6.216231521E+00  4.317284213E+00 -1.672190860E+00  7.750916047E+00  9.657056180E-08  0.00000E+00  9.000E+00
#rwgt            1           9   1.0418345992875785E-003           6      457446           0
</event>
<event>
      6   9999  3.45752E-01  1.46928E+01 -1.00000E+00  1.71154E-01
      21    -1     0     0   511   502  0.000000000E+00  0.000000000E+00  9.483877135E+02  9.483877135E+02  0.000000000E+00  0.00000E+00  9.000E+00
      21    -1     0     0   502   503  0.000000000E+00  0.000000000E+00 -3.542471737E+01  3.542471737E+01  0.000000000E+00  0.00000E+00  9.000E+00
      25     1     1     2     0     0  8.138317559E+00  1.286548622E+01  8.448677663E+01  1.516402977E+02  1.250000460E+02  0.00000E+00  9.000E+00
       5     1     1     2   501     0  8.441499493E-01  1.000145355E+00  5.649379343E+02  5.649594189E+02  4.750000000E+00  0.00000E+00  9.000E+00
      -5     1     1     2     0   503 -2.331393738E+01 -1.710391635E+01  1.861113325E+02  1.884040186E+02  4.750000000E+00  0.00000E+00  9.000E+00
      21     1     1     2   511   501  1.433146987E+01  3.238284774E+00  7.742695270E+01  7.880869572E+01  0.000000000E+00  0.00000E+00  9.000E+00
#rwgt            1           9   7.7278064936898719E-002           6      461672           0
</event>
<event>
      6   9999  3.45752E-01  3.33912E+00 -1.00000E+00  2.65287E-01
       2    -1     0     0   501     0  0.000000000E+00  0.000000000E+00  1.335592327E+02  1.335592327E+02  0.000000000E+00  0.00000E+00  9.000E+00
      21    -1     0     0   502   503  0.000000000E+00  0.000000000E+00 -2.118411819E+03  2.118411819E+03  0.000000000E+00  0.00000E+00  9.000E+00
      25     1     1     2     0     0  1.148282762E+01  1.404310271E-01 -1.881589492E+03  1.885771925E+03  1.249994453E+02  0.00000E+00  9.000E+00
       5     1     1     2   501     0 -7.435152798E-02  1.120460325E+00 -7.033452311E+00  8.561127899E+00  4.750000000E+00  0.00000E+00  9.000E+00
      -5     1     1     2     0   503 -8.440599252E+00  2.692732906E-01 -2.268090461E+02  2.270159072E+02  4.750000000E+00  0.00000E+00  9.000E+00
       2     1     1     2   502     0 -2.967876839E+00 -1.530164642E+00  1.305794048E+02  1.306220910E+02  1.009274029E-05  0.00000E+00  9.000E+00
#rwgt            1           9   4.1246809456481496E-003           6      464209           0
</event>
<event>
      6   9999  3.45752E-01  1.55732E+01 -1.00000E+00  1.68972E-01
      21    -1     0     0   501   502  0.000000000E+00  0.000000000E+00  1.022359706E+03  1.022359706E+03  0.000000000E+00  0.00000E+00  9.000E+00
      21    -1     0     0   502   511  0.000000000E+00  0.000000000E+00 -8.636960138E+00  8.636960138E+00  0.000000000E+00  0.00000E+00  9.000E+00
      25     1     1     2     0     0  4.456847119E+01  1.192554762E+01  7.901488248E+02  8.011888246E+02  1.242569924E+02  0.00000E+00  9.000E+00
       5     1     1     2   501     0  3.341808307E-01  1.568011669E-01  3.866750040E+01  3.895990696E+01  4.750000000E+00  0.00000E+00  9.000E+00
      -5     1     1     2     0   503 -3.082585212E+01 -5.421404592E+00  1.264779373E+02  1.303796606E+02  4.750000000E+00  0.00000E+00  9.000E+00
      21     1     1     2   503   511 -1.407679990E+01 -6.660944196E+00  5.842848331E+01  6.046827379E+01  1.168007728E-06  0.00000E+00  9.000E+00
#rwgt            1           9   6.1988333006547549E-004           6      469252           0
</event>
<event>
      6   9999  3.45752E-01  1.53739E+01 -1.00000E+00  1.69450E-01
      21    -1     0     0   512   502  0.000000000E+00  0.000000000E+00  2.488165655E+01  2.488165655E+01  0.000000000E+00  0.00000E+00  9.000E+00
      21    -1     0     0   502   503  0.000000000E+00  0.000000000E+00 -1.006098856E+03  1.006098856E+03  0.000000000E+00  0.00000E+00  9.000E+00
      25     1     1     2     0     0 -3.715658882E+01  2.524113179E+01 -9.000697006E+02  9.098176165E+02  1.249996099E+02  0.00000E+00  9.000E+00
       5     1     1     2   501     0  5.743816092E+01 -2.603290270E+01 -5.696040478E+01  8.511113068E+01  4.750000000E+00  0.00000E+00  9.000E+00
      -5     1     1     2     0   503 -6.536380279E+00 -6.094984278E+00 -1.514612803E+01  1.821649787E+01  4.750000000E+00  0.00000E+00  9.000E+00
      21     1     1     2   512   501 -1.374519182E+01  6.886755186E+00 -9.040965721E+00  1.783526721E+01  4.616955931E-07  0.00000E+00  9.000E+00
#rwgt            1           9   6.6273037113262186E-004           6      470773           0
</event>
<event>
      6   9999  3.45752E-01  2.76952E+00 -1.00000E+00  2.86318E-01
      21    -1     0     0   501   502  0.000000000E+00  0.000000000E+00  1.828432651E+01  1.828432651E+01  0.000000000E+00  0.00000E+00  9.000E+00
      21    -1     0     0   511   503  0.000000000E+00  0.000000000E+00 -9.943176655E+02  9.943176655E+02  0.000000000E+00  0.00000E+00  9.000E+00
      25     1     1     2     0     0 -5.864663277E+00  4.032716709E+01 -4.603156270E+02  4.787228431E+02  1.249976373E+02  0.00000E+00  9.000E+00
       5     1     1     2   501     0  7.754285531E-03  1.352121591E+00  7.475537563E+00  8.959601262E+00  4.750000000E+00  0.00000E+00  9.000E+00
      -5     1     1     2     0   503  4.612806740E+00 -3.920492584E+01 -4.867192618E+02  4.883405640E+02  4.750000000E+00  0.00000E+00  9.000E+00
      21     1     1     2   511   502  1.244102251E+00 -2.474362840E+00 -3.647398779E+01  3.657898368E+01  4.768371582E-07  0.00000E+00  9.000E+00
#rwgt            1           9   1.1727243174992877E-003           6      472886           0
</event>
<event>
      6   9999  3.45752E-01  1.00778E+01 -1.00000E+00  1.86840E-01
      21    -1     0     0   512   502  0.000000000E+00  0.000000000E+00  1.145156172E+01  1.145156172E+01  0.000000000E+00  0.00000E+00  9.000E+00
      21    -1     0     0   502   503  0.000000000E+00  0.000000000E+00 -3.032637498E+03  3.032637498E+03  0.000000000E+00  0.00000E+00  9.000E+00
      25     1     1     2     0     0  4.125685878E+01  4.683620983E+00 -2.732260004E+03  2.735433004E+03  1.249997200E+02  0.00000E+00  9.000E+00
       5     1     1     2   501     0 -2.243572480E+01 -7.047978263E+00 -7.232021411E+01  7.619587662E+01  4.750000000E+00  0.00000E+00  9.000E+00
      -5     1     1     2     0   503 -2.242767986E+01  1.177474513E+01 -2.202432149E+02  2.217459846E+02  4.750000000E+00  0.00000E+00  9.000E+00
      21     1     1     2   512   501  3.606545893E+00 -9.410387849E+00  3.637496419E+00  1.071419399E+01  1.182367469E-06  0.00000E+00  9.000E+00
#rwgt            1           9   1.6558558523949289E-003           6      480268           0
</event>
<event>
      6   9999  3.45752E-01  4.93004E+00 -1.00000E+00  2.30444E-01
      21    -1     0     0   501   502  0.000000000E+00  0.000000000E+00  3.109509331E+01  3.109509331E+01  0.000000000E+00  0.00000E+00  9.000E+00
      21    -1     0     0   502   511  0.000000000E+00  0.000000000E+00 -1.288182257E+03  1.288182257E+03  0.000000000E+00  0.00000E+00  9.000E+00
      25     1     1     2     0     0 -8.751638823E+00 -4.694599831E-01 -9.957956199E+02  1.003648663E+03  1.249996446E+02  0.00000E+00  9.000E+00
       5     1     1     2   501     0  5.186246890E+00  4.406459862E+00  2.642194527E+01  2.769468789E+01  4.750000000E+00  0.00000E+00  9.000E+00
      -5     1     1     2     0   503 -1.351496514E+00 -3.577193986E+00 -1.291423873E+02  1.292862775E+02  4.750000000E+00  0.00000E+00  9.000E+00
      21     1     1     2   503   511  4.916888447E+00 -3.598058932E-01 -1.585711018E+02  1.586477217E+02  1.907348633E-06  0.00000E+00  9.000E+00
#rwgt            1           9   7.2403162988615016E-002           6      482743           0
</event>
<event>
      6   9999  3.45752E-01  4.04820E+01 -1.00000E+00  1.39885E-01
      21    -1     0     0   501   502  0.000000000E+00  0.000000000E+00  2.671719395E+02  2.671719395E+02  0.000000000E+00  0.00000E+00  9.000E+00
      -1    -1     0     0     0   503  0.000000000E+00  0.000000000E+00 -4.797992186E+02  4.797992186E+02  0.000000000E+00  0.00000E+00  9.000E+00
      25     1     1     2     0     0 -9.688819156E+01  4.018437672E+01 -5.916304550E+01  1.735717136E+02  1.249990720E+02  0.00000E+00  9.000E+00
       5     1     1     2   501     0 -3.894371964E+00  3.155532982E+00  2.009868502E+02  2.011054449E+02  4.750000000E+00  0.00000E+00  9.000E+00
      -5     1     1     2     0   503  6.034952382E+01 -4.134867116E+01 -2.215205815E+02  2.333360413E+02  4.750000000E+00  0.00000E+00  9.000E+00
      -1     1     1     2     0   502  4.043303970E+01 -1.991238542E+00 -1.329305023E+02  1.389579583E+02  0.000000000E+00  0.00000E+00  9.000E+00
#rwgt            1           9  0.73993181298016020                6      488306           0
</event>
<event>
      6   9999 -3.45752E-01  3.58001E+01 -1.00000E+00  1.43038E-01
      21    -1     0     0   511   502  0.000000000E+00  0.000000000E+00  3.208087816E+01  3.208087816E+01  0.000000000E+00  0.00000E+00  9.000E+00
      21    -1     0     0   502   503  0.000000000E+00  0.000000000E+00 -2.140787932E+03  2.140787932E+03  0.000000000E+00  0.00000E+00  9.000E+00
      25     1     1     2     0     0  8.373165030E+01  9.901855675E+01 -1.905210789E+03  1.913705646E+03  1.250019477E+02  0.00000E+00  9.000E+00
       5     1     1     2   501     0 -3.056467060E+01 -1.742400125E+01 -4.835407065E+01  5.998727829E+01  4.750000000E+00  0.00000E+00  9.000E+00
      -5     1     1     2     0   503 -7.161356613E+01 -5.091273571E+01 -1.217443349E+02  1.502160281E+02  4.750000000E+00  0.00000E+00  9.000E+00
      21     1     1     2   511   501  1.844658643E+01 -3.068181979E+01 -3.339785897E+01  4.895985703E+01  1.507891493E-06  0.00000E+00  9.000E+00
#rwgt            1           9  -3.7709674181444913E-002           6      490138           0
</event>
<event>
      6   9999  3.45752E-01  2.10684E+01 -1.00000E+00  1.58504E-01
      21    -1     0     0   512   502  0.000000000E+00  0.000000000E+00  1.592870064E+03  1.592870064E+03  0.000000000E+00  0.00000E+00  9.000E+00
      21    -1     0     0   502   503  0.000000000E+00  0.000000000E+00 -1.074894434E+02  1.074894434E+02  0.000000000E+00  0.00000E+00  9.000E+00
      25     1     1     2     0     0 -1.376115866E+02 -1.986141445E+02  1.240746848E+03  1.270221422E+03  1.250007774E+02  0.00000E+00  9.000E+00
       5     1     1     2   501     0 -6.163760798E-01  6.098848128E-01  1.321550785E+02  1.322432575E+02  4.750000000E+00  0.00000E+00  9.000E+00
      -5     1     1     2     0   503  1.543708314E+02  1.844659821E+02  7.013343328E+01  2.505979112E+02  4.750000000E+00  0.00000E+00  9.000E+00
      21     1     1     2   512   501 -1.614286868E+01  1.353827757E+01  4.234526167E+01  4.729691697E+01  4.768371582E-07  0.00000E+00  9.000E+00
#rwgt            1           9   3.4696838208464746E-002           6      491750           0
</event>
<event>
      6   9999  3.45752E-01  1.47078E+01 -1.00000E+00  1.71115E-01
      21    -1     0     0   501   511  0.000000000E+00  0.000000000E+00  3.583317813E+02  3.583317813E+02  0.000000000E+00  0.00000E+00  9.000E+00
      21    -1     0     0   502   503  0.000000000E+00  0.000000000E+00 -3.371154313E+02  3.371154313E+02  0.000000000E+00  0.00000E+00  9.000E+00
      25     1     1     2     0     0 -2.616276098E+00 -5.763651129E+00 -3.169356223E+02  3.407573959E+02  1.250093979E+02  0.00000E+00  9.000E+00
       5     1     1     2   501     0  1.887801370E+01  5.265440220E+00  1.473950791E+02  1.487681959E+02  4.750000000E+00  0.00000E+00  9.000E+00
      -5     1     1     2     0   503 -2.187386253E+00  4.768059455E+00 -5.593922654E+00  9.020727257E+00  4.750000000E+00  0.00000E+00  9.000E+00
      21     1     1     2   502   511 -1.407435135E+01 -4.269848546E+00  1.963508159E+02  1.969008936E+02  0.000000000E+00  0.00000E+00  9.000E+00
#rwgt            1           9   1.3689234119454565E-003           6      495365           0
</event>
<event>
      6   9999  3.45752E-01  5.60530E+00 -1.00000E+00  2.18259E-01
      21    -1     0     0   501   502  0.000000000E+00  0.000000000E+00  4.603597043E+01  4.603597043E+01  0.000000000E+00  0.00000E+00  9.000E+00
      21    -1     0     0   512   503  0.000000000E+00  0.000000000E+00 -3.621223898E+02  3.621223898E+02  0.000000000E+00  0.00000E+00  9.000E+00
      25     1     1     2     0     0  1.408677639E+01  2.004617597E+00 -2.032839742E+02  2.390639483E+02  1.249989658E+02  0.00000E+00  9.000E+00
       5     1     1     2   501     0 -1.828928773E+00 -3.945972608E-01  2.207947842E+01  2.266200686E+01  4.750000000E+00  0.00000E+00  9.000E+00
      -5     1     1     2     0   503 -1.195514448E+01  3.987098336E+00 -2.217070009E+00  1.364918797E+01  4.750000000E+00  0.00000E+00  9.000E+00
      21     1     1     2   512   502 -3.027031329E-01 -5.597118673E+00 -1.326648536E+02  1.327832171E+02  1.907348633E-06  0.00000E+00  9.000E+00
#rwgt            1           9   1.5168065455008610E-002           6      498205           0
</event>
<event>
      6   9999 -3.45752E-01  2.39463E+00 -1.00000E+00  3.05299E-01
      21    -1     0     0   511   502  0.000000000E+00  0.000000000E+00  1.598983124E+01  1.598983124E+01  0.000000000E+00  0.00000E+00  9.000E+00
      21    -1     0     0   502   503  0.000000000E+00  0.000000000E+00 -9.132127966E+02  9.132127966E+02  0.000000000E+00  0.00000E+00  9.000E+00
      25     1     1     2     0     0 -2.023288620E+01  2.070083661E+00 -4.258884436E+02  4.443200468E+02  1.250027306E+02  0.00000E+00  9.000E+00
       5     1     1     2   501     0 -5.260431217E-01  2.435592862E+00  3.713452824E+00  6.523884260E+00  4.750000000E+00  0.00000E+00  9.000E+00
      -5     1     1     2     0   503  1.959469402E+01 -2.413116698E+00 -4.754901841E+02  4.759235788E+02  4.750000000E+00  0.00000E+00  9.000E+00
      21     1     1     2   511   501  1.164235309E+00 -2.092559826E+00  4.422095084E-01  2.435118011E+00  1.954978967E-07  0.00000E+00  9.000E+00
#rwgt            1           9  -3.2344330000316775E-003           6      502317           0
</event>
<event>
      6   9999  3.45752E-01  1.37132E+00 -1.00000E+00  4.25194E-01
      21    -1     0     0   501   512  0.000000000E+00  0.000000000E+00  3.009549652E+03  3.009549652E+03  0.000000000E+00  0.00000E+00  9.000E+00
      21    -1     0     0   502   503  0.000000000E+00  0.000000000E+00 -3.203934714E+00  3.203934714E+00  0.000000000E+00  0.00000E+00  9.000E+00
      25     1     1     2     0     0  1.885166830E+00  6.479689710E-01  1.266667566E+03  1.272823726E+03  1.250181680E+02  0.00000E+00  9.000E+00
       5     1     1     2   501     0 -2.022758009E+00 -9.553271008E-01  1.118387261E+03  1.118399585E+03  4.750000000E+00  0.00000E+00  9.000E+00
      -5     1     1     2     0   503 -9.437616802E-01  1.150688532E+00  5.199267377E+01  5.223040681E+01  4.750000000E+00  0.00000E+00  9.000E+00
      21     1     1     2   502   512  1.081352858E+00 -8.433304025E-01  5.692982173E+02  5.692998690E+02  7.629394531E-06  0.00000E+00  9.000E+00
#rwgt            1           9   2.4193947138206811E-002           6      510043           0
</event>
<event>
      6   9999  3.45752E-01  1.66207E+01 -1.00000E+00  1.66598E-01
      21    -1     0     0   501   502  0.000000000E+00  0.000000000E+00  1.135341968E+02  1.135341968E+02  0.000000000E+00  0.00000E+00  9.000E+00
      21    -1     0     0   502   511  0.000000000E+00  0.000000000E+00 -8.366018415E+02  8.366018415E+02  0.000000000E+00  0.00000E+00  9.000E+00
      25     1     1     2     0     0 -1.049994561E+02  2.018655792E+02 -2.202333025E+02  3.404451740E+02  1.250024445E+02  0.00000E+00  9.000E+00
       5     1     1     2   501     0  8.984735988E-01 -1.727611497E+00  2.914011491E+01  2.958886097E+01  4.750000000E+00  0.00000E+00  9.000E+00
      -5     1     1     2     0   503  1.062911446E+02 -1.836622394E+02 -4.659416306E+02  5.120095617E+02  4.750000000E+00  0.00000E+00  9.000E+00
      21     1     1     2   503   511 -2.190162103E+00 -1.647572827E+01 -6.603282646E+01  6.809244160E+01  0.000000000E+00  0.00000E+00  9.000E+00
#rwgt            1           9   7.8924684801902539E-002           6      520230           0
</event>
<event>
      6   9999  3.45752E-01  1.64947E+01 -1.00000E+00  1.66872E-01
      21    -1     0     0   501   502  0.000000000E+00  0.000000000E+00  4.415636286E+01  4.415636286E+01  0.000000000E+00  0.00000E+00  9.000E+00
       2    -1     0     0   502     0  0.000000000E+00  0.000000000E+00 -1.806630002E+03  1.806630002E+03  0.000000000E+00  0.00000E+00  9.000E+00
      25     1     1     2     0     0  1.090306489E+02 -9.090100056E+01 -2.268848853E+02  2.953850972E+02  1.249997209E+02  0.00000E+00  9.000E+00
       5     1     1     2   501     0  1.526257442E+00 -2.117583646E+00  4.379302005E+00  6.968099334E+00  4.750000000E+00  0.00000E+00  9.000E+00
      -5     1     1     2     0   503 -1.019419599E+02  7.895235506E+01 -1.009979534E+03  1.018188027E+03  4.750000000E+00  0.00000E+00  9.000E+00
       2     1     1     2   503     0 -8.614946431E+00  1.406622915E+01 -5.299885222E+02  5.302451412E+02  0.000000000E+00  0.00000E+00  9.000E+00
#rwgt            1           9   3.2994059721678296E-005           6      523551           0
</event>
<event>
      6   9999  3.45752E-01  8.00331E+00 -1.00000E+00  1.97994E-01
       1    -1     0     0   501     0  0.000000000E+00  0.000000000E+00  3.034074789E+01  3.034074789E+01  0.000000000E+00  0.00000E+00  9.000E+00
      21    -1     0     0   502   503  0.000000000E+00  0.000000000E+00 -2.601756549E+03  2.601756549E+03  0.000000000E+00  0.00000E+00  9.000E+00
      25     1     1     2     0     0  1.154359489E+00 -8.535867948E+00 -7.989045821E+02  8.086648879E+02  1.249646992E+02  0.00000E+00  9.000E+00
       5     1     1     2   501     0  2.173276935E+00 -3.982331821E+00  6.295388186E-01  6.598554273E+00  4.750000000E+00  0.00000E+00  9.000E+00
      -5     1     1     2     0   503  3.797743202E+00  8.873768928E+00 -1.794237653E+03  1.794269903E+03  4.750000000E+00  0.00000E+00  9.000E+00
       1     1     1     2   502     0 -7.125379626E+00  3.644430841E+00  2.109689543E+01  2.256395151E+01  1.719260824E-06  0.00000E+00  9.000E+00
#rwgt            1           9   3.3635671288680893                6      526476           0
</event>
<event>
      6   9999  3.45752E-01  1.16265E+01 -1.00000E+00  1.80553E-01
      21    -1     0     0   501   502  0.000000000E+00  0.000000000E+00  8.585507888E+00  8.585507888E+00  0.000000000E+00  0.00000E+00  9.000E+00
      21    -1     0     0   511   503  0.000000000E+00  0.000000000E+00 -1.202408216E+03  1.202408216E+03  0.000000000E+00  0.00000E+00  9.000E+00
      25     1     1     2     0     0 -1.654472085E+00 -1.326073037E+01 -8.184709545E+02  8.280753594E+02  1.250420457E+02  0.00000E+00  9.000E+00
       5     1     1     2   501     0 -5.402509645E-01 -1.153370823E+00 -1.732391516E+00  5.214001891E+00  4.750000000E+00  0.00000E+00  9.000E+00
      -5     1     1     2     0   503 -8.521676742E+00  9.904667395E+00 -2.288251422E+01  2.677486448E+01  4.750000000E+00  0.00000E+00  9.000E+00
      21     1     1     2   511   502  1.071639979E+01  4.509433798E+00 -3.507368481E+02  3.509294984E+02  3.814697266E-06  0.00000E+00  9.000E+00
#rwgt            1           9   7.0744298374940151E-005           6      530025           0
</event>
<event>
      6   9999  3.45752E-01  1.61920E+01 -1.00000E+00  1.67543E-01
      21    -1     0     0   501   512  0.000000000E+00  0.000000000E+00  5.103854232E+02  5.103854232E+02  0.000000000E+00  0.00000E+00  9.000E+00
      21    -1     0     0   502   503  0.000000000E+00  0.000000000E+00 -1.449962201E+03  1.449962201E+03  0.000000000E+00  0.00000E+00  9.000E+00
      25     1     1     2     0     0  3.992372142E+01 -8.297396003E+01 -5.929820832E+02  6.129689143E+02  1.249982295E+02  0.00000E+00  9.000E+00
       5     1     1     2   501     0  7.120579959E+00 -1.833282079E+01  6.095051395E+01  6.422088934E+01  4.750000000E+00  0.00000E+00  9.000E+00
      -5     1     1     2     0   503 -3.471496959E+01  9.081065546E+01 -8.423984660E+02  8.480032089E+02  4.750000000E+00  0.00000E+00  9.000E+00
      21     1     1     2   502   512 -1.232933178E+01  1.049612537E+01  4.348532571E+02  4.351546120E+02  7.629394531E-06  0.00000E+00  9.000E+00
#rwgt            1           9   4.3366736936620515E-003           6      532109           0
</event>
<event>
      6   9999  3.45752E-01  2.86636E+00 -1.00000E+00  2.82192E-01
      21    -1     0     0   501   511  0.000000000E+00  0.000000000E+00  1.491125916E+01  1.491125916E+01  0.000000000E+00  0.00000E+00  9.000E+00
      21    -1     0     0   502   503  0.000000000E+00  0.000000000E+00 -7.232482079E+02  7.232482079E+02  0.000000000E+00  0.00000E+00  9.000E+00
      25     1     1     2     0     0  9.090682153E+00  2.381068913E+00 -5.492115695E+02  5.633338451E+02  1.249934518E+02  0.00000E+00  9.000E+00
       5     1     1     2   501     0  1.590866456E-01 -4.759440754E-01  8.987259366E-01  4.860250985E+00  4.750000000E+00  0.00000E+00  9.000E+00
      -5     1     1     2     0   503 -8.763551600E+00  9.196952092E-01 -1.644162263E+02  1.647206838E+02  4.750000000E+00  0.00000E+00  9.000E+00
      21     1     1     2   502   511 -4.862171985E-01 -2.824820046E+00  4.392121160E+00  5.244687192E+00  2.230201594E-07  0.00000E+00  9.000E+00
#rwgt            1           9   3.6203311151399597E-003           6      535298           0
</event>
<event>
      6   9999  3.45752E-01  1.49662E+01 -1.00000E+00  1.70456E-01
      21    -1     0     0   502   503  0.000000000E+00  0.000000000E+00  5.769777887E+02  5.769777887E+02  0.000000000E+00  0.00000E+00  9.000E+00
      21    -1     0     0   501   512  0.000000000E+00  0.000000000E+00 -3.133503225E+01  3.133503225E+01  0.000000000E+00  0.00000E+00  9.000E+00
      25     1     1     2     0     0 -2.534724356E+01 -7.091209153E+00  4.129342406E+02  4.322406880E+02  1.249982290E+02  0.00000E+00  9.000E+00
       5     1     1     2   501     0 -1.856096524E-01 -7.802944108E-01  5.131224979E+01  5.153787722E+01  4.750000000E+00  0.00000E+00  9.000E+00
      -5     1     1     2     0   503  2.871349410E+01 -6.752857362E+00  9.783968811E+01  1.022997209E+02  4.750000000E+00  0.00000E+00  9.000E+00
      21     1     1     2   502   512 -3.180640886E+00  1.462436093E+01 -1.644342211E+01  2.223453484E+01  2.384185791E-07  0.00000E+00  9.000E+00
#rwgt            1           9   5.4355467360948123E-002           6      541211           0
</event>
<event>
      6   9999  3.45752E-01  1.14387E+01 -1.00000E+00  1.81247E-01
      21    -1     0     0   511   503  0.000000000E+00  0.000000000E+00  7.094066002E+01  7.094066002E+01  0.000000000E+00  0.00000E+00  9.000E+00
      21    -1     0     0   501   502  0.000000000E+00  0.000000000E+00 -8.080525054E+01  8.080525054E+01  0.000000000E+00  0.00000E+00  9.000E+00
      25     1     1     2     0     0 -5.358359778E+00  1.527836617E+01 -1.724226982E+01  1.272174161E+02  1.249993384E+02  0.00000E+00  9.000E+00
       5     1     1     2   501     0 -1.150727981E-01  4.585576459E-01  1.263701260E+00  4.937910260E+00  4.750000000E+00  0.00000E+00  9.000E+00
      -5     1     1     2     0   503  2.723388063E+00 -4.633761727E+00  2.286634821E+00  7.528598083E+00  4.750000000E+00  0.00000E+00  9.000E+00
      21     1     1     2   511   502  2.750044514E+00 -1.110316209E+01  3.827343218E+00  1.206198612E+01  2.149076030E-07  0.00000E+00  9.000E+00
#rwgt            1           9   1.4063343416684715E-003           6      542828           0
</event>
<event>
      6   9999  3.45752E-01  9.01375E+00 -1.00000E+00  1.92072E-01
      21    -1     0     0   501   512  0.000000000E+00  0.000000000E+00  8.263961789E+01  8.263961789E+01  0.000000000E+00  0.00000E+00  9.000E+00
      21    -1     0     0   502   503  0.000000000E+00  0.000000000E+00 -1.067585511E+03  1.067585511E+03  0.000000000E+00  0.00000E+00  9.000E+00
      25     1     1     2     0     0  4.079618181E+00  2.987068019E+01 -2.882156325E+02  3.155977324E+02  1.249991082E+02  0.00000E+00  9.000E+00
       5     1     1     2   501     0 -2.386184901E+00 -1.857327805E+00  1.169292228E+01  1.297807676E+01  4.750000000E+00  0.00000E+00  9.000E+00
      -5     1     1     2     0   503  5.321167659E+00 -3.367401017E+01 -7.642876348E+02  7.650623537E+02  4.750000000E+00  0.00000E+00  9.000E+00
      21     1     1     2   502   512 -7.014600939E+00  5.660657789E+00  5.586445222E+01  5.658696576E+01  2.023048729E-06  0.00000E+00  9.000E+00
#rwgt            1           9   1.5302093480488311E-003           6      544752           0
</event>
<event>
      6   9999 -3.45752E-01  1.66849E+01 -1.00000E+00  1.66460E-01
      21    -1     0     0   501   502  0.000000000E+00  0.000000000E+00  2.439181175E+01  2.439181175E+01  0.000000000E+00  0.00000E+00  9.000E+00
      21    -1     0     0   502   511  0.000000000E+00  0.000000000E+00 -1.117576600E+03  1.117576600E+03  0.000000000E+00  0.00000E+00  9.000E+00
      25     1     1     2     0     0 -6.320956438E+01 -1.114275401E+01 -8.931619839E+02  9.041438698E+02  1.249727882E+02  0.00000E+00  9.000E+00
       5     1     1     2   501     0 -2.916178401E+00 -2.600504640E+00  1.260350737E+01  1.402417979E+01  4.750000000E+00  0.00000E+00  9.000E+00
      -5     1     1     2     0   503  5.096784832E+01  6.770118587E+00 -1.383055911E+02  1.476297907E+02  4.750000000E+00  0.00000E+00  9.000E+00
      21     1     1     2   503   511  1.515789446E+01  6.973140060E+00 -7.432072022E+01  7.617057109E+01  1.348699152E-06  0.00000E+00  9.000E+00
#rwgt            1           9  -7.4199764357248577E-004           6      548510           0
</event>
<event>
      6   9999  3.45752E-01  4.96912E+00 -1.00000E+00  2.29836E-01
      21    -1     0     0   501   502  0.000000000E+00  0.000000000E+00  2.247598268E+00  2.247598268E+00  0.000000000E+00  0.00000E+00  9.000E+00
      21    -1     0     0   502   512  0.000000000E+00  0.000000000E+00 -6.318031923E+03  6.318031923E+03  0.000000000E+00  0.00000E+00  9.000E+00
      25     1     1     2     0     0 -1.673325941E+01  5.234493161E+01 -4.418244776E+03  4.420354236E+03  1.249987306E+02  0.00000E+00  9.000E+00
       5     1     1     2   501     0 -1.930390264E-01  6.483211955E-01 -6.664304436E+00  8.211762178E+00  4.750000000E+00  0.00000E+00  9.000E+00
      -5     1     1     2     0   503  1.420890265E+01 -4.883297334E+01 -1.663729570E+03  1.664513502E+03  4.750000000E+00  0.00000E+00  9.000E+00
      21     1     1     2   503   512  2.717395789E+00 -4.160279467E+00 -2.271456746E+02  2.272000212E+02  2.697398305E-06  0.00000E+00  9.000E+00
#rwgt            1           9   6.0054410180572035E-005           6      551247           0
</event>
<event>
      6   9999  3.45752E-01  3.24558E+01 -1.00000E+00  1.45661E-01
       2    -1     0     0   501     0  0.000000000E+00  0.000000000E+00  4.199071498E+02  4.199071498E+02  0.000000000E+00  0.00000E+00  9.000E+00
      21    -1     0     0   502   503  0.000000000E+00  0.000000000E+00 -1.187381975E+03  1.187381975E+03  0.000000000E+00  0.00000E+00  9.000E+00
      25     1     1     2     0     0 -1.423913197E+01  7.685687859E+01 -1.074473148E+03  1.084540220E+03  1.250008413E+02  0.00000E+00  9.000E+00
       5     1     1     2   501     0  3.240216167E+01 -4.683672613E+01 -2.335193058E+00  5.719785505E+01  4.750000000E+00  0.00000E+00  9.000E+00
      -5     1     1     2     0   503 -4.089723261E+00 -7.742856224E-01 -7.730005259E+01  7.755763009E+01  4.750000000E+00  0.00000E+00  9.000E+00
       2     1     1     2   502     0 -1.407330644E+01 -2.924586684E+01  3.866335677E+02  3.879934205E+02  9.344061824E-06  0.00000E+00  9.000E+00
#rwgt            1           9  0.33577792514276750                6      555724           0
</event>
<event>
      6   9999 -3.45752E-01  5.11675E+00 -1.00000E+00  2.24167E-01
      21    -1     0     0   511   502  0.000000000E+00  0.000000000E+00  1.467581599E+02  1.467581599E+02  0.000000000E+00  0.00000E+00  9.000E+00
      21    -1     0     0   502   503  0.000000000E+00  0.000000000E+00 -7.791749135E+02  7.791749135E+02  0.000000000E+00  0.00000E+00  9.000E+00
      25     1     1     2     0     0 -6.329018186E+00  2.569794986E+00 -7.068460490E+02  7.178458793E+02  1.249988364E+02  0.00000E+00  9.000E+00
       5     1     1     2   501     0 -1.760073191E+00  1.028733367E+00  2.157729511E+00  5.601289728E+00  4.750000000E+00  0.00000E+00  9.000E+00
      -5     1     1     2     0   503  3.731066270E+00 -6.279705614E+00 -6.476769802E+01  6.535114968E+01  4.750000000E+00  0.00000E+00  9.000E+00
      21     1     1     2   511   501  4.358025107E+00  2.681177260E+00  1.370392639E+02  1.371347547E+02  2.697398305E-06  0.00000E+00  9.000E+00
#rwgt            1           9  -9.0523671861348240E-005           6      557401           0
</event>
<event>
      6   9999  3.45752E-01  1.02018E+01 -1.00000E+00  1.86284E-01
       2    -1     0     0   501     0  0.000000000E+00  0.000000000E+00  1.227293318E+02  1.227293318E+02  0.000000000E+00  0.00000E+00  9.000E+00
      21    -1     0     0   502   503  0.000000000E+00  0.000000000E+00 -7.269510964E+02  7.269510964E+02  0.000000000E+00  0.00000E+00  9.000E+00
      25     1     1     2     0     0  8.732444892E-01 -1.805342309E+00 -5.462258857E+02  5.603528338E+02  1.250142325E+02  0.00000E+00  9.000E+00
       5     1     1     2   501     0  1.890771161E+00  8.817734776E-01 -1.512642342E+01  1.599136409E+01  4.750000000E+00  0.00000E+00  9.000E+00
      -5     1     1     2     0   503 -6.832745027E+00  1.027890841E+01 -1.575995382E+02  1.581534676E+02  4.750000000E+00  0.00000E+00  9.000E+00
       2     1     1     2   502     0  4.068729377E+00 -9.355339583E+00  1.147300828E+02  1.151827627E+02  1.907348633E-06  0.00000E+00  9.000E+00
#rwgt            1           9  0.10603698759429643                6      561250           0
</event>
<event>
      6   9999  3.45752E-01  9.80384E+00 -1.00000E+00  1.88105E-01
      21    -1     0     0   511   502  0.000000000E+00  0.000000000E+00  1.294817888E+02  1.294817888E+02  0.000000000E+00  0.00000E+00  9.000E+00
      21    -1     0     0   502   503  0.000000000E+00  0.000000000E+00 -1.150455773E+03  1.150455773E+03  0.000000000E+00  0.00000E+00  9.000E+00
      25     1     1     2     0     0 -2.252006565E+00 -7.258632292E-01 -9.281298134E+02  9.365288726E+02  1.251230601E+02  0.00000E+00  9.000E+00
       5     1     1     2   501     0 -8.010435358E+00 -2.287705258E+00  2.689383772E+01  2.855243733E+01  4.750000000E+00  0.00000E+00  9.000E+00
      -5     1     1     2     0   503  5.951930521E+00  1.181895182E+01 -2.168225694E+02  2.172779376E+02  4.750000000E+00  0.00000E+00  9.000E+00
      21     1     1     2   511   501  4.310511402E+00 -8.805383334E+00  9.708456129E+01  9.757831381E+01  1.348699152E-06  0.00000E+00  9.000E+00
#rwgt            1           9   6.4319413453950227E-005           6      563928           0
</event>
<event>
      6   9999  3.45752E-01  1.45503E+01 -1.00000E+00  1.71525E-01
      21    -1     0     0   501   512  0.000000000E+00  0.000000000E+00  1.359519085E+02  1.359519085E+02  0.000000000E+00  0.00000E+00  9.000E+00
      21    -1     0     0   502   503  0.000000000E+00  0.000000000E+00 -1.281388691E+03  1.281388691E+03  0.000000000E+00  0.00000E+00  9.000E+00
      25     1     1     2     0     0  9.774953216E+01 -2.158791091E+01 -1.839666355E+02  2.439078912E+02  1.250053098E+02  0.00000E+00  9.000E+00
       5     1     1     2   501     0  1.569477219E+00  1.152155346E+00  1.197297184E+01  1.302709773E+01  4.750000000E+00  0.00000E+00  9.000E+00
      -5     1     1     2     0   503 -8.830155062E+01  1.093172837E+01 -1.064485361E+03  1.068207992E+03  4.750000000E+00  0.00000E+00  9.000E+00
      21     1     1     2   502   512 -1.101745876E+01  9.504027191E+00  9.104224266E+01  9.219761862E+01  3.568322551E-06  0.00000E+00  9.000E+00
#rwgt            1           9   2.6287390983130309E-005           6      567353           0
</event>
<event>
      6   9999  3.45752E-01  1.06909E+01 -1.00000E+00  1.84188E-01
      21    -1     0     0   511   502  0.000000000E+00  0.000000000E+00  9.554064607E+01  9.554064607E+01  0.000000000E+00  0.00000E+00  9.000E+00
      21    -1     0     0   502   503  0.000000000E+00  0.000000000E+00 -1.336906159E+02  1.336906159E+02  0.000000000E+00  0.00000E+00  9.000E+00
      25     1     1     2     0     0 -4.911693238E+01 -4.360786802E+01 -4.989100875E+01  1.497625335E+02  1.250023379E+02  0.00000E+00  9.000E+00
       5     1     1     2   501     0 -2.544934151E-01 -1.090188395E+00  1.162422738E+01  1.260707895E+01  4.750000000E+00  0.00000E+00  9.000E+00
      -5     1     1     2     0   503  4.078374135E+01  3.833043330E+01  1.281001485E-02  5.617026206E+01  4.750000000E+00  0.00000E+00  9.000E+00
      21     1     1     2   511   501  8.587684451E+00  6.367623109E+00  1.040015743E-01  1.069138740E+01  4.324386554E-08  0.00000E+00  9.000E+00
#rwgt            1           9   1.5686515477763445E-002           6      570321           0
</event>
<event>
      6   9999  3.45752E-01  1.12246E+01 -1.00000E+00  1.82059E-01
      21    -1     0     0   501   512  0.000000000E+00  0.000000000E+00  1.107308245E+01  1.107308245E+01  0.000000000E+00  0.00000E+00  9.000E+00
      21    -1     0     0   502   503  0.000000000E+00  0.000000000E+00 -8.256169405E+02  8.256169405E+02  0.000000000E+00  0.00000E+00  9.000E+00
      25     1     1     2     0     0  1.087002730E+01 -2.697526390E+01 -7.086112913E+02  7.201387357E+02  1.249960565E+02  0.00000E+00  9.000E+00
       5     1     1     2   501     0 -1.563360750E+00 -1.249786941E+00 -1.431265948E-01  5.156457064E+00  4.750000000E+00  0.00000E+00  9.000E+00
      -5     1     1     2     0   503 -1.434323047E+01  1.819386261E+01 -7.334686231E+01  7.706535932E+01  4.750000000E+00  0.00000E+00  9.000E+00
      21     1     1     2   502   512  5.036563921E+00  1.003118823E+01 -3.244257787E+01  3.432947090E+01  6.743495762E-07  0.00000E+00  9.000E+00
#rwgt            1           9   2.6539921470987741E-004           6      573041           0
</event>
<event>
      6   9999 -3.45752E-01  4.51770E+01 -1.00000E+00  1.37188E-01
      21    -1     0     0   501   502  0.000000000E+00  0.000000000E+00  2.112709804E+01  2.112709804E+01  0.000000000E+00  0.00000E+00  9.000E+00
      21    -1     0     0   511   503  0.000000000E+00  0.000000000E+00 -1.968570248E+03  1.968570248E+03  0.000000000E+00  0.00000E+00  9.000E+00
      25     1     1     2     0     0 -1.469111791E+01  1.285937214E+02 -7.544708740E+02  7.756322095E+02  1.250074017E+02  0.00000E+00  9.000E+00
       5     1     1     2   501     0 -2.603261306E+00  5.593953296E+00  4.452028027E+00  8.969522644E+00  4.750000000E+00  0.00000E+00  9.000E+00
      -5     1     1     2     0   503  9.488505221E+00 -8.969015089E+01 -8.329596987E+02  8.378417374E+02  4.750000000E+00  0.00000E+00  9.000E+00
      21     1     1     2   511   502  7.805873992E+00 -4.449752378E+01 -3.644646055E+02  3.672538767E+02  0.000000000E+00  0.00000E+00  9.000E+00
#rwgt            1           9  -6.8538429209360333E-002           6      575204           0
</event>
<event>
      6   9999  3.45752E-01  7.81636E+00 -1.00000E+00  1.99217E-01
      21    -1     0     0   502   503  0.000000000E+00  0.000000000E+00  1.648223455E+03  1.648223455E+03  0.000000000E+00  0.00000E+00  9.000E+00
      21    -1     0     0   512   502  0.000000000E+00  0.000000000E+00 -2.116992354E+01  2.116992354E+01  0.000000000E+00  0.00000E+00  9.000E+00
      25     1     1     2     0     0 -1.558375875E+01 -1.224158966E+01  1.110372095E+03  1.117561979E+03  1.250035090E+02  0.00000E+00  9.000E+00
       5     1     1     2   501     0 -6.610454411E-01 -7.125063026E-01  2.083369945E+02  2.083934030E+02  4.750000000E+00  0.00000E+00  9.000E+00
      -5     1     1     2     0   503  1.265151292E+01  6.012642125E+00  3.248440410E+02  3.251806054E+02  4.750000000E+00  0.00000E+00  9.000E+00
      21     1     1     2   512   501  3.593291271E+00  6.941453839E+00 -1.649959966E+01  1.825739063E+01  1.545128989E-06  0.00000E+00  9.000E+00
#rwgt            1           9   5.1420517641390898E-004           6      576015           0
</event>
<event>
      6   9999 -3.45752E-01  9.63031E+00 -1.00000E+00  1.88934E-01
       1    -1     0     0   501     0  0.000000000E+00  0.000000000E+00  3.854368767E+02  3.854368767E+02  0.000000000E+00  0.00000E+00  9.000E+00
      21    -1     0     0   502   503  0.000000000E+00  0.000000000E+00 -1.235703791E+03  1.235703791E+03  0.000000000E+00  0.00000E+00  9.000E+00
      25     1     1     2     0     0 -5.886271995E+01  9.592902836E+01 -4.247796277E+02  4.568691596E+02  1.249979947E+02  0.00000E+00  9.000E+00
       5     1     1     2   501     0 -3.920598710E+00  4.940666735E+00  1.873976185E+01  2.033525156E+01  4.750000000E+00  0.00000E+00  9.000E+00
      -5     1     1     2     0   503  6.671568696E+01 -9.207882595E+01 -7.899365707E+02  7.980926271E+02  4.750000000E+00  0.00000E+00  9.000E+00
       1     1     1     2   502     0 -3.932368299E+00 -8.790869149E+00  3.457095218E+02  3.458436300E+02  5.394796609E-06  0.00000E+00  9.000E+00
#rwgt            1           9  -1.8502120925513666E-004           6      578691           0
</event>
<event>
      6   9999  3.45752E-01  8.54262E+00 -1.00000E+00  1.94700E-01
      21    -1     0     0   501   502  0.000000000E+00  0.000000000E+00  8.934957996E+00  8.934957996E+00  0.000000000E+00  0.00000E+00  9.000E+00
      21    -1     0     0   502   511  0.000000000E+00  0.000000000E+00 -8.910238689E+02  8.910238689E+02  0.000000000E+00  0.00000E+00  9.000E+00
      25     1     1     2     0     0  3.939240450E+00  2.312235152E-01 -5.411314898E+02  5.553876241E+02  1.249662060E+02  0.00000E+00  9.000E+00
       5     1     1     2   501     0 -5.301322231E-01 -1.119789054E+00 -2.490471049E+00  5.504535743E+00  4.750000000E+00  0.00000E+00  9.000E+00
      -5     1     1     2     0   503 -3.607307254E+00 -7.651757062E+00 -1.060713356E+02  1.065140967E+02  4.750000000E+00  0.00000E+00  9.000E+00
      21     1     1     2   503   511  1.981990265E-01  8.540322601E+00 -2.323956144E+02  2.325525703E+02  2.697398305E-06  0.00000E+00  9.000E+00
#rwgt            1           9  0.90874139148228872                6      582488           0
</event>
<event>
      6   9999  3.45752E-01  1.01748E+01 -1.00000E+00  1.86404E-01
      21    -1     0     0   501   502  0.000000000E+00  0.000000000E+00  8.921751144E+01  8.921751144E+01  0.000000000E+00  0.00000E+00  9.000E+00
      21    -1     0     0   512   503  0.000000000E+00  0.000000000E+00 -4.520462748E+02  4.520462748E+02  0.000000000E+00  0.00000E+00  9.000E+00
      25     1     1     2     0     0  1.043800163E+01  1.252241768E+01 -2.090205293E+02  2.440988151E+02  1.250155471E+02  0.00000E+00  9.000E+00
       5     1     1     2   501     0 -2.618367347E+00 -3.050822789E+00  7.018724319E+01  7.046257853E+01  4.750000000E+00  0.00000E+00  9.000E+00
      -5     1     1     2     0   503  1.342048933E+00 -1.389776228E+01 -4.373055601E+01  4.615054626E+01  4.750000000E+00  0.00000E+00  9.000E+00
      21     1     1     2   512   502 -9.161683216E+00  4.426167386E+00 -1.802649213E+02  1.805518464E+02  1.907348633E-06  0.00000E+00  9.000E+00
#rwgt            1           9   4.5526375859968542E-004           6      585019           0
</event>
<event>
      6   9999  3.45752E-01  3.43016E+02 -1.00000E+00  1.01360E-01
      -2    -1     0     0     0   502  0.000000000E+00  0.000000000E+00  3.428512274E+02  3.428512274E+02  0.000000000E+00  0.00000E+00  9.000E+00
      21    -1     0     0   501   511  0.000000000E+00  0.000000000E+00 -4.539071383E+02  4.539071383E+02  0.000000000E+00  0.00000E+00  9.000E+00
      25     1     1     2     0     0  2.850168084E+00  1.928776545E+02 -5.015036906E+01  2.352635859E+02  1.249959291E+02  0.00000E+00  9.000E+00
       5     1     1     2   501     0  8.213475825E+00  1.450952345E+01  6.899570760E+00  1.865888615E+01  4.750000000E+00  0.00000E+00  9.000E+00
      -5     1     1     2     0   502  1.634433916E+02  8.792123666E+01 -7.376306642E+01  1.997684624E+02  4.750000000E+00  0.00000E+00  9.000E+00
      -2     1     1     2     0   511 -1.745070355E+02 -2.953084146E+02  5.957953765E+00  3.430674312E+02  5.266163972E-06  0.00000E+00  9.000E+00
#rwgt            1           3   4.3571627228166786E-002           6      588078           0
</event>
<event>
      6   9999  3.45752E-01  3.67335E+01 -1.00000E+00  1.42366E-01
      21    -1     0     0   501   512  0.000000000E+00  0.000000000E+00  6.043981117E+01  6.043981117E+01  0.000000000E+00  0.00000E+00  9.000E+00
      21    -1     0     0   502   503  0.000000000E+00  0.000000000E+00 -1.113874927E+03  1.113874927E+03  0.000000000E+00  0.00000E+00  9.000E+00
      25     1     1     2     0     0  7.871472405E+01 -4.305073024E+01 -5.107619925E+02  5.334342700E+02  1.249997374E+02  0.00000E+00  9.000E+00
       5     1     1     2   501     0 -2.939885549E+01  5.007964073E+01 -2.219886329E+02  2.295076878E+02  4.750000000E+00  0.00000E+00  9.000E+00
      -5     1     1     2     0   503 -6.131764210E+01 -4.174643894E+01 -3.540375441E+02  3.617564975E+02  4.750000000E+00  0.00000E+00  9.000E+00
      21     1     1     2   502   512  1.200177354E+01  3.471752845E+01  3.335305352E+01  4.961628290E+01  1.907348633E-06  0.00000E+00  9.000E+00
#rwgt            1           9   2.2997665352861262E-003           6      588669           0
</event>
<event>
      6   9999  3.45752E-01  9.82453E+00 -1.00000E+00  1.88007E-01
      21    -1     0     0   502   503  0.000000000E+00  0.000000000E+00  7.843805018E+00  7.843805018E+00  0.000000000E+00  0.00000E+00  9.000E+00
      21    -1     0     0   511   502  0.000000000E+00  0.000000000E+00 -8.691194871E+02  8.691194871E+02  0.000000000E+00  0.00000E+00  9.000E+00
      25     1     1     2     0     0  3.919472525E+00 -1.187764719E+00 -6.432943937E+02  6.553389824E+02  1.249989273E+02  0.00000E+00  9.000E+00
       5     1     1     2   501     0  3.027826155E-01 -1.180551806E+00 -4.525432095E+00  6.672886596E+00  4.750000000E+00  0.00000E+00  9.000E+00
      -5     1     1     2     0   503 -1.253212852E+00 -6.996839898E+00 -2.899461132E+01  3.022873296E+01  4.750000000E+00  0.00000E+00  9.000E+00
      21     1     1     2   511   501 -2.969042288E+00  9.365156422E+00 -1.844612450E+02  1.847226902E+02  4.672030912E-06  0.00000E+00  9.000E+00
#rwgt            1           9   2.2814586036698381E-004           6      590261           0
</event>
<event>
      6   9999  3.45752E-01  4.52450E+01 -1.00000E+00  1.37151E-01
      21    -1     0     0   512   503  0.000000000E+00  0.000000000E+00  1.588909169E+02  1.588909169E+02  0.000000000E+00  0.00000E+00  9.000E+00
      21    -1     0     0   501   502  0.000000000E+00  0.000000000E+00 -1.482163502E+03  1.482163502E+03  0.000000000E+00  0.00000E+00  9.000E+00
      25     1     1     2     0     0 -9.095398712E+01  1.859088759E+02 -6.421582604E+02  6.861680809E+02  1.249986637E+02  0.00000E+00  9.000E+00
       5     1     1     2   501     0  1.332400251E+02 -1.991513556E+02 -7.635287951E+02  8.002580522E+02  4.750000000E+00  0.00000E+00  9.000E+00
      -5     1     1     2     0   503  1.913997067E+00  3.574771642E+00 -3.147082778E+01  3.208454267E+01  4.750000000E+00  0.00000E+00  9.000E+00
      21     1     1     2   512   502 -4.420003508E+01  9.667708021E+00  1.138852985E+02  1.225437428E+02  1.348699152E-06  0.00000E+00  9.000E+00
#rwgt            1           9   4.0051637072946858E-002           6      592325           0
</event>
<event>
      6   9999  3.45752E-01  1.20219E+01 -1.00000E+00  1.79145E-01
      21    -1     0     0   511   502  0.000000000E+00  0.000000000E+00  1.387165647E+02  1.387165647E+02  0.000000000E+00  0.00000E+00  9.000E+00
      21    -1     0     0   502   503  0.000000000E+00  0.000000000E+00 -4.603577621E+01  4.603577621E+01  0.000000000E+00  0.00000E+00  9.000E+00
      25     1     1     2     0     0 -8.754321769E+00 -1.367710699E+01  5.472700068E+01  1.374153394E+02  1.249969180E+02  0.00000E+00  9.000E+00
       5     1     1     2   501     0 -5.338143112E-01 -1.881547092E-01  1.581343381E+01  1.652112432E+01  4.750000000E+00  0.00000E+00  9.000E+00
      -5     1     1     2     0   503  1.490643949E+00  4.715110835E+00  1.639560962E+00  7.050173736E+00  4.750000000E+00  0.00000E+00  9.000E+00
      21     1     1     2   511   501  7.797492131E+00  9.150150867E+00  2.050079300E+01  2.376570340E+01  0.000000000E+00  0.00000E+00  9.000E+00
#rwgt            1           9   1.7491425711459858E-002           6      593760           0
</event>
<event>
      6   9999  3.45752E-01  4.30386E+01 -1.00000E+00  1.38366E-01
      21    -1     0     0   501   502  0.000000000E+00  0.000000000E+00  7.836646592E+01  7.836646592E+01  0.000000000E+00  0.00000E+00  9.000E+00
      21    -1     0     0   502   512  0.000000000E+00  0.000000000E+00 -1.174355273E+03  1.174355273E+03  0.000000000E+00  0.00000E+00  9.000E+00
      25     1     1     2     0     0 -1.103617472E+02 -3.526315164E+01 -5.190356183E+02  5.463041931E+02  1.250083726E+02  0.00000E+00  9.000E+00
       5     1     1     2   501     0  7.395597348E-02  1.115189980E+01  5.514051463E+01  5.645714474E+01  4.750000000E+00  0.00000E+00  9.000E+00
      -5     1     1     2     0   503  8.508086005E+01  5.899580104E+01 -5.120737494E+02  5.224570266E+02  4.750000000E+00  0.00000E+00  9.000E+00
      21     1     1     2   503   512  2.520693117E+01 -3.488454920E+01 -1.200199542E+02  1.275033747E+02  1.348699152E-06  0.00000E+00  9.000E+00
#rwgt            1           9   24.646606190785135                6      595368           0
</event>
<event>
      6   9999  3.45752E-01  1.84766E+01 -1.00000E+00  1.62882E-01
      21    -1     0     0   511   502  0.000000000E+00  0.000000000E+00  1.222804580E+02  1.222804580E+02  0.000000000E+00  0.00000E+00  9.000E+00
      21    -1     0     0   502   503  0.000000000E+00  0.000000000E+00 -7.525895210E+02  7.525895210E+02  0.000000000E+00  0.00000E+00  9.000E+00
      25     1     1     2     0     0  7.851029018E+00  6.470361655E+00 -6.816884590E+02  6.931290873E+02  1.250010888E+02  0.00000E+00  9.000E+00
       5     1     1     2   501     0 -1.005304464E+01  1.150930031E+01 -2.978787626E+01  3.381431313E+01  4.750000000E+00  0.00000E+00  9.000E+00
      -5     1     1     2     0   503 -5.534121260E+00 -1.200546659E+00 -3.221330542E+01  3.305037604E+01  4.750000000E+00  0.00000E+00  9.000E+00
      21     1     1     2   511   501  7.736136883E+00 -1.677911530E+01  1.133805777E+02  1.148762026E+02  3.568322551E-06  0.00000E+00  9.000E+00
#rwgt            1           9   3.6355630982664263E-003           6      597334           0
</event>
<event>
      6   9999  3.45752E-01  1.22516E+01 -1.00000E+00  1.78359E-01
      21    -1     0     0   501   502  0.000000000E+00  0.000000000E+00  1.028861998E+01  1.028861998E+01  0.000000000E+00  0.00000E+00  9.000E+00
      21    -1     0     0   502   512  0.000000000E+00  0.000000000E+00 -9.831815193E+02  9.831815193E+02  0.000000000E+00  0.00000E+00  9.000E+00
      25     1     1     2     0     0  1.332210860E+01  1.772112280E+01 -8.286367855E+02  8.383051132E+02  1.250000953E+02  0.00000E+00  9.000E+00
       5     1     1     2   501     0  1.306439324E+00  1.086590482E+00  9.181886928E-01  5.127673260E+00  4.750000000E+00  0.00000E+00  9.000E+00
      -5     1     1     2     0   503 -3.202316788E+00 -1.438710639E+01 -2.620290959E+01  3.043679736E+01  4.750000000E+00  0.00000E+00  9.000E+00
      21     1     1     2   503   512 -1.142623113E+01 -4.420606891E+00 -1.189713929E+02  1.196005554E+02  0.000000000E+00  0.00000E+00  9.000E+00
#rwgt            1           9   1.7357401347832999E-004           6      598764           0
</event>
<event>
      6   9999  3.45752E-01  2.21595E+01 -1.00000E+00  1.56884E-01
      21    -1     0     0   501   511  0.000000000E+00  0.000000000E+00  3.454804374E+01  3.454804374E+01  0.000000000E+00  0.00000E+00  9.000E+00
      21    -1     0     0   502   503  0.000000000E+00  0.000000000E+00 -3.588914260E+03  3.588914260E+03  0.000000000E+00  0.00000E+00  9.000E+00
      25     1     1     2     0     0  2.533764468E+01  1.405242993E+01 -3.430933144E+03  3.433331690E+03  1.249991485E+02  0.00000E+00  9.000E+00
       5     1     1     2   501     0 -7.388076774E-01 -1.088331337E+01  3.007599685E+01  3.234378508E+01  4.750000000E+00  0.00000E+00  9.000E+00
      -5     1     1     2     0   503 -2.576141285E+00 -7.109853353E-01 -9.602469110E+01  9.617923791E+01  4.750000000E+00  0.00000E+00  9.000E+00
      21     1     1     2   502   511 -2.202269572E+01 -2.458131218E+00 -5.748437780E+01  6.160759066E+01  1.507891493E-06  0.00000E+00  9.000E+00
#rwgt            1           9   5.1523302586361473E-003           6      601201           0
</event>
<event>
      6   9999  3.45752E-01  1.20895E+01 -1.00000E+00  1.78911E-01
      21    -1     0     0   501   502  0.000000000E+00  0.000000000E+00  2.163106069E+01  2.163106069E+01  0.000000000E+00  0.00000E+00  9.000E+00
      21    -1     0     0   502   512  0.000000000E+00  0.000000000E+00 -2.197478716E+03  2.197478716E+03  0.000000000E+00  0.00000E+00  9.000E+00
      25     1     1     2     0     0 -6.005055875E+01  6.040254391E+01 -4.672059843E+02  4.910810140E+02  1.249983746E+02  0.00000E+00  9.000E+00
       5     1     1     2   501     0 -6.467994552E-01 -3.365723732E+00  5.461545207E+00  8.008584259E+00  4.750000000E+00  0.00000E+00  9.000E+00
      -5     1     1     2     0   503  6.287534339E+01 -6.892852741E+01 -7.440463297E+02  7.498879609E+02  4.750000000E+00  0.00000E+00  9.000E+00
      21     1     1     2   503   512 -2.177985192E+00  1.189170723E+01 -9.700568864E+02  9.701322173E+02  1.078959322E-05  0.00000E+00  9.000E+00
#rwgt            1           9   2.0409046962195518E-004           6      603842           0
</event>
<event>
      6   9999  3.45752E-01  2.49528E+01 -1.00000E+00  1.53206E-01
      21    -1     0     0   501   502  0.000000000E+00  0.000000000E+00  1.825041142E+02  1.825041142E+02  0.000000000E+00  0.00000E+00  9.000E+00
      21    -1     0     0   511   503  0.000000000E+00  0.000000000E+00 -7.635915155E+02  7.635915155E+02  0.000000000E+00  0.00000E+00  9.000E+00
      25     1     1     2     0     0 -1.549320329E+02 -3.198731916E+01 -1.209562295E+02  2.351228249E+02  1.250008397E+02  0.00000E+00  9.000E+00
       5     1     1     2   501     0  5.110782197E-01 -2.660104127E+00  1.033039453E+02  1.034485619E+02  4.750000000E+00  0.00000E+00  9.000E+00
      -5     1     1     2     0   503  1.393769431E+02  5.455525594E+01 -2.383841273E+02  2.815168962E+02  4.750000000E+00  0.00000E+00  9.000E+00
      21     1     1     2   511   502  1.504401163E+01 -1.990783265E+01 -3.250509898E+02  3.260073466E+02  0.000000000E+00  0.00000E+00  9.000E+00
#rwgt            1           9   2.4358571071124604E-003           6      606999           0
</event>
<event>
      6   9999  3.45752E-01  9.26026E+00 -1.00000E+00  1.90779E-01
      21    -1     0     0   501   512  0.000000000E+00  0.000000000E+00  3.563877770E+02  3.563877770E+02  0.000000000E+00  0.00000E+00  9.000E+00
      21    -1     0     0   502   503  0.000000000E+00  0.000000000E+00 -1.130950148E+03  1.130950148E+03  0.000000000E+00  0.00000E+00  9.000E+00
      25     1     1     2     0     0 -1.469560769E+00  1.633503023E+01 -1.075883230E+03  1.083245507E+03  1.250084413E+02  0.00000E+00  9.000E+00
       5     1     1     2   501     0  2.512571548E+00 -1.789932031E+00  2.605096501E+01  2.665956021E+01  4.750000000E+00  0.00000E+00  9.000E+00
      -5     1     1     2     0   503  3.718330177E-01 -5.393557988E+00 -5.076194077E+01  5.126954124E+01  4.750000000E+00  0.00000E+00  9.000E+00
      21     1     1     2   502   512 -1.414843797E+00 -9.151540206E+00  3.260318343E+02  3.261633172E+02  7.629394531E-06  0.00000E+00  9.000E+00
#rwgt            1           9   1.2170481261053717E-004           6      608971           0
</event>
<event>
      6   9999  3.45752E-01  2.11456E+01 -1.00000E+00  1.58386E-01
      21    -1     0     0   501   502  0.000000000E+00  0.000000000E+00  2.373177634E+01  2.373177634E+01  0.000000000E+00  0.00000E+00  9.000E+00
       2    -1     0     0   502     0  0.000000000E+00  0.000000000E+00 -2.066817148E+03  2.066817148E+03  0.000000000E+00  0.00000E+00  9.000E+00
      25     1     1     2     0     0 -1.124227010E+02  3.652799514E+01 -3.808123278E+02  4.178695413E+02  1.249950656E+02  0.00000E+00  9.000E+00
       5     1     1     2   501     0 -9.107702668E-01 -2.248691821E-01  8.717309470E-03  4.841760488E+00  4.750000000E+00  0.00000E+00  9.000E+00
      -5     1     1     2     0   503  9.709775969E+01 -2.275546531E+01 -9.480270736E+02  9.532699937E+02  4.750000000E+00  0.00000E+00  9.000E+00
       2     1     1     2   503     0  1.623571158E+01 -1.354766064E+01 -7.142546880E+02  7.145676293E+02  1.321449896E-05  0.00000E+00  9.000E+00
#rwgt            1           9   9.5074485707099068E-004           6      612696           0
</event>
<event>
      6   9999  3.45752E-01  2.71496E+00 -1.00000E+00  2.88766E-01
      21    -1     0     0   501   511  0.000000000E+00  0.000000000E+00  2.602146399E+01  2.602146399E+01  0.000000000E+00  0.00000E+00  9.000E+00
      21    -1     0     0   502   503  0.000000000E+00  0.000000000E+00 -1.055105886E+03  1.055105886E+03  0.000000000E+00  0.00000E+00  9.000E+00
      25     1     1     2     0     0 -3.523380061E+01 -3.033863108E+01 -9.083649552E+02  9.181034921E+02  1.250011081E+02  0.00000E+00  9.000E+00
       5     1     1     2   501     0  4.961883729E+00  2.176815999E+00  1.622985134E+01  1.775751651E+01  4.750000000E+00  0.00000E+00  9.000E+00
      -5     1     1     2     0   503  3.059167215E+01  2.546574967E+01 -1.367944461E+02  1.425469670E+02  4.750000000E+00  0.00000E+00  9.000E+00
      21     1     1     2   502   511 -3.197552647E-01  2.696065416E+00 -1.548720579E-01  2.719374471E+00  2.800169658E-08  0.00000E+00  9.000E+00
#rwgt            1           9   1.8450182370721011E-004           6      614749           0
</event>
<event>
      6   9999  3.45752E-01  2.80848E+01 -1.00000E+00  1.49715E-01
      21    -1     0     0   501   502  0.000000000E+00  0.000000000E+00  2.402109567E+03  2.402109567E+03  0.000000000E+00  0.00000E+00  9.000E+00
      21    -1     0     0   502   512  0.000000000E+00  0.000000000E+00 -5.542014394E+01  5.542014394E+01  0.000000000E+00  0.00000E+00  9.000E+00
      25     1     1     2     0     0  1.121485350E+02  1.828852314E+01  3.357233693E+02  3.758288658E+02  1.250015667E+02  0.00000E+00  9.000E+00
       5     1     1     2   501     0  6.391438923E+00 -6.238287390E+00  1.945487253E+03  1.945513552E+03  4.750000000E+00  0.00000E+00  9.000E+00
      -5     1     1     2     0   503 -9.064665174E+01 -8.776333667E+00  5.276110107E+01  1.053571820E+02  4.750000000E+00  0.00000E+00  9.000E+00
      21     1     1     2   503   512 -2.789332217E+01 -3.273902080E+00  1.271769918E+01  3.083011075E+01  1.283923342E-06  0.00000E+00  9.000E+00
#rwgt            1           9   91.183693201528214                6      622734           0
</event>
<event>
      6   9999  3.45752E-01  1.86016E+01 -1.00000E+00  1.62651E-01
      21    -1     0     0   501   502  0.000000000E+00  0.000000000E+00  7.347007547E+02  7.347007547E+02  0.000000000E+00  0.00000E+00  9.000E+00
      21    -1     0     0   502   511  0.000000000E+00  0.000000000E+00 -1.375038379E+02  1.375038379E+02  0.000000000E+00  0.00000E+00  9.000E+00
      25     1     1     2     0     0  1.335430053E+01 -1.450358500E+01  6.414503249E+02  6.538132614E+02  1.249982807E+02  0.00000E+00  9.000E+00
       5     1     1     2   501     0  4.790721354E-01 -7.486649791E-01  6.175857145E+01  6.194734585E+01  4.750000000E+00  0.00000E+00  9.000E+00
      -5     1     1     2     0   503  7.353833006E-02  2.898387862E+00  2.423992371E+01  2.487051390E+01  4.750000000E+00  0.00000E+00  9.000E+00
      21     1     1     2   503   511 -1.390691100E+01  1.235386211E+01 -1.302519033E+02  1.315734714E+02  2.697398305E-06  0.00000E+00  9.000E+00
#rwgt            1           9   1.5628034432423243E-003           6      625358           0
</event>
<event>
      6   9999 -3.45752E-01  5.95254E+00 -1.00000E+00  2.14539E-01
      21    -1     0     0   512   502  0.000000000E+00  0.000000000E+00  3.117337537E+01  3.117337537E+01  0.000000000E+00  0.00000E+00  9.000E+00
      21    -1     0     0   502   503  0.000000000E+00  0.000000000E+00 -1.013104389E+03  1.013104389E+03  0.000000000E+00  0.00000E+00  9.000E+00
      25     1     1     2     0     0 -1.337294590E+01 -5.193898325E+00 -3.416472672E+02  3.640825921E+02  1.250098653E+02  0.00000E+00  9.000E+00
       5     1     1     2   501     0 -1.215313039E+00 -3.233455417E+00  1.505764514E+01  1.616253064E+01  4.750000000E+00  0.00000E+00  9.000E+00
      -5     1     1     2     0   503  1.282009988E+01  1.411121741E+01 -6.574305859E+02  6.577241209E+02  4.750000000E+00  0.00000E+00  9.000E+00
      21     1     1     2   512   501  1.768159058E+00 -5.683863668E+00  2.089194849E+00  6.308520252E+00  1.908279728E-07  0.00000E+00  9.000E+00
#rwgt            1           9  -8.7253297973445380E-003           6      626602           0
</event>
<event>
      6   9999  3.45752E-01  1.63492E+01 -1.00000E+00  1.67192E-01
      21    -1     0     0   501   502  0.000000000E+00  0.000000000E+00  1.106785930E+02  1.106785930E+02  0.000000000E+00  0.00000E+00  9.000E+00
      21    -1     0     0   502   511  0.000000000E+00  0.000000000E+00 -3.016734757E+02  3.016734757E+02  0.000000000E+00  0.00000E+00  9.000E+00
      25     1     1     2     0     0  3.081227791E+01 -1.216487772E+01 -2.150995100E+02  2.509788677E+02  1.250008484E+02  0.00000E+00  9.000E+00
       5     1     1     2   501     0  1.295466662E+00  3.514312489E+00  8.500124155E+01  8.521620850E+01  4.750000000E+00  0.00000E+00  9.000E+00
      -5     1     1     2     0   503 -1.624329954E+01  1.260208473E+01 -1.130077384E+01  2.393590000E+01  4.750000000E+00  0.00000E+00  9.000E+00
      21     1     1     2   503   511 -1.586444503E+01 -3.951519497E+00 -4.959584034E+01  5.222109250E+01  6.743495762E-07  0.00000E+00  9.000E+00
#rwgt            1           9   29.103523340065777                6      631268           0
</event>
<event>
      6   9999  3.45752E-01  1.73917E+01 -1.00000E+00  1.64985E-01
      21    -1     0     0   502   503  0.000000000E+00  0.000000000E+00  1.847287382E+02  1.847287382E+02  0.000000000E+00  0.00000E+00  9.000E+00
      21    -1     0     0   512   502  0.000000000E+00  0.000000000E+00 -1.132306851E+03  1.132306851E+03  0.000000000E+00  0.00000E+00  9.000E+00
      25     1     1     2     0     0  3.536380179E+01 -8.452981390E+00  3.337270055E+01  1.343908458E+02  1.250004437E+02  0.00000E+00  9.000E+00
       5     1     1     2   501     0 -6.425506380E-01  5.366058828E-01  2.899177166E+01  2.939023888E+01  4.750000000E+00  0.00000E+00  9.000E+00
      -5     1     1     2     0   503 -2.828567150E+01 -8.240819246E+00  6.847575812E+01  7.469593205E+01  4.750000000E+00  0.00000E+00  9.000E+00
      21     1     1     2   512   501 -6.435579648E+00  1.615719475E+01 -1.078418343E+03  1.078558572E+03  0.000000000E+00  0.00000E+00  9.000E+00
#rwgt            1           9   7.4585399849077241E-003           6      633786           0
</event>
<event>
      6   9999  3.45752E-01  8.70913E+00 -1.00000E+00  1.93746E-01
      21    -1     0     0   501   502  0.000000000E+00  0.000000000E+00  2.143408926E+01  2.143408926E+01  0.000000000E+00  0.00000E+00  9.000E+00
      21    -1     0     0   502   511  0.000000000E+00  0.000000000E+00 -2.962400049E+02  2.962400049E+02  0.000000000E+00  0.00000E+00  9.000E+00
      25     1     1     2     0     0 -4.413567410E+00 -1.997027775E+01 -2.064040871E+02  2.421657291E+02  1.249932063E+02  0.00000E+00  9.000E+00
       5     1     1     2   501     0  8.004666526E-04 -3.473069008E-01 -2.066759676E+00  5.191783728E+00  4.750000000E+00  0.00000E+00  9.000E+00
      -5     1     1     2     0   503 -7.336871651E-01  1.329171005E+01 -3.380369171E+01  3.663959506E+01  4.750000000E+00  0.00000E+00  9.000E+00
      21     1     1     2   503   511  5.146454109E+00  7.025874607E+00 -3.253137719E+01  3.367698629E+01  0.000000000E+00  0.00000E+00  9.000E+00
#rwgt            1           9   1.5081635865760465E-002           6      636245           0
</event>
<event>
      6   9999  3.45752E-01  3.25334E+01 -1.00000E+00  1.45596E-01
      -2    -1     0     0     0   502  0.000000000E+00  0.000000000E+00  1.531243920E+02  1.531243920E+02  0.000000000E+00  0.00000E+00  9.000E+00
      21    -1     0     0   502   503  0.000000000E+00  0.000000000E+00 -2.216484598E+03  2.216484598E+03  0.000000000E+00  0.00000E+00  9.000E+00
      25     1     1     2     0     0 -4.204872494E+01  1.910060643E+01 -1.824862686E+03  1.829722302E+03  1.250078118E+02  0.00000E+00  9.000E+00
       5     1     1     2   501     0 -5.148261271E+00 -3.435229352E+01  1.205027050E+02  1.254991995E+02  4.750000000E+00  0.00000E+00  9.000E+00
      -5     1     1     2     0   503  1.606563569E+01  5.803867323E+00 -3.768582400E+02  3.772750788E+02  4.750000000E+00  0.00000E+00  9.000E+00
      -2     1     1     2     0   501  3.113135052E+01  9.447819760E+00  1.785801440E+01  3.711240981E+01  4.129530925E-07  0.00000E+00  9.000E+00
#rwgt            1           9   2.2358410188443398E-003           6      638752           0
</event>
<event>
      6   9999  3.45752E-01  2.47837E+00 -1.00000E+00  3.00576E-01
      21    -1     0     0   511   502  0.000000000E+00  0.000000000E+00  3.984203397E+00  3.984203397E+00  0.000000000E+00  0.00000E+00  9.000E+00
      21    -1     0     0   502   503  0.000000000E+00  0.000000000E+00 -1.650080997E+03  1.650080997E+03  0.000000000E+00  0.00000E+00  9.000E+00
      25     1     1     2     0     0  1.332272908E+01  1.762955466E+00 -1.448385726E+03  1.453832028E+03  1.250030038E+02  0.00000E+00  9.000E+00
       5     1     1     2   501     0  4.326842707E-01  4.709534512E-01 -9.229899724E+00  1.040012316E+01  4.750000000E+00  0.00000E+00  9.000E+00
      -5     1     1     2     0   503 -1.162935906E+01 -3.507567854E+00 -1.854925105E+02  1.859504745E+02  4.750000000E+00  0.00000E+00  9.000E+00
      21     1     1     2   511   501 -2.126054287E+00  1.273658937E+00 -2.988657211E+00  3.882574641E+00  1.788139343E-07  0.00000E+00  9.000E+00
#rwgt            1           9   8.3396284474897677E-004           6      641514           0
</event>
<event>
      6   9999  3.45752E-01  4.38208E+00 -1.00000E+00  2.39925E-01
      21    -1     0     0   512   502  0.000000000E+00  0.000000000E+00  9.248078476E+00  9.248078476E+00  0.000000000E+00  0.00000E+00  9.000E+00
      21    -1     0     0   502   503  0.000000000E+00  0.000000000E+00 -2.257076076E+03  2.257076076E+03  0.000000000E+00  0.00000E+00  9.000E+00
      25     1     1     2     0     0  9.901029503E+00  2.014060008E+01 -8.193247866E+02  8.291092769E+02  1.250016515E+02  0.00000E+00  9.000E+00
       5     1     1     2   501     0  4.694351314E-01 -5.308394358E-01 -1.839506680E+01  1.901165807E+01  4.750000000E+00  0.00000E+00  9.000E+00
      -5     1     1     2     0   503 -1.263424214E+01 -2.336181381E+01 -1.412801828E+03  1.413059435E+03  4.750000000E+00  0.00000E+00  9.000E+00
      21     1     1     2   512   501  2.263777509E+00  3.752053162E+00  2.693683735E+00  5.143784949E+00  7.748603821E-07  0.00000E+00  9.000E+00
#rwgt            1           9   410.20866319428313                6      647660           0
</event>
<event>
      6   9999  3.45752E-01  9.94948E+00 -1.00000E+00  1.87426E-01
      21    -1     0     0   501   502  0.000000000E+00  0.000000000E+00  7.761224771E+02  7.761224771E+02  0.000000000E+00  0.00000E+00  9.000E+00
      21    -1     0     0   511   503  0.000000000E+00  0.000000000E+00 -1.098916586E+03  1.098916586E+03  0.000000000E+00  0.00000E+00  9.000E+00
      25     1     1     2     0     0 -8.220292720E-01 -7.394853646E+01 -9.747839472E+02  9.855439018E+02  1.249959078E+02  0.00000E+00  9.000E+00
       5     1     1     2   501     0 -2.792601471E+01  3.538278943E+01  7.651021753E+02  7.664435434E+02  4.750000000E+00  0.00000E+00  9.000E+00
      -5     1     1     2     0   503  2.333595471E+01  3.021700322E+01 -9.146837719E+01  9.923034108E+01  4.750000000E+00  0.00000E+00  9.000E+00
      21     1     1     2   511   502  5.412089266E+00  8.348743816E+00 -2.164395946E+01  2.382127651E+01  3.371747881E-07  0.00000E+00  9.000E+00
#rwgt            1           9   1.7537022018690070E-003           6      652165           0
</event>
<event>
      6   9999  3.45752E-01  3.97107E+00 -1.00000E+00  2.48504E-01
      21    -1     0     0   501   502  0.000000000E+00  0.000000000E+00  4.753215805E+01  4.753215805E+01  0.000000000E+00  0.00000E+00  9.000E+00
      21    -1     0     0   502   512  0.000000000E+00  0.000000000E+00 -4.317435015E+02  4.317435015E+02  0.000000000E+00  0.00000E+00  9.000E+00
      25     1     1     2     0     0 -1.581706976E+01 -3.753650932E+01 -1.289648828E+02  1.841630470E+02  1.249996706E+02  0.00000E+00  9.000E+00
       5     1     1     2   501     0  1.034223233E+00  4.093458479E-01  1.755278042E+01  1.821811687E+01  4.750000000E+00  0.00000E+00  9.000E+00
      -5     1     1     2     0   503  1.235363094E+01  4.026854428E+01 -2.616042136E+02  2.650160277E+02  4.750000000E+00  0.00000E+00  9.000E+00
      21     1     1     2   503   512  2.429215585E+00 -3.141380812E+00 -1.119502751E+01  1.187846802E+01  0.000000000E+00  0.00000E+00  9.000E+00
#rwgt            1           9   8.2099522076141060E-003           6      658567           0
</event>
<event>
      6   9999  3.45752E-01  4.08723E+00 -1.00000E+00  2.45927E-01
      21    -1     0     0   501   511  0.000000000E+00  0.000000000E+00  9.165784971E+00  9.165784971E+00  0.000000000E+00  0.00000E+00  9.000E+00
      21    -1     0     0   502   503  0.000000000E+00  0.000000000E+00 -7.328066219E+02  7.328066219E+02  0.000000000E+00  0.00000E+00  9.000E+00
      25     1     1     2     0     0 -1.267460905E+01  5.905886811E-01 -6.691073308E+02  6.808037931E+02  1.250127598E+02  0.00000E+00  9.000E+00
       5     1     1     2   501     0  9.384064893E-03 -1.234780311E+00 -3.545254671E-01  4.920666498E+00  4.750000000E+00  0.00000E+00  9.000E+00
      -5     1     1     2     0   503  9.358298951E+00 -1.757827674E+00 -4.423243679E+01  4.549438077E+01  4.750000000E+00  0.00000E+00  9.000E+00
      21     1     1     2   502   511  3.306926038E+00  2.402019304E+00 -9.946543844E+00  1.075356643E+01  1.192092896E-07  0.00000E+00  9.000E+00
#rwgt            1           9   1.2342341610669968E-003           6      664482           0
</event>
<event>
      6   9999 -3.45752E-01  1.38790E+01 -1.00000E+00  1.73348E-01
       2    -1     0     0   501     0  0.000000000E+00  0.000000000E+00  5.330885617E+01  5.330885617E+01  0.000000000E+00  0.00000E+00  9.000E+00
      21    -1     0     0   502   503  0.000000000E+00  0.000000000E+00 -8.693295946E+02  8.693295946E+02  0.000000000E+00  0.00000E+00  9.000E+00
      25     1     1     2     0     0  6.140460036E+00  3.217675386E+01 -6.552386270E+02  6.678590540E+02  1.250000358E+02  0.00000E+00  9.000E+00
       5     1     1     2   501     0 -4.191085675E+00 -1.087244490E+00  3.788311330E+00  7.460636866E+00  4.750000000E+00  0.00000E+00  9.000E+00
      -5     1     1     2     0   503 -1.582816625E+01 -3.100511154E+01 -2.032293308E+02  2.062439604E+02  4.750000000E+00  0.00000E+00  9.000E+00
       2     1     1     2   502     0  1.387879189E+01 -8.439782428E-02  3.865890804E+01  4.107479955E+01  0.000000000E+00  0.00000E+00  9.000E+00
#rwgt            1           9  -2.4789697759638883E-003           6      668998           0
</event>
<event>
      6   9999  3.45752E-01  5.89568E+01 -1.00000E+00  1.31067E-01
      21    -1     0     0   511   503  0.000000000E+00  0.000000000E+00  4.184775967E+01  4.184775967E+01  0.000000000E+00  0.00000E+00  9.000E+00
      21    -1     0     0   501   502  0.000000000E+00  0.000000000E+00 -9.125486459E+02  9.125486459E+02  0.000000000E+00  0.00000E+00  9.000E+00
      25     1     1     2     0     0 -4.319932389E+00 -9.724509029E+00 -6.875651577E+02  6.989163678E+02  1.250000607E+02  0.00000E+00  9.000E+00
       5     1     1     2   501     0 -3.602254206E+00  6.151869338E+00 -5.779077659E+01  5.842223969E+01  4.750000000E+00  0.00000E+00  9.000E+00
      -5     1     1     2     0   503  3.799857268E+01 -4.713544655E+01 -1.240143009E+02  1.380860282E+02  4.750000000E+00  0.00000E+00  9.000E+00
      21     1     1     2   511   502 -3.007638608E+01  5.070808625E+01 -1.330650975E+00  5.897176988E+01  1.468274862E-06  0.00000E+00  9.000E+00
#rwgt            1           9  0.82414406607960522                6      670982           0
</event>
<event>
      6   9999  3.45752E-01  4.53794E+00 -1.00000E+00  2.37028E-01
      21    -1     0     0   502   512  0.000000000E+00  0.000000000E+00  9.194132682E+00  9.194132682E+00  0.000000000E+00  0.00000E+00  9.000E+00
      21    -1     0     0   501   502  0.000000000E+00  0.000000000E+00 -7.144264399E+02  7.144264399E+02  0.000000000E+00  0.00000E+00  9.000E+00
      25     1     1     2     0     0 -1.789330435E+00  7.949938638E+00 -6.040872618E+02  6.169387066E+02  1.250021784E+02  0.00000E+00  9.000E+00
       5     1     1     2   501     0  2.725545338E+00 -2.746904750E-02 -8.525774926E+01  8.543345750E+01  4.750000000E+00  0.00000E+00  9.000E+00
      -5     1     1     2     0   503  2.413670607E+00 -4.861234413E+00 -1.497256496E+01  1.661919395E+01  4.750000000E+00  0.00000E+00  9.000E+00
      21     1     1     2   503   512 -3.349885511E+00 -3.061235177E+00 -9.147311456E-01  4.629214492E+00  1.053671213E-07  0.00000E+00  9.000E+00
#rwgt            1           9  0.18139878574919835                6      671622           0
</event>
<event>
      6   9999  3.45752E-01  1.23986E+01 -1.00000E+00  1.77866E-01
      21    -1     0     0   501   502  0.000000000E+00  0.000000000E+00  4.516276192E+01  4.516276192E+01  0.000000000E+00  0.00000E+00  9.000E+00
      21    -1     0     0   511   503  0.000000000E+00  0.000000000E+00 -1.446664973E+03  1.446664973E+03  0.000000000E+00  0.00000E+00  9.000E+00
      25     1     1     2     0     0 -2.256510889E+01  5.559607863E+01 -1.095926270E+03  1.104664484E+03  1.250165018E+02  0.00000E+00  9.000E+00
       5     1     1     2   501     0 -3.440582502E+00 -6.885122841E-01  3.740410218E+01  3.786741365E+01  4.750000000E+00  0.00000E+00  9.000E+00
      -5     1     1     2     0   503  3.023305858E+01 -4.325190719E+01 -2.549953395E+02  2.604418380E+02  4.750000000E+00  0.00000E+00  9.000E+00
      21     1     1     2   511   502 -4.227367180E+00 -1.165565916E+01 -8.798470384E+01  8.885399897E+01  2.132480600E-06  0.00000E+00  9.000E+00
#rwgt            1           9   1.8158623416122569E-004           6      675435           0
</event>
<event>
      6   9999 -3.45752E-01  9.02845E+00 -1.00000E+00  1.91994E-01
      21    -1     0     0   501   512  0.000000000E+00  0.000000000E+00  1.341901005E+02  1.341901005E+02  0.000000000E+00  0.00000E+00  9.000E+00
      21    -1     0     0   502   503  0.000000000E+00  0.000000000E+00 -2.743567213E+02  2.743567213E+02  0.000000000E+00  0.00000E+00  9.000E+00
      25     1     1     2     0     0 -7.543665154E+01  7.733124797E+00 -1.923703511E+02  2.416235683E+02  1.250004285E+02  0.00000E+00  9.000E+00
       5     1     1     2   501     0  1.217004500E+00  9.698550961E-01  3.930844438E+01  3.962496711E+01  4.750000000E+00  0.00000E+00  9.000E+00
      -5     1     1     2     0   503  6.693332600E+01 -1.403425248E+01 -3.610023634E+01  7.747786740E+01  4.750000000E+00  0.00000E+00  9.000E+00
      21     1     1     2   502   512  7.286321037E+00  5.331272590E+00  4.899552227E+01  4.982041895E+01  0.000000000E+00  0.00000E+00  9.000E+00
#rwgt            1           9 -0.58719802188181847                6      679413           0
</event>
<event>
      6   9999 -3.45752E-01  7.43489E+00 -1.00000E+00  2.01858E-01
      21    -1     0     0   501   502  0.000000000E+00  0.000000000E+00  2.500941206E+02  2.500941206E+02  0.000000000E+00  0.00000E+00  9.000E+00
      21    -1     0     0   502   511  0.000000000E+00  0.000000000E+00 -5.593816224E+01  5.593816224E+01  0.000000000E+00  0.00000E+00  9.000E+00
      25     1     1     2     0     0  4.563316804E+01  1.149495377E+01  7.208376621E+01  1.517758997E+02  1.250013375E+02  0.00000E+00  9.000E+00
       5     1     1     2   501     0  2.206131654E+00 -1.043733568E+00  9.221015141E+01  9.236466272E+01  4.750000000E+00  0.00000E+00  9.000E+00
      -5     1     1     2     0   503 -4.179904554E+01 -6.116143405E+00  3.300603680E+01  5.381940527E+01  4.750000000E+00  0.00000E+00  9.000E+00
      21     1     1     2   503   511 -6.040254148E+00 -4.335076796E+00 -3.143996056E+00  8.072315170E+00  7.300048300E-08  0.00000E+00  9.000E+00
#rwgt            1           9  -4.2587192570647643                6      682664           0
</event>
<event>
      6   9999 -3.45752E-01  1.07586E+01 -1.00000E+00  1.83910E-01
      21    -1     0     0   512   502  0.000000000E+00  0.000000000E+00  9.811750404E+01  9.811750404E+01  0.000000000E+00  0.00000E+00  9.000E+00
      21    -1     0     0   502   503  0.000000000E+00  0.000000000E+00 -8.466848892E+02  8.466848892E+02  0.000000000E+00  0.00000E+00  9.000E+00
      25     1     1     2     0     0 -3.862377418E+00 -1.190753022E-01 -7.645728518E+02  7.747335209E+02  1.250018022E+02  0.00000E+00  9.000E+00
       5     1     1     2   501     0 -4.923925442E+00  9.059450787E-01  4.287869057E+00  8.124906109E+00  4.750000000E+00  0.00000E+00  9.000E+00
      -5     1     1     2     0   503 -1.468251841E+00 -4.041335582E+00 -7.464216180E+01  7.491664017E+01  4.750000000E+00  0.00000E+00  9.000E+00
      21     1     1     2   512   501  1.025455470E+01  3.254465806E+00  8.635975938E+01  8.702732605E+01  2.697398305E-06  0.00000E+00  9.000E+00
#rwgt            1           9  -3.3664332879970262E-003           6      686347           0
</event>
<event>
      6   9999  3.45752E-01  5.98195E+00 -1.00000E+00  2.14240E-01
      -2    -1     0     0     0   502  0.000000000E+00  0.000000000E+00  1.440963337E+02  1.440963337E+02  0.000000000E+00  0.00000E+00  9.000E+00
      21    -1     0     0   502   503  0.000000000E+00  0.000000000E+00 -1.100591490E+02  1.100591490E+02  0.000000000E+00  0.00000E+00  9.000E+00
      25     1     1     2     0     0  3.980993276E+00  5.844936652E+00 -4.931859416E+01  1.345644259E+02  1.250009976E+02  0.00000E+00  9.000E+00
       5     1     1     2   501     0 -1.799787351E+00 -6.924692032E+00 -1.181542431E+01  1.460675685E+01  4.750000000E+00  0.00000E+00  9.000E+00
      -5     1     1     2     0   503  2.099067027E+00 -3.099121299E+00 -2.916682480E+00  6.714176934E+00  4.750000000E+00  0.00000E+00  9.000E+00
      -2     1     1     2     0   501 -4.280272952E+00  4.178876679E+00  9.808788564E+01  9.827012290E+01  1.348699152E-06  0.00000E+00  9.000E+00
#rwgt            1           9   5988.0724429483935                6      689142           0
</event>
<event>
      6   9999  3.45752E-01  2.61589E+01 -1.00000E+00  1.51793E-01
      21    -1     0     0   511   502  0.000000000E+00  0.000000000E+00  3.361264498E+01  3.361264498E+01  0.000000000E+00  0.00000E+00  9.000E+00
      21    -1     0     0   502   503  0.000000000E+00  0.000000000E+00 -1.524828842E+03  1.524828842E+03  0.000000000E+00  0.00000E+00  9.000E+00
      25     1     1     2     0     0  1.748886294E+01 -3.455384213E-01 -1.367837223E+03  1.373647777E+03  1.249942739E+02  0.00000E+00  9.000E+00
       5     1     1     2   501     0  6.610846408E+00  9.180087292E-02 -7.381514504E+00  1.098912981E+01  4.750000000E+00  0.00000E+00  9.000E+00
      -5     1     1     2     0   503  1.980350267E+00  2.283496025E+00 -1.389135661E+02  1.390276141E+02  4.750000000E+00  0.00000E+00  9.000E+00
      21     1     1     2   511   501 -2.608005961E+01 -2.029758476E+00  2.291610621E+01  3.477696584E+01  1.719260824E-06  0.00000E+00  9.000E+00
#rwgt            1           9   1.4915255940871602E-004           6      692139           0
</event>
<event>
      6   9999  3.45752E-01  4.14978E+00 -1.00000E+00  2.44591E-01
      21    -1     0     0   501   512  0.000000000E+00  0.000000000E+00  3.286954530E+01  3.286954530E+01  0.000000000E+00  0.00000E+00  9.000E+00
      21    -1     0     0   502   503  0.000000000E+00  0.000000000E+00 -9.919490118E+02  9.919490118E+02  0.000000000E+00  0.00000E+00  9.000E+00
      25     1     1     2     0     0  8.121847136E+01  2.487829983E+00 -4.460395277E+02  4.702973310E+02  1.250027597E+02  0.00000E+00  9.000E+00
       5     1     1     2   501     0 -1.083328949E+00  8.671879402E-01  4.174474155E+00  6.474129363E+00  4.750000000E+00  0.00000E+00  9.000E+00
      -5     1     1     2     0   503 -7.633539392E+01 -5.023136390E+00 -5.295313676E+02  5.350498632E+02  4.750000000E+00  0.00000E+00  9.000E+00
      21     1     1     2   502   512 -3.799748484E+00  1.668118467E+00  1.231695466E+01  1.299723355E+01  4.129530925E-07  0.00000E+00  9.000E+00
#rwgt            1           9   4.2693217986262603E-004           6      693107           0
</event>
<event>
      6   9999  3.45752E-01  1.71515E+01 -1.00000E+00  1.65476E-01
      21    -1     0     0   501   502  0.000000000E+00  0.000000000E+00  1.356402019E+02  1.356402019E+02  0.000000000E+00  0.00000E+00  9.000E+00
      21    -1     0     0   511   503  0.000000000E+00  0.000000000E+00 -1.177900670E+03  1.177900670E+03  0.000000000E+00  0.00000E+00  9.000E+00
      25     1     1     2     0     0 -5.829115569E+01  8.313230753E+01 -1.290735271E+02  2.063833897E+02  1.250011550E+02  0.00000E+00  9.000E+00
       5     1     1     2   501     0 -1.573032843E-01  5.668680228E+00  9.162718208E+01  9.192530487E+01  4.750000000E+00  0.00000E+00  9.000E+00
      -5     1     1     2     0   503  7.367497960E+01 -8.090616725E+01 -5.910485786E+02  6.011113002E+02  4.750000000E+00  0.00000E+00  9.000E+00
      21     1     1     2   511   502 -1.522652062E+01 -7.894820511E+00 -4.137655449E+02  4.141208776E+02  5.394796609E-06  0.00000E+00  9.000E+00
#rwgt            1           9   249.23260457250231                6      699351           0
</event>
<event>
      6   9999  3.45752E-01  1.26690E+01 -1.00000E+00  1.76983E-01
      21    -1     0     0   501   502  0.000000000E+00  0.000000000E+00  1.440309884E+01  1.440309884E+01  0.000000000E+00  0.00000E+00  9.000E+00
      21    -1     0     0   512   503  0.000000000E+00  0.000000000E+00 -1.057050712E+03  1.057050712E+03  0.000000000E+00  0.00000E+00  9.000E+00
      25     1     1     2     0     0 -4.110557711E+00  6.367573314E+00 -8.306601059E+02  8.400466182E+02  1.249986657E+02  0.00000E+00  9.000E+00
       5     1     1     2   501     0 -3.071903932E+00  1.774028453E+00  8.374435681E+00  1.026047970E+01  4.750000000E+00  0.00000E+00  9.000E+00
      -5     1     1     2     0   503  6.475429582E-01  2.711934230E+00 -4.679798871E+01  4.712099476E+01  4.750000000E+00  0.00000E+00  9.000E+00
      21     1     1     2   512   502  6.534918684E+00 -1.085353600E+01 -1.735639542E+02  1.740257182E+02  1.907348633E-06  0.00000E+00  9.000E+00
#rwgt            1           9   8.1269256637698869E-005           6      702523           0
</event>
<event>
      6   9999 -3.45752E-01  1.49653E+01 -1.00000E+00  1.70459E-01
      21    -1     0     0   501   511  0.000000000E+00  0.000000000E+00  6.023211382E+01  6.023211382E+01  0.000000000E+00  0.00000E+00  9.000E+00
      21    -1     0     0   502   503  0.000000000E+00  0.000000000E+00 -7.810662738E+02  7.810662738E+02  0.000000000E+00  0.00000E+00  9.000E+00
      25     1     1     2     0     0 -1.841208859E+01  7.880010170E+00 -7.492987506E+02  7.599172389E+02  1.249979708E+02  0.00000E+00  9.000E+00
       5     1     1     2   501     0 -4.789134099E-01  2.291232643E+00  9.173131019E-01  5.374297015E+00  4.750000000E+00  0.00000E+00  9.000E+00
      -5     1     1     2     0   503  1.085153072E+01  2.451290999E+00 -2.153167201E+01  2.469696228E+01  4.750000000E+00  0.00000E+00  9.000E+00
      21     1     1     2   502   511  8.039471283E+00 -1.262253381E+01  4.907894958E+01  5.130988940E+01  2.236564522E-06  0.00000E+00  9.000E+00
#rwgt            1           9  -1.7542059158047396E-006           6      704704           0
</event>
<event>
      6   9999 -3.45752E-01  1.06348E+01 -1.00000E+00  1.84421E-01
      21    -1     0     0   512   503  0.000000000E+00  0.000000000E+00  5.517926443E+02  5.517926443E+02  0.000000000E+00  0.00000E+00  9.000E+00
      21    -1     0     0   501   502  0.000000000E+00  0.000000000E+00 -7.885139380E+02  7.885139380E+02  0.000000000E+00  0.00000E+00  9.000E+00
      25     1     1     2     0     0 -2.675158265E+00 -5.975107964E+00 -4.285177313E+02  4.464257816E+02  1.250026959E+02  0.00000E+00  9.000E+00
       5     1     1     2   501     0  3.000770558E+00  5.208487621E-01 -2.808237997E+02  2.808804814E+02  4.750000000E+00  0.00000E+00  9.000E+00
      -5     1     1     2     0   503  3.926223397E+00  1.520213484E+01 -6.917873862E+01  7.109697962E+01  4.750000000E+00  0.00000E+00  9.000E+00
      21     1     1     2   512   502 -4.251835690E+00 -9.747875642E+00  5.417989760E+02  5.419033397E+02  7.629394531E-06  0.00000E+00  9.000E+00
#rwgt            1           9  -1.3151057782590222E-004           6      706580           0
</event>
<event>
      6   9999  3.45752E-01  3.01117E+01 -1.00000E+00  1.47734E-01
      21    -1     0     0   511   502  0.000000000E+00  0.000000000E+00  6.805106638E+01  6.805106638E+01  0.000000000E+00  0.00000E+00  9.000E+00
      21    -1     0     0   502   503  0.000000000E+00  0.000000000E+00 -1.395153360E+03  1.395153360E+03  0.000000000E+00  0.00000E+00  9.000E+00
      25     1     1     2     0     0  2.951891408E+01  1.094091479E+01 -1.111112361E+03  1.118564290E+03  1.249972946E+02  0.00000E+00  9.000E+00
       5     1     1     2   501     0  2.267087677E+00 -4.350603285E+00  3.207346396E+01  3.279233181E+01  4.750000000E+00  0.00000E+00  9.000E+00
      -5     1     1     2     0   503 -3.617228298E+00 -1.723146407E+01 -2.724745733E+02  2.730841689E+02  4.750000000E+00  0.00000E+00  9.000E+00
      21     1     1     2   511   501 -2.816877346E+01  1.064115257E+01  2.441117613E+01  3.876363562E+01  1.168007728E-06  0.00000E+00  9.000E+00
#rwgt            1           9   1.2256233033066251                6      708834           0
</event>
<event>
      6   9999  3.45752E-01  1.13260E+01 -1.00000E+00  1.81672E-01
      21    -1     0     0   501   502  0.000000000E+00  0.000000000E+00  3.259428612E+01  3.259428612E+01  0.000000000E+00  0.00000E+00  9.000E+00
      21    -1     0     0   502   512  0.000000000E+00  0.000000000E+00 -8.867289751E+02  8.867289751E+02  0.000000000E+00  0.00000E+00  9.000E+00
      25     1     1     2     0     0  4.263152765E+00 -1.037615388E+01 -3.048473735E+02  3.296693010E+02  1.249963514E+02  0.00000E+00  9.000E+00
       5     1     1     2   501     0 -3.363614618E+00 -2.259625979E+00  1.860336674E+01  1.962313855E+01  4.750000000E+00  0.00000E+00  9.000E+00
      -5     1     1     2     0   503 -2.282029331E+00  1.394503341E+00 -6.320622207E+00  8.346559921E+00  4.750000000E+00  0.00000E+00  9.000E+00
      21     1     1     2   503   512  1.382491184E+00  1.124127652E+01 -5.615700600E+02  5.616842617E+02  7.629394531E-06  0.00000E+00  9.000E+00
#rwgt            1           9   3.4539701841924913E-003           6      710839           0
</event>
<event>
      6   9999  3.45752E-01  3.64432E+00 -1.00000E+00  2.56530E-01
       1    -1     0     0   501     0  0.000000000E+00  0.000000000E+00  2.688851359E+03  2.688851359E+03  0.000000000E+00  0.00000E+00  9.000E+00
      21    -1     0     0   502   503  0.000000000E+00  0.000000000E+00 -6.849778216E+01  6.849778216E+01  0.000000000E+00  0.00000E+00  9.000E+00
      25     1     1     2     0     0 -7.122505327E+00 -4.539507961E+00 -8.043695104E+00  1.255475744E+02  1.250046207E+02  0.00000E+00  9.000E+00
       5     1     1     2   501     0  1.064628188E+00 -1.910649104E+00  6.151379968E+01  6.173567902E+01  4.750000000E+00  0.00000E+00  9.000E+00
      -5     1     1     2     0   503  5.903080394E+00  2.809130493E+00  8.677979259E+00  1.185779897E+01  4.750000000E+00  0.00000E+00  9.000E+00
       1     1     1     2   502     0  1.547967447E-01  3.641026571E+00  2.558205493E+03  2.558208089E+03  3.051757812E-05  0.00000E+00  9.000E+00
#rwgt            1           9   2.4383541774371175E-004           6      713811           0
</event>
<event>
      6   9999  3.45752E-01  4.96181E+01 -1.00000E+00  1.34966E-01
      21    -1     0     0   501   511  0.000000000E+00  0.000000000E+00  7.224520255E+01  7.224520255E+01  0.000000000E+00  0.00000E+00  9.000E+00
      21    -1     0     0   502   503  0.000000000E+00  0.000000000E+00 -9.931430927E+02  9.931430927E+02  0.000000000E+00  0.00000E+00  9.000E+00
      25     1     1     2     0     0  1.332950731E+02 -6.691005496E+01 -7.474068397E+02  7.723253721E+02  1.249998580E+02  0.00000E+00  9.000E+00
       5     1     1     2   501     0 -1.214316323E+02  4.381044323E+01 -3.963153952E+01  1.351229725E+02  4.750000000E+00  0.00000E+00  9.000E+00
      -5     1     1     2     0   503 -1.693614021E+01 -2.625851688E+01 -7.205951244E+01  7.868594783E+01  4.750000000E+00  0.00000E+00  9.000E+00
      21     1     1     2   502   511  5.072699474E+00  4.935812861E+01 -6.179999854E+01  7.925400279E+01  1.348699152E-06  0.00000E+00  9.000E+00
#rwgt            1           9   1.5134331095243408E-003           6      718408           0
</event>
<event>
      6   9999  3.45752E-01  1.11496E+01 -1.00000E+00  1.82349E-01
      21    -1     0     0   501   502  0.000000000E+00  0.000000000E+00  1.816506510E+01  1.816506510E+01  0.000000000E+00  0.00000E+00  9.000E+00
      21    -1     0     0   502   512  0.000000000E+00  0.000000000E+00 -9.898620091E+02  9.898620091E+02  0.000000000E+00  0.00000E+00  9.000E+00
      25     1     1     2     0     0  3.082166761E+01 -2.968022422E+01 -8.250313096E+02  8.355436032E+02  1.250022409E+02  0.00000E+00  9.000E+00
       5     1     1     2   501     0 -1.482182091E+00 -1.946159498E+00  9.200856036E+00  1.063967351E+01  4.750000000E+00  0.00000E+00  9.000E+00
      -5     1     1     2     0   503 -2.123654747E+01  2.396762135E+01 -1.122687755E+02  1.168429641E+02  4.750000000E+00  0.00000E+00  9.000E+00
      21     1     1     2   503   512 -8.102938050E+00  7.658762367E+00 -4.359771499E+01  4.500083331E+01  4.768371582E-07  0.00000E+00  9.000E+00
#rwgt            1           9   7.0275793083607847E-005           6      719570           0
</event>
<event>
      6   9999  3.45752E-01  3.96878E+01 -1.00000E+00  1.40384E-01
      21    -1     0     0   501   502  0.000000000E+00  0.000000000E+00  4.022813558E+01  4.022813558E+01  0.000000000E+00  0.00000E+00  9.000E+00
      21    -1     0     0   502   511  0.000000000E+00  0.000000000E+00 -3.467948252E+02  3.467948252E+02  0.000000000E+00  0.00000E+00  9.000E+00
      25     1     1     2     0     0  5.125384893E+01 -5.436274798E+00 -1.441985034E+02  1.976747409E+02  1.250023387E+02  0.00000E+00  9.000E+00
       5     1     1     2   501     0  3.261201260E+00  3.950842998E-01  4.623395381E+00  7.397959861E+00  4.750000000E+00  0.00000E+00  9.000E+00
      -5     1     1     2     0   503 -1.488427671E+01  7.168149801E+00 -9.718367078E+00  1.974672690E+01  4.750000000E+00  0.00000E+00  9.000E+00
      21     1     1     2   503   511 -3.963077348E+01 -2.126959302E+00 -1.572732145E+02  1.622035331E+02  2.697398305E-06  0.00000E+00  9.000E+00
#rwgt            1           9   2.2885793812745434                6      722229           0
</event>
<event>
      6   9999  3.45752E-01  5.32988E+01 -1.00000E+00  1.33319E-01
       1    -1     0     0   502     0  0.000000000E+00  0.000000000E+00  6.545691506E+02  6.545691506E+02  0.000000000E+00  0.00000E+00  9.000E+00
      21    -1     0     0   501   502  0.000000000E+00  0.000000000E+00 -7.175929367E+02  7.175929367E+02  0.000000000E+00  0.00000E+00  9.000E+00
      25     1     1     2     0     0 -9.261648952E+01 -1.309186381E+02  2.963984942E+02  3.594332419E+02  1.249907360E+02  0.00000E+00  9.000E+00
       5     1     1     2   501     0  6.358257072E+01 -5.344497414E+01 -6.290826524E+02  6.345602057E+02  4.750000000E+00  0.00000E+00  9.000E+00
      -5     1     1     2     0   503  5.250434968E+00  1.366655013E+02  4.024567108E+01  1.426439724E+02  4.750000000E+00  0.00000E+00  9.000E+00
       1     1     1     2   503     0  2.378348383E+01  4.769811088E+01  2.294147010E+02  2.355246673E+02  2.697398305E-06  0.00000E+00  9.000E+00
#rwgt            1           9  0.11710899172731495                6      723093           0
</event>
<event>
      6   9999  3.45752E-01  1.26470E+01 -1.00000E+00  1.77054E-01
      21    -1     0     0   501   502  0.000000000E+00  0.000000000E+00  1.569200781E+01  1.569200781E+01  0.000000000E+00  0.00000E+00  9.000E+00
      21    -1     0     0   502   511  0.000000000E+00  0.000000000E+00 -1.000041608E+03  1.000041608E+03  0.000000000E+00  0.00000E+00  9.000E+00
      25     1     1     2     0     0 -1.964283215E+01 -6.846784595E-01 -8.422646615E+02  8.517170809E+02  1.250036654E+02  0.00000E+00  9.000E+00
       5     1     1     2   501     0 -2.285937178E+00 -1.742951134E+00  8.164480015E+00  9.873430070E+00  4.750000000E+00  0.00000E+00  9.000E+00
      -5     1     1     2     0   503  1.600692526E+01 -8.747308718E+00 -5.690038774E+01  5.994125199E+01  4.750000000E+00  0.00000E+00  9.000E+00
      21     1     1     2   503   511  5.921844066E+00  1.117493831E+01 -9.334903070E+01  9.420185251E+01  0.000000000E+00  0.00000E+00  9.000E+00
#rwgt            1           9   1.6932027231145961E-004           6      725153           0
</event>
<event>
      6   9999  3.45752E-01  1.36447E+01 -1.00000E+00  1.74015E-01
      21    -1     0     0   501   512  0.000000000E+00  0.000000000E+00  3.401825575E+01  3.401825575E+01  0.000000000E+00  0.00000E+00  9.000E+00
      21    -1     0     0   502   503  0.000000000E+00  0.000000000E+00 -8.061301853E+02  8.061301853E+02  0.000000000E+00  0.00000E+00  9.000E+00
      25     1     1     2     0     0 -4.411697290E+00 -3.300688892E+01 -4.605830013E+02  4.784038585E+02  1.249985320E+02  0.00000E+00  9.000E+00
       5     1     1     2   501     0 -5.965821041E-01 -1.242986578E+00 -3.368225609E+00  5.984009491E+00  4.750000000E+00  0.00000E+00  9.000E+00
      -5     1     1     2     0   503 -3.477727430E+00  2.356506662E+01 -3.295205641E+02  3.304145451E+02  4.750000000E+00  0.00000E+00  9.000E+00
      21     1     1     2   502   512  8.486006824E+00  1.068480888E+01  2.135986141E+01  2.534602793E+01  1.526623782E-06  0.00000E+00  9.000E+00
#rwgt            1           9   4.1991477160768471E-006           6      727433           0
</event>
<event>
      6   9999  3.45752E-01  1.78426E+01 -1.00000E+00  1.64089E-01
       2    -1     0     0   501     0  0.000000000E+00  0.000000000E+00  1.699315307E+03  1.699315307E+03  0.000000000E+00  0.00000E+00  9.000E+00
      21    -1     0     0   502   503  0.000000000E+00  0.000000000E+00 -7.714266339E+02  7.714266339E+02  0.000000000E+00  0.00000E+00  9.000E+00
      25     1     1     2     0     0 -1.268789758E+01 -2.539957143E-01 -6.266421977E+02  6.391128994E+02  1.249952277E+02  0.00000E+00  9.000E+00
       5     1     1     2   501     0 -1.183002540E+00 -5.071494098E+00  3.403004999E+00  7.827035864E+00  4.750000000E+00  0.00000E+00  9.000E+00
      -5     1     1     2     0   503  2.656183532E+00 -8.552145932E+00 -1.361014096E+02  1.364783892E+02  4.750000000E+00  0.00000E+00  9.000E+00
       2     1     1     2   502     0  1.121471659E+01  1.387763574E+01  1.687229275E+03  1.687323616E+03  2.157918644E-05  0.00000E+00  9.000E+00
#rwgt            1           9   8.4976994235347423E-004           6      729649           0
</event>
<event>
      6   9999  3.45752E-01  3.48885E+01 -1.00000E+00  1.43719E-01
      21    -1     0     0   502   511  0.000000000E+00  0.000000000E+00  1.699566188E+01  1.699566188E+01  0.000000000E+00  0.00000E+00  9.000E+00
      21    -1     0     0   501   502  0.000000000E+00  0.000000000E+00 -6.740269686E+02  6.740269686E+02  0.000000000E+00  0.00000E+00  9.000E+00
      25     1     1     2     0     0  1.747011624E+00  3.198722000E+01 -4.098192701E+02  4.296526417E+02  1.249932963E+02  0.00000E+00  9.000E+00
       5     1     1     2   501     0 -1.087498549E+01 -2.758092345E+00 -3.300127341E+01  3.517838725E+01  4.750000000E+00  0.00000E+00  9.000E+00
      -5     1     1     2     0   503 -2.568879199E+01 -2.699340190E+01 -1.191115048E+02  1.248946391E+02  4.750000000E+00  0.00000E+00  9.000E+00
      21     1     1     2   503   511  3.481676585E+01 -2.235725761E+00 -9.509925837E+01  1.012969624E+02  0.000000000E+00  0.00000E+00  9.000E+00
#rwgt            1           9   8.0105029710101621E-003           6      731251           0
</event>
<event>
      6   9999 -3.45752E-01  9.57267E+00 -1.00000E+00  1.89214E-01
      21    -1     0     0   501   502  0.000000000E+00  0.000000000E+00  2.995645264E+03  2.995645264E+03  0.000000000E+00  0.00000E+00  9.000E+00
      21    -1     0     0   512   503  0.000000000E+00  0.000000000E+00 -6.202324573E+00  6.202324573E+00  0.000000000E+00  0.00000E+00  9.000E+00
      25     1     1     2     0     0 -1.056564325E+00  2.558885092E+01  7.500413119E+02  7.608165623E+02  1.249958656E+02  0.00000E+00  9.000E+00
       5     1     1     2   501     0 -1.880581447E+00  5.271354280E-01  1.221350401E+03  1.221361199E+03  4.750000000E+00  0.00000E+00  9.000E+00
      -5     1     1     2     0   503  4.838319468E-01 -3.536895116E+01  9.709485986E+02  9.716043127E+02  4.750000000E+00  0.00000E+00  9.000E+00
      21     1     1     2   512   502  2.453313825E+00  9.252964807E+00  4.710262822E+01  4.806551457E+01  1.168007728E-06  0.00000E+00  9.000E+00
#rwgt            1           9  -2.1674988635869874E-003           6      732363           0
</event>
<event>
      6   9999  3.45752E-01  3.22908E+01 -1.00000E+00  1.45800E-01
      21    -1     0     0   511   502  0.000000000E+00  0.000000000E+00  5.486479143E+01  5.486479143E+01  0.000000000E+00  0.00000E+00  9.000E+00
      21    -1     0     0   502   503  0.000000000E+00  0.000000000E+00 -3.145054726E+03  3.145054726E+03  0.000000000E+00  0.00000E+00  9.000E+00
      25     1     1     2     0     0 -2.200516384E+00 -6.976460993E+00 -2.695020531E+03  2.697927732E+03  1.249995015E+02  0.00000E+00  9.000E+00
       5     1     1     2   501     0  6.635763461E+00  6.730975253E+00  3.955139316E+01  4.094159969E+01  4.750000000E+00  0.00000E+00  9.000E+00
      -5     1     1     2     0   503 -2.766212288E+01  2.267775045E+01 -4.261045045E+02  4.276296116E+02  4.750000000E+00  0.00000E+00  9.000E+00
      21     1     1     2   511   501  2.322687580E+01 -2.243226471E+01 -8.616292665E+00  3.342057388E+01  2.064765462E-07  0.00000E+00  9.000E+00
#rwgt            1           9   1.7616984702708120E-003           6      735047           0
</event>
<event>
      6   9999  3.45752E-01  8.79749E+00 -1.00000E+00  1.93252E-01
      21    -1     0     0   512   502  0.000000000E+00  0.000000000E+00  4.263164654E+02  4.263164654E+02  0.000000000E+00  0.00000E+00  9.000E+00
      21    -1     0     0   502   503  0.000000000E+00  0.000000000E+00 -5.633981149E+01  5.633981149E+01  0.000000000E+00  0.00000E+00  9.000E+00
      25     1     1     2     0     0  8.828235953E-01 -1.328711850E+00  1.925337681E+01  1.264843346E+02  1.250001981E+02  0.00000E+00  9.000E+00
       5     1     1     2   501     0 -3.791020401E+00  6.688809522E+00  3.252790088E+02  3.254045299E+02  4.750000000E+00  0.00000E+00  9.000E+00
      -5     1     1     2     0   503  6.524891628E+00  2.659588205E+00  1.278404024E+01  1.535062881E+01  4.750000000E+00  0.00000E+00  9.000E+00
      21     1     1     2   512   501 -3.616694822E+00 -8.019685876E+00  1.266022809E+01  1.541678365E+01  0.000000000E+00  0.00000E+00  9.000E+00
#rwgt            1           9   2.0156855993043780E-003           6      737055           0
</event>
<event>
      6   9999  3.45752E-01  2.23931E+01 -1.00000E+00  1.56552E-01
      21    -1     0     0   501   502  0.000000000E+00  0.000000000E+00  1.813493101E+01  1.813493101E+01  0.000000000E+00  0.00000E+00  9.000E+00
      21    -1     0     0   511   503  0.000000000E+00  0.000000000E+00 -1.117139793E+03  1.117139793E+03  0.000000000E+00  0.00000E+00  9.000E+00
      25     1     1     2     0     0 -5.677814069E+01 -1.501176183E+01 -6.362979248E+02  6.511139817E+02  1.250010308E+02  0.00000E+00  9.000E+00
       5     1     1     2   501     0 -2.244813115E+00 -2.480769670E+00  7.401004377E+00  9.409079119E+00  4.750000000E+00  0.00000E+00  9.000E+00
      -5     1     1     2     0   503  4.349773460E+01  1.355035585E+00 -3.006019810E+02  3.037729457E+02  4.750000000E+00  0.00000E+00  9.000E+00
      21     1     1     2   511   502  1.552521920E+01  1.613749591E+01 -1.695059607E+02  1.709787177E+02  0.000000000E+00  0.00000E+00  9.000E+00
#rwgt            1           9   5.1553056801782380E-005           6      740242           0
</event>
<event>
      6   9999  3.45752E-01  3.41241E+01 -1.00000E+00  1.44308E-01
      21    -1     0     0   512   502  0.000000000E+00  0.000000000E+00  5.877252969E+02  5.877252969E+02  0.000000000E+00  0.00000E+00  9.000E+00
      21    -1     0     0   502   503  0.000000000E+00  0.000000000E+00 -3.607511476E+02  3.607511476E+02  0.000000000E+00  0.00000E+00  9.000E+00
      25     1     1     2     0     0  9.798867327E+00  1.695621770E+01 -3.377441176E+02  3.606650694E+02  1.249986887E+02  0.00000E+00  9.000E+00
       5     1     1     2   501     0  2.005570154E+01 -5.702413207E+00  6.417270381E+01  6.764205123E+01  4.750000000E+00  0.00000E+00  9.000E+00
      -5     1     1     2     0   503  2.036023525E+00  8.887834804E-01 -8.496700061E+00  9.984575093E+00  4.750000000E+00  0.00000E+00  9.000E+00
      21     1     1     2   512   501 -3.189059239E+01 -1.214258797E+01  5.090422631E+02  5.101847488E+02  0.000000000E+00  0.00000E+00  9.000E+00
#rwgt            1           9   3.9554680322025310E-004           6      742395           0
</event>
<event>
      6   9999  3.45752E-01  7.71365E+00 -1.00000E+00  1.99908E-01
      21    -1     0     0   501   502  0.000000000E+00  0.000000000E+00  4.792782680E+01  4.792782680E+01  0.000000000E+00  0.00000E+00  9.000E+00
      21    -1     0     0   511   503  0.000000000E+00  0.000000000E+00 -1.848645137E+02  1.848645137E+02  0.000000000E+00  0.00000E+00  9.000E+00
      25     1     1     2     0     0  1.768402560E+00  1.480221857E+01 -7.317543537E+01  1.456104683E+02  1.250021249E+02  0.00000E+00  9.000E+00
       5     1     1     2   501     0 -5.304799069E-01  8.788794539E-01  1.012091883E+01  1.122716955E+01  4.750000000E+00  0.00000E+00  9.000E+00
      -5     1     1     2     0   503 -2.122106787E+00 -8.018294863E+00 -3.323697637E+01  3.458403516E+01  4.750000000E+00  0.00000E+00  9.000E+00
      21     1     1     2   511   502  8.841841339E-01 -7.662803159E+00 -4.064519396E+01  4.137066745E+01  4.768371582E-07  0.00000E+00  9.000E+00
#rwgt            1           9  0.19867994493122315                6      744004           0
</event>
<event>
      6   9999  3.45752E-01  1.02871E+01 -1.00000E+00  1.85908E-01
      21    -1     0     0   501   502  0.000000000E+00  0.000000000E+00  5.106117507E+01  5.106117507E+01  0.000000000E+00  0.00000E+00  9.000E+00
       2    -1     0     0   502     0  0.000000000E+00  0.000000000E+00 -2.191248746E+03  2.191248746E+03  0.000000000E+00  0.00000E+00  9.000E+00
      25     1     1     2     0     0  5.898134097E+01 -6.544504356E+01 -2.902695855E+02  3.280875084E+02  1.249925142E+02  0.00000E+00  9.000E+00
       5     1     1     2   501     0 -5.084972376E+00 -2.943601868E+00  3.028381003E+01  3.121207116E+01  4.750000000E+00  0.00000E+00  9.000E+00
      -5     1     1     2     0   503 -4.379506814E+01  6.644256058E+01 -1.160442193E+03  1.163177230E+03  4.750000000E+00  0.00000E+00  9.000E+00
       2     1     1     2   503     0 -1.010130046E+01  1.946084853E+00 -7.197596025E+02  7.198331118E+02  7.629394531E-06  0.00000E+00  9.000E+00
#rwgt            1           9   2.7108149978189413E-002           6      747634           0
</event>
<event>
      6   9999 -3.45752E-01  6.75612E+00 -1.00000E+00  2.07121E-01
      21    -1     0     0   511   502  0.000000000E+00  0.000000000E+00  1.303948196E+01  1.303948196E+01  0.000000000E+00  0.00000E+00  9.000E+00
      21    -1     0     0   502   503  0.000000000E+00  0.000000000E+00 -7.609099316E+02  7.609099316E+02  0.000000000E+00  0.00000E+00  9.000E+00
      25     1     1     2     0     0  3.564794909E+00 -3.551668504E+00 -7.283969819E+02  7.390618024E+02  1.249994495E+02  0.00000E+00  9.000E+00
       5     1     1     2   501     0  1.333749101E+00  1.871592135E+00  5.106741118E+00  7.343231484E+00  4.750000000E+00  0.00000E+00  9.000E+00
      -5     1     1     2     0   503  1.857443746E+00  1.721865014E+00 -1.390807530E+01  1.491348299E+01  4.750000000E+00  0.00000E+00  9.000E+00
      21     1     1     2   511   501 -6.755987755E+00 -4.178864527E-02 -1.067213349E+01  1.263089665E+01  0.000000000E+00  0.00000E+00  9.000E+00
#rwgt            1           9 -0.16012452773068422                6      751335           0
</event>
<event>
      6   9999  3.45752E-01  3.99128E+01 -1.00000E+00  1.40241E-01
      21    -1     0     0   501   512  0.000000000E+00  0.000000000E+00  2.985044379E+01  2.985044379E+01  0.000000000E+00  0.00000E+00  9.000E+00
      21    -1     0     0   502   503  0.000000000E+00  0.000000000E+00 -8.940795327E+02  8.940795327E+02  0.000000000E+00  0.00000E+00  9.000E+00
      25     1     1     2     0     0  3.535177382E+01  2.567266222E+01 -8.168064680E+02  8.274702058E+02  1.250012070E+02  0.00000E+00  9.000E+00
       5     1     1     2   501     0  8.402714648E+00  6.730470470E+00  2.490565224E-01  1.176985027E+01  4.750000000E+00  0.00000E+00  9.000E+00
      -5     1     1     2     0   503 -8.235743074E+00 -1.419731360E+01 -4.074212465E+01  4.418002262E+01  4.750000000E+00  0.00000E+00  9.000E+00
      21     1     1     2   502   512 -3.551874540E+01 -1.820581909E+01 -6.929552822E+00  4.050989787E+01  1.046057270E-06  0.00000E+00  9.000E+00
#rwgt            1           9   7.4084495367901227E-006           6      754606           0
</event>
<event>
      6   9999  3.45752E-01  9.55958E+00 -1.00000E+00  1.89278E-01
      21    -1     0     0   501   502  0.000000000E+00  0.000000000E+00  5.914950589E+02  5.914950589E+02  0.000000000E+00  0.00000E+00  9.000E+00
      21    -1     0     0   502   511  0.000000000E+00  0.000000000E+00 -3.770828457E+01  3.770828457E+01  0.000000000E+00  0.00000E+00  9.000E+00
      25     1     1     2     0     0 -8.450809831E-01  5.487476560E+00  1.722417970E+02  2.128910034E+02  1.249980647E+02  0.00000E+00  9.000E+00
       5     1     1     2   501     0 -6.468883786E+00  1.406043246E+00  3.836207608E+02  3.837072765E+02  4.750000000E+00  0.00000E+00  9.000E+00
      -5     1     1     2     0   503 -1.192962217E+00 -2.532573450E+00  1.335764656E+01  1.445082381E+01  4.750000000E+00  0.00000E+00  9.000E+00
      21     1     1     2   503   511  8.506926986E+00 -4.360946357E+00 -1.543342998E+01  1.815423975E+01  6.743495762E-07  0.00000E+00  9.000E+00
#rwgt            1           9  0.51624233501793937                6      756193           0
</event>
<event>
      6   9999  3.45752E-01  6.69533E+00 -1.00000E+00  2.07633E-01
      21    -1     0     0   501   502  0.000000000E+00  0.000000000E+00  3.279299727E+01  3.279299727E+01  0.000000000E+00  0.00000E+00  9.000E+00
      21    -1     0     0   512   503  0.000000000E+00  0.000000000E+00 -1.251393986E+03  1.251393986E+03  0.000000000E+00  0.00000E+00  9.000E+00
      25     1     1     2     0     0 -5.164606407E+01  6.743577977E+00 -2.677856893E+02  3.000785663E+02  1.250007152E+02  0.00000E+00  9.000E+00
       5     1     1     2   501     0 -3.532314636E+00  2.659193268E+00  1.516248240E+01  1.649278412E+01  4.750000000E+00  0.00000E+00  9.000E+00
      -5     1     1     2     0   503  4.877334936E+01 -7.452620986E+00 -8.575057373E+02  8.589371532E+02  4.750000000E+00  0.00000E+00  9.000E+00
      21     1     1     2   512   502  6.405029348E+00 -1.950150259E+00 -1.084720450E+02  1.086784800E+02  1.348699152E-06  0.00000E+00  9.000E+00
#rwgt            1           9  0.28846813642310409                6      759208           0
</event>
<event>
      6   9999  3.45752E-01  1.93372E+01 -1.00000E+00  1.61336E-01
      21    -1     0     0   511   502  0.000000000E+00  0.000000000E+00  2.447103254E+02  2.447103254E+02  0.000000000E+00  0.00000E+00  9.000E+00
      21    -1     0     0   502   503  0.000000000E+00  0.000000000E+00 -2.486308610E+02  2.486308610E+02  0.000000000E+00  0.00000E+00  9.000E+00
      25     1     1     2     0     0 -1.055124703E+02  1.474248865E+02 -1.363156394E+02  2.589873460E+02  1.250020531E+02  0.00000E+00  9.000E+00
       5     1     1     2   501     0 -9.198499958E-01 -1.757024377E-01  1.773510550E+01  1.838405457E+01  4.750000000E+00  0.00000E+00  9.000E+00
      -5     1     1     2     0   503  9.048466292E+01 -1.363130930E+02  1.028206945E+02  1.932961233E+02  4.750000000E+00  0.00000E+00  9.000E+00
      21     1     1     2   511   501  1.594765735E+01 -1.093609105E+01  1.183930371E+01  2.267366258E+01  2.920019320E-07  0.00000E+00  9.000E+00
#rwgt            1           9   1.2442753325235831E-003           6      763737           0
</event>
<event>
      6   9999  3.45752E-01  3.03733E+01 -1.00000E+00  1.47491E-01
      21    -1     0     0   501   502  0.000000000E+00  0.000000000E+00  2.086886744E+02  2.086886744E+02  0.000000000E+00  0.00000E+00  9.000E+00
      21    -1     0     0   502   512  0.000000000E+00  0.000000000E+00 -4.619813597E+02  4.619813597E+02  0.000000000E+00  0.00000E+00  9.000E+00
      25     1     1     2     0     0 -9.199156385E+01  6.275134157E+01 -1.650668924E+02  2.351055924E+02  1.250095272E+02  0.00000E+00  9.000E+00
       5     1     1     2   501     0  4.566337058E+00 -4.105255708E-01  1.423651353E+02  1.425181189E+02  4.750000000E+00  0.00000E+00  9.000E+00
      -5     1     1     2     0   503  1.054809094E+02 -3.791684016E+01 -7.601987532E+01  1.355193453E+02  4.750000000E+00  0.00000E+00  9.000E+00
      21     1     1     2   503   512 -1.805568258E+01 -2.442397584E+01 -1.545710528E+02  1.575269775E+02  0.000000000E+00  0.00000E+00  9.000E+00
#rwgt            1           9   5.9865277911838079E-004           6      766599           0
</event>
<event>
      6   9999  3.45752E-01  5.77787E+00 -1.00000E+00  2.16366E-01
      21    -1     0     0   501   502  0.000000000E+00  0.000000000E+00  5.034221236E+00  5.034221236E+00  0.000000000E+00  0.00000E+00  9.000E+00
      21    -1     0     0   502   511  0.000000000E+00  0.000000000E+00 -2.353888932E+03  2.353888932E+03  0.000000000E+00  0.00000E+00  9.000E+00
      25     1     1     2     0     0 -2.422339128E+01  2.210546747E+01 -1.733657353E+03  1.738467393E+03  1.250025436E+02  0.00000E+00  9.000E+00
       5     1     1     2   501     0  2.094991489E+00  2.108253982E+00 -2.488692844E+00  6.131053438E+00  4.750000000E+00  0.00000E+00  9.000E+00
      -5     1     1     2     0   503  2.632635918E+01 -2.024371546E+01 -3.624231909E+02  3.639725498E+02  4.750000000E+00  0.00000E+00  9.000E+00
      21     1     1     2   503   511 -4.197959386E+00 -3.970005995E+00 -2.502854743E+02  2.503521569E+02  0.000000000E+00  0.00000E+00  9.000E+00
#rwgt            1           9  0.11631857586720855                6      768484           0
</event>
<event>
      6   9999  3.45752E-01  2.11484E+01 -1.00000E+00  1.58381E-01
      21    -1     0     0   512   503  0.000000000E+00  0.000000000E+00  1.118216220E+01  1.118216220E+01  0.000000000E+00  0.00000E+00  9.000E+00
      21    -1     0     0   501   502  0.000000000E+00  0.000000000E+00 -7.658586286E+02  7.658586286E+02  0.000000000E+00  0.00000E+00  9.000E+00
      25     1     1     2     0     0  2.164755222E+01  2.630239013E+01 -6.259861082E+02  6.392527333E+02  1.250000688E+02  0.00000E+00  9.000E+00
       5     1     1     2   501     0 -7.305320072E+00 -1.169461136E+01 -6.715467509E+01  6.872004455E+01  4.750000000E+00  0.00000E+00  9.000E+00
      -5     1     1     2     0   503  5.464214060E+00 -7.194447865E+00 -1.923851802E+01  2.177844785E+01  4.750000000E+00  0.00000E+00  9.000E+00
      21     1     1     2   512   502 -1.980644621E+01 -7.413330912E+00 -4.229716510E+01  4.728956505E+01  9.536743164E-07  0.00000E+00  9.000E+00
#rwgt            1           9   86.243971289126051                6      772099           0
</event>
<event>
      6   9999  3.45752E-01  1.17145E+01 -1.00000E+00  1.80234E-01
      21    -1     0     0   501   502  0.000000000E+00  0.000000000E+00  2.534642979E+01  2.534642979E+01  0.000000000E+00  0.00000E+00  9.000E+00
      21    -1     0     0   511   503  0.000000000E+00  0.000000000E+00 -1.119968726E+03  1.119968726E+03  0.000000000E+00  0.00000E+00  9.000E+00
      25     1     1     2     0     0  1.333071585E+01  7.423617489E+00 -1.031246178E+03  1.038905507E+03  1.249926210E+02  0.00000E+00  9.000E+00
       5     1     1     2   501     0  2.975822720E+00  1.879112558E+00  1.969531686E+01  2.056342849E+01  4.750000000E+00  0.00000E+00  9.000E+00
      -5     1     1     2     0   503 -5.103278520E+00 -5.879894701E+00 -2.516385993E+01  2.676563019E+01  4.750000000E+00  0.00000E+00  9.000E+00
      21     1     1     2   511   502 -1.120326005E+01 -3.422835346E+00 -5.790757565E+01  5.908059034E+01  6.743495762E-07  0.00000E+00  9.000E+00
#rwgt            1           9   4.9216461972869340E-005           6      773311           0
</event>
<event>
      6   9999  3.45752E-01  1.54396E+01 -1.00000E+00  1.69291E-01
      21    -1     0     0   501   502  0.000000000E+00  0.000000000E+00  2.271990675E+03  2.271990675E+03  0.000000000E+00  0.00000E+00  9.000E+00
      -4    -1     0     0     0   503  0.000000000E+00  0.000000000E+00 -1.675452073E+01  1.675452073E+01  0.000000000E+00  0.00000E+00  9.000E+00
      25     1     1     2     0     0  4.873361164E+00  9.603291393E+00  1.981383579E+03  1.985352448E+03  1.250099222E+02  0.00000E+00  9.000E+00
       5     1     1     2   501     0  1.887307027E-01  1.020520715E+00  2.313326805E+02  2.313837692E+02  4.750000000E+00  0.00000E+00  9.000E+00
      -5     1     1     2     0   503  2.106411187E+00  3.050747470E+00  5.300455312E+01  5.334593873E+01  4.750000000E+00  0.00000E+00  9.000E+00
      -4     1     1     2     0   502 -7.168503053E+00 -1.367455958E+01 -1.048465832E+01  1.866304037E+01  9.233911863E-07  0.00000E+00  9.000E+00
#rwgt            1           9   1.0166175724213866E-003           6      776333           0
</event>
<event>
      6   9999  3.45752E-01  3.73549E+01 -1.00000E+00  1.41931E-01
      21    -1     0     0   501   511  0.000000000E+00  0.000000000E+00  5.844208288E+01  5.844208288E+01  0.000000000E+00  0.00000E+00  9.000E+00
      21    -1     0     0   502   503  0.000000000E+00  0.000000000E+00 -1.341053292E+03  1.341053292E+03  0.000000000E+00  0.00000E+00  9.000E+00
      25     1     1     2     0     0 -1.854478819E+02  9.002421044E+01 -7.312836482E+02  7.699980872E+02  1.250040186E+02  0.00000E+00  9.000E+00
       5     1     1     2   501     0  2.184053867E+02 -7.490500299E+01 -4.518894640E+02  5.074823372E+02  4.750000000E+00  0.00000E+00  9.000E+00
      -5     1     1     2     0   503 -9.895461454E-01  4.205335532E+00 -7.933455226E+01  7.959395537E+01  4.750000000E+00  0.00000E+00  9.000E+00
      21     1     1     2   502   511 -3.196795859E+01 -1.932454299E+01 -2.010354495E+01  4.242099548E+01  4.129530925E-07  0.00000E+00  9.000E+00
#rwgt            1           9   1.1494243855896312E-003           6      777688           0
</event>
<event>
      6   9999  3.45752E-01  7.14403E+00 -1.00000E+00  2.04018E-01
      21    -1     0     0   501   502  0.000000000E+00  0.000000000E+00  1.485685274E+02  1.485685274E+02  0.000000000E+00  0.00000E+00  9.000E+00
      21    -1     0     0   512   503  0.000000000E+00  0.000000000E+00 -6.407438253E+02  6.407438253E+02  0.000000000E+00  0.00000E+00  9.000E+00
      25     1     1     2     0     0  5.721179949E+01 -2.547533540E+01 -1.992674895E+02  2.434212737E+02  1.249968055E+02  0.00000E+00  9.000E+00
       5     1     1     2   501     0 -2.461440008E+00  1.246392486E+00  1.230761790E+02  1.231987034E+02  4.750000000E+00  0.00000E+00  9.000E+00
      -5     1     1     2     0   503 -6.141409557E+01  2.165372932E+01 -3.983614852E+02  4.036768640E+02  4.750000000E+00  0.00000E+00  9.000E+00
      21     1     1     2   512   502  6.663736089E+00  2.575213594E+00 -1.762250209E+01  1.901551166E+01  2.384185791E-07  0.00000E+00  9.000E+00
#rwgt            1           9  0.14458837527336729                6      779377           0
</event>
<event>
      6   9999  3.45752E-01  3.18249E+01 -1.00000E+00  1.46198E-01
      21    -1     0     0   501   502  0.000000000E+00  0.000000000E+00  6.252639401E+01  6.252639401E+01  0.000000000E+00  0.00000E+00  9.000E+00
      21    -1     0     0   511   503  0.000000000E+00  0.000000000E+00 -1.616603335E+03  1.616603335E+03  0.000000000E+00  0.00000E+00  9.000E+00
      25     1     1     2     0     0 -1.887597249E+02 -8.036001714E+01 -3.205654984E+02  4.005929959E+02  1.249981742E+02  0.00000E+00  9.000E+00
       5     1     1     2   501     0 -6.751417067E+00 -1.906789326E+00  1.221371658E+01  1.486455013E+01  4.750000000E+00  0.00000E+00  9.000E+00
      -5     1     1     2     0   503  1.666908616E+02  6.876819267E+01 -1.054249002E+03  1.069569272E+03  4.750000000E+00  0.00000E+00  9.000E+00
      21     1     1     2   511   502  2.882028029E+01  1.349861380E+01 -1.914761575E+02  1.941029109E+02  2.697398305E-06  0.00000E+00  9.000E+00
#rwgt            1           9   1.5347052690725522E-004           6      784800           0
</event>
<event>
      6   9999  3.45752E-01  2.41001E+01 -1.00000E+00  1.54265E-01
      21    -1     0     0   501   502  0.000000000E+00  0.000000000E+00  3.500978480E+01  3.500978480E+01  0.000000000E+00  0.00000E+00  9.000E+00
      21    -1     0     0   502   512  0.000000000E+00  0.000000000E+00 -5.674949804E+02  5.674949804E+02  0.000000000E+00  0.00000E+00  9.000E+00
      25     1     1     2     0     0 -1.222412103E+01 -2.812697682E+00 -2.273247273E+02  2.597287376E+02  1.250005803E+02  0.00000E+00  9.000E+00
       5     1     1     2   501     0  2.243431153E+00 -1.628152911E+00  4.768707338E+00  7.279212520E+00  4.750000000E+00  0.00000E+00  9.000E+00
      -5     1     1     2     0   503  2.670262861E+01 -1.291403848E+01 -6.023884508E+00  3.063743542E+01  4.750000000E+00  0.00000E+00  9.000E+00
      21     1     1     2   503   512 -1.672193873E+01  1.735488907E+01 -3.039052911E+02  3.048593797E+02  0.000000000E+00  0.00000E+00  9.000E+00
#rwgt            1           9   6.5312355951732213E-003           6      787045           0
</event>
<event>
      6   9999  3.45752E-01  1.39555E+01 -1.00000E+00  1.73133E-01
      21    -1     0     0   501   502  0.000000000E+00  0.000000000E+00  1.646019664E+01  1.646019664E+01  0.000000000E+00  0.00000E+00  9.000E+00
      21    -1     0     0   511   503  0.000000000E+00  0.000000000E+00 -1.229366109E+03  1.229366109E+03  0.000000000E+00  0.00000E+00  9.000E+00
      25     1     1     2     0     0  5.008502309E+01  1.629189651E+01 -8.292470282E+02  8.402668207E+02  1.249950430E+02  0.00000E+00  9.000E+00
       5     1     1     2   501     0 -7.043377793E+01 -8.230429231E+00 -1.104223729E+02  1.313176301E+02  4.750000000E+00  0.00000E+00  9.000E+00
      -5     1     1     2     0   503  7.679059436E+00 -2.210397950E+00 -9.182229655E+01  9.229165974E+01  4.750000000E+00  0.00000E+00  9.000E+00
      21     1     1     2   511   502  1.266969540E+01 -5.851069331E+00 -1.814142151E+02  1.819501955E+02  0.000000000E+00  0.00000E+00  9.000E+00
#rwgt            1           9   3.0610288656381067E-003           6      789073           0
</event>
<event>
      6   9999  3.45752E-01  2.00936E+01 -1.00000E+00  1.60056E-01
      -2    -1     0     0     0   502  0.000000000E+00  0.000000000E+00  2.143992231E+01  2.143992231E+01  0.000000000E+00  0.00000E+00  9.000E+00
      21    -1     0     0   501   512  0.000000000E+00  0.000000000E+00 -9.942956529E+02  9.942956529E+02  0.000000000E+00  0.00000E+00  9.000E+00
      25     1     1     2     0     0 -4.068243005E+01 -2.537409029E+01 -7.985809200E+02  8.097257049E+02  1.250013069E+02  0.00000E+00  9.000E+00
       5     1     1     2   501     0  2.438566054E+01  7.771412120E-01 -1.072651288E+01  2.707184824E+01  4.750000000E+00  0.00000E+00  9.000E+00
      -5     1     1     2     0   502  2.969304707E+01  3.957335935E+01 -9.135006685E+01  1.039957933E+02  4.750000000E+00  0.00000E+00  9.000E+00
      -2     1     1     2     0   512 -1.339627756E+01 -1.497641027E+01 -7.219823088E+01  7.494222881E+01  1.348699152E-06  0.00000E+00  9.000E+00
#rwgt            1           3   8.5789841737689886E-005           6      791624           0
</event>
<event>
      6   9999  3.45752E-01  7.92054E+00 -1.00000E+00  1.98530E-01
      21    -1     0     0   501   502  0.000000000E+00  0.000000000E+00  2.230117735E+02  2.230117735E+02  0.000000000E+00  0.00000E+00  9.000E+00
      21    -1     0     0   511   503  0.000000000E+00  0.000000000E+00 -7.221972012E+01  7.221972012E+01  0.000000000E+00  0.00000E+00  9.000E+00
      25     1     1     2     0     0 -3.781399898E+00  9.064931549E+00  2.956682355E+01  1.294619683E+02  1.256572011E+02  0.00000E+00  9.000E+00
       5     1     1     2   501     0 -2.419001311E+00 -1.227936698E+00  1.410448486E+02  1.411508811E+02  4.750000000E+00  0.00000E+00  9.000E+00
      -5     1     1     2     0   503  2.424591971E+00 -8.743662318E-01 -3.390013724E+00  6.379487094E+00  4.750000000E+00  0.00000E+00  9.000E+00
      21     1     1     2   511   502  3.775809238E+00 -6.962628620E+00 -1.642960509E+01  1.823915722E+01  3.371747881E-07  0.00000E+00  9.000E+00
#rwgt            1           9   2.8575685077666078E-003           6      794691           0
</event>
<event>
      6   9999  3.45752E-01  1.18408E+01 -1.00000E+00  1.79782E-01
      21    -1     0     0   501   512  0.000000000E+00  0.000000000E+00  4.146561212E+00  4.146561212E+00  0.000000000E+00  0.00000E+00  9.000E+00
      21    -1     0     0   502   503  0.000000000E+00  0.000000000E+00 -5.591733528E+03  5.591733528E+03  0.000000000E+00  0.00000E+00  9.000E+00
      25     1     1     2     0     0 -4.471527535E+01  2.079795001E+01 -1.662506411E+03  1.667928472E+03  1.250032502E+02  0.00000E+00  9.000E+00
       5     1     1     2   501     0  5.667590897E-01  2.594155295E+00 -8.359478999E+00  9.974680281E+00  4.750000000E+00  0.00000E+00  9.000E+00
      -5     1     1     2     0   503  4.101175955E+01 -1.197435047E+01 -3.848214929E+03  3.848455021E+03  4.750000001E+00  0.00000E+00  9.000E+00
      21     1     1     2   502   512  3.136756709E+00 -1.141775483E+01 -6.850614789E+01  6.952191501E+01  2.697398305E-06  0.00000E+00  9.000E+00
#rwgt            1           9   1.0947734782978906E-005           6      797909           0
</event>
<event>
      6   9999  3.45752E-01  1.06936E+01 -1.00000E+00  1.84177E-01
      21    -1     0     0   501   502  0.000000000E+00  0.000000000E+00  3.417937138E+01  3.417937138E+01  0.000000000E+00  0.00000E+00  9.000E+00
      21    -1     0     0   511   503  0.000000000E+00  0.000000000E+00 -3.251261815E+03  3.251261815E+03  0.000000000E+00  0.00000E+00  9.000E+00
      25     1     1     2     0     0  1.043074946E+01  4.086251376E+00 -6.148945365E+02  6.275710089E+02  1.249983292E+02  0.00000E+00  9.000E+00
       5     1     1     2   501     0 -5.258281417E+00 -1.160304341E+00  2.729000226E+01  2.821883330E+01  4.750000000E+00  0.00000E+00  9.000E+00
      -5     1     1     2     0   503  1.663491768E+00 -1.114924230E+01 -5.108090316E+02  5.109554795E+02  4.750000000E+00  0.00000E+00  9.000E+00
      21     1     1     2   511   502 -6.835959813E+00  8.223295267E+00 -2.118668878E+03  2.118695865E+03  4.315837288E-05  0.00000E+00  9.000E+00
#rwgt            1           9   1.9842939005042478E-003           6      800132           0
</event>
<event>
      6   9999 -3.45752E-01  2.51042E+00 -1.00000E+00  2.98849E-01
      21    -1     0     0   501   502  0.000000000E+00  0.000000000E+00  9.734364708E+00  9.734364708E+00  0.000000000E+00  0.00000E+00  9.000E+00
      21    -1     0     0   502   512  0.000000000E+00  0.000000000E+00 -8.554255168E+02  8.554255168E+02  0.000000000E+00  0.00000E+00  9.000E+00
      25     1     1     2     0     0  4.192838573E+00 -6.254023986E+00 -7.261604481E+02  7.368789892E+02  1.249998221E+02  0.00000E+00  9.000E+00
       5     1     1     2   501     0 -1.127530816E+00 -4.138873319E-01  2.659534562E+00  5.574787220E+00  4.750000000E+00  0.00000E+00  9.000E+00
      -5     1     1     2     0   503 -1.993595364E+00  4.397747603E+00 -4.823130243E+01  4.870457515E+01  4.750000000E+00  0.00000E+00  9.000E+00
      21     1     1     2   503   512 -1.071712392E+00  2.270163715E+00 -7.395893606E+01  7.400152994E+01  0.000000000E+00  0.00000E+00  9.000E+00
#rwgt            1           9  -4.4945748366274847E-004           6      803976           0
</event>
<event>
      6   9999  3.45752E-01  3.87119E+00 -1.00000E+00  2.50829E-01
      21    -1     0     0   501   502  0.000000000E+00  0.000000000E+00  2.180904448E+01  2.180904448E+01  0.000000000E+00  0.00000E+00  9.000E+00
      21    -1     0     0   502   511  0.000000000E+00  0.000000000E+00 -1.796728462E+03  1.796728462E+03  0.000000000E+00  0.00000E+00  9.000E+00
      25     1     1     2     0     0  3.578566008E+00 -3.072588529E+00 -1.576328010E+03  1.581283524E+03  1.250013700E+02  0.00000E+00  9.000E+00
       5     1     1     2   501     0 -7.606829092E+00 -6.482544172E+00  1.753599383E+01  2.073549631E+01  4.750000000E+00  0.00000E+00  9.000E+00
      -5     1     1     2     0   503  2.769963578E+00  5.894150763E+00 -9.917926533E+01  9.950629569E+01  4.750000000E+00  0.00000E+00  9.000E+00
      21     1     1     2   503   511  1.258299507E+00  3.660981938E+00 -1.169481359E+02  1.170121900E+02  1.348699152E-06  0.00000E+00  9.000E+00
#rwgt            1           9   2.0062139924117003E-003           6      810168           0
</event>
<event>
      6   9999  3.45752E-01  1.93216E+01 -1.00000E+00  1.61363E-01
      21    -1     0     0   512   502  0.000000000E+00  0.000000000E+00  3.793572620E+02  3.793572620E+02  0.000000000E+00  0.00000E+00  9.000E+00
      21    -1     0     0   502   503  0.000000000E+00  0.000000000E+00 -1.260178640E+03  1.260178640E+03  0.000000000E+00  0.00000E+00  9.000E+00
      25     1     1     2     0     0  4.728773518E+01  5.368520476E+01 -1.917828509E+02  2.397602124E+02  1.248441687E+02  0.00000E+00  9.000E+00
       5     1     1     2   501     0  1.926606238E+00 -5.613373634E+00  2.487443276E+01  2.601003038E+01  4.750000000E+00  0.00000E+00  9.000E+00
      -5     1     1     2     0   503 -6.485968439E+01 -5.940962952E+01 -1.041696070E+03  1.045413578E+03  4.750000000E+00  0.00000E+00  9.000E+00
      21     1     1     2   512   501  1.564534297E+01  1.133779840E+01  3.277831102E+02  3.283520820E+02  1.078959322E-05  0.00000E+00  9.000E+00
#rwgt            1           9   6.7133043265985113E-004           6      816924           0
</event>
<event>
      6   9999  3.45752E-01  2.14531E+01 -1.00000E+00  1.57920E-01
      21    -1     0     0   501   502  0.000000000E+00  0.000000000E+00  3.212221061E+01  3.212221061E+01  0.000000000E+00  0.00000E+00  9.000E+00
       1    -1     0     0   502     0  0.000000000E+00  0.000000000E+00 -1.527118599E+03  1.527118599E+03  0.000000000E+00  0.00000E+00  9.000E+00
      25     1     1     2     0     0 -2.954129388E+00  1.524172112E+01 -1.032741671E+03  1.040393135E+03  1.249859161E+02  0.00000E+00  9.000E+00
       5     1     1     2   501     0 -1.769193443E+01  6.522097554E-01  2.462637851E+01  3.069936384E+01  4.750000000E+00  0.00000E+00  9.000E+00
      -5     1     1     2     0   503 -3.860746223E-01 -1.166484070E+01 -1.255007468E+02  1.261317466E+02  4.750000000E+00  0.00000E+00  9.000E+00
       1     1     1     2   503     0  2.103213844E+01 -4.229090174E+00 -3.613803490E+02  3.620165641E+02  0.000000000E+00  0.00000E+00  9.000E+00
#rwgt            1           9   3.4048762076255366E-004           6      819152           0
</event>
<event>
      6   9999  3.45752E-01  2.70273E+01 -1.00000E+00  1.50830E-01
      21    -1     0     0   501   502  0.000000000E+00  0.000000000E+00  1.026639731E+01  1.026639731E+01  0.000000000E+00  0.00000E+00  9.000E+00
       1    -1     0     0   502     0  0.000000000E+00  0.000000000E+00 -2.680471142E+03  2.680471142E+03  0.000000000E+00  0.00000E+00  9.000E+00
      25     1     1     2     0     0  2.259313723E+01 -6.299258620E+00 -8.848435922E+02  8.939367997E+02  1.249987552E+02  0.00000E+00  9.000E+00
       5     1     1     2   501     0 -1.126678997E-01 -3.817341942E+00 -9.427497178E-01  6.167339020E+00  4.750000000E+00  0.00000E+00  9.000E+00
      -5     1     1     2     0   503 -1.856244739E+01 -1.662522100E+01 -5.058598482E+01  5.659034181E+01  4.750000000E+00  0.00000E+00  9.000E+00
       1     1     1     2   503     0 -3.918021946E+00  2.674182156E+01 -1.733832418E+03  1.734043058E+03  3.051757812E-05  0.00000E+00  9.000E+00
#rwgt            1           9   1.9918771030897944E-004           6      821108           0
</event>
<event>
      6   9999  3.45752E-01  4.63778E+00 -1.00000E+00  2.35261E-01
      21    -1     0     0   501   511  0.000000000E+00  0.000000000E+00  6.770263076E+01  6.770263076E+01  0.000000000E+00  0.00000E+00  9.000E+00
      21    -1     0     0   502   503  0.000000000E+00  0.000000000E+00 -2.793348437E+03  2.793348437E+03  0.000000000E+00  0.00000E+00  9.000E+00
      25     1     1     2     0     0 -7.748951217E+01  6.177448366E+01 -2.595817493E+02  3.046812311E+02  1.250090265E+02  0.00000E+00  9.000E+00
       5     1     1     2   501     0  2.688271587E-01 -3.370544498E+00  7.216548534E+00  9.277602653E+00  4.750000000E+00  0.00000E+00  9.000E+00
      -5     1     1     2     0   503  7.554990620E+01 -6.273031566E+01 -2.509074135E+03  2.510999494E+03  4.750000000E+00  0.00000E+00  9.000E+00
      21     1     1     2   502   511  1.670778814E+00  4.326376501E+00  3.579353019E+01  3.609273942E+01  3.371747881E-06  0.00000E+00  9.000E+00
#rwgt            1           9   7.1123969749273144                6      822742           0
</event>
<event>
      6   9999  3.45752E-01  9.99169E+00 -1.00000E+00  1.87232E-01
      21    -1     0     0   501   502  0.000000000E+00  0.000000000E+00  3.024018803E+01  3.024018803E+01  0.000000000E+00  0.00000E+00  9.000E+00
      21    -1     0     0   502   512  0.000000000E+00  0.000000000E+00 -1.555395323E+03  1.555395323E+03  0.000000000E+00  0.00000E+00  9.000E+00
      25     1     1     2     0     0 -4.148051599E+01 -1.481191299E+01 -3.347438333E+02  3.600263218E+02  1.250019698E+02  0.00000E+00  9.000E+00
       5     1     1     2   501     0 -2.525356726E-01 -1.473732909E+00  1.663709931E+01  1.736638237E+01  4.750000000E+00  0.00000E+00  9.000E+00
      -5     1     1     2     0   503  3.392752000E+01  2.252323174E+01 -7.793182141E+02  7.803959341E+02  4.750000000E+00  0.00000E+00  9.000E+00
      21     1     1     2   503   512  7.805531668E+00 -6.237585848E+00 -4.277301871E+02  4.278468730E+02  5.394796609E-06  0.00000E+00  9.000E+00
#rwgt            1           9   5.9077247212506951E-003           6      830045           0
</event>
<event>
      6   9999  3.45752E-01  6.62311E+00 -1.00000E+00  2.08250E-01
      21    -1     0     0   501   511  0.000000000E+00  0.000000000E+00  4.916539907E+00  4.916539907E+00  0.000000000E+00  0.00000E+00  9.000E+00
      21    -1     0     0   502   503  0.000000000E+00  0.000000000E+00 -1.491929034E+03  1.491929034E+03  0.000000000E+00  0.00000E+00  9.000E+00
      25     1     1     2     0     0  4.272385653E+00  6.054880017E+00 -1.185626442E+03  1.192220051E+03  1.249946990E+02  0.00000E+00  9.000E+00
       5     1     1     2   501     0 -9.095271378E-01  1.509929740E+00 -5.100244472E+00  7.189027828E+00  4.750000000E+00  0.00000E+00  9.000E+00
      -5     1     1     2     0   503 -7.398610901E+00 -2.313304807E+00 -2.748613978E+02  2.750117113E+02  4.750000000E+00  0.00000E+00  9.000E+00
      21     1     1     2   502   511  4.035752387E+00 -5.251504950E+00 -2.142440980E+01  2.242478398E+01  2.384185791E-07  0.00000E+00  9.000E+00
#rwgt            1           9   4.4331662857587861E-003           6      833412           0
</event>
<event>
      6   9999  3.45752E-01  1.20807E+01 -1.00000E+00  1.78942E-01
      21    -1     0     0   512   502  0.000000000E+00  0.000000000E+00  5.737932947E+02  5.737932947E+02  0.000000000E+00  0.00000E+00  9.000E+00
      21    -1     0     0   502   503  0.000000000E+00  0.000000000E+00 -7.853339535E+02  7.853339535E+02  0.000000000E+00  0.00000E+00  9.000E+00
      25     1     1     2     0     0 -2.354835627E+01 -4.011422145E-02 -7.292070188E+02  7.402179194E+02  1.250006611E+02  0.00000E+00  9.000E+00
       5     1     1     2   501     0 -7.325798822E+00 -1.974759100E+00  5.083334665E+01  5.161548831E+01  4.750000000E+00  0.00000E+00  9.000E+00
      -5     1     1     2     0   503  3.519291270E+01 -9.267492883E+00 -4.344531030E+01  5.687253305E+01  4.750000000E+00  0.00000E+00  9.000E+00
      21     1     1     2   512   501 -4.318757611E+00  1.128236620E+01  5.102783237E+02  5.104213074E+02  7.629394531E-06  0.00000E+00  9.000E+00
#rwgt            1           9   3.7547846983329466E-004           6      836504           0
</event>
<event>
      6   9999  3.45752E-01  4.91120E+00 -1.00000E+00  2.30739E-01
      21    -1     0     0   511   503  0.000000000E+00  0.000000000E+00  1.167135491E+01  1.167135491E+01  0.000000000E+00  0.00000E+00  9.000E+00
      21    -1     0     0   501   502  0.000000000E+00  0.000000000E+00 -8.306909728E+02  8.306909728E+02  0.000000000E+00  0.00000E+00  9.000E+00
      25     1     1     2     0     0  1.554546566E+01 -8.400089841E+00 -5.705761854E+02  5.843752950E+02  1.250003162E+02  0.00000E+00  9.000E+00
       5     1     1     2   501     0  2.437578074E+00  2.210528560E+00 -2.222488337E+02  2.223239411E+02  4.750000000E+00  0.00000E+00  9.000E+00
      -5     1     1     2     0   503 -1.688000641E+01  1.403830234E+00 -1.388903061E+01  2.241367946E+01  4.750000000E+00  0.00000E+00  9.000E+00
      21     1     1     2   511   502 -1.103037327E+00  4.785731047E+00 -1.230556821E+01  1.324941214E+01  2.384185791E-07  0.00000E+00  9.000E+00
#rwgt            1           9   8.6000967298352298E-004           6      840031           0
</event>
<event>
      6   9999  3.45752E-01  1.08513E+01 -1.00000E+00  1.83532E-01
      21    -1     0     0   501   502  0.000000000E+00  0.000000000E+00  6.756487137E+00  6.756487137E+00  0.000000000E+00  0.00000E+00  9.000E+00
      21    -1     0     0   512   503  0.000000000E+00  0.000000000E+00 -1.114527710E+03  1.114527710E+03  0.000000000E+00  0.00000E+00  9.000E+00
      25     1     1     2     0     0 -5.579488392E-01  7.163189964E+00 -6.977065075E+02  7.088504773E+02  1.249920235E+02  0.00000E+00  9.000E+00
       5     1     1     2   501     0  2.275662000E-01  6.619077140E-01 -7.079618443E+00  8.554145515E+00  4.750000000E+00  0.00000E+00  9.000E+00
      -5     1     1     2     0   503  5.150911886E-01  3.024649195E+00 -2.122712286E+01  2.196740919E+01  4.750000000E+00  0.00000E+00  9.000E+00
      21     1     1     2   512   502 -1.847085494E-01 -1.084974687E+01 -3.817579737E+02  3.819121648E+02  7.629394531E-06  0.00000E+00  9.000E+00
#rwgt            1           9   2.3062929627796008E-004           6      844339           0
</event>
<event>
      6   9999 -3.45752E-01  6.82139E+00 -1.00000E+00  2.06580E-01
      21    -1     0     0   511   502  0.000000000E+00  0.000000000E+00  5.509970105E+01  5.509970105E+01  0.000000000E+00  0.00000E+00  9.000E+00
      21    -1     0     0   502   503  0.000000000E+00  0.000000000E+00 -1.296840312E+03  1.296840312E+03  0.000000000E+00  0.00000E+00  9.000E+00
      25     1     1     2     0     0  8.609465600E+01  1.039302065E+02 -5.426041291E+02  5.729382938E+02  1.250010799E+02  0.00000E+00  9.000E+00
       5     1     1     2   501     0 -1.681253285E+00 -3.864804495E+00  1.457742126E+01  1.590053575E+01  4.750000000E+00  0.00000E+00  9.000E+00
      -5     1     1     2     0   503 -9.122913031E+01 -1.003431837E+02 -7.315374589E+02  7.440168849E+02  4.750000000E+00  0.00000E+00  9.000E+00
      21     1     1     2   511   501  6.815727592E+00  2.777816877E-01  1.782355588E+01  1.908429851E+01  1.168007728E-06  0.00000E+00  9.000E+00
#rwgt            1           9  -2.3977708409551650                6      846151           0
</event>
<event>
      6   9999  3.45752E-01  1.20481E+01 -1.00000E+00  1.79055E-01
      21    -1     0     0   501   502  0.000000000E+00  0.000000000E+00  1.187589951E+02  1.187589951E+02  0.000000000E+00  0.00000E+00  9.000E+00
      21    -1     0     0   502   512  0.000000000E+00  0.000000000E+00 -1.861232313E+02  1.861232313E+02  0.000000000E+00  0.00000E+00  9.000E+00
      25     1     1     2     0     0  5.456161678E+01  1.882274680E+01 -1.050708396E+01  1.380828930E+02  1.250008828E+02  0.00000E+00  9.000E+00
       5     1     1     2   501     0  7.149389307E-01  2.004169250E+00  4.571431397E+01  4.600966023E+01  4.750000000E+00  0.00000E+00  9.000E+00
      -5     1     1     2     0   503 -4.333313508E+01 -2.241165358E+01 -9.397177335E+01  1.059872610E+02  4.750000000E+00  0.00000E+00  9.000E+00
      21     1     1     2   503   512 -1.194342063E+01  1.584737528E+00 -8.599692832E+00  1.480241217E+01  2.384185791E-07  0.00000E+00  9.000E+00
#rwgt            1           9   1.2226317638062117E-002           6      850810           0
</event>
<event>
      6   9999  3.45752E-01  8.49165E+00 -1.00000E+00  1.94997E-01
      21    -1     0     0   511   502  0.000000000E+00  0.000000000E+00  2.009666264E+01  2.009666264E+01  0.000000000E+00  0.00000E+00  9.000E+00
      21    -1     0     0   502   503  0.000000000E+00  0.000000000E+00 -9.786669949E+02  9.786669949E+02  0.000000000E+00  0.00000E+00  9.000E+00
      25     1     1     2     0     0 -4.474995747E+00  1.891922493E+01 -5.632340662E+02  5.772643593E+02  1.249942581E+02  0.00000E+00  9.000E+00
       5     1     1     2   501     0  4.781599379E+00 -8.190838875E-01  9.891530309E+00  1.199747736E+01  4.750000000E+00  0.00000E+00  9.000E+00
      -5     1     1     2     0   503  6.567948417E+00 -2.308498809E+01 -3.967462926E+02  3.974999847E+02  4.750000000E+00  0.00000E+00  9.000E+00
      21     1     1     2   511   501 -6.874552049E+00  4.984847045E+00 -8.481503819E+00  1.200183623E+01  3.153981341E-07  0.00000E+00  9.000E+00
#rwgt            1           9  0.30800190019167839                6      853494           0
</event>
<event>
      6   9999  3.45752E-01  2.71978E+01 -1.00000E+00  1.50647E-01
      21    -1     0     0   501   502  0.000000000E+00  0.000000000E+00  7.259944405E+01  7.259944405E+01  0.000000000E+00  0.00000E+00  9.000E+00
       2    -1     0     0   502     0  0.000000000E+00  0.000000000E+00 -2.767120950E+03  2.767120950E+03  0.000000000E+00  0.00000E+00  9.000E+00
      25     1     1     2     0     0  1.079738261E+02  1.531368565E+02 -1.895481608E+02  2.943783784E+02  1.249835209E+02  0.00000E+00  9.000E+00
       5     1     1     2   501     0 -2.338163968E+00 -9.293628896E-01  1.426315904E+01  1.524240571E+01  4.750000000E+00  0.00000E+00  9.000E+00
      -5     1     1     2     0   503 -1.173146488E+02 -1.276449125E+02 -1.423564608E+03  1.434090201E+03  4.750000000E+00  0.00000E+00  9.000E+00
       2     1     1     2   503     0  1.167898661E+01 -2.456258107E+01 -1.095671896E+03  1.096009409E+03  0.000000000E+00  0.00000E+00  9.000E+00
#rwgt            1           9   2.0284281764462175E-003           6      857049           0
</event>
<event>
      6   9999  3.45752E-01  1.72613E+01 -1.00000E+00  1.65251E-01
      21    -1     0     0   511   502  0.000000000E+00  0.000000000E+00  1.181111973E+01  1.181111973E+01  0.000000000E+00  0.00000E+00  9.000E+00
      21    -1     0     0   502   503  0.000000000E+00  0.000000000E+00 -7.889453510E+02  7.889453510E+02  0.000000000E+00  0.00000E+00  9.000E+00
      25     1     1     2     0     0  1.717271100E+01 -2.066943876E+00 -6.269613746E+02  6.395341172E+02  1.249965898E+02  0.00000E+00  9.000E+00
       5     1     1     2   501     0  2.908673605E+00  4.180147700E-01 -5.031993093E-01  5.608103782E+00  4.750000000E+00  0.00000E+00  9.000E+00
      -5     1     1     2     0   503 -3.438966799E+00 -2.931826235E+00 -1.267611021E+02  1.269305385E+02  4.750000000E+00  0.00000E+00  9.000E+00
      21     1     1     2   511   501 -1.664241781E+01  4.580755341E+00 -2.290855519E+01  2.868371125E+01  3.371747881E-07  0.00000E+00  9.000E+00
#rwgt            1           9   5.8113625366494289E-004           6      859312           0
</event>
<event>
      6   9999  3.45752E-01  1.01544E+01 -1.00000E+00  1.86495E-01
      21    -1     0     0   501   502  0.000000000E+00  0.000000000E+00  6.249683754E+01  6.249683754E+01  0.000000000E+00  0.00000E+00  9.000E+00
      21    -1     0     0   502   512  0.000000000E+00  0.000000000E+00 -3.302261336E+02  3.302261336E+02  0.000000000E+00  0.00000E+00  9.000E+00
      25     1     1     2     0     0  2.791507904E+01  2.778903997E+01 -1.775229299E+02  2.202902015E+02  1.243458879E+02  0.00000E+00  9.000E+00
       5     1     1     2   501     0 -1.560846094E+00 -1.092069378E+00  3.486517701E+01  3.523878437E+01  4.750000000E+00  0.00000E+00  9.000E+00
      -5     1     1     2     0   503 -2.010727221E+01 -3.470243222E+01 -6.692151712E+01  7.816401443E+01  4.750000000E+00  0.00000E+00  9.000E+00
      21     1     1     2   503   512 -6.246960735E+00  8.005461624E+00 -5.815002599E+01  5.902997083E+01  9.536743164E-07  0.00000E+00  9.000E+00
#rwgt            1           9   8.3247622489962048E-004           6      860671           0
</event>
<event>
      6   9999  3.45752E-01  5.79845E+00 -1.00000E+00  2.16146E-01
      21    -1     0     0   501   502  0.000000000E+00  0.000000000E+00  5.061653812E+01  5.061653812E+01  0.000000000E+00  0.00000E+00  9.000E+00
      21    -1     0     0   511   503  0.000000000E+00  0.000000000E+00 -1.405589071E+03  1.405589071E+03  0.000000000E+00  0.00000E+00  9.000E+00
      25     1     1     2     0     0 -9.782496941E+01 -2.821489937E+01 -5.247486098E+02  5.489543279E+02  1.249957814E+02  0.00000E+00  9.000E+00
       5     1     1     2   501     0  2.780041202E+00 -2.618619059E+00  3.493553085E+01  3.546321490E+01  4.750000000E+00  0.00000E+00  9.000E+00
      -5     1     1     2     0   503  9.454250867E+01  3.661015904E+01 -8.207794099E+02  8.270308289E+02  4.750000000E+00  0.00000E+00  9.000E+00
      21     1     1     2   511   502  5.024195382E-01 -5.776640607E+00 -4.438004428E+01  4.475723776E+01  4.768371582E-07  0.00000E+00  9.000E+00
#rwgt            1           9   2.3895606380408614E-004           6      863924           0
</event>
<event>
      6   9999 -3.45752E-01  9.97096E+01 -1.00000E+00  1.20489E-01
      21    -1     0     0   501   512  0.000000000E+00  0.000000000E+00  5.161474570E+01  5.161474570E+01  0.000000000E+00  0.00000E+00  9.000E+00
      21    -1     0     0   502   503  0.000000000E+00  0.000000000E+00 -1.498774941E+03  1.498774941E+03  0.000000000E+00  0.00000E+00  9.000E+00
      25     1     1     2     0     0 -1.072593976E+02  8.376829645E+01 -7.717456607E+02  7.935604287E+02  1.250003333E+02  0.00000E+00  9.000E+00
       5     1     1     2   501     0  1.587425078E+01 -3.611627593E+01 -1.925936291E+01  4.415725065E+01  4.750000000E+00  0.00000E+00  9.000E+00
      -5     1     1     2     0   503  1.005350718E+02 -1.469409431E+02 -4.039201427E+02  4.414442044E+02  4.750000000E+00  0.00000E+00  9.000E+00
      21     1     1     2   502   512 -9.149925032E+00  9.928892253E+01 -2.522350293E+02  2.712278033E+02  2.697398305E-06  0.00000E+00  9.000E+00
#rwgt            1           9  -3.5271733593947537E-002           6      870396           0
</event>
<event>
      6   9999 -3.45752E-01  2.22276E+01 -1.00000E+00  1.56787E-01
       2    -1     0     0   502     0  0.000000000E+00  0.000000000E+00  9.170829851E+02  9.170829851E+02  0.000000000E+00  0.00000E+00  9.000E+00
      21    -1     0     0   501   502  0.000000000E+00  0.000000000E+00 -1.454375736E+03  1.454375736E+03  0.000000000E+00  0.00000E+00  9.000E+00
      25     1     1     2     0     0 -2.226688468E+02  1.415222489E+02 -2.629186299E+02  3.928845355E+02  1.249883594E+02  0.00000E+00  9.000E+00
       5     1     1     2   501     0  2.062804685E+02 -1.409139687E+02 -1.094592799E+03  1.122748563E+03  4.750000000E+00  0.00000E+00  9.000E+00
      -5     1     1     2     0   503 -4.925907671E+00  5.698035001E+00 -1.653310337E+01  1.877866280E+01  4.750000000E+00  0.00000E+00  9.000E+00
       2     1     1     2   503     0  2.131428599E+01 -6.306315177E+00  8.367517815E+02  8.370469595E+02  0.000000000E+00  0.00000E+00  9.000E+00
#rwgt            1           9  -4.0955436854033775E-004           6      870968           0
</event>
<event>
      6   9999 -3.45752E-01  1.29833E+01 -1.00000E+00  1.75991E-01
      21    -1     0     0   511   502  0.000000000E+00  0.000000000E+00  1.389889968E+01  1.389889968E+01  0.000000000E+00  0.00000E+00  9.000E+00
      21    -1     0     0   502   503  0.000000000E+00  0.000000000E+00 -4.376847153E+02  4.376847153E+02  0.000000000E+00  0.00000E+00  9.000E+00
      25     1     1     2     0     0 -1.774685915E+00  1.048774255E+01 -3.577371938E+02  3.790954226E+02  1.249971894E+02  0.00000E+00  9.000E+00
       5     1     1     2   501     0 -7.018297447E-02  4.112721070E-01 -4.074447376E+00  6.271976707E+00  4.750000000E+00  0.00000E+00  9.000E+00
      -5     1     1     2     0   503 -3.235862606E+00  1.048834133E+00 -4.192656426E+01  4.233166841E+01  4.750000000E+00  0.00000E+00  9.000E+00
      21     1     1     2   511   501  5.080731495E+00 -1.194784879E+01 -2.004761023E+01  2.388454729E+01  5.840038640E-07  0.00000E+00  9.000E+00
#rwgt            1           9  -3.7249132779113438E-002           6      875597           0
</event>
<event>
      6   9999  3.45752E-01  7.32379E+00 -1.00000E+00  2.02667E-01
      21    -1     0     0   501   502  0.000000000E+00  0.000000000E+00  5.128712185E+01  5.128712185E+01  0.000000000E+00  0.00000E+00  9.000E+00
      21    -1     0     0   512   503  0.000000000E+00  0.000000000E+00 -1.687205708E+03  1.687205708E+03  0.000000000E+00  0.00000E+00  9.000E+00
      25     1     1     2     0     0 -5.511214103E+01  1.094175443E+01 -3.341834246E+02  3.611871091E+02  1.249819843E+02  0.00000E+00  9.000E+00
       5     1     1     2   501     0  1.750706419E-02 -5.335629522E+00  3.627744051E+01  3.697410498E+01  4.750000000E+00  0.00000E+00  9.000E+00
      -5     1     1     2     0   503  5.494370469E+01 -1.292836336E+01 -7.034882551E+02  7.057650039E+02  4.750000000E+00  0.00000E+00  9.000E+00
      21     1     1     2   512   502  1.509292720E-01  7.322238446E+00 -6.345243465E+02  6.345666114E+02  1.078959322E-05  0.00000E+00  9.000E+00
#rwgt            1           9  0.12150852984293908                6      877280           0
</event>
<event>
      6   9999  3.45752E-01  8.03116E+00 -1.00000E+00  1.97816E-01
      21    -1     0     0   511   502  0.000000000E+00  0.000000000E+00  1.206981653E+03  1.206981653E+03  0.000000000E+00  0.00000E+00  9.000E+00
      21    -1     0     0   502   503  0.000000000E+00  0.000000000E+00 -1.220339653E+02  1.220339653E+02  0.000000000E+00  0.00000E+00  9.000E+00
      25     1     1     2     0     0  9.207409035E+01 -7.561924305E+01  7.161583749E+02  7.366844125E+02  1.250007903E+02  0.00000E+00  9.000E+00
       5     1     1     2   501     0 -8.100547747E+00 -8.014933942E-01  4.322676182E+02  4.323703476E+02  4.750000000E+00  0.00000E+00  9.000E+00
      -5     1     1     2     0   503 -9.181934776E+01  7.470527124E+01 -7.906469764E+01  1.424270307E+02  4.750000000E+00  0.00000E+00  9.000E+00
      21     1     1     2   511   501  7.845805155E+00  1.715465200E+00  1.558639196E+01  1.753382713E+01  2.920019320E-07  0.00000E+00  9.000E+00
#rwgt            1           9   589.82711640618231                6      882113           0
</event>
<event>
      6   9999 -3.45752E-01  9.94798E+00 -1.00000E+00  1.87433E-01
      21    -1     0     0   512   502  0.000000000E+00  0.000000000E+00  9.129812108E+00  9.129812108E+00  0.000000000E+00  0.00000E+00  9.000E+00
      21    -1     0     0   502   503  0.000000000E+00  0.000000000E+00 -8.719186016E+02  8.719186016E+02  0.000000000E+00  0.00000E+00  9.000E+00
      25     1     1     2     0     0 -2.622616581E+00 -1.142775862E+01 -8.029655923E+02  8.127204329E+02  1.249931513E+02  0.00000E+00  9.000E+00
       5     1     1     2   501     0 -6.541841123E-01 -6.284018316E-01 -1.803475854E+00  5.161188901E+00  4.750000000E+00  0.00000E+00  9.000E+00
      -5     1     1     2     0   503 -6.657142122E+00  1.258448932E+01 -3.368330616E+01  3.687566307E+01  4.750000000E+00  0.00000E+00  9.000E+00
      21     1     1     2   512   501  9.933942816E+00 -5.283288676E-01 -2.433641523E+01  2.629112888E+01  4.768371582E-07  0.00000E+00  9.000E+00
#rwgt            1           9 -0.17854136157932260                6      887503           0
</event>
<event>
      6   9999  3.45752E-01  3.52062E+00 -1.00000E+00  2.59913E-01
      21    -1     0     0   511   502  0.000000000E+00  0.000000000E+00  1.414431340E+02  1.414431340E+02  0.000000000E+00  0.00000E+00  9.000E+00
      21    -1     0     0   502   503  0.000000000E+00  0.000000000E+00 -7.872407828E+02  7.872407828E+02  0.000000000E+00  0.00000E+00  9.000E+00
      25     1     1     2     0     0  3.628841355E+00  3.023064660E+00 -7.052710551E+02  7.162778871E+02  1.249977721E+02  0.00000E+00  9.000E+00
       5     1     1     2   501     0 -8.435207626E-01 -1.270750694E+00  2.909969753E+00  5.775531021E+00  4.750000000E+00  0.00000E+00  9.000E+00
      -5     1     1     2     0   503 -4.533126329E+00  1.303815157E+00 -7.486060506E+01  7.515930986E+01  4.750000000E+00  0.00000E+00  9.000E+00
      21     1     1     2   511   501  1.747805736E+00 -3.056129122E+00  1.314240417E+02  1.314711888E+02  3.814697266E-06  0.00000E+00  9.000E+00
#rwgt            1           9   1.6405217698448984E-004           6      889558           0
</event>
<event>
      6   9999  3.45752E-01  2.56798E+01 -1.00000E+00  1.52343E-01
      21    -1     0     0   501   502  0.000000000E+00  0.000000000E+00  2.276429999E+01  2.276429999E+01  0.000000000E+00  0.00000E+00  9.000E+00
      21    -1     0     0   502   512  0.000000000E+00  0.000000000E+00 -1.815154484E+03  1.815154484E+03  0.000000000E+00  0.00000E+00  9.000E+00
      25     1     1     2     0     0  2.448957689E+01 -1.332316364E+02 -6.284144551E+02  6.548885083E+02  1.249952908E+02  0.00000E+00  9.000E+00
       5     1     1     2   501     0  3.834011062E+00 -1.791408316E+00  3.414756303E+00  7.220238582E+00  4.750000000E+00  0.00000E+00  9.000E+00
      -5     1     1     2     0   503 -1.429978013E+01  1.135105507E+02 -9.237413607E+02  9.308113627E+02  4.750000000E+00  0.00000E+00  9.000E+00
      21     1     1     2   503   512 -1.402380782E+01  2.151249395E+01 -2.436491249E+02  2.449986748E+02  5.394796609E-06  0.00000E+00  9.000E+00
#rwgt            1           9   5.5166694569207860E-004           6      894532           0
</event>
<event>
      6   9999  3.45752E-01  5.12508E+00 -1.00000E+00  2.24059E-01
      21    -1     0     0   501   502  0.000000000E+00  0.000000000E+00  7.502584970E+02  7.502584970E+02  0.000000000E+00  0.00000E+00  9.000E+00
      21    -1     0     0   511   503  0.000000000E+00  0.000000000E+00 -2.537813272E+01  2.537813272E+01  0.000000000E+00  0.00000E+00  9.000E+00
      25     1     1     2     0     0  1.562759736E+01 -6.739361040E+00  1.849175373E+02  2.237394316E+02  1.248006285E+02  0.00000E+00  9.000E+00
       5     1     1     2   501     0 -1.346880568E+00  2.587679383E+00  5.180191483E+02  5.180491392E+02  4.750000000E+00  0.00000E+00  9.000E+00
      -5     1     1     2     0   503 -1.471906820E+01 -9.546222613E-01  2.379750912E+01  2.839799663E+01  4.750000000E+00  0.00000E+00  9.000E+00
      21     1     1     2   511   502  4.383514033E-01  5.106303918E+00 -1.853830370E+00  5.450062265E+00  5.161913656E-08  0.00000E+00  9.000E+00
#rwgt            1           9   1.2392212036972265E-004           6      896102           0
</event>
<event>
      6   9999 -3.45752E-01  8.29840E+00 -1.00000E+00  1.96151E-01
      21    -1     0     0   501   502  0.000000000E+00  0.000000000E+00  1.065577991E+01  1.065577991E+01  0.000000000E+00  0.00000E+00  9.000E+00
      21    -1     0     0   512   503  0.000000000E+00  0.000000000E+00 -9.164864035E+02  9.164864035E+02  0.000000000E+00  0.00000E+00  9.000E+00
      25     1     1     2     0     0 -6.539840924E+00 -3.377160733E+00 -8.371571738E+02  8.464702225E+02  1.250021168E+02  0.00000E+00  9.000E+00
       5     1     1     2   501     0  3.125998581E+00  3.397478477E-01  1.607499134E+00  5.918939871E+00  4.750000000E+00  0.00000E+00  9.000E+00
      -5     1     1     2     0   503  1.157351541E+01  1.526396436E+00 -1.896749182E+01  2.277288719E+01  4.750000000E+00  0.00000E+00  9.000E+00
      21     1     1     2   512   502 -8.159673068E+00  1.511016449E+00 -5.131345717E+01  5.198013391E+01  6.743495762E-07  0.00000E+00  9.000E+00
#rwgt            1           9  -9.3102690737617774E-003           6      900254           0
</event>
<event>
      6   9999 -3.45752E-01  1.12409E+01 -1.00000E+00  1.81997E-01
      21    -1     0     0   511   502  0.000000000E+00  0.000000000E+00  7.261963329E+01  7.261963329E+01  0.000000000E+00  0.00000E+00  9.000E+00
      21    -1     0     0   502   503  0.000000000E+00  0.000000000E+00 -2.781997965E+02  2.781997965E+02  0.000000000E+00  0.00000E+00  9.000E+00
      25     1     1     2     0     0 -2.874015050E+00 -4.502844139E+00 -2.491106305E+02  2.787627580E+02  1.249961336E+02  0.00000E+00  9.000E+00
       5     1     1     2   501     0  1.146809219E+00 -2.719201499E+00  3.278959503E+00  6.482538361E+00  4.750000000E+00  0.00000E+00  9.000E+00
      -5     1     1     2     0   503 -1.375046611E+00 -3.582264478E+00 -1.128223748E+01  1.282866924E+01  4.750000000E+00  0.00000E+00  9.000E+00
      21     1     1     2   511   501  3.102252442E+00  1.080431012E+01  5.153374531E+01  5.274546420E+01  6.743495762E-07  0.00000E+00  9.000E+00
#rwgt            1           9  -338.47268022430211                6      903095           0
</event>
<event>
      6   9999  3.45752E-01  4.28178E+00 -1.00000E+00  2.41886E-01
      21    -1     0     0   502   512  0.000000000E+00  0.000000000E+00  6.659364134E+01  6.659364134E+01  0.000000000E+00  0.00000E+00  9.000E+00
      21    -1     0     0   501   502  0.000000000E+00  0.000000000E+00 -2.330124009E+02  2.330124009E+02  0.000000000E+00  0.00000E+00  9.000E+00
      25     1     1     2     0     0  2.077174424E+01 -2.419934083E+01 -2.003481385E+02  2.382873564E+02  1.249976566E+02  0.00000E+00  9.000E+00
       5     1     1     2   501     0 -5.591285170E-02 -5.424896443E-01  1.559843394E+00  5.029217899E+00  4.750000000E+00  0.00000E+00  9.000E+00
      -5     1     1     2     0   503 -2.275915710E+01  2.097905337E+01  9.073971756E+00  3.260367120E+01  4.750000000E+00  0.00000E+00  9.000E+00
      21     1     1     2   503   512  2.043325708E+00  3.762777098E+00  2.329556384E+01  2.368579672E+01  3.371747881E-07  0.00000E+00  9.000E+00
#rwgt            1           9   3.4618631944143817E-005           6      905066           0
</event>
<event>
      6   9999  3.45752E-01  4.11015E+00 -1.00000E+00  2.45433E-01
      21    -1     0     0   501   502  0.000000000E+00  0.000000000E+00  8.052748506E+00  8.052748506E+00  0.000000000E+00  0.00000E+00  9.000E+00
      21    -1     0     0   511   503  0.000000000E+00  0.000000000E+00 -1.018359054E+03  1.018359054E+03  0.000000000E+00  0.00000E+00  9.000E+00
      25     1     1     2     0     0 -1.688589244E+01 -1.365517042E+00 -6.474477691E+02  6.596282976E+02  1.250355118E+02  0.00000E+00  9.000E+00
       5     1     1     2   501     0 -7.174714797E-01 -5.819087699E-02 -3.096381268E+00  5.715612693E+00  4.750000000E+00  0.00000E+00  9.000E+00
      -5     1     1     2     0   503  1.351446367E+01  1.006351065E+00 -8.019795038E+01  8.147347554E+01  4.750000000E+00  0.00000E+00  9.000E+00
      21     1     1     2   511   502  4.088900242E+00  4.173568535E-01 -2.795642043E+02  2.795944163E+02  3.814697266E-06  0.00000E+00  9.000E+00
#rwgt            1           9   1.6950137999769258E-003           6      910019           0
</event>
<event>
      6   9999  3.45752E-01  1.27497E+01 -1.00000E+00  1.76725E-01
      21    -1     0     0   501   502  0.000000000E+00  0.000000000E+00  1.869035487E+01  1.869035487E+01  0.000000000E+00  0.00000E+00  9.000E+00
      21    -1     0     0   512   503  0.000000000E+00  0.000000000E+00 -9.119155883E+02  9.119155883E+02  0.000000000E+00  0.00000E+00  9.000E+00
      25     1     1     2     0     0 -4.725243162E+00 -1.741931297E+01 -2.588015823E+02  2.879645452E+02  1.249782377E+02  0.00000E+00  9.000E+00
       5     1     1     2   501     0 -4.927473761E-01  2.066010788E-01  4.124667143E-01  4.797719539E+00  4.750000000E+00  0.00000E+00  9.000E+00
      -5     1     1     2     0   503 -7.482437618E+00  1.609242758E+01 -5.743258454E+01  6.029939772E+01  4.750000000E+00  0.00000E+00  9.000E+00
      21     1     1     2   512   502  1.270042816E+01  1.120284303E+00 -5.774035333E+02  5.775442808E+02  0.000000000E+00  0.00000E+00  9.000E+00
#rwgt            1           9   3.2191868746976978E-004           6      914031           0
</event>
<event>
      6   9999 -3.45752E-01  6.84062E+00 -1.00000E+00  2.06422E-01
      21    -1     0     0   501   502  0.000000000E+00  0.000000000E+00  1.846559054E+01  1.846559054E+01  0.000000000E+00  0.00000E+00  9.000E+00
      21    -1     0     0   502   511  0.000000000E+00  0.000000000E+00 -9.333310824E+02  9.333310824E+02  0.000000000E+00  0.00000E+00  9.000E+00
      25     1     1     2     0     0 -3.583498742E+01 -5.371771223E+01 -5.010921815E+02  5.204689450E+02  1.249992374E+02  0.00000E+00  9.000E+00
       5     1     1     2   501     0 -2.008706899E+00 -2.581421984E+00  4.606903894E+00  7.381375641E+00  4.750000000E+00  0.00000E+00  9.000E+00
      -5     1     1     2     0   503  3.296673874E+01  5.150232848E+01 -3.629846970E+02  3.681300700E+02  4.750000000E+00  0.00000E+00  9.000E+00
      21     1     1     2   503   511  4.876955578E+00  4.796805734E+00 -5.539551720E+01  5.581628227E+01  9.536743164E-07  0.00000E+00  9.000E+00
#rwgt            1           9  -5.9902199945325565E-004           6      916036           0
</event>
<event>
      6   9999 -3.45752E-01  2.55107E+01 -1.00000E+00  1.52541E-01
      21    -1     0     0   501   502  0.000000000E+00  0.000000000E+00  9.723779053E+01  9.723779053E+01  0.000000000E+00  0.00000E+00  9.000E+00
      21    -1     0     0   512   503  0.000000000E+00  0.000000000E+00 -1.740775119E+03  1.740775119E+03  0.000000000E+00  0.00000E+00  9.000E+00
      25     1     1     2     0     0 -4.144725224E+01  4.690672975E+01 -2.366323322E+01  1.417851758E+02  1.249998858E+02  0.00000E+00  9.000E+00
       5     1     1     2   501     0 -4.801237506E+01  4.891763435E+01  3.933024543E-01  6.870837137E+01  4.750000000E+00  0.00000E+00  9.000E+00
      -5     1     1     2     0   503  8.254667861E+01 -7.126813299E+01 -1.524798653E+03  1.528700950E+03  4.750000000E+00  0.00000E+00  9.000E+00
      21     1     1     2   512   502  6.912948686E+00 -2.455623111E+01 -9.546874518E+01  9.881841251E+01  1.907348633E-06  0.00000E+00  9.000E+00
#rwgt            1           9 -0.30694932195666796                6      919871           0
</event>
<event>
      6   9999  3.45752E-01  2.62230E+01 -1.00000E+00  1.51720E-01
      21    -1     0     0   511   502  0.000000000E+00  0.000000000E+00  6.126034152E+02  6.126034152E+02  0.000000000E+00  0.00000E+00  9.000E+00
      21    -1     0     0   502   503  0.000000000E+00  0.000000000E+00 -2.435144917E+02  2.435144917E+02  0.000000000E+00  0.00000E+00  9.000E+00
      25     1     1     2     0     0  1.689538895E+00  2.151630376E+01 -8.752337720E+01  1.541236255E+02  1.250117776E+02  0.00000E+00  9.000E+00
       5     1     1     2   501     0 -9.986895453E+00  8.937479984E+00 -6.490491510E+01  6.644416553E+01  4.750000000E+00  0.00000E+00  9.000E+00
      -5     1     1     2     0   503  7.556852703E-01 -5.338650458E+00 -5.649159289E+01  5.694677178E+01  4.750000000E+00  0.00000E+00  9.000E+00
      21     1     1     2   511   501  7.541671287E+00 -2.511513329E+01  5.780088087E+02  5.786033440E+02  7.629394531E-06  0.00000E+00  9.000E+00
#rwgt            1           9   2.5228735418702190E-003           6      922668           0
</event>
<event>
      6   9999  3.45752E-01  5.33042E+01 -1.00000E+00  1.33317E-01
      21    -1     0     0   501   512  0.000000000E+00  0.000000000E+00  8.389607680E+01  8.389607680E+01  0.000000000E+00  0.00000E+00  9.000E+00
      21    -1     0     0   502   503  0.000000000E+00  0.000000000E+00 -1.658939751E+03  1.658939751E+03  0.000000000E+00  0.00000E+00  9.000E+00
      25     1     1     2     0     0 -4.377696701E+01 -8.714264477E+00 -1.311253474E+03  1.317954120E+03  1.250001094E+02  0.00000E+00  9.000E+00
       5     1     1     2   501     0 -2.731588705E+01  1.532767265E+01  7.072520033E+01  7.749652699E+01  4.750000000E+00  0.00000E+00  9.000E+00
      -5     1     1     2     0   503  1.848011754E+01  1.944777662E+00 -2.225908841E+02  2.234156689E+02  4.750000000E+00  0.00000E+00  9.000E+00
      21     1     1     2   502   512  5.261273652E+01 -8.558185833E+00 -1.119245164E+02  1.239695122E+02  1.348699152E-06  0.00000E+00  9.000E+00
#rwgt            1           9   6.2575799307450350E-004           6      923703           0
</event>
<event>
      6   9999  3.45752E-01  8.38734E+00 -1.00000E+00  1.95615E-01
      21    -1     0     0   501   511  0.000000000E+00  0.000000000E+00  6.139647488E+02  6.139647488E+02  0.000000000E+00  0.00000E+00  9.000E+00
      21    -1     0     0   502   503  0.000000000E+00  0.000000000E+00 -9.629502356E+02  9.629502356E+02  0.000000000E+00  0.00000E+00  9.000E+00
      25     1     1     2     0     0 -7.383973119E+01 -2.521213850E+01 -6.790450757E+02  6.948487641E+02  1.249985294E+02  0.00000E+00  9.000E+00
       5     1     1     2   501     0  8.731056726E-01  1.981242204E+00  3.854070069E+00  6.488758763E+00  4.750000000E+00  0.00000E+00  9.000E+00
      -5     1     1     2     0   503  7.014893165E+01  3.113076910E+01 -2.692746609E+02  2.800382169E+02  4.750000000E+00  0.00000E+00  9.000E+00
      21     1     1     2   502   511  2.817693862E+00 -7.899872802E+00  5.954801798E+02  5.955392446E+02  0.000000000E+00  0.00000E+00  9.000E+00
#rwgt            1           9   7.9958880450517488E-004           6      925320           0
</event>
<event>
      6   9999  3.45752E-01  2.44674E+01 -1.00000E+00  1.53803E-01
      21    -1     0     0   501   502  0.000000000E+00  0.000000000E+00  3.489475991E+03  3.489475991E+03  0.000000000E+00  0.00000E+00  9.000E+00
      -3    -1     0     0     0   503  0.000000000E+00  0.000000000E+00 -2.518751204E+01  2.518751204E+01  0.000000000E+00  0.00000E+00  9.000E+00
      25     1     1     2     0     0  1.079514881E+02 -1.050164179E+02  2.435579324E+03  2.443430915E+03  1.250040748E+02  0.00000E+00  9.000E+00
       5     1     1     2   501     0 -9.170377647E+01  6.097367938E+01  8.194999606E+02  8.268797495E+02  4.750000000E+00  0.00000E+00  9.000E+00
      -5     1     1     2     0   503 -3.899028873E+01  3.501905999E+01  2.131681134E+02  2.195672658E+02  4.750000000E+00  0.00000E+00  9.000E+00
      -3     1     1     2     0   502  2.274257710E+01  9.023678518E+00 -3.958919198E+00  2.478557298E+01  2.721329025E-06  0.00000E+00  9.000E+00
#rwgt            1           9   17.500855932499451                6      928458           0
</event>
<event>
      6   9999  3.45752E-01  1.02101E+01 -1.00000E+00  1.86248E-01
      21    -1     0     0   501   502  0.000000000E+00  0.000000000E+00  2.591307964E+01  2.591307964E+01  0.000000000E+00  0.00000E+00  9.000E+00
       2    -1     0     0   502     0  0.000000000E+00  0.000000000E+00 -3.988597877E+03  3.988597877E+03  0.000000000E+00  0.00000E+00  9.000E+00
      25     1     1     2     0     0  2.410581067E+01  9.623251308E+01 -5.304703504E+02  5.539545308E+02  1.250001714E+02  0.00000E+00  9.000E+00
       5     1     1     2   501     0 -6.030391535E+00  2.733940567E+00  1.177325960E+01  1.431824691E+01  4.750000000E+00  0.00000E+00  9.000E+00
      -5     1     1     2     0   503 -1.656574892E+01 -8.886858921E+01 -1.846315083E+03  1.848532931E+03  4.750000000E+00  0.00000E+00  9.000E+00
       2     1     1     2   503     0 -1.509670215E+00 -1.009786444E+01 -1.597672624E+03  1.597705248E+03  2.157918644E-05  0.00000E+00  9.000E+00
#rwgt            1           9   2.6046960496311681E-004           6      930077           0
</event>
<event>
      6   9999 -3.45752E-01  5.37360E+00 -1.00000E+00  2.20953E-01
      21    -1     0     0   501   502  0.000000000E+00  0.000000000E+00  7.085994344E+00  7.085994344E+00  0.000000000E+00  0.00000E+00  9.000E+00
      21    -1     0     0   502   511  0.000000000E+00  0.000000000E+00 -7.548314384E+02  7.548314384E+02  0.000000000E+00  0.00000E+00  9.000E+00
      25     1     1     2     0     0  3.821397011E+00  9.028830161E+00 -6.449373477E+02  6.570133168E+02  1.250047721E+02  0.00000E+00  9.000E+00
       5     1     1     2   501     0 -1.231826412E+00 -1.107841834E+00 -1.760523393E+01  1.830987361E+01  4.750000000E+00  0.00000E+00  9.000E+00
      -5     1     1     2     0   503  2.771736410E+00 -8.284216323E+00 -4.945112055E+01  5.044092174E+01  4.750000000E+00  0.00000E+00  9.000E+00
      21     1     1     2   503   511 -5.361307009E+00  3.632279964E-01 -3.575174185E+01  3.615332063E+01  0.000000000E+00  0.00000E+00  9.000E+00
#rwgt            1           9  -2.0754724348770607E-006           6      934169           0
</event>
<event>
      6   9999  3.45752E-01  1.35560E+01 -1.00000E+00  1.74271E-01
      21    -1     0     0   512   502  0.000000000E+00  0.000000000E+00  9.151143882E+01  9.151143882E+01  0.000000000E+00  0.00000E+00  9.000E+00
      21    -1     0     0   502   503  0.000000000E+00  0.000000000E+00 -1.423226341E+03  1.423226341E+03  0.000000000E+00  0.00000E+00  9.000E+00
      25     1     1     2     0     0 -8.593679613E-01  9.194861805E+01 -1.291583800E+03  1.300874884E+03  1.250258553E+02  0.00000E+00  9.000E+00
       5     1     1     2   501     0 -5.327707414E+00  3.176398964E+00  5.374544059E+01  5.431030161E+01  4.750000000E+00  0.00000E+00  9.000E+00
      -5     1     1     2     0   503  1.277948524E+00 -1.077608696E+02 -9.762313645E+01  1.454884100E+02  4.750000000E+00  0.00000E+00  9.000E+00
      21     1     1     2   512   501  4.909126851E+00  1.263585263E+01  3.746594109E+00  1.406418378E+01  2.889442359E-07  0.00000E+00  9.000E+00
#rwgt            1           9   2.4358932683407181E-002           6      937557           0
</event>
<event>
      6   9999  3.45752E-01  7.35700E+00 -1.00000E+00  2.02423E-01
      21    -1     0     0   501   502  0.000000000E+00  0.000000000E+00  3.149078706E+01  3.149078706E+01  0.000000000E+00  0.00000E+00  9.000E+00
      21    -1     0     0   502   511  0.000000000E+00  0.000000000E+00 -1.146873963E+03  1.146873963E+03  0.000000000E+00  0.00000E+00  9.000E+00
      25     1     1     2     0     0 -1.613821685E+01  2.916772166E+01 -9.541694704E+02  9.628992804E+02  1.249977913E+02  0.00000E+00  9.000E+00
       5     1     1     2   501     0 -4.490507180E+00 -5.482132525E+00  2.475390876E+01  2.618276018E+01  4.750000000E+00  0.00000E+00  9.000E+00
      -5     1     1     2     0   503  1.729894589E+01 -1.712525297E+01 -1.011295979E+02  1.041262978E+02  4.750000000E+00  0.00000E+00  9.000E+00
      21     1     1     2   503   511  3.329778141E+00 -6.560336166E+00 -8.483801597E+01  8.515641131E+01  9.536743164E-07  0.00000E+00  9.000E+00
#rwgt            1           9   2.4644754055407544E-003           6      941086           0
</event>
<event>
      6   9999 -3.45752E-01  2.42471E+01 -1.00000E+00  1.54079E-01
      21    -1     0     0   501   502  0.000000000E+00  0.000000000E+00  1.664861445E+01  1.664861445E+01  0.000000000E+00  0.00000E+00  9.000E+00
      21    -1     0     0   502   512  0.000000000E+00  0.000000000E+00 -3.603451962E+03  3.603451962E+03  0.000000000E+00  0.00000E+00  9.000E+00
      25     1     1     2     0     0  8.438859772E-01  1.137149216E+01 -1.996014925E+03  1.999957513E+03  1.249978096E+02  0.00000E+00  9.000E+00
       5     1     1     2   501     0 -1.642560730E+01 -8.004706483E+00  7.556165211E+00  2.033553623E+01  4.750000000E+00  0.00000E+00  9.000E+00
      -5     1     1     2     0   503 -5.141683570E+00 -1.595503669E+01 -1.194306207E+02  1.206948042E+02  4.750000000E+00  0.00000E+00  9.000E+00
      21     1     1     2   503   512  2.072340489E+01  1.258825101E+01 -1.478913968E+03  1.479112723E+03  0.000000000E+00  0.00000E+00  9.000E+00
#rwgt            1           9  -2.1749602743124838E-003           6      945596           0
</event>
<event>
      6   9999 -3.45752E-01  5.87630E+00 -1.00000E+00  2.15326E-01
      21    -1     0     0   501   502  0.000000000E+00  0.000000000E+00  1.706022260E+01  1.706022260E+01  0.000000000E+00  0.00000E+00  9.000E+00
      21    -1     0     0   502   511  0.000000000E+00  0.000000000E+00 -1.030256288E+03  1.030256288E+03  0.000000000E+00  0.00000E+00  9.000E+00
      25     1     1     2     0     0 -8.414690937E+00 -2.454388390E+00 -8.159004169E+02  8.254669201E+02  1.250012593E+02  0.00000E+00  9.000E+00
       5     1     1     2   501     0  3.708882070E+00 -1.496711764E+00  1.112723548E+01  1.274259871E+01  4.750000000E+00  0.00000E+00  9.000E+00
      -5     1     1     2     0   503  2.917610259E+00 -1.646515359E+00 -2.842505526E+01  2.901326816E+01  4.750000000E+00  0.00000E+00  9.000E+00
      21     1     1     2   503   511  1.788198608E+00  5.597615513E+00 -1.799978288E+02  1.800937238E+02  1.907348633E-06  0.00000E+00  9.000E+00
#rwgt            1           9  -1.7511214991527795E-003           6      947306           0
</event>
<event>
      6   9999  3.45752E-01  9.00664E+00 -1.00000E+00  1.92110E-01
      21    -1     0     0   501   502  0.000000000E+00  0.000000000E+00  2.840950792E+01  2.840950792E+01  0.000000000E+00  0.00000E+00  9.000E+00
      21    -1     0     0   502   512  0.000000000E+00  0.000000000E+00 -9.638380574E+02  9.638380574E+02  0.000000000E+00  0.00000E+00  9.000E+00
      25     1     1     2     0     0 -9.237891697E+01 -4.894266748E+01 -3.945510725E+02  4.268769864E+02  1.249966546E+02  0.00000E+00  9.000E+00
       5     1     1     2   501     0 -1.536867637E+00  2.511291796E+00  5.649304256E+00  7.946426064E+00  4.750000000E+00  0.00000E+00  9.000E+00
      -5     1     1     2     0   503  8.607493723E+01  5.086315338E+01 -5.149763885E+02  5.246133799E+02  4.750000000E+00  0.00000E+00  9.000E+00
      21     1     1     2   503   512  7.840847376E+00 -4.431777701E+00 -3.155039279E+01  3.281077302E+01  0.000000000E+00  0.00000E+00  9.000E+00
#rwgt            1           9   6.9176855175303129E-002           6      951226           0
</event>
<event>
      6   9999  3.45752E-01  1.62338E+01 -1.00000E+00  1.67449E-01
      21    -1     0     0   511   502  0.000000000E+00  0.000000000E+00  2.217323505E+01  2.217323505E+01  0.000000000E+00  0.00000E+00  9.000E+00
      21    -1     0     0   502   503  0.000000000E+00  0.000000000E+00 -8.701097766E+02  8.701097766E+02  0.000000000E+00  0.00000E+00  9.000E+00
      25     1     1     2     0     0 -7.585590052E+00  4.519417515E+00 -7.847558152E+02  7.946976800E+02  1.249989870E+02  0.00000E+00  9.000E+00
       5     1     1     2   501     0 -7.874036254E+00  2.513631717E-01  9.750479749E+00  1.340514773E+01  4.750000000E+00  0.00000E+00  9.000E+00
      -5     1     1     2     0   503 -2.074977442E-01 -5.188982526E-01 -6.657463931E+01  6.674621645E+01  4.750000000E+00  0.00000E+00  9.000E+00
      21     1     1     2   511   501  1.566712405E+01 -4.251882434E+00 -6.356566729E+00  1.743396744E+01  3.371747881E-07  0.00000E+00  9.000E+00
#rwgt            1           9   4.4921080875787969E-004           6      954519           0
</event>
<event>
      6   9999 -3.45752E-01  8.81362E+00 -1.00000E+00  1.93162E-01
      21    -1     0     0   512   502  0.000000000E+00  0.000000000E+00  1.101950734E+02  1.101950734E+02  0.000000000E+00  0.00000E+00  9.000E+00
      21    -1     0     0   502   503  0.000000000E+00  0.000000000E+00 -1.676189027E+03  1.676189027E+03  0.000000000E+00  0.00000E+00  9.000E+00
      25     1     1     2     0     0 -1.175726743E+02 -5.112553997E+01 -2.953143861E+02  3.453615691E+02  1.250074886E+02  0.00000E+00  9.000E+00
       5     1     1     2   501     0 -1.388176541E+01 -2.573850033E+00  7.106733454E+01  7.261168400E+01  4.750000000E+00  0.00000E+00  9.000E+00
      -5     1     1     2     0   503  1.318639782E+02  6.250348833E+01 -1.349072530E+03  1.356950275E+03  4.750000000E+00  0.00000E+00  9.000E+00
      21     1     1     2   512   501 -4.095384770E-01 -8.804098331E+00  7.325628630E+00  1.146057171E+01  5.127385418E-07  0.00000E+00  9.000E+00
#rwgt            1           9  -1.4542914782702401E-004           6      956761           0
</event>
<event>
      6   9999  3.45752E-01  1.44180E+01 -1.00000E+00  1.71874E-01
      21    -1     0     0   502   511  0.000000000E+00  0.000000000E+00  1.466213250E+02  1.466213250E+02  0.000000000E+00  0.00000E+00  9.000E+00
      21    -1     0     0   501   502  0.000000000E+00  0.000000000E+00 -1.029391630E+02  1.029391630E+02  0.000000000E+00  0.00000E+00  9.000E+00
      25     1     1     2     0     0  1.875192224E+01  1.039739035E+01 -5.307886551E+01  1.374800099E+02  1.249945872E+02  0.00000E+00  9.000E+00
       5     1     1     2   501     0 -6.946360493E-01  5.415050499E-01  8.499771727E+00  9.776725749E+00  4.750000000E+00  0.00000E+00  9.000E+00
      -5     1     1     2     0   503 -2.952459372E+01 -2.199323115E+00  3.050271732E+01  4.277285261E+01  4.750000000E+00  0.00000E+00  9.000E+00
      21     1     1     2   503   511  1.146730754E+01 -8.739572283E+00  5.775853849E+01  5.953089983E+01  6.743495762E-07  0.00000E+00  9.000E+00
#rwgt            1           9   1.0269466907187432E-002           6      962194           0
</event>
<event>
      6   9999  3.45752E-01  3.18261E+00 -1.00000E+00  2.70368E-01
      21    -1     0     0   501   512  0.000000000E+00  0.000000000E+00  4.958426647E+01  4.958426647E+01  0.000000000E+00  0.00000E+00  9.000E+00
      21    -1     0     0   502   503  0.000000000E+00  0.000000000E+00 -1.341251619E+03  1.341251619E+03  0.000000000E+00  0.00000E+00  9.000E+00
      25     1     1     2     0     0  4.729212134E+01  6.294503693E+00 -3.003243344E+02  3.287827176E+02  1.250088158E+02  0.00000E+00  9.000E+00
       5     1     1     2   501     0  6.555325693E+00  7.847604018E+00  3.231327946E+01  3.422378871E+01  4.750000000E+00  0.00000E+00  9.000E+00
      -5     1     1     2     0   503 -5.116730348E+01 -1.242576659E+01 -1.023256962E+03  1.024621815E+03  4.750000000E+00  0.00000E+00  9.000E+00
      21     1     1     2   502   512 -2.680143560E+00 -1.716341123E+00 -3.993360164E-01  3.207563812E+00  1.035067736E-07  0.00000E+00  9.000E+00
#rwgt            1           9   1.9407125297841110E-002           6      964648           0
</event>
<event>
      6   9999  3.45752E-01  1.35095E+01 -1.00000E+00  1.74407E-01
      21    -1     0     0   501   511  0.000000000E+00  0.000000000E+00  4.021640565E+01  4.021640565E+01  0.000000000E+00  0.00000E+00  9.000E+00
      21    -1     0     0   502   503  0.000000000E+00  0.000000000E+00 -2.494884729E+02  2.494884729E+02  0.000000000E+00  0.00000E+00  9.000E+00
      25     1     1     2     0     0  1.250965746E+01  1.849995959E-01 -2.181230092E+02  2.516640656E+02  1.249024780E+02  0.00000E+00  9.000E+00
       5     1     1     2   501     0  3.558278285E+00 -1.847977621E+00  1.631868688E+01  1.746248571E+01  4.750000000E+00  0.00000E+00  9.000E+00
      -5     1     1     2     0   503 -2.735878797E+00 -5.195290556E-01 -3.393286223E+00  6.467753445E+00  4.750000000E+00  0.00000E+00  9.000E+00
      21     1     1     2   502   511 -1.333205694E+01  2.182507080E+00 -4.074458736E+00  1.411057382E+01  2.308477966E-07  0.00000E+00  9.000E+00
#rwgt            1           9   2.0233507015419039E-004           6      973313           0
</event>
<event>
      6   9999  3.45752E-01  6.80787E+00 -1.00000E+00  2.06691E-01
      21    -1     0     0   501   512  0.000000000E+00  0.000000000E+00  2.783011871E+02  2.783011871E+02  0.000000000E+00  0.00000E+00  9.000E+00
      21    -1     0     0   502   503  0.000000000E+00  0.000000000E+00 -8.147593130E+01  8.147593130E+01  0.000000000E+00  0.00000E+00  9.000E+00
      25     1     1     2     0     0  6.027047351E+01 -4.217867174E+01  4.513183775E+00  1.451178964E+02  1.250090584E+02  0.00000E+00  9.000E+00
       5     1     1     2   501     0 -1.022443897E+00  8.426893727E+00  4.152041910E+01  4.264464364E+01  4.750000000E+00  0.00000E+00  9.000E+00
      -5     1     1     2     0   503 -6.557156158E+01  3.627369943E+01  1.298795555E+02  1.500222397E+02  4.750000000E+00  0.00000E+00  9.000E+00
      21     1     1     2   502   512  6.323531972E+00 -2.521921410E+00  2.091209741E+01  2.199233872E+01  3.371747881E-07  0.00000E+00  9.000E+00
#rwgt            1           9   2.0098160713846566E-002           6      975327           0
</event>
<event>
      6   9999  3.45752E-01  2.51699E+01 -1.00000E+00  1.52945E-01
      21    -1     0     0   511   502  0.000000000E+00  0.000000000E+00  4.739338389E+01  4.739338389E+01  0.000000000E+00  0.00000E+00  9.000E+00
      21    -1     0     0   502   503  0.000000000E+00  0.000000000E+00 -8.004818331E+02  8.004818331E+02  0.000000000E+00  0.00000E+00  9.000E+00
      25     1     1     2     0     0  1.707366963E+01 -3.953001783E+01 -5.500619601E+02  5.657272622E+02  1.250001708E+02  0.00000E+00  9.000E+00
       5     1     1     2   501     0 -2.601926273E+01  3.819804529E+01 -1.152130533E+02  1.242284301E+02  4.750000000E+00  0.00000E+00  9.000E+00
      -5     1     1     2     0   503 -6.136794258E+00 -1.881862543E+01 -1.173561532E+02  1.191084804E+02  4.750000000E+00  0.00000E+00  9.000E+00
      21     1     1     2   511   501  1.508238736E+01  2.015059797E+01  2.954271743E+01  3.881104430E+01  1.469710828E-06  0.00000E+00  9.000E+00
#rwgt            1           9   2.4358917023099866E-003           6      979349           0
</event>
<event>
      6   9999  3.45752E-01  1.34936E+01 -1.00000E+00  1.74454E-01
      21    -1     0     0   502   512  0.000000000E+00  0.000000000E+00  1.290155374E+01  1.290155374E+01  0.000000000E+00  0.00000E+00  9.000E+00
      21    -1     0     0   501   502  0.000000000E+00  0.000000000E+00 -8.657058039E+02  8.657058039E+02  0.000000000E+00  0.00000E+00  9.000E+00
      25     1     1     2     0     0  2.768322459E+00 -8.725472836E+00 -8.053353782E+02  8.150297553E+02  1.249985325E+02  0.00000E+00  9.000E+00
       5     1     1     2   501     0 -1.952106391E+00 -3.430120304E-01 -1.340328062E+00  5.318585895E+00  4.750000000E+00  0.00000E+00  9.000E+00
      -5     1     1     2     0   503 -1.430705560E+01  9.339683757E+00 -1.160820598E+01  2.119515225E+01  4.750000000E+00  0.00000E+00  9.000E+00
      21     1     1     2   503   512  1.349083953E+01 -2.711988909E-01 -3.452033785E+01  3.706386415E+01  9.536743164E-07  0.00000E+00  9.000E+00
#rwgt            1           9   3.6109913048726072E-007           6      980460           0
</event>
<event>
      6   9999 -3.45752E-01  1.22332E+01 -1.00000E+00  1.78421E-01
      21    -1     0     0   501   502  0.000000000E+00  0.000000000E+00  1.936126591E+01  1.936126591E+01  0.000000000E+00  0.00000E+00  9.000E+00
      21    -1     0     0   511   503  0.000000000E+00  0.000000000E+00 -1.803997642E+03  1.803997642E+03  0.000000000E+00  0.00000E+00  9.000E+00
      25     1     1     2     0     0  4.441585604E+00  8.110725029E+00 -9.040066588E+02  9.126549997E+02  1.250023910E+02  0.00000E+00  9.000E+00
       5     1     1     2   501     0  7.874025001E-03 -1.607042437E-01  1.232412912E+01  1.320880564E+01  4.750000000E+00  0.00000E+00  9.000E+00
      -5     1     1     2     0   503 -1.659008890E+01 -6.447565076E+00 -3.586999989E+01  4.032395736E+01  4.750000000E+00  0.00000E+00  9.000E+00
      21     1     1     2   511   502  1.214062927E+01 -1.502455710E+00 -8.570838460E+02  8.571711447E+02  1.078959322E-05  0.00000E+00  9.000E+00
#rwgt            1           9 -0.66882598233797230                6      982864           0
</event>
<event>
      6   9999  3.45752E-01  3.31190E+01 -1.00000E+00  1.45112E-01
      21    -1     0     0   501   512  0.000000000E+00  0.000000000E+00  1.598053184E+02  1.598053184E+02  0.000000000E+00  0.00000E+00  9.000E+00
      21    -1     0     0   502   503  0.000000000E+00  0.000000000E+00 -1.463917454E+03  1.463917454E+03  0.000000000E+00  0.00000E+00  9.000E+00
      25     1     1     2     0     0  1.907836143E+00  3.187408093E+01 -1.218961053E+02  1.774895259E+02  1.249970977E+02  0.00000E+00  9.000E+00
       5     1     1     2   501     0 -1.098773076E+01  1.019890697E+01  3.385764729E+01  3.733163150E+01  4.750000000E+00  0.00000E+00  9.000E+00
      -5     1     1     2     0   503  8.392706662E-01 -9.995596830E+00 -1.309619279E+03  1.309666307E+03  4.750000000E+00  0.00000E+00  9.000E+00
      21     1     1     2   502   512  8.240623952E+00 -3.207739108E+01  9.354560136E+01  9.923530841E+01  1.348699152E-06  0.00000E+00  9.000E+00
#rwgt            1           9   1.0552530942653409E-003           6      985903           0
</event>
<event>
      6   9999  3.45752E-01  4.02618E+01 -1.00000E+00  1.40022E-01
      21    -1     0     0   511   503  0.000000000E+00  0.000000000E+00  4.843526553E+01  4.843526553E+01  0.000000000E+00  0.00000E+00  9.000E+00
      21    -1     0     0   501   502  0.000000000E+00  0.000000000E+00 -3.240183520E+02  3.240183520E+02  0.000000000E+00  0.00000E+00  9.000E+00
      25     1     1     2     0     0 -1.089834586E+01 -1.941995765E+01 -1.520702107E+02  1.981082609E+02  1.250025015E+02  0.00000E+00  9.000E+00
       5     1     1     2   501     0  3.937159529E+01  2.009064123E-01 -8.500817014E+01  9.380359466E+01  4.750000000E+00  0.00000E+00  9.000E+00
      -5     1     1     2     0   503  1.063723228E+01  9.659816643E+00 -3.730986739E+01  4.026228350E+01  4.750000000E+00  0.00000E+00  9.000E+00
      21     1     1     2   511   502 -3.911048171E+01  9.559234590E+00 -1.194838262E+00  4.027947844E+01  3.526258339E-07  0.00000E+00  9.000E+00
#rwgt            1           9   1.6534651945414853                6      987895           0
</event>
<event>
      6   9999  3.45752E-01  3.06000E+01 -1.00000E+00  1.47284E-01
      21    -1     0     0   501   502  0.000000000E+00  0.000000000E+00  8.136888746E+02  8.136888746E+02  0.000000000E+00  0.00000E+00  9.000E+00
      21    -1     0     0   512   503  0.000000000E+00  0.000000000E+00 -2.498761781E+02  2.498761781E+02  0.000000000E+00  0.00000E+00  9.000E+00
      25     1     1     2     0     0 -2.618719262E+01 -1.490832375E+01  3.408753446E+01  1.330202080E+02  1.249975542E+02  0.00000E+00  9.000E+00
       5     1     1     2   501     0 -1.866839200E+00  1.080818830E+00  7.214744907E+02  7.214933517E+02  4.750000000E+00  0.00000E+00  9.000E+00
      -5     1     1     2     0   503  2.353297583E+00  3.043568492E+01 -1.666073949E+02  1.694475006E+02  4.750000000E+00  0.00000E+00  9.000E+00
      21     1     1     2   512   502  2.570073424E+01 -1.660818000E+01 -2.514193378E+01  3.960399244E+01  4.768371582E-07  0.00000E+00  9.000E+00
#rwgt            1           9   2.3246522715416669E-002           6      988572           0
</event>
<event>
      6   9999  3.45752E-01  2.82476E+01 -1.00000E+00  1.49549E-01
      21    -1     0     0   511   503  0.000000000E+00  0.000000000E+00  2.139868326E+01  2.139868326E+01  0.000000000E+00  0.00000E+00  9.000E+00
      21    -1     0     0   501   502  0.000000000E+00  0.000000000E+00 -3.926829561E+03  3.926829561E+03  0.000000000E+00  0.00000E+00  9.000E+00
      25     1     1     2     0     0 -8.659755860E+01 -8.875899138E+01 -3.368138575E+03  3.372737746E+03  1.250005948E+02  0.00000E+00  9.000E+00
       5     1     1     2   501     0  2.382857296E+01  2.457743412E+00 -2.011579161E+01  3.163935783E+01  4.750000000E+00  0.00000E+00  9.000E+00
      -5     1     1     2     0   503  6.666856196E+01  1.142783683E+02 -4.748853016E+02  4.929937675E+02  4.750000000E+00  0.00000E+00  9.000E+00
      21     1     1     2   511   502 -3.899576321E+00 -2.797712037E+01 -4.229120985E+01  5.085737302E+01  4.768371582E-07  0.00000E+00  9.000E+00
#rwgt            1           9   8.0984727744470652E-007           6      991251           0
</event>
<event>
      6   9999  3.45752E-01  2.45601E+01 -1.00000E+00  1.53688E-01
      21    -1     0     0   512   502  0.000000000E+00  0.000000000E+00  8.951643864E+01  8.951643864E+01  0.000000000E+00  0.00000E+00  9.000E+00
      21    -1     0     0   502   503  0.000000000E+00  0.000000000E+00 -1.519661400E+03  1.519661400E+03  0.000000000E+00  0.00000E+00  9.000E+00
      25     1     1     2     0     0 -2.847613379E+01 -4.612743629E+01 -1.255917096E+03  1.263285571E+03  1.249962055E+02  0.00000E+00  9.000E+00
       5     1     1     2   501     0  6.852035738E-01 -3.447622284E+00  8.389640568E+00  1.026178212E+01  4.750000000E+00  0.00000E+00  9.000E+00
      -5     1     1     2     0   503  2.383524195E+01  2.533564739E+01 -2.559231272E+02  2.583200018E+02  4.750000000E+00  0.00000E+00  9.000E+00
      21     1     1     2   512   501  3.955688266E+00  2.423941118E+01  7.330562212E+01  7.731048285E+01  3.568322551E-06  0.00000E+00  9.000E+00
#rwgt            1           9   5.6631715585777557E-004           6      993324           0
</event>
<event>
      6   9999  3.45752E-01  7.32813E+00 -1.00000E+00  2.02635E-01
      21    -1     0     0   501   502  0.000000000E+00  0.000000000E+00  5.665093149E+01  5.665093149E+01  0.000000000E+00  0.00000E+00  9.000E+00
      21    -1     0     0   511   503  0.000000000E+00  0.000000000E+00 -6.625476956E+02  6.625476956E+02  0.000000000E+00  0.00000E+00  9.000E+00
      25     1     1     2     0     0 -1.548554595E+01  8.626640626E+01 -4.298728940E+02  4.561769432E+02  1.250000143E+02  0.00000E+00  9.000E+00
       5     1     1     2   501     0  6.393076121E+00 -1.140285159E+00  2.824848275E+01  2.937194154E+01  4.750000000E+00  0.00000E+00  9.000E+00
      -5     1     1     2     0   503  1.639293494E+01 -8.448993775E+01 -1.131933272E+02  1.422763850E+02  4.750000000E+00  0.00000E+00  9.000E+00
      21     1     1     2   511   502 -7.300465117E+00 -6.361833569E-01 -9.107902565E+01  9.137335735E+01  1.348699152E-06  0.00000E+00  9.000E+00
#rwgt            1           9   5.6314779311105612E-003           6      995169           0
</event>
<event>
      6   9999  3.45752E-01  7.17481E+00 -1.00000E+00  2.03783E-01
      21    -1     0     0   501   512  0.000000000E+00  0.000000000E+00  2.270066013E+01  2.270066013E+01  0.000000000E+00  0.00000E+00  9.000E+00
      21    -1     0     0   502   503  0.000000000E+00  0.000000000E+00 -8.124559991E+02  8.124559991E+02  0.000000000E+00  0.00000E+00  9.000E+00
      25     1     1     2     0     0  3.463582213E+00 -1.430228646E+01 -5.188971306E+02  5.339439419E+02  1.250013967E+02  0.00000E+00  9.000E+00
       5     1     1     2   501     0  3.195440158E-01 -8.261686898E-01  1.659916689E+00  5.109059258E+00  4.750000000E+00  0.00000E+00  9.000E+00
      -5     1     1     2     0   503 -3.035621662E+00  7.992691181E+00 -2.831272760E+02  2.832961614E+02  4.750000000E+00  0.00000E+00  9.000E+00
      21     1     1     2   502   512 -7.475045669E-01  7.135763970E+00  1.060915090E+01  1.280749676E+01  8.678567278E-07  0.00000E+00  9.000E+00
#rwgt            1           9   1.4601859266741189E-003           6      999278           0
</event>
<event>
      6   9999  3.45752E-01  2.55313E+01 -1.00000E+00  1.52517E-01
      21    -1     0     0   511   502  0.000000000E+00  0.000000000E+00  5.380910737E+01  5.380910737E+01  0.000000000E+00  0.00000E+00  9.000E+00
      21    -1     0     0   502   503  0.000000000E+00  0.000000000E+00 -1.173083980E+03  1.173083980E+03  0.000000000E+00  0.00000E+00  9.000E+00
      25     1     1     2     0     0  1.329687650E+01 -3.700280053E+01 -8.098024791E+02  8.203356781E+02  1.249982217E+02  0.00000E+00  9.000E+00
       5     1     1     2   501     0  1.091627218E+00 -5.606793220E+00  2.694362797E+01  2.794904951E+01  4.750000000E+00  0.00000E+00  9.000E+00
      -5     1     1     2     0   503 -1.462116784E+01  1.707934924E+01 -3.492691527E+02  3.500242652E+02  4.750000000E+00  0.00000E+00  9.000E+00
      21     1     1     2   511   501  2.326641179E-01  2.553024450E+01  1.285313075E+01  2.858409500E+01  1.526623782E-06  0.00000E+00  9.000E+00
#rwgt            1           9   9.0822777674075012E-004           6     1002603           0
</event>
<event>
      6   9999  3.45752E-01  6.80692E+00 -1.00000E+00  2.06699E-01
      21    -1     0     0   501   502  0.000000000E+00  0.000000000E+00  6.686495343E+00  6.686495343E+00  0.000000000E+00  0.00000E+00  9.000E+00
      21    -1     0     0   502   512  0.000000000E+00  0.000000000E+00 -8.213837623E+02  8.213837623E+02  0.000000000E+00  0.00000E+00  9.000E+00
      25     1     1     2     0     0 -8.796859867E+00 -7.469597196E+00 -6.810630000E+02  6.925344442E+02  1.249958674E+02  0.00000E+00  9.000E+00
       5     1     1     2   501     0 -1.219098569E-01 -3.141611509E-01 -1.107063490E+01  1.205134915E+01  4.750000000E+00  0.00000E+00  9.000E+00
      -5     1     1     2     0   503  4.104092878E+00  2.971994169E+00 -3.669868831E+01  3.735013455E+01  4.750000000E+00  0.00000E+00  9.000E+00
      21     1     1     2   503   512  4.814676845E+00  4.811764178E+00 -8.586494373E+01  8.613432968E+01  9.536743164E-07  0.00000E+00  9.000E+00
#rwgt            1           9   3.8294175583811134E-003           6     1004619           0
</event>
<event>
      6   9999  3.45752E-01  1.04048E+01 -1.00000E+00  1.85396E-01
      21    -1     0     0   511   502  0.000000000E+00  0.000000000E+00  1.044969172E+01  1.044969172E+01  0.000000000E+00  0.00000E+00  9.000E+00
      21    -1     0     0   502   503  0.000000000E+00  0.000000000E+00 -4.834196245E+03  4.834196245E+03  0.000000000E+00  0.00000E+00  9.000E+00
      25     1     1     2     0     0 -5.059833740E+01 -4.197591383E+01 -3.608069042E+03  3.610832134E+03  1.249972893E+02  0.00000E+00  9.000E+00
       5     1     1     2   501     0  2.351744502E+01 -5.594302344E+00 -2.772912135E+01  3.709222439E+01  4.750000000E+00  0.00000E+00  9.000E+00
      -5     1     1     2     0   503  3.491189847E+01  5.442121468E+01 -1.183714097E+03  1.185488142E+03  4.750000000E+00  0.00000E+00  9.000E+00
      21     1     1     2   511   501 -7.831006100E+00 -6.850998506E+00 -4.234292615E+00  1.123343541E+01  6.019774043E-07  0.00000E+00  9.000E+00
#rwgt            1           9   3.1416233535481639E-004           6     1007470           0
</event>
<event>
      6   9999  3.45752E-01  1.67488E+01 -1.00000E+00  1.66323E-01
      21    -1     0     0   501   502  0.000000000E+00  0.000000000E+00  1.469120412E+01  1.469120412E+01  0.000000000E+00  0.00000E+00  9.000E+00
      21    -1     0     0   502   512  0.000000000E+00  0.000000000E+00 -1.058390715E+03  1.058390715E+03  0.000000000E+00  0.00000E+00  9.000E+00
      25     1     1     2     0     0  1.709025350E+01  2.817809424E+01 -6.470487995E+02  6.598352705E+02  1.249974143E+02  0.00000E+00  9.000E+00
       5     1     1     2   501     0 -4.488989911E-01  1.254978535E+00  6.293726170E+00  7.996872547E+00  4.750000000E+00  0.00000E+00  9.000E+00
      -5     1     1     2     0   503 -2.200687140E+01 -1.356698495E+01 -2.305217175E+02  2.320154956E+02  4.750000000E+00  0.00000E+00  9.000E+00
      21     1     1     2   503   512  5.365516897E+00 -1.586608783E+01 -1.724227205E+02  1.732342809E+02  2.697398305E-06  0.00000E+00  9.000E+00
#rwgt            1           9   5.8781904929394474E-004           6     1010471           0
</event>
<event>
      6   9999  3.45752E-01  1.09092E+02 -1.00000E+00  1.18851E-01
      21    -1     0     0   501   511  0.000000000E+00  0.000000000E+00  1.266990795E+02  1.266990795E+02  0.000000000E+00  0.00000E+00  9.000E+00
      21    -1     0     0   502   503  0.000000000E+00  0.000000000E+00 -1.826489598E+03  1.826489598E+03  0.000000000E+00  0.00000E+00  9.000E+00
      25     1     1     2     0     0  3.572506164E+02  1.975520705E+02 -1.178561375E+03  1.253509698E+03  1.249992971E+02  0.00000E+00  9.000E+00
       5     1     1     2   501     0 -2.828934502E+02 -1.452785062E+02 -3.352439752E+02  4.621099804E+02  4.750000000E+00  0.00000E+00  9.000E+00
      -5     1     1     2     0   503  2.767041087E+01 -1.365464499E+01 -7.824154946E+01  8.424015391E+01  4.750000000E+00  0.00000E+00  9.000E+00
      21     1     1     2   502   511 -1.020275771E+02 -3.861891937E+01 -1.077436184E+02  1.533288451E+02  2.336015456E-06  0.00000E+00  9.000E+00
#rwgt            1           9   2.1474073541240108E-004           6     1013195           0
</event>
<event>
      6   9999 -3.45752E-01  6.44743E+00 -1.00000E+00  2.09798E-01
      21    -1     0     0   501   512  0.000000000E+00  0.000000000E+00  8.838720110E+00  8.838720110E+00  0.000000000E+00  0.00000E+00  9.000E+00
      21    -1     0     0   502   503  0.000000000E+00  0.000000000E+00 -4.039332795E+03  4.039332795E+03  0.000000000E+00  0.00000E+00  9.000E+00
      25     1     1     2     0     0  1.771588102E+01 -1.127831018E+01 -3.884805742E+03  3.886873039E+03  1.250012671E+02  0.00000E+00  9.000E+00
       5     1     1     2   501     0  1.295792458E+00  2.708954580E+00 -7.030026496E+00  9.000071419E+00  4.750000000E+00  0.00000E+00  9.000E+00
      -5     1     1     2     0   503 -1.623588708E+01  1.438866739E+01 -1.428774955E+02  1.445931499E+02  4.750000000E+00  0.00000E+00  9.000E+00
      21     1     1     2   502   512 -2.775786400E+00 -5.819311793E+00  4.219189620E+00  7.705254112E+00  6.078504936E-07  0.00000E+00  9.000E+00
#rwgt            1           9  -3.2446731555606650E-003           6     1014228           0
</event>
<event>
      6   9999  3.45752E-01  1.76686E+01 -1.00000E+00  1.64431E-01
      21    -1     0     0   511   503  0.000000000E+00  0.000000000E+00  1.513418093E+03  1.513418093E+03  0.000000000E+00  0.00000E+00  9.000E+00
      21    -1     0     0   501   502  0.000000000E+00  0.000000000E+00 -7.084403081E+02  7.084403081E+02  0.000000000E+00  0.00000E+00  9.000E+00
      25     1     1     2     0     0 -1.659700111E+01  5.106538826E+00 -5.720440964E+02  5.858012822E+02  1.250086271E+02  0.00000E+00  9.000E+00
       5     1     1     2   501     0  1.597848559E-01  3.288337599E-02 -1.047897881E+02  1.048975157E+02  4.750000000E+00  0.00000E+00  9.000E+00
      -5     1     1     2     0   503 -5.417185209E-01 -2.510863711E-01 -2.438944574E+01  2.485486002E+01  4.750000000E+00  0.00000E+00  9.000E+00
      21     1     1     2   511   502  1.697893477E+01 -4.888335830E+00  1.506201115E+03  1.506304743E+03  2.157918644E-05  0.00000E+00  9.000E+00
#rwgt            1           9   2.2933669107492308E-005           6     1017711           0
</event>
<event>
      6   9999  3.45752E-01  6.78840E+00 -1.00000E+00  2.06852E-01
      21    -1     0     0   502   503  0.000000000E+00  0.000000000E+00  7.338664691E+01  7.338664691E+01  0.000000000E+00  0.00000E+00  9.000E+00
       1    -1     0     0   501     0  0.000000000E+00  0.000000000E+00 -7.716796919E+02  7.716796919E+02  0.000000000E+00  0.00000E+00  9.000E+00
      25     1     1     2     0     0  1.196647992E+00 -1.226132695E+01 -9.562214680E+01  1.578595364E+02  1.249970646E+02  0.00000E+00  9.000E+00
       5     1     1     2   501     0  1.579998838E-01  8.890754792E-02  8.072601471E+00  9.368151527E+00  4.750000000E+00  0.00000E+00  9.000E+00
      -5     1     1     2     0   503 -4.180846813E+00  6.000311923E+00  3.296267577E+01  3.409668191E+01  4.750000000E+00  0.00000E+00  9.000E+00
       1     1     1     2   502     0  2.826198937E+00  6.172107480E+00 -6.437061754E+02  6.437419689E+02  0.000000000E+00  0.00000E+00  9.000E+00
#rwgt            1           9   3.2748918929445211E-005           6     1018853           0
</event>
<event>
      6   9999 -3.45752E-01  1.56197E+01 -1.00000E+00  1.68862E-01
      21    -1     0     0   501   511  0.000000000E+00  0.000000000E+00  3.733221582E+02  3.733221582E+02  0.000000000E+00  0.00000E+00  9.000E+00
      21    -1     0     0   502   503  0.000000000E+00  0.000000000E+00 -3.936709938E+02  3.936709938E+02  0.000000000E+00  0.00000E+00  9.000E+00
      25     1     1     2     0     0  3.555039745E+01  2.015831729E+01 -3.518719234E+02  3.756455918E+02  1.250022866E+02  0.00000E+00  9.000E+00
       5     1     1     2   501     0 -3.305035636E+00 -4.398540262E+00  2.547883505E+01  2.649535719E+01  4.750000000E+00  0.00000E+00  9.000E+00
      -5     1     1     2     0   503 -3.146186670E+01 -3.135982634E+01 -1.213188172E+01  4.629290246E+01  4.750000000E+00  0.00000E+00  9.000E+00
      21     1     1     2   502   511 -7.834951153E-01  1.560004931E+01  3.181761344E+02  3.185593005E+02  0.000000000E+00  0.00000E+00  9.000E+00
#rwgt            1           9  -5.6176539548989960E-004           6     1022471           0
</event>
<event>
      6   9999  3.45752E-01  2.88345E+00 -1.00000E+00  2.81491E-01
      21    -1     0     0   501   502  0.000000000E+00  0.000000000E+00  3.254773093E+02  3.254773093E+02  0.000000000E+00  0.00000E+00  9.000E+00
      21    -1     0     0   502   512  0.000000000E+00  0.000000000E+00 -2.671823077E+01  2.671823077E+01  0.000000000E+00  0.00000E+00  9.000E+00
      25     1     1     2     0     0  1.940996854E+00  2.115041137E+00  2.570323517E+02  2.858274119E+02  1.249937546E+02  0.00000E+00  9.000E+00
       5     1     1     2   501     0  7.658077567E-01 -2.332127087E-01  4.874450665E+01  4.898193829E+01  4.750000000E+00  0.00000E+00  9.000E+00
      -5     1     1     2     0   503 -1.865571154E-01 -3.282776512E+00  3.313670941E+00  6.659905427E+00  4.750000000E+00  0.00000E+00  9.000E+00
      21     1     1     2   503   512 -2.520247495E+00  1.400948084E+00 -1.033145078E+01  1.072628445E+01  2.920019320E-07  0.00000E+00  9.000E+00
#rwgt            1           9   25.664275763491613                6     1024505           0
</event>
<event>
      6   9999  3.45752E-01  1.68517E+01 -1.00000E+00  1.66104E-01
      21    -1     0     0   501   511  0.000000000E+00  0.000000000E+00  1.483226588E+02  1.483226588E+02  0.000000000E+00  0.00000E+00  9.000E+00
      21    -1     0     0   502   503  0.000000000E+00  0.000000000E+00 -7.731788902E+01  7.731788902E+01  0.000000000E+00  0.00000E+00  9.000E+00
      25     1     1     2     0     0 -3.041731953E+00 -2.961629835E+01 -1.042543587E+01  1.289210955E+02  1.250023276E+02  0.00000E+00  9.000E+00
       5     1     1     2   501     0 -1.655972613E+00 -3.212066074E+00  4.227729659E+01  4.269650947E+01  4.750000000E+00  0.00000E+00  9.000E+00
      -5     1     1     2     0   503  2.377458905E+00  1.613718267E+01  3.089206928E+01  3.525540270E+01  4.750000000E+00  0.00000E+00  9.000E+00
      21     1     1     2   502   511  2.320245661E+00  1.669118175E+01  8.260839772E+00  1.876754012E+01  2.384185791E-07  0.00000E+00  9.000E+00
#rwgt            1           9   2.4478281400850022                6     1029770           0
</event>
<event>
      6   9999  3.45752E-01  8.10634E+01 -1.00000E+00  1.24441E-01
      21    -1     0     0   512   502  0.000000000E+00  0.000000000E+00  8.316509549E+02  8.316509549E+02  0.000000000E+00  0.00000E+00  9.000E+00
      21    -1     0     0   502   503  0.000000000E+00  0.000000000E+00 -3.430850731E+02  3.430850731E+02  0.000000000E+00  0.00000E+00  9.000E+00
      25     1     1     2     0     0  2.188406096E+01 -9.963167525E+01 -2.742958845E+02  3.182276937E+02  1.250009998E+02  0.00000E+00  9.000E+00
       5     1     1     2   501     0  6.642987034E+00  2.013341740E+01  1.192972922E+02  1.212595984E+02  4.750000000E+00  0.00000E+00  9.000E+00
      -5     1     1     2     0   503  1.131333370E+01  1.500958130E+02  8.928863468E+01  1.750764615E+02  4.750000000E+00  0.00000E+00  9.000E+00
      21     1     1     2   512   501 -3.984038170E+01 -7.059755516E+01  5.542758394E+02  5.601722744E+02  0.000000000E+00  0.00000E+00  9.000E+00
#rwgt            1           9   6.1380885721834455E-003           6     1031458           0
</event>
<event>
      6   9999 -3.45752E-01  5.48153E+01 -1.00000E+00  1.32685E-01
      21    -1     0     0   511   502  0.000000000E+00  0.000000000E+00  4.386293204E+01  4.386293204E+01  0.000000000E+00  0.00000E+00  9.000E+00
      21    -1     0     0   502   503  0.000000000E+00  0.000000000E+00 -1.010875178E+03  1.010875178E+03  0.000000000E+00  0.00000E+00  9.000E+00
      25     1     1     2     0     0  1.344878348E+01 -5.774381276E+01 -2.451059895E+02  2.814522096E+02  1.249927297E+02  0.00000E+00  9.000E+00
       5     1     1     2   501     0  1.482345541E+00 -1.565049681E-01 -6.679533019E+01  6.698059777E+01  4.750000000E+00  0.00000E+00  9.000E+00
      -5     1     1     2     0   503 -1.334519736E+00  4.798063697E+00 -6.513229132E+02  6.513592727E+02  4.750000000E+00  0.00000E+00  9.000E+00
      21     1     1     2   511   501 -1.359660928E+01  5.310225403E+01 -3.788013006E+00  5.494602997E+01  1.550866584E-06  0.00000E+00  9.000E+00
#rwgt            1           9  -5.9741386727510512E-004           6     1032563           0
</event>
<event>
      6   9999  3.45752E-01  8.53337E+00 -1.00000E+00  1.94754E-01
      21    -1     0     0   501   502  0.000000000E+00  0.000000000E+00  3.401373870E+01  3.401373870E+01  0.000000000E+00  0.00000E+00  9.000E+00
      21    -1     0     0   502   512  0.000000000E+00  0.000000000E+00 -1.168819616E+03  1.168819616E+03  0.000000000E+00  0.00000E+00  9.000E+00
      25     1     1     2     0     0 -3.037149238E+00  1.223217341E+02 -5.951177502E+02  6.202911408E+02  1.249965272E+02  0.00000E+00  9.000E+00
       5     1     1     2   501     0  4.308872200E+00  1.794487057E+00  1.377800399E+01  1.530302119E+01  4.750000000E+00  0.00000E+00  9.000E+00
      -5     1     1     2     0   503 -1.735655956E+00 -1.155954679E+02 -5.150630467E+02  5.278994500E+02  4.750000000E+00  0.00000E+00  9.000E+00
      21     1     1     2   503   512  4.639329938E-01 -8.520753303E+00 -3.840308456E+01  3.933974294E+01  4.768371582E-07  0.00000E+00  9.000E+00
#rwgt            1           9   8.8105442827027947E-005           6     1033649           0
</event>
<event>
      6   9999  3.45752E-01  2.88356E+01 -1.00000E+00  1.48959E-01
      21    -1     0     0   501   502  0.000000000E+00  0.000000000E+00  7.118303359E+01  7.118303359E+01  0.000000000E+00  0.00000E+00  9.000E+00
      21    -1     0     0   502   511  0.000000000E+00  0.000000000E+00 -1.621822615E+03  1.621822615E+03  0.000000000E+00  0.00000E+00  9.000E+00
      25     1     1     2     0     0  4.348718928E+01  3.062718494E+01 -1.423665800E+03  1.430133070E+03  1.250085162E+02  0.00000E+00  9.000E+00
       5     1     1     2   501     0  4.098653942E+00 -3.337490723E+00  6.253596080E+01  6.293843581E+01  4.750000000E+00  0.00000E+00  9.000E+00
      -5     1     1     2     0   503 -1.937651822E+01 -2.131245409E+01 -5.395519881E+01  6.134652506E+01  4.750000000E+00  0.00000E+00  9.000E+00
      21     1     1     2   503   511 -2.820932500E+01 -5.977240126E+00 -1.355545435E+02  1.385876173E+02  1.907348633E-06  0.00000E+00  9.000E+00
#rwgt            1           9   2.2400304822974054E-005           6     1037177           0
</event>
<event>
      6   9999  3.45752E-01  2.91856E+01 -1.00000E+00  1.48615E-01
      21    -1     0     0   501   502  0.000000000E+00  0.000000000E+00  4.215035470E+01  4.215035470E+01  0.000000000E+00  0.00000E+00  9.000E+00
      21    -1     0     0   512   503  0.000000000E+00  0.000000000E+00 -2.070592378E+03  2.070592378E+03  0.000000000E+00  0.00000E+00  9.000E+00
      25     1     1     2     0     0  6.031451009E+01  1.087705257E+02 -6.407108980E+02  6.645354262E+02  1.250120416E+02  0.00000E+00  9.000E+00
       5     1     1     2   501     0  2.170908531E+00 -1.414164455E+00  2.513154325E+01  2.570738553E+01  4.750000000E+00  0.00000E+00  9.000E+00
      -5     1     1     2     0   503 -3.454787715E+01 -9.891297231E+01 -5.988920802E+02  6.080062649E+02  4.750000000E+00  0.00000E+00  9.000E+00
      21     1     1     2   512   502 -2.793754148E+01 -8.443388907E+00 -8.139705887E+02  8.144936563E+02  1.868812365E-05  0.00000E+00  9.000E+00
#rwgt            1           9   4.0551799640902136E-004           6     1039243           0
</event>
<event>
      6   9999  3.45752E-01  1.87866E+01 -1.00000E+00  1.62313E-01
      21    -1     0     0   501   502  0.000000000E+00  0.000000000E+00  2.573805030E+01  2.573805030E+01  0.000000000E+00  0.00000E+00  9.000E+00
       1    -1     0     0   502     0  0.000000000E+00  0.000000000E+00 -2.224347069E+03  2.224347069E+03  0.000000000E+00  0.00000E+00  9.000E+00
      25     1     1     2     0     0 -1.667397414E+00 -4.800080703E+01 -1.073532518E+03  1.081852026E+03  1.249995246E+02  0.00000E+00  9.000E+00
       5     1     1     2   501     0 -2.183750382E+00  1.937242307E+00  1.999433488E+01  2.075710965E+01  4.750000000E+00  0.00000E+00  9.000E+00
      -5     1     1     2     0   503 -1.485789164E+01  4.435805144E+01 -5.196395855E+02  5.217626424E+02  4.750000000E+00  0.00000E+00  9.000E+00
       1     1     1     2   503     0  1.870903943E+01  1.705513276E+00 -6.254312505E+02  6.257133417E+02  7.629394531E-06  0.00000E+00  9.000E+00
#rwgt            1           9   2.9383924699316887E-004           6     1041277           0
</event>
<event>
      6   9999 -3.45752E-01  1.27612E+01 -1.00000E+00  1.76689E-01
      21    -1     0     0   511   503  0.000000000E+00  0.000000000E+00  2.333905551E+01  2.333905551E+01  0.000000000E+00  0.00000E+00  9.000E+00
      21    -1     0     0   501   502  0.000000000E+00  0.000000000E+00 -1.061737850E+03  1.061737850E+03  0.000000000E+00  0.00000E+00  9.000E+00
      25     1     1     2     0     0  7.290873318E+00  3.545320452E+00 -1.032228445E+03  1.039801979E+03  1.250074638E+02  0.00000E+00  9.000E+00
       5     1     1     2   501     0  2.081264447E+00  4.350951104E+00  5.813655903E+00  8.923201901E+00  4.750000000E+00  0.00000E+00  9.000E+00
      -5     1     1     2     0   503 -3.426359763E+00  3.395138613E+00  9.319345040E+00  1.151866309E+01  4.750000000E+00  0.00000E+00  9.000E+00
      21     1     1     2   511   502 -5.945778002E+00 -1.129141017E+01 -2.130335003E+01  2.483306147E+01  3.371747881E-07  0.00000E+00  9.000E+00
#rwgt            1           9  -2.1797235592827898E-005           6     1043542           0
</event>
<event>
      6   9999 -3.45752E-01  4.73913E+00 -1.00000E+00  2.33533E-01
      21    -1     0     0   501   502  0.000000000E+00  0.000000000E+00  4.614842874E+01  4.614842874E+01  0.000000000E+00  0.00000E+00  9.000E+00
      21    -1     0     0   512   503  0.000000000E+00  0.000000000E+00 -3.058998852E+02  3.058998852E+02  0.000000000E+00  0.00000E+00  9.000E+00
      25     1     1     2     0     0  3.905237832E+00  9.395791988E+00 -2.379611301E+02  2.689883845E+02  1.250028790E+02  0.00000E+00  9.000E+00
       5     1     1     2   501     0 -3.244929126E+00 -2.380216357E+00  2.885551991E+01  2.951946010E+01  4.750000000E+00  0.00000E+00  9.000E+00
      -5     1     1     2     0   503  6.608387717E-01 -1.156683318E+01 -3.923400407E+01  4.118370931E+01  4.750000000E+00  0.00000E+00  9.000E+00
      21     1     1     2   512   502 -1.321147477E+00  4.551257552E+00 -1.141184213E+01  1.235675996E+01  0.000000000E+00  0.00000E+00  9.000E+00
#rwgt            1           9  -1.6596068472035561E-003           6     1046296           0
</event>
<event>
      6   9999  3.45752E-01  5.37106E+01 -1.00000E+00  1.33145E-01
      21    -1     0     0   502   503  0.000000000E+00  0.000000000E+00  6.227428633E+01  6.227428633E+01  0.000000000E+00  0.00000E+00  9.000E+00
      21    -1     0     0   511   502  0.000000000E+00  0.000000000E+00 -1.550725603E+03  1.550725603E+03  0.000000000E+00  0.00000E+00  9.000E+00
      25     1     1     2     0     0  7.601938062E+01 -7.082847876E+01 -8.082880394E+01  1.815371856E+02  1.250073380E+02  0.00000E+00  9.000E+00
       5     1     1     2   501     0 -3.927067037E+01  5.294767642E+01 -1.253711544E+03  1.255452445E+03  4.750000000E+00  0.00000E+00  9.000E+00
      -5     1     1     2     0   503  3.191291812E+00 -1.803052191E+01 -8.020493314E+00  2.054689458E+01  4.750000000E+00  0.00000E+00  9.000E+00
      21     1     1     2   511   501 -3.994000207E+01  3.591132425E+01 -1.458904749E+02  1.554633643E+02  0.000000000E+00  0.00000E+00  9.000E+00
#rwgt            1           9   4.3987829574077496E-004           6     1050799           0
</event>
<event>
      6   9999  3.45752E-01  9.58526E+00 -1.00000E+00  1.89152E-01
      21    -1     0     0   501   502  0.000000000E+00  0.000000000E+00  7.677852597E+00  7.677852597E+00  0.000000000E+00  0.00000E+00  9.000E+00
      21    -1     0     0   512   503  0.000000000E+00  0.000000000E+00 -9.802379212E+02  9.802379212E+02  0.000000000E+00  0.00000E+00  9.000E+00
      25     1     1     2     0     0 -4.853096559E+00  1.323791364E+00 -6.367899133E+02  6.489621396E+02  1.250006397E+02  0.00000E+00  9.000E+00
       5     1     1     2   501     0 -9.375863981E-01 -4.109348814E-01 -4.432145419E+00  6.576803840E+00  4.750000000E+00  0.00000E+00  9.000E+00
      -5     1     1     2     0   503 -3.575110962E+00 -2.952255578E+00 -2.432965186E+01  2.521887569E+01  4.750000000E+00  0.00000E+00  9.000E+00
      21     1     1     2   512   502  9.365793919E+00  2.039399095E+00 -3.070083580E+02  3.071579547E+02  0.000000000E+00  0.00000E+00  9.000E+00
#rwgt            1           9   8.6294110559357665E-003           6     1052252           0
</event>
<event>
      6   9999  3.45752E-01  5.02410E+00 -1.00000E+00  2.25392E-01
      21    -1     0     0   501   502  0.000000000E+00  0.000000000E+00  1.951794989E+01  1.951794989E+01  0.000000000E+00  0.00000E+00  9.000E+00
       1    -1     0     0   502     0  0.000000000E+00  0.000000000E+00 -2.010853439E+03  2.010853439E+03  0.000000000E+00  0.00000E+00  9.000E+00
      25     1     1     2     0     0 -1.228179905E+01  1.603158448E+01 -6.213081366E+02  6.340793556E+02  1.249998970E+02  0.00000E+00  9.000E+00
       5     1     1     2   501     0 -6.002108745E-02 -9.211853153E-01  1.238386729E+01  1.329567049E+01  4.750000000E+00  0.00000E+00  9.000E+00
      -5     1     1     2     0   503  1.573049269E+01 -1.140116225E+01 -3.487923206E+02  3.493652534E+02  4.750000000E+00  0.00000E+00  9.000E+00
       1     1     1     2   503     0 -3.388672554E+00 -3.709236918E+00 -1.033618899E+03  1.033631109E+03  0.000000000E+00  0.00000E+00  9.000E+00
#rwgt            1           9   8.7314775825468645E-005           6     1054362           0
</event>
<event>
      6   9999  3.45752E-01  2.83875E+00 -1.00000E+00  2.83341E-01
      21    -1     0     0   511   502  0.000000000E+00  0.000000000E+00  5.093887314E+01  5.093887314E+01  0.000000000E+00  0.00000E+00  9.000E+00
      21    -1     0     0   502   503  0.000000000E+00  0.000000000E+00 -1.650498748E+03  1.650498748E+03  0.000000000E+00  0.00000E+00  9.000E+00
      25     1     1     2     0     0  5.164418206E+00 -1.998080102E-01 -1.607439362E+03  1.612300551E+03  1.250002123E+02  0.00000E+00  9.000E+00
       5     1     1     2   501     0 -5.097859056E+00 -6.151255845E-01  4.496546591E+00  8.315526303E+00  4.750000000E+00  0.00000E+00  9.000E+00
      -5     1     1     2     0   503 -6.390358283E-01 -1.965488985E+00 -3.849777842E+01  3.884472882E+01  4.750000000E+00  0.00000E+00  9.000E+00
      21     1     1     2   511   501  5.724766790E-01  2.780422580E+00  4.188071837E+01  4.197681563E+01  1.168007728E-06  0.00000E+00  9.000E+00
#rwgt            1           9   4.9183714803653872E-006           6     1059139           0
</event>
<event>
      6   9999  3.45752E-01  2.05983E+01 -1.00000E+00  1.59239E-01
      21    -1     0     0   502   512  0.000000000E+00  0.000000000E+00  6.333483441E+02  6.333483441E+02  0.000000000E+00  0.00000E+00  9.000E+00
      21    -1     0     0   501   502  0.000000000E+00  0.000000000E+00 -7.402362048E+02  7.402362048E+02  0.000000000E+00  0.00000E+00  9.000E+00
      25     1     1     2     0     0  4.650229944E-01  1.480467774E+01 -5.203979911E+02  5.354048839E+02  1.249997033E+02  0.00000E+00  9.000E+00
       5     1     1     2   501     0  1.487658410E+01 -4.272193926E-01 -1.875772343E+02  1.882266628E+02  4.750000000E+00  0.00000E+00  9.000E+00
      -5     1     1     2     0   503 -5.863183655E-01 -4.839246039E-03 -2.402716047E+01  2.449919862E+01  4.750000000E+00  0.00000E+00  9.000E+00
      21     1     1     2   503   512 -1.475528873E+01 -1.437261910E+01  6.251145252E+02  6.254538036E+02  7.629394531E-06  0.00000E+00  9.000E+00
#rwgt            1           9   8.9952227190240308E-004           6     1066491           0
</event>
<event>
      6   9999  3.45752E-01  1.31447E+01 -1.00000E+00  1.75495E-01
      21    -1     0     0   511   502  0.000000000E+00  0.000000000E+00  6.316629816E+01  6.316629816E+01  0.000000000E+00  0.00000E+00  9.000E+00
       2    -1     0     0   501     0  0.000000000E+00  0.000000000E+00 -5.670503754E+03  5.670503754E+03  0.000000000E+00  0.00000E+00  9.000E+00
      25     1     1     2     0     0  5.587145186E+01  2.515822604E+02 -3.860729785E+03  3.871340179E+03  1.250002216E+02  0.00000E+00  9.000E+00
       5     1     1     2   501     0  1.451006872E+01 -3.296799796E+01 -3.907255657E+02  3.924110870E+02  4.750000000E+00  0.00000E+00  9.000E+00
      -5     1     1     2     0   502 -6.574499751E+01 -2.063144215E+02 -1.403708077E+03  1.420319321E+03  4.750000000E+00  0.00000E+00  9.000E+00
       2     1     1     2   511     0 -4.636523065E+00 -1.229984092E+01  4.782597161E+01  4.959946566E+01  4.523674479E-06  0.00000E+00  9.000E+00
#rwgt            1           3   1.5910499257404738E-002           6     1067963           0
</event>
<event>
      6   9999  3.45752E-01  1.11855E+01 -1.00000E+00  1.82210E-01
      21    -1     0     0   512   502  0.000000000E+00  0.000000000E+00  1.238724770E+03  1.238724770E+03  0.000000000E+00  0.00000E+00  9.000E+00
      21    -1     0     0   502   503  0.000000000E+00  0.000000000E+00 -5.110373725E+01  5.110373725E+01  0.000000000E+00  0.00000E+00  9.000E+00
      25     1     1     2     0     0  6.933232968E+00 -1.512015088E+00  2.885312000E+01  1.284826191E+02  1.249996999E+02  0.00000E+00  9.000E+00
       5     1     1     2   501     0  8.044304310E+00 -2.911400380E+00  5.812237457E+02  5.813061088E+02  4.750000000E+00  0.00000E+00  9.000E+00
      -5     1     1     2     0   503 -3.931268568E+00  6.182750837E+00  1.479541948E+01  1.717987829E+01  4.750000000E+00  0.00000E+00  9.000E+00
      21     1     1     2   512   501 -1.104626871E+01 -1.759335369E+00  5.627487471E+02  5.628599006E+02  1.321449896E-05  0.00000E+00  9.000E+00
#rwgt            1           9   1.8605332315250766E-003           6     1073729           0
</event>
<event>
      6   9999  3.45752E-01  4.45238E+00 -1.00000E+00  2.38597E-01
      21    -1     0     0   501   511  0.000000000E+00  0.000000000E+00  1.275193357E+01  1.275193357E+01  0.000000000E+00  0.00000E+00  9.000E+00
      21    -1     0     0   502   503  0.000000000E+00  0.000000000E+00 -7.783607506E+02  7.783607506E+02  0.000000000E+00  0.00000E+00  9.000E+00
      25     1     1     2     0     0  5.155378803E+00  2.569501895E+00 -7.442510205E+02  7.546971161E+02  1.249999010E+02  0.00000E+00  9.000E+00
       5     1     1     2   501     0  2.940325593E+00 -2.039535007E+00  5.170178345E+00  7.880257721E+00  4.750000000E+00  0.00000E+00  9.000E+00
      -5     1     1     2     0   503 -3.655842055E+00 -8.636178543E-01 -1.484684956E+01  1.603441482E+01  4.750000000E+00  0.00000E+00  9.000E+00
      21     1     1     2   502   511 -4.439862342E+00  3.336509666E-01 -1.168112533E+01  1.250089555E+01  1.685873940E-07  0.00000E+00  9.000E+00
#rwgt            1           9   1.2892471178847158E-004           6     1077645           0
</event>
<event>
      6   9999  3.45752E-01  1.39966E+01 -1.00000E+00  1.73019E-01
      21    -1     0     0   501   512  0.000000000E+00  0.000000000E+00  1.689339606E+01  1.689339606E+01  0.000000000E+00  0.00000E+00  9.000E+00
      21    -1     0     0   502   503  0.000000000E+00  0.000000000E+00 -9.252842128E+02  9.252842128E+02  0.000000000E+00  0.00000E+00  9.000E+00
      25     1     1     2     0     0  1.757516643E+00 -1.982428879E+00 -5.479077273E+02  5.619919810E+02  1.250003611E+02  0.00000E+00  9.000E+00
       5     1     1     2   501     0  1.374881644E+00  1.629724822E+00  6.958663692E+00  8.690903457E+00  4.750000000E+00  0.00000E+00  9.000E+00
      -5     1     1     2     0   503  1.073500559E+01 -1.544833863E+00 -3.439189291E+02  3.441226804E+02  4.750000000E+00  0.00000E+00  9.000E+00
      21     1     1     2   502   512 -1.386740388E+01  1.897537920E+00 -2.352282413E+01  2.737204406E+01  5.840038640E-07  0.00000E+00  9.000E+00
#rwgt            1           9   5.2359937039587784E-004           6     1081881           0
</event>
<event>
      6   9999  3.45752E-01  5.56650E+00 -1.00000E+00  2.18697E-01
      21    -1     0     0   501   511  0.000000000E+00  0.000000000E+00  1.667671868E+02  1.667671868E+02  0.000000000E+00  0.00000E+00  9.000E+00
      21    -1     0     0   502   503  0.000000000E+00  0.000000000E+00 -1.025319262E+02  1.025319262E+02  0.000000000E+00  0.00000E+00  9.000E+00
      25     1     1     2     0     0 -1.625356383E+01  3.567581588E+01 -4.835212641E+01  1.396410847E+02  1.249990489E+02  0.00000E+00  9.000E+00
       5     1     1     2   501     0  6.241884579E-01 -5.002395156E-01  6.185748047E+01  6.204474387E+01  4.750000000E+00  0.00000E+00  9.000E+00
      -5     1     1     2     0   503  2.005078006E+01 -3.179370392E+01  4.866918149E+01  6.167759007E+01  4.750000000E+00  0.00000E+00  9.000E+00
      21     1     1     2   502   511 -4.421404684E+00 -3.381872450E+00  2.060725025E+00  5.935694422E+00  1.519626234E-07  0.00000E+00  9.000E+00
#rwgt            1           9   1.6154730248844321E-003           6     1083988           0
</event>
<event>
      6   9999  3.45752E-01  9.00767E+00 -1.00000E+00  1.92105E-01
      21    -1     0     0   501   502  0.000000000E+00  0.000000000E+00  1.027642396E+01  1.027642396E+01  0.000000000E+00  0.00000E+00  9.000E+00
      21    -1     0     0   512   503  0.000000000E+00  0.000000000E+00 -1.179973529E+03  1.179973529E+03  0.000000000E+00  0.00000E+00  9.000E+00
      25     1     1     2     0     0 -2.597840734E+00 -1.145339453E+01 -6.981571739E+02  7.093579208E+02  1.250091645E+02  0.00000E+00  9.000E+00
       5     1     1     2   501     0  3.695822614E+00 -1.465021327E+00  1.879248499E+00  6.472979777E+00  4.750000000E+00  0.00000E+00  9.000E+00
      -5     1     1     2     0   503  7.079436436E+00  9.141131945E+00 -8.684373979E+01  8.773868220E+01  4.750000000E+00  0.00000E+00  9.000E+00
      21     1     1     2   512   502 -8.177418316E+00  3.777283913E+00 -3.865754399E+02  3.866803703E+02  0.000000000E+00  0.00000E+00  9.000E+00
#rwgt            1           9   1.1738202948502979E-002           6     1088371           0
</event>
<event>
      6   9999 -3.45752E-01  4.14573E+00 -1.00000E+00  2.44677E-01
      21    -1     0     0   501   502  0.000000000E+00  0.000000000E+00  3.506887455E+01  3.506887455E+01  0.000000000E+00  0.00000E+00  9.000E+00
       2    -1     0     0   502     0  0.000000000E+00  0.000000000E+00 -1.662651649E+03  1.662651649E+03  0.000000000E+00  0.00000E+00  9.000E+00
      25     1     1     2     0     0  7.463896643E+00  5.925776644E+01 -9.406585299E+02  9.504897803E+02  1.225771586E+02  0.00000E+00  9.000E+00
       5     1     1     2   501     0 -4.368104811E+00  2.323933577E+00  1.759984141E+01  1.888909539E+01  4.750000000E+00  0.00000E+00  9.000E+00
      -5     1     1     2     0   503  8.034863529E-01 -6.017361346E+01 -6.464077542E+01  8.844490768E+01  4.750000000E+00  0.00000E+00  9.000E+00
       2     1     1     2   503     0 -3.899278184E+00 -1.408086563E+00 -6.398833101E+02  6.398967398E+02  7.629394531E-06  0.00000E+00  9.000E+00
#rwgt            1           9  -9.0885685601323229E-004           6     1091050           0
</event>
<event>
      6   9999  3.45752E-01  2.08617E+01 -1.00000E+00  1.58825E-01
      21    -1     0     0   511   502  0.000000000E+00  0.000000000E+00  2.409796931E+02  2.409796931E+02  0.000000000E+00  0.00000E+00  9.000E+00
      21    -1     0     0   502   503  0.000000000E+00  0.000000000E+00 -2.424285783E+02  2.424285783E+02  0.000000000E+00  0.00000E+00  9.000E+00
      25     1     1     2     0     0 -4.574628657E+00  2.152165028E+01 -2.191069727E+02  2.532147271E+02  1.250028955E+02  0.00000E+00  9.000E+00
       5     1     1     2   501     0 -1.495529701E+00  1.718355971E+00  1.295689809E+02  1.296760296E+02  4.750000000E+00  0.00000E+00  9.000E+00
      -5     1     1     2     0   503 -2.136479325E-01 -3.347170596E+00 -3.362243052E+00  6.716872395E+00  4.750000000E+00  0.00000E+00  9.000E+00
      21     1     1     2   511   501  6.283806291E+00 -1.989283565E+01  9.145134971E+01  9.380064230E+01  0.000000000E+00  0.00000E+00  9.000E+00
#rwgt            1           9  0.99134943033936096                6     1096811           0
</event>
<event>
      6   9999  3.45752E-01  2.94614E+01 -1.00000E+00  1.48349E-01
      21    -1     0     0   501   502  0.000000000E+00  0.000000000E+00  2.863597254E+02  2.863597254E+02  0.000000000E+00  0.00000E+00  9.000E+00
      21    -1     0     0   512   503  0.000000000E+00  0.000000000E+00 -5.654227204E+02  5.654227204E+02  0.000000000E+00  0.00000E+00  9.000E+00
      25     1     1     2     0     0  1.650136601E+02  2.061738022E+02 -8.656266477E+01  3.047249713E+02  1.250082736E+02  0.00000E+00  9.000E+00
       5     1     1     2   501     0 -1.590269761E+00  2.838742089E+00  1.241119081E+02  1.242453849E+02  4.750000000E+00  0.00000E+00  9.000E+00
      -5     1     1     2     0   503 -1.340842957E+02 -2.116938353E+02 -2.872154404E+02  3.811930612E+02  4.750000000E+00  0.00000E+00  9.000E+00
      21     1     1     2   512   502 -2.933909463E+01  2.681290934E+00 -2.939679792E+01  4.161902837E+01  6.743495762E-07  0.00000E+00  9.000E+00
#rwgt            1           9   2.7064733064056587E-003           6     1098970           0
</event>
<event>
      6   9999  3.45752E-01  4.59814E+00 -1.00000E+00  2.35955E-01
      21    -1     0     0   501   511  0.000000000E+00  0.000000000E+00  5.565753699E+00  5.565753699E+00  0.000000000E+00  0.00000E+00  9.000E+00
      21    -1     0     0   502   503  0.000000000E+00  0.000000000E+00 -1.502029600E+03  1.502029600E+03  0.000000000E+00  0.00000E+00  9.000E+00
      25     1     1     2     0     0  4.961563603E+00  2.253008115E+00 -1.425694572E+03  1.431173574E+03  1.249923613E+02  0.00000E+00  9.000E+00
       5     1     1     2   501     0  1.831158729E-01 -6.631652468E-01 -2.252564084E+00  5.301873680E+00  4.750000000E+00  0.00000E+00  9.000E+00
      -5     1     1     2     0   503 -6.404844978E-01 -6.651145120E-01 -6.536833362E+01  6.554719016E+01  4.750000000E+00  0.00000E+00  9.000E+00
      21     1     1     2   502   511 -4.504194978E+00 -9.247283560E-01 -3.148376060E+00  5.572716281E+00  3.125693942E-07  0.00000E+00  9.000E+00
#rwgt            1           9   3.8794164367415207E-003           6     1101658           0
</event>
<event>
      6   9999  3.45752E-01  4.81419E+00 -1.00000E+00  2.32293E-01
      21    -1     0     0   512   502  0.000000000E+00  0.000000000E+00  1.216269704E+01  1.216269704E+01  0.000000000E+00  0.00000E+00  9.000E+00
      21    -1     0     0   502   503  0.000000000E+00  0.000000000E+00 -7.724262860E+02  7.724262860E+02  0.000000000E+00  0.00000E+00  9.000E+00
      25     1     1     2     0     0  5.506367767E+00 -1.658223322E+00 -6.804430875E+02  6.918522935E+02  1.249949234E+02  0.00000E+00  9.000E+00
       5     1     1     2   501     0  1.203337478E+00 -2.156751243E+00  1.434731552E+00  5.542612348E+00  4.750000000E+00  0.00000E+00  9.000E+00
      -5     1     1     2     0   503 -5.175730107E+00 -7.482809210E-01 -8.201638244E+01  8.232009229E+01  4.750000000E+00  0.00000E+00  9.000E+00
      21     1     1     2   512   501 -1.533975138E+00  4.563255486E+00  7.611494373E-01  4.873984902E+00  2.887520548E-07  0.00000E+00  9.000E+00
#rwgt            1           9   4.9917517540653330E-004           6     1105925           0
</event>
<event>
      6   9999  3.45752E-01  1.32021E+01 -1.00000E+00  1.75321E-01
      21    -1     0     0   501   502  0.000000000E+00  0.000000000E+00  3.384786112E+02  3.384786112E+02  0.000000000E+00  0.00000E+00  9.000E+00
      21    -1     0     0   511   503  0.000000000E+00  0.000000000E+00 -3.863220782E+01  3.863220782E+01  0.000000000E+00  0.00000E+00  9.000E+00
      25     1     1     2     0     0  1.725784981E+01 -8.526930970E+00  2.917961351E+02  3.180163503E+02  1.249754882E+02  0.00000E+00  9.000E+00
       5     1     1     2   501     0 -3.476794412E-01  5.739081052E-02  1.444773213E+01  1.521261445E+01  4.750000000E+00  0.00000E+00  9.000E+00
      -5     1     1     2     0   503 -2.949013675E+01  4.464435715E+00 -4.858857024E+00  3.059036357E+01  4.750000000E+00  0.00000E+00  9.000E+00
      21     1     1     2   511   502  1.257996638E+01  4.005104444E+00 -1.538606793E+00  1.329149076E+01  2.107342426E-07  0.00000E+00  9.000E+00
#rwgt            1           9   9.1965426926836401E-004           6     1109790           0
</event>
<event>
      6   9999  3.45752E-01  1.04314E+01 -1.00000E+00  1.85282E-01
      21    -1     0     0   512   502  0.000000000E+00  0.000000000E+00  7.371118059E+02  7.371118059E+02  0.000000000E+00  0.00000E+00  9.000E+00
      21    -1     0     0   502   503  0.000000000E+00  0.000000000E+00 -7.650021053E+00  7.650021053E+00  0.000000000E+00  0.00000E+00  9.000E+00
      25     1     1     2     0     0 -6.183149145E+00  3.287288875E+00  5.523413734E+02  5.663522430E+02  1.249993312E+02  0.00000E+00  9.000E+00
       5     1     1     2   501     0 -4.083691690E-01  4.136754576E-01  4.966449027E+01  4.989450858E+01  4.750000000E+00  0.00000E+00  9.000E+00
      -5     1     1     2     0   503 -2.961476438E+00  4.887672054E-01  3.185748851E+01  3.234920880E+01  4.750000000E+00  0.00000E+00  9.000E+00
      21     1     1     2   512   501  9.552994752E+00 -4.189731538E+00  9.559843270E+01  9.616586657E+01  0.000000000E+00  0.00000E+00  9.000E+00
#rwgt            1           9   9.3157538625616759E-004           6     1112477           0
</event>
<event>
      6   9999  3.45752E-01  9.75835E+00 -1.00000E+00  1.88320E-01
      -3    -1     0     0     0   502  0.000000000E+00  0.000000000E+00  3.860609420E+01  3.860609420E+01  0.000000000E+00  0.00000E+00  9.000E+00
      21    -1     0     0   502   503  0.000000000E+00  0.000000000E+00 -8.448715789E+02  8.448715789E+02  0.000000000E+00  0.00000E+00  9.000E+00
      25     1     1     2     0     0  7.370705969E+00 -1.391519582E+00 -7.730619167E+02  7.831386801E+02  1.250008064E+02  0.00000E+00  9.000E+00
       5     1     1     2   501     0  9.988743637E-01 -3.491682014E-01 -7.122209762E+00  8.626009524E+00  4.750000000E+00  0.00000E+00  9.000E+00
      -5     1     1     2     0   503  1.312893489E+00  5.261215881E-01 -5.806380881E+01  5.827494219E+01  4.750000000E+00  0.00000E+00  9.000E+00
      -3     1     1     2     0   501 -9.682473822E+00  1.214566195E+00  3.198245049E+01  3.343804136E+01  1.907348633E-06  0.00000E+00  9.000E+00
#rwgt            1           9   2.3867173400190238E-003           6     1114364           0
</event>
<event>
      6   9999  3.45752E-01  8.88981E+00 -1.00000E+00  1.92743E-01
      21    -1     0     0   511   502  0.000000000E+00  0.000000000E+00  2.103552687E+01  2.103552687E+01  0.000000000E+00  0.00000E+00  9.000E+00
      21    -1     0     0   502   503  0.000000000E+00  0.000000000E+00 -7.923099632E+02  7.923099632E+02  0.000000000E+00  0.00000E+00  9.000E+00
      25     1     1     2     0     0  3.276429192E+00 -2.084509322E+00 -7.559534075E+02  7.662284579E+02  1.250016607E+02  0.00000E+00  9.000E+00
       5     1     1     2   501     0 -2.803188698E+00 -8.153984693E-01  1.887082206E+00  5.886112537E+00  4.750000000E+00  0.00000E+00  9.000E+00
      -5     1     1     2     0   503 -6.011413066E+00 -4.054036436E+00 -2.679171995E+01  2.815903153E+01  4.750000000E+00  0.00000E+00  9.000E+00
      21     1     1     2   511   501  5.538172573E+00  6.953944228E+00  9.583608998E+00  1.307188805E+01  1.039242493E-06  0.00000E+00  9.000E+00
#rwgt            1           9   1.1973040395178207E-004           6     1116796           0
</event>
<event>
      6   9999 -3.45752E-01  7.93028E+00 -1.00000E+00  1.98466E-01
      21    -1     0     0   501   502  0.000000000E+00  0.000000000E+00  2.993562107E+02  2.993562107E+02  0.000000000E+00  0.00000E+00  9.000E+00
      21    -1     0     0   512   503  0.000000000E+00  0.000000000E+00 -3.952382195E+01  3.952382195E+01  0.000000000E+00  0.00000E+00  9.000E+00
      25     1     1     2     0     0  4.032229960E+00  1.839812487E+01  1.140196127E+02  1.702343842E+02  1.249980944E+02  0.00000E+00  9.000E+00
       5     1     1     2   501     0 -3.419501728E+00 -1.097529551E+00  1.230488300E+02  1.231928351E+02  4.750000000E+00  0.00000E+00  9.000E+00
      -5     1     1     2     0   503 -7.056047321E+00 -2.192368657E+01  2.752544815E+01  3.620288155E+01  4.750000000E+00  0.00000E+00  9.000E+00
      21     1     1     2   512   502  6.443319089E+00  4.623091251E+00 -4.761502166E+00  9.249931701E+00  2.731427965E-07  0.00000E+00  9.000E+00
#rwgt            1           9  -1.3170568447832709                6     1119703           0
</event>
<event>
      6   9999  3.45752E-01  2.61144E+01 -1.00000E+00  1.51843E-01
      21    -1     0     0   501   511  0.000000000E+00  0.000000000E+00  1.533412777E+01  1.533412777E+01  0.000000000E+00  0.00000E+00  9.000E+00
      21    -1     0     0   502   503  0.000000000E+00  0.000000000E+00 -9.747500266E+02  9.747500266E+02  0.000000000E+00  0.00000E+00  9.000E+00
      25     1     1     2     0     0  2.628258450E-01 -2.528967854E+01 -5.818581840E+02  5.956713746E+02  1.250032132E+02  0.00000E+00  9.000E+00
       5     1     1     2   501     0  1.148769068E+00  2.850657955E+00  3.083670710E+00  6.443403309E+00  4.750000000E+00  0.00000E+00  9.000E+00
      -5     1     1     2     0   503  1.067592616E+01  4.558754139E+01 -2.834761005E+02  2.873559837E+02  4.750000000E+00  0.00000E+00  9.000E+00
      21     1     1     2   502   511 -1.208752107E+01 -2.314852080E+01 -9.716528499E+01  1.006133927E+02  0.000000000E+00  0.00000E+00  9.000E+00
#rwgt            1           9   3.7010918419650227E-004           6     1123219           0
</event>
<event>
      6   9999  3.45752E-01  3.17293E+01 -1.00000E+00  1.46281E-01
      21    -1     0     0   501   512  0.000000000E+00  0.000000000E+00  4.965012872E+01  4.965012872E+01  0.000000000E+00  0.00000E+00  9.000E+00
      21    -1     0     0   502   503  0.000000000E+00  0.000000000E+00 -7.771278116E+02  7.771278116E+02  0.000000000E+00  0.00000E+00  9.000E+00
      25     1     1     2     0     0  2.425618116E+01  2.532516834E+01 -6.806241351E+02  6.928621007E+02  1.248156672E+02  0.00000E+00  9.000E+00
       5     1     1     2   501     0  1.874054548E+00  5.475034424E-01 -6.195592711E+00  8.047341766E+00  4.750000000E+00  0.00000E+00  9.000E+00
      -5     1     1     2     0   503  4.837453124E+00 -1.896229468E+01 -7.585403412E+01  7.848163202E+01  4.750000000E+00  0.00000E+00  9.000E+00
      21     1     1     2   502   512 -3.096768883E+01 -6.910377103E+00  3.519607913E+01  4.738686579E+01  1.066240300E-06  0.00000E+00  9.000E+00
#rwgt            1           9   3.5964104078935679E-003           6     1124339           0
</event>
<event>
      6   9999  3.45752E-01  1.45760E+01 -1.00000E+00  1.71458E-01
      21    -1     0     0   501   511  0.000000000E+00  0.000000000E+00  1.411619960E+02  1.411619960E+02  0.000000000E+00  0.00000E+00  9.000E+00
      21    -1     0     0   502   503  0.000000000E+00  0.000000000E+00 -1.246049941E+03  1.246049941E+03  0.000000000E+00  0.00000E+00  9.000E+00
      25     1     1     2     0     0  8.057832725E-01  1.621541910E+00 -1.186252558E+03  1.192821910E+03  1.250027993E+02  0.00000E+00  9.000E+00
       5     1     1     2   501     0 -1.652625890E+01 -9.343331374E+00  4.664374735E+01  5.058277119E+01  4.750000000E+00  0.00000E+00  9.000E+00
      -5     1     1     2     0   503  2.341264774E+00  1.937625908E+00 -5.379982017E+01  5.409453822E+01  4.750000000E+00  0.00000E+00  9.000E+00
      21     1     1     2   502   511  1.337921086E+01  5.784163555E+00  8.852068575E+01  8.971271726E+01  3.162979880E-06  0.00000E+00  9.000E+00
#rwgt            1           9   7.7400712150591606E-004           6     1125803           0
</event>
<event>
      6   9999  3.45752E-01  1.08765E+01 -1.00000E+00  1.83430E-01
      21    -1     0     0   501   502  0.000000000E+00  0.000000000E+00  4.967836969E+01  4.967836969E+01  0.000000000E+00  0.00000E+00  9.000E+00
      21    -1     0     0   502   512  0.000000000E+00  0.000000000E+00 -1.378044708E+03  1.378044708E+03  0.000000000E+00  0.00000E+00  9.000E+00
      25     1     1     2     0     0 -5.519174983E+01 -1.165481673E+02 -6.492484362E+02  6.736311227E+02  1.250030121E+02  0.00000E+00  9.000E+00
       5     1     1     2   501     0 -2.388542441E+00 -1.939687542E+00  3.108824055E+01  3.159918865E+01  4.750000000E+00  0.00000E+00  9.000E+00
      -5     1     1     2     0   503  4.963741829E+01  1.110575398E+02 -6.577289667E+02  6.689002965E+02  4.750000000E+00  0.00000E+00  9.000E+00
      21     1     1     2   503   512  7.942873978E+00  7.430315068E+00 -5.247717554E+01  5.359246945E+01  0.000000000E+00  0.00000E+00  9.000E+00
#rwgt            1           9   4.5276787750632701E-004           6     1128904           0
</event>
<event>
      6   9999 -3.45752E-01  5.90061E+00 -1.00000E+00  2.15073E-01
      21    -1     0     0   501   511  0.000000000E+00  0.000000000E+00  9.491573794E+00  9.491573794E+00  0.000000000E+00  0.00000E+00  9.000E+00
      21    -1     0     0   502   503  0.000000000E+00  0.000000000E+00 -3.341610639E+03  3.341610639E+03  0.000000000E+00  0.00000E+00  9.000E+00
      25     1     1     2     0     0  7.242142962E+01  2.943024101E+01 -2.928467149E+03  2.932175591E+03  1.249914183E+02  0.00000E+00  9.000E+00
       5     1     1     2   501     0 -8.171156604E-01  3.086716079E+00 -9.678365720E-01  5.804713756E+00  4.750000000E+00  0.00000E+00  9.000E+00
      -5     1     1     2     0   503 -6.854385888E+01 -2.747207718E+01 -3.997333268E+02  4.065246249E+02  4.750000000E+00  0.00000E+00  9.000E+00
      21     1     1     2   502   511 -3.060455083E+00 -5.044879910E+00 -2.950753427E+00  6.597283108E+00  4.064494877E-07  0.00000E+00  9.000E+00
#rwgt            1           9  -7.4740311136898871E-005           6     1132845           0
</event>
<event>
      6   9999  3.45752E-01  1.13287E+01 -1.00000E+00  1.81662E-01
      21    -1     0     0   501   502  0.000000000E+00  0.000000000E+00  3.041113308E+01  3.041113308E+01  0.000000000E+00  0.00000E+00  9.000E+00
      21    -1     0     0   512   503  0.000000000E+00  0.000000000E+00 -1.310734065E+03  1.310734065E+03  0.000000000E+00  0.00000E+00  9.000E+00
      25     1     1     2     0     0 -7.542117885E+01  6.759896828E+01 -3.393251523E+02  3.755276476E+02  1.249859209E+02  0.00000E+00  9.000E+00
       5     1     1     2   501     0  2.720810517E+00 -1.169721252E+00  7.766603328E+00  9.573593105E+00  4.750000000E+00  0.00000E+00  9.000E+00
      -5     1     1     2     0   503  7.243429317E+01 -7.775479943E+01 -8.656171676E+02  8.721285335E+02  4.750000000E+00  0.00000E+00  9.000E+00
      21     1     1     2   512   502  2.660751685E-01  1.132555240E+01 -8.314721564E+01  8.391542410E+01  9.536743164E-07  0.00000E+00  9.000E+00
#rwgt            1           9   8.9424202100416822E-002           6     1137170           0
</event>
<event>
      6   9999  3.45752E-01  6.16723E+00 -1.00000E+00  2.12408E-01
      21    -1     0     0   511   502  0.000000000E+00  0.000000000E+00  1.672242399E+01  1.672242399E+01  0.000000000E+00  0.00000E+00  9.000E+00
      21    -1     0     0   502   503  0.000000000E+00  0.000000000E+00 -8.659795795E+02  8.659795795E+02  0.000000000E+00  0.00000E+00  9.000E+00
      25     1     1     2     0     0 -3.227623677E+00 -3.922851573E+00 -8.378656844E+02  8.471543599E+02  1.250031925E+02  0.00000E+00  9.000E+00
       5     1     1     2   501     0 -4.648063263E+00  3.506980752E+00  6.757100165E+00  1.010565726E+01  4.750000000E+00  0.00000E+00  9.000E+00
      -5     1     1     2     0   503  1.906159509E+00  1.964889722E+00 -1.846989750E+01  1.926639171E+01  4.750000000E+00  0.00000E+00  9.000E+00
      21     1     1     2   511   501  5.969527430E+00 -1.549018901E+00  3.213262772E-01  6.175594536E+00  1.981770408E-07  0.00000E+00  9.000E+00
#rwgt            1           9   8.4927749158058243E-005           6     1140111           0
</event>
<event>
      6   9999  3.45752E-01  1.20142E+01 -1.00000E+00  1.79172E-01
      21    -1     0     0   501   502  0.000000000E+00  0.000000000E+00  7.639419727E+00  7.639419727E+00  0.000000000E+00  0.00000E+00  9.000E+00
      21    -1     0     0   512   503  0.000000000E+00  0.000000000E+00 -8.321786402E+02  8.321786402E+02  0.000000000E+00  0.00000E+00  9.000E+00
      25     1     1     2     0     0  9.050535255E+00  1.003516086E+00 -6.422880308E+02  6.543962214E+02  1.249703196E+02  0.00000E+00  9.000E+00
       5     1     1     2   501     0  3.474804991E-01  4.590060397E-01 -4.075069950E+00  6.284912437E+00  4.750000000E+00  0.00000E+00  9.000E+00
      -5     1     1     2     0   503  1.138676618E+00  4.309766656E+00 -6.215070466E+01  6.249114548E+01  4.750000000E+00  0.00000E+00  9.000E+00
      21     1     1     2   512   502 -1.053669237E+01 -5.772288782E+00 -1.160254150E+02  1.166457806E+02  0.000000000E+00  0.00000E+00  9.000E+00
#rwgt            1           9   8.2528723280833930E-004           6     1143749           0
</event>
<event>
      6   9999  3.45752E-01  4.21136E+00 -1.00000E+00  2.43311E-01
      21    -1     0     0   501   511  0.000000000E+00  0.000000000E+00  1.391902963E+01  1.391902963E+01  0.000000000E+00  0.00000E+00  9.000E+00
      21    -1     0     0   502   503  0.000000000E+00  0.000000000E+00 -7.483711144E+02  7.483711144E+02  0.000000000E+00  0.00000E+00  9.000E+00
      25     1     1     2     0     0 -4.365537964E+00  1.299010181E+01 -4.659427247E+02  4.826131558E+02  1.250001394E+02  0.00000E+00  9.000E+00
       5     1     1     2   501     0  2.643206389E+00  5.824841381E-02  3.462013558E+00  6.444995793E+00  4.750000000E+00  0.00000E+00  9.000E+00
      -5     1     1     2     0   503  5.928470049E+00 -1.325808159E+01 -2.614919015E+02  2.619379708E+02  4.750000000E+00  0.00000E+00  9.000E+00
      21     1     1     2   502   511 -4.206138474E+00  2.097313704E-01 -1.047947219E+01  1.129402167E+01  2.064765462E-07  0.00000E+00  9.000E+00
#rwgt            1           9   2.7178811058270385                6     1145508           0
</event>
<event>
      6   9999  3.45752E-01  4.94976E+00 -1.00000E+00  2.30136E-01
      21    -1     0     0   501   502  0.000000000E+00  0.000000000E+00  5.183679201E+00  5.183679201E+00  0.000000000E+00  0.00000E+00  9.000E+00
       2    -1     0     0   502     0  0.000000000E+00  0.000000000E+00 -1.976252813E+03  1.976252813E+03  0.000000000E+00  0.00000E+00  9.000E+00
      25     1     1     2     0     0 -3.575877045E+00 -1.959433740E+00 -8.147810027E+02  8.243246367E+02  1.250055919E+02  0.00000E+00  9.000E+00
       5     1     1     2   501     0 -1.164929391E-01 -1.509017632E-01 -2.058138541E+01  2.112326366E+01  4.750000000E+00  0.00000E+00  9.000E+00
      -5     1     1     2     0   503 -4.067000021E-01 -6.641488122E-01 -4.266894993E+01  4.293958881E+01  4.750000000E+00  0.00000E+00  9.000E+00
       2     1     1     2   503     0  4.099069987E+00  2.774484315E+00 -1.093037796E+03  1.093049003E+03  0.000000000E+00  0.00000E+00  9.000E+00
#rwgt            1           9   1.9504871999944428E-004           6     1150389           0
</event>
<event>
      6   9999  3.45752E-01  1.83872E+01 -1.00000E+00  1.63048E-01
      21    -1     0     0   501   502  0.000000000E+00  0.000000000E+00  1.921026215E+03  1.921026215E+03  0.000000000E+00  0.00000E+00  9.000E+00
      21    -1     0     0   502   511  0.000000000E+00  0.000000000E+00 -2.113574449E+02  2.113574449E+02  0.000000000E+00  0.00000E+00  9.000E+00
      25     1     1     2     0     0 -1.281851786E+01 -1.383395882E+01  1.027493540E+03  1.035240639E+03  1.249980559E+02  0.00000E+00  9.000E+00
       5     1     1     2   501     0 -5.689045533E-01  1.205178946E+00  3.711060022E+02  3.711387927E+02  4.750000000E+00  0.00000E+00  9.000E+00
      -5     1     1     2     0   503 -1.199979211E+00  2.382239066E+01  5.178433599E+02  5.184141724E+02  4.750000000E+00  0.00000E+00  9.000E+00
      21     1     1     2   503   511  1.458740163E+01 -1.119361079E+01 -2.067741323E+02  2.075900551E+02  6.031565972E-06  0.00000E+00  9.000E+00
#rwgt            1           9   8.2231158746845327E-003           6     1154690           0
</event>
<event>
      6   9999  3.45752E-01  2.09757E+01 -1.00000E+00  1.58647E-01
      21    -1     0     0   512   502  0.000000000E+00  0.000000000E+00  1.070580405E+03  1.070580405E+03  0.000000000E+00  0.00000E+00  9.000E+00
      21    -1     0     0   502   503  0.000000000E+00  0.000000000E+00 -9.032991699E+01  9.032991699E+01  0.000000000E+00  0.00000E+00  9.000E+00
      25     1     1     2     0     0 -7.317091165E+01  8.726888204E+00 -1.829745212E+01  1.462506072E+02  1.249972098E+02  0.00000E+00  9.000E+00
       5     1     1     2   501     0 -1.032482985E+00  2.770189903E+00  5.196909537E+02  5.197210692E+02  4.750000000E+00  0.00000E+00  9.000E+00
      -5     1     1     2     0   503  8.228014475E+01  7.861295621E+00  2.172284964E+02  2.324706527E+02  4.750000000E+00  0.00000E+00  9.000E+00
      21     1     1     2   512   501 -8.076750116E+00 -1.935837373E+01  2.616284904E+02  2.624679933E+02  5.394796609E-06  0.00000E+00  9.000E+00
#rwgt            1           9   2.0471970323444514E-004           6     1155845           0
</event>
<event>
      6   9999  3.45752E-01  1.40968E+01 -1.00000E+00  1.72742E-01
      21    -1     0     0   511   502  0.000000000E+00  0.000000000E+00  1.009528423E+01  1.009528423E+01  0.000000000E+00  0.00000E+00  9.000E+00
      21    -1     0     0   502   503  0.000000000E+00  0.000000000E+00 -7.705567088E+02  7.705567088E+02  0.000000000E+00  0.00000E+00  9.000E+00
      25     1     1     2     0     0  1.534721668E+01  2.777797310E+01 -6.344185637E+02  6.473920320E+02  1.249895047E+02  0.00000E+00  9.000E+00
       5     1     1     2   501     0  4.230219503E-01  7.679580502E-01 -5.817536057E+00  7.561410775E+00  4.750000000E+00  0.00000E+00  9.000E+00
      -5     1     1     2     0   503 -9.745104739E+00 -1.580156917E+01 -9.391062615E+01  9.584583903E+01  4.750000000E+00  0.00000E+00  9.000E+00
      21     1     1     2   511   501 -6.025133890E+00 -1.274436199E+01 -2.631469862E+01  2.985271117E+01  6.743495762E-07  0.00000E+00  9.000E+00
#rwgt            1           9   2.4667492661834580E-004           6     1158235           0
</event>
<event>
      6   9999  3.45752E-01  6.47630E+00 -1.00000E+00  2.09539E-01
      21    -1     0     0   501   502  0.000000000E+00  0.000000000E+00  4.011192855E+02  4.011192855E+02  0.000000000E+00  0.00000E+00  9.000E+00
      21    -1     0     0   512   503  0.000000000E+00  0.000000000E+00 -1.550690635E+02  1.550690635E+02  0.000000000E+00  0.00000E+00  9.000E+00
      25     1     1     2     0     0  3.664169593E+00 -3.064218279E+00  1.322208720E+02  1.819984456E+02  1.249730356E+02  0.00000E+00  9.000E+00
       5     1     1     2   501     0  3.095778451E-01  1.042001798E+00  2.070190792E+02  2.070764189E+02  4.750000000E+00  0.00000E+00  9.000E+00
      -5     1     1     2     0   503 -2.689777823E+00  8.369964455E+00  3.620402565E+01  3.755775796E+01  4.750000000E+00  0.00000E+00  9.000E+00
      21     1     1     2   512   502 -1.283969615E+00 -6.347747975E+00 -1.293937549E+02  1.295557266E+02  2.697398305E-06  0.00000E+00  9.000E+00
#rwgt            1           9   1.9922119346447904E-002           6     1160397           0
</event>
<event>
      6   9999  3.45752E-01  2.26164E+01 -1.00000E+00  1.56239E-01
      21    -1     0     0   501   502  0.000000000E+00  0.000000000E+00  3.912237970E+01  3.912237970E+01  0.000000000E+00  0.00000E+00  9.000E+00
      21    -1     0     0   502   511  0.000000000E+00  0.000000000E+00 -1.568308312E+03  1.568308312E+03  0.000000000E+00  0.00000E+00  9.000E+00
      25     1     1     2     0     0  5.105985164E+01 -1.253530415E+01 -1.549856184E+02  2.059349271E+02  1.249976398E+02  0.00000E+00  9.000E+00
       5     1     1     2   501     0 -3.552454857E+00  1.171482263E+00  1.130656185E+01  1.282158910E+01  4.750000000E+00  0.00000E+00  9.000E+00
      -5     1     1     2     0   503 -7.010951917E+01  1.056049049E+01 -1.029008562E+03  1.031459186E+03  4.750000000E+00  0.00000E+00  9.000E+00
      21     1     1     2   503   511  2.260212238E+01  8.033313978E-01 -3.564983135E+02  3.572149896E+02  5.394796609E-06  0.00000E+00  9.000E+00
#rwgt            1           9   3.0026710725182177E-003           6     1164320           0
</event>
<event>
      6   9999  3.45752E-01  5.19779E+01 -1.00000E+00  1.33892E-01
      21    -1     0     0   501   502  0.000000000E+00  0.000000000E+00  5.853537466E+01  5.853537466E+01  0.000000000E+00  0.00000E+00  9.000E+00
      21    -1     0     0   502   512  0.000000000E+00  0.000000000E+00 -1.597142504E+03  1.597142504E+03  0.000000000E+00  0.00000E+00  9.000E+00
      25     1     1     2     0     0  2.752455546E+01  1.067026485E+02 -1.042345539E+02  1.965533103E+02  1.250012208E+02  0.00000E+00  9.000E+00
       5     1     1     2   501     0  8.142254655E-01 -1.357634146E+00  2.822289126E+00  5.747516811E+00  4.750000000E+00  0.00000E+00  9.000E+00
      -5     1     1     2     0   503 -1.545497554E+01 -1.557008377E+02 -1.222420579E+03  1.232402630E+03  4.750000000E+00  0.00000E+00  9.000E+00
      21     1     1     2   503   512 -1.288380539E+01  5.035582337E+01 -2.147742860E+02  2.209744223E+02  2.697398305E-06  0.00000E+00  9.000E+00
#rwgt            1           9   5.8059981023954755E-004           6     1167063           0
</event>
<event>
      6   9999  3.45752E-01  2.68518E+01 -1.00000E+00  1.51022E-01
      21    -1     0     0   501   511  0.000000000E+00  0.000000000E+00  2.595551909E+01  2.595551909E+01  0.000000000E+00  0.00000E+00  9.000E+00
      21    -1     0     0   502   503  0.000000000E+00  0.000000000E+00 -8.714460673E+02  8.714460673E+02  0.000000000E+00  0.00000E+00  9.000E+00
      25     1     1     2     0     0 -6.648330798E+01  4.117905223E+00 -6.967516751E+02  7.110025329E+02  1.249988702E+02  0.00000E+00  9.000E+00
       5     1     1     2   501     0  3.737037960E+01 -9.596644273E-01 -7.572951209E+01  8.458716054E+01  4.750000000E+00  0.00000E+00  9.000E+00
      -5     1     1     2     0   503  1.015438319E+01  1.585729172E+01 -7.239361775E+01  7.495307592E+01  4.750000000E+00  0.00000E+00  9.000E+00
      21     1     1     2   502   511  1.895854520E+01 -1.901553251E+01 -6.157432099E-01  2.685881703E+01  3.432931314E-07  0.00000E+00  9.000E+00
#rwgt            1           9   5.6657045583842220E-004           6     1168407           0
</event>
<event>
      6   9999 -3.45752E-01  7.69144E+00 -1.00000E+00  2.00059E-01
      21    -1     0     0   501   502  0.000000000E+00  0.000000000E+00  1.945452465E+01  1.945452465E+01  0.000000000E+00  0.00000E+00  9.000E+00
      21    -1     0     0   502   512  0.000000000E+00  0.000000000E+00 -1.283270013E+03  1.283270013E+03  0.000000000E+00  0.00000E+00  9.000E+00
      25     1     1     2     0     0 -4.059432057E+01  1.079277168E+01 -9.140472275E+02  9.235104770E+02  1.249995370E+02  0.00000E+00  9.000E+00
       5     1     1     2   501     0  1.704696798E+00 -9.287477886E-01  8.935346737E+00  1.030395482E+01  4.750000000E+00  0.00000E+00  9.000E+00
      -5     1     1     2     0   503  3.595029572E+01 -2.756376537E+00 -6.037305141E+01  7.048041721E+01  4.750000000E+00  0.00000E+00  9.000E+00
      21     1     1     2   503   512  2.939328047E+00 -7.107647356E+00 -2.983305563E+02  2.984296887E+02  5.394796609E-06  0.00000E+00  9.000E+00
#rwgt            1           9  -3.2237820627207744E-004           6     1169530           0
</event>
<event>
      6   9999  3.45752E-01  2.58451E+00 -1.00000E+00  2.95019E-01
      21    -1     0     0   501   502  0.000000000E+00  0.000000000E+00  4.545094723E+02  4.545094723E+02  0.000000000E+00  0.00000E+00  9.000E+00
      21    -1     0     0   502   511  0.000000000E+00  0.000000000E+00 -8.358323258E+01  8.358323258E+01  0.000000000E+00  0.00000E+00  9.000E+00
      25     1     1     2     0     0  5.770309045E+00  2.057420641E+00 -2.982960258E+01  1.286494979E+02  1.249934346E+02  0.00000E+00  9.000E+00
       5     1     1     2   501     0 -7.895448368E+00  5.192008525E-01  3.989569964E+02  3.990637231E+02  4.750000000E+00  0.00000E+00  9.000E+00
      -5     1     1     2     0   503  3.740426554E+00 -5.590629544E-01  3.754215005E+00  7.138625393E+00  4.750000000E+00  0.00000E+00  9.000E+00
      21     1     1     2   503   511 -1.615287231E+00 -2.017558539E+00 -1.955369048E+00  3.240858437E+00  4.712160915E-08  0.00000E+00  9.000E+00
#rwgt            1           9   3.8675218887785116E-004           6     1173014           0
</event>
<event>
      6   9999  3.45752E-01  4.54431E+00 -1.00000E+00  2.36914E-01
      21    -1     0     0   501   502  0.000000000E+00  0.000000000E+00  1.659281664E+02  1.659281664E+02  0.000000000E+00  0.00000E+00  9.000E+00
      21    -1     0     0   502   512  0.000000000E+00  0.000000000E+00 -2.585663133E+02  2.585663133E+02  0.000000000E+00  0.00000E+00  9.000E+00
      25     1     1     2     0     0  2.190451055E-01  2.108249157E+00  1.180141705E+01  1.255726739E+02  1.249989212E+02  0.00000E+00  9.000E+00
       5     1     1     2   501     0  1.885682776E+00 -9.770591471E-02  8.244203542E+01  8.260034534E+01  4.750000000E+00  0.00000E+00  9.000E+00
      -5     1     1     2     0   503 -3.715831056E+00 -6.259669981E+00  1.340872572E+01  1.597958992E+01  4.750000000E+00  0.00000E+00  9.000E+00
      21     1     1     2   503   512  1.611103175E+00  4.249126739E+00 -2.002903251E+02  2.003418704E+02  0.000000000E+00  0.00000E+00  9.000E+00
#rwgt            1           9   1.7156394100776750E-002           6     1181818           0
</event>
<event>
      6   9999 -3.45752E-01  3.82676E+00 -1.00000E+00  2.51898E-01
      21    -1     0     0   501   511  0.000000000E+00  0.000000000E+00  1.364879370E+02  1.364879370E+02  0.000000000E+00  0.00000E+00  9.000E+00
      21    -1     0     0   502   503  0.000000000E+00  0.000000000E+00 -7.899087999E+02  7.899087999E+02  0.000000000E+00  0.00000E+00  9.000E+00
      25     1     1     2     0     0 -1.052888171E+01  9.588722619E+00 -7.581432365E+02  7.685104424E+02  1.249973279E+02  0.00000E+00  9.000E+00
       5     1     1     2   501     0 -1.402853464E+00  7.702141640E-01  1.191545832E+00  5.152039321E+00  4.750000000E+00  0.00000E+00  9.000E+00
      -5     1     1     2     0   503  9.682315192E+00 -7.263102386E+00 -2.285273402E+01  2.629277155E+01  4.750000000E+00  0.00000E+00  9.000E+00
      21     1     1     2   502   511  2.249419982E+00 -3.095834397E+00  1.263835618E+02  1.264414836E+02  0.000000000E+00  0.00000E+00  9.000E+00
#rwgt            1           9  -2.3487863968212825E-004           6     1186475           0
</event>
<event>
      6   9999  3.45752E-01  9.94204E+00 -1.00000E+00  1.87460E-01
      21    -1     0     0   501   502  0.000000000E+00  0.000000000E+00  9.305308795E+00  9.305308795E+00  0.000000000E+00  0.00000E+00  9.000E+00
       2    -1     0     0   502     0  0.000000000E+00  0.000000000E+00 -2.087251712E+03  2.087251712E+03  0.000000000E+00  0.00000E+00  9.000E+00
      25     1     1     2     0     0 -5.676360449E+00 -9.313086229E+00 -6.937745918E+02  7.050289114E+02  1.249945077E+02  0.00000E+00  9.000E+00
       5     1     1     2   501     0  1.155762293E+00 -2.636613173E+00  1.160728333E+00  5.674266981E+00  4.750000000E+00  0.00000E+00  9.000E+00
      -5     1     1     2     0   503  3.399225580E+00  2.071101024E+00 -3.938622651E+01  3.987081053E+01  4.750000000E+00  0.00000E+00  9.000E+00
       2     1     1     2   503     0  1.121372576E+00  9.878598378E+00 -1.345946313E+03  1.345983032E+03  2.157918644E-05  0.00000E+00  9.000E+00
#rwgt            1           9   1.4473433867099001E-002           6     1191093           0
</event>
<event>
      6   9999  3.45752E-01  1.59239E+01 -1.00000E+00  1.68152E-01
      21    -1     0     0   501   511  0.000000000E+00  0.000000000E+00  4.682708818E+01  4.682708818E+01  0.000000000E+00  0.00000E+00  9.000E+00
      21    -1     0     0   502   503  0.000000000E+00  0.000000000E+00 -1.296081231E+03  1.296081231E+03  0.000000000E+00  0.00000E+00  9.000E+00
      25     1     1     2     0     0 -5.590151414E+01  1.601808052E+01 -1.052164828E+03  1.061158989E+03  1.250040690E+02  0.00000E+00  9.000E+00
       5     1     1     2   501     0 -3.405419593E+00  5.944854558E-01  3.211252184E+01  3.264547219E+01  4.750000000E+00  0.00000E+00  9.000E+00
      -5     1     1     2     0   503  7.316247245E+01 -2.446077964E+01 -2.120660632E+02  2.257114414E+02  4.750000000E+00  0.00000E+00  9.000E+00
      21     1     1     2   502   511 -1.385553872E+01  7.848213661E+00 -1.713577394E+01  2.339241671E+01  0.000000000E+00  0.00000E+00  9.000E+00
#rwgt            1           9   8.9049199046809682E-006           6     1193688           0
</event>
<event>
      6   9999  3.45752E-01  3.68201E+01 -1.00000E+00  1.42305E-01
      21    -1     0     0   501   512  0.000000000E+00  0.000000000E+00  1.310881857E+01  1.310881857E+01  0.000000000E+00  0.00000E+00  9.000E+00
      21    -1     0     0   502   503  0.000000000E+00  0.000000000E+00 -8.408164839E+02  8.408164839E+02  0.000000000E+00  0.00000E+00  9.000E+00
      25     1     1     2     0     0 -2.505148972E+01  2.457348510E+01 -6.213581298E+02  6.347772480E+02  1.249991831E+02  0.00000E+00  9.000E+00
       5     1     1     2   501     0  2.058010957E+01  2.900113234E+00 -7.195651168E+01  7.504834202E+01  4.750000000E+00  0.00000E+00  9.000E+00
      -5     1     1     2     0   503 -3.328496527E+00  8.510896231E+00 -6.232843863E+01  6.317365753E+01  4.750000000E+00  0.00000E+00  9.000E+00
      21     1     1     2   502   512  7.799876684E+00 -3.598449457E+01 -7.206458516E+01  8.092605489E+01  1.348699152E-06  0.00000E+00  9.000E+00
#rwgt            1           9   3.8436375421934603E-004           6     1196964           0
</event>
<event>
      6   9999  3.45752E-01  1.76380E+01 -1.00000E+00  1.64491E-01
      21    -1     0     0   501   502  0.000000000E+00  0.000000000E+00  1.279706923E+01  1.279706923E+01  0.000000000E+00  0.00000E+00  9.000E+00
      21    -1     0     0   511   503  0.000000000E+00  0.000000000E+00 -1.000787459E+03  1.000787459E+03  0.000000000E+00  0.00000E+00  9.000E+00
      25     1     1     2     0     0  6.395389541E+01  3.765787561E-01 -7.127573498E+02  7.264566891E+02  1.250041551E+02  0.00000E+00  9.000E+00
       5     1     1     2   501     0  6.853765906E-01  1.083446898E-01 -3.114652287E+00  5.722328067E+00  4.750000000E+00  0.00000E+00  9.000E+00
      -5     1     1     2     0   503 -4.718817039E+01 -3.045897960E+00 -1.342524211E+02  1.424158558E+02  4.750000000E+00  0.00000E+00  9.000E+00
      21     1     1     2   511   502 -1.745110161E+01  2.560974514E+00 -1.378659664E+02  1.389896551E+02  1.907348633E-06  0.00000E+00  9.000E+00
#rwgt            1           9   5.2335691991168263E-004           6     1197879           0
</event>
<event>
      6   9999  3.45752E-01  5.01754E+01 -1.00000E+00  1.34706E-01
      21    -1     0     0   501   502  0.000000000E+00  0.000000000E+00  6.257499851E+01  6.257499851E+01  0.000000000E+00  0.00000E+00  9.000E+00
      21    -1     0     0   502   512  0.000000000E+00  0.000000000E+00 -1.697175804E+02  1.697175804E+02  0.000000000E+00  0.00000E+00  9.000E+00
      25     1     1     2     0     0  3.635763594E+01 -2.242986889E+01 -6.458582203E+01  1.470433105E+02  1.250017201E+02  0.00000E+00  9.000E+00
       5     1     1     2   501     0  1.716419904E+00 -2.296109219E+00  3.623113876E+00  6.626286214E+00  4.750000000E+00  0.00000E+00  9.000E+00
      -5     1     1     2     0   503 -3.310872553E+00 -1.145533257E+01 -1.410851846E+01  1.907352391E+01  4.750000000E+00  0.00000E+00  9.000E+00
      21     1     1     2   503   512 -3.476318329E+01  3.618131067E+01 -3.207135526E+01  5.954945829E+01  4.768371582E-07  0.00000E+00  9.000E+00
#rwgt            1           9  0.11263648716162475                6     1199410           0
</event>
<event>
      6   9999 -3.45752E-01  5.30626E+00 -1.00000E+00  2.21771E-01
      21    -1     0     0   501   511  0.000000000E+00  0.000000000E+00  1.800758562E+00  1.800758562E+00  0.000000000E+00  0.00000E+00  9.000E+00
      21    -1     0     0   502   503  0.000000000E+00  0.000000000E+00 -3.760712070E+03  3.760712070E+03  0.000000000E+00  0.00000E+00  9.000E+00
      25     1     1     2     0     0  6.692932750E+00  5.369100411E+00 -3.437005779E+03  3.439288777E+03  1.249997578E+02  0.00000E+00  9.000E+00
       5     1     1     2   501     0  2.291267900E-01  1.279857329E+00 -1.421179436E+01  1.504088205E+01  4.750000000E+00  0.00000E+00  9.000E+00
      -5     1     1     2     0   503 -2.217418443E+00 -4.194821584E+00 -2.733053210E+02  2.733877731E+02  4.750000000E+00  0.00000E+00  9.000E+00
      21     1     1     2   502   511 -4.704641097E+00 -2.454136155E+00 -3.438841670E+01  3.479539675E+01  1.168007728E-06  0.00000E+00  9.000E+00
#rwgt            1           9  -7.7639009854783305E-004           6     1199916           0
</event>
<event>
      6   9999  3.45752E-01  2.55964E+01 -1.00000E+00  1.52440E-01
      21    -1     0     0   512   502  0.000000000E+00  0.000000000E+00  2.448392731E+01  2.448392731E+01  0.000000000E+00  0.00000E+00  9.000E+00
      21    -1     0     0   502   503  0.000000000E+00  0.000000000E+00 -1.064880479E+03  1.064880479E+03  0.000000000E+00  0.00000E+00  9.000E+00
      25     1     1     2     0     0  2.644182111E+00  6.555258797E+01 -6.070574743E+02  6.232555633E+02  1.249983463E+02  0.00000E+00  9.000E+00
       5     1     1     2   501     0  1.051395846E+00  7.452328967E+00  9.841741671E+00  1.326894945E+01  4.750000000E+00  0.00000E+00  9.000E+00
      -5     1     1     2     0   503 -1.549931237E+01 -5.029263223E+01 -3.927142409E+02  3.962532208E+02  4.750000000E+00  0.00000E+00  9.000E+00
      21     1     1     2   512   501  1.180373441E+01 -2.271228470E+01 -5.046657845E+01  5.658667301E+01  6.743495762E-07  0.00000E+00  9.000E+00
#rwgt            1           9   8.9756510887736471E-004           6     1203349           0
</event>
<event>
      6   9999  3.45752E-01  4.60008E+00 -1.00000E+00  2.35921E-01
      21    -1     0     0   501   502  0.000000000E+00  0.000000000E+00  1.988566575E+01  1.988566575E+01  0.000000000E+00  0.00000E+00  9.000E+00
      21    -1     0     0   502   511  0.000000000E+00  0.000000000E+00 -9.697813570E+02  9.697813570E+02  0.000000000E+00  0.00000E+00  9.000E+00
      25     1     1     2     0     0  4.418230447E+01  1.274039816E+01 -5.426013829E+02  5.587091991E+02  1.250012585E+02  0.00000E+00  9.000E+00
       5     1     1     2   501     0  2.656412255E+00  1.350612574E+00  9.151781300E+00  1.073304623E+01  4.750000000E+00  0.00000E+00  9.000E+00
      -5     1     1     2     0   503 -5.015606807E+01 -1.090417904E+01 -3.880071997E+02  3.914162513E+02  4.750000000E+00  0.00000E+00  9.000E+00
      21     1     1     2   503   511  3.317351347E+00 -3.186831685E+00 -2.843888995E+01  2.880852613E+01  3.371747881E-07  0.00000E+00  9.000E+00
#rwgt            1           9   1.9714667435911334E-003           6     1205047           0
</event>
<event>
      6   9999  3.45752E-01  6.61291E+00 -1.00000E+00  2.08338E-01
      21    -1     0     0   501   512  0.000000000E+00  0.000000000E+00  4.565500846E+00  4.565500846E+00  0.000000000E+00  0.00000E+00  9.000E+00
      21    -1     0     0   502   503  0.000000000E+00  0.000000000E+00 -1.657295031E+03  1.657295031E+03  0.000000000E+00  0.00000E+00  9.000E+00
      25     1     1     2     0     0  5.172009609E+00  1.860983871E+00 -1.538655704E+03  1.543734707E+03  1.250010278E+02  0.00000E+00  9.000E+00
       5     1     1     2   501     0 -9.224576619E-01 -1.034674371E+00 -3.063753361E+00  5.819842253E+00  4.750000000E+00  0.00000E+00  9.000E+00
      -5     1     1     2     0   503 -1.448335649E+00 -6.816614153E+00 -8.680832006E+01  8.721703295E+01  4.750000000E+00  0.00000E+00  9.000E+00
      21     1     1     2   502   512 -2.801216298E+00  5.990304653E+00 -2.420175239E+01  2.508894939E+01  5.840038640E-07  0.00000E+00  9.000E+00
#rwgt            1           9   1.0807021172773818E-004           6     1210397           0
</event>
<event>
      6   9999  3.45752E-01  6.00137E+00 -1.00000E+00  2.14044E-01
      21    -1     0     0   501   502  0.000000000E+00  0.000000000E+00  8.933098326E+00  8.933098326E+00  0.000000000E+00  0.00000E+00  9.000E+00
      21    -1     0     0   511   503  0.000000000E+00  0.000000000E+00 -1.384325899E+03  1.384325899E+03  0.000000000E+00  0.00000E+00  9.000E+00
      25     1     1     2     0     0 -2.839309420E+01  3.316917233E+01 -8.859605815E+02  8.958003156E+02  1.250027666E+02  0.00000E+00  9.000E+00
       5     1     1     2   501     0 -9.842487933E-01 -1.128837260E+00  9.928079932E-01  5.078502433E+00  4.750000000E+00  0.00000E+00  9.000E+00
      -5     1     1     2     0   503  2.521921757E+01 -2.771292529E+01 -4.135125333E+02  4.152339014E+02  4.750000000E+00  0.00000E+00  9.000E+00
      21     1     1     2   511   502  4.158125420E+00 -4.327409773E+00 -7.691249341E+01  7.714627745E+01  9.536743164E-07  0.00000E+00  9.000E+00
#rwgt            1           9   4.1573912084947691E-003           6     1213433           0
</event>
<event>
      6   9999  3.45752E-01  3.08730E+01 -1.00000E+00  1.47037E-01
      21    -1     0     0   512   502  0.000000000E+00  0.000000000E+00  5.020866973E+01  5.020866973E+01  0.000000000E+00  0.00000E+00  9.000E+00
      21    -1     0     0   502   503  0.000000000E+00  0.000000000E+00 -1.217205602E+03  1.217205602E+03  0.000000000E+00  0.00000E+00  9.000E+00
      25     1     1     2     0     0  2.828471092E+01 -3.173896266E+01 -1.061232098E+03  1.069413726E+03  1.249990558E+02  0.00000E+00  9.000E+00
       5     1     1     2   501     0  3.961149499E+00  3.053554152E+01  2.453206258E+01  3.965469198E+01  4.750000000E+00  0.00000E+00  9.000E+00
      -5     1     1     2     0   503 -1.860825763E+00 -4.263958965E+00 -1.271379173E+02  1.273116512E+02  4.750000000E+00  0.00000E+00  9.000E+00
      21     1     1     2   512   501 -3.038503466E+01  5.467380104E+00 -3.158979071E+00  3.103420251E+01  1.151928192E-06  0.00000E+00  9.000E+00
#rwgt            1           9   2.0578711087440331E-003           6     1216959           0
</event>
<event>
      6   9999  3.45752E-01  2.35857E+01 -1.00000E+00  1.54930E-01
      21    -1     0     0   501   511  0.000000000E+00  0.000000000E+00  1.208924791E+02  1.208924791E+02  0.000000000E+00  0.00000E+00  9.000E+00
      21    -1     0     0   502   503  0.000000000E+00  0.000000000E+00 -1.600047384E+03  1.600047384E+03  0.000000000E+00  0.00000E+00  9.000E+00
      25     1     1     2     0     0 -3.536434094E+01  2.566245980E+01 -1.505953223E+03  1.511786376E+03  1.252746540E+02  0.00000E+00  9.000E+00
       5     1     1     2   501     0  6.302476895E+00 -4.354361727E+00  8.871169021E+01  8.916842581E+01  4.750000000E+00  0.00000E+00  9.000E+00
      -5     1     1     2     0   503  7.268529361E+00 -1.228954879E+01 -8.539070985E+01  8.670640320E+01  4.750000000E+00  0.00000E+00  9.000E+00
      21     1     1     2   502   511  2.179333468E+01 -9.018549283E+00  2.347733787E+01  3.327865774E+01  1.066240300E-06  0.00000E+00  9.000E+00
#rwgt            1           9   2.2727258964796391E-004           6     1218852           0
</event>
<event>
      6   9999 -3.45752E-01  1.45692E+01 -1.00000E+00  1.71476E-01
      21    -1     0     0   501   502  0.000000000E+00  0.000000000E+00  9.397190150E+01  9.397190150E+01  0.000000000E+00  0.00000E+00  9.000E+00
      21    -1     0     0   512   503  0.000000000E+00  0.000000000E+00 -1.681310634E+03  1.681310634E+03  0.000000000E+00  0.00000E+00  9.000E+00
      25     1     1     2     0     0  1.320162960E+02  2.408735381E+02 -4.077917248E+02  5.073153710E+02  1.250057240E+02  0.00000E+00  9.000E+00
       5     1     1     2   501     0  2.466146963E+00 -4.759258226E+00  2.812221186E+01  2.901988490E+01  4.750000000E+00  0.00000E+00  9.000E+00
      -5     1     1     2     0   503 -1.204496848E+02 -2.321973530E+02 -1.157970150E+03  1.187156758E+03  4.750000000E+00  0.00000E+00  9.000E+00
      21     1     1     2   512   502 -1.403275814E+01 -3.916926872E+00 -4.969906984E+01  5.179052192E+01  6.743495762E-07  0.00000E+00  9.000E+00
#rwgt            1           9  -6.3483178795939086E-004           6     1221436           0
</event>
<event>
      6   9999  3.45752E-01  5.62470E+00 -1.00000E+00  2.18041E-01
      21    -1     0     0   501   502  0.000000000E+00  0.000000000E+00  4.098669822E+02  4.098669822E+02  0.000000000E+00  0.00000E+00  9.000E+00
       2    -1     0     0   502     0  0.000000000E+00  0.000000000E+00 -1.331428945E+03  1.331428945E+03  0.000000000E+00  0.00000E+00  9.000E+00
      25     1     1     2     0     0 -1.981966165E-01 -1.158382893E+00 -2.648267803E+00  1.250462664E+02  1.250126965E+02  0.00000E+00  9.000E+00
       5     1     1     2   501     0  3.650665631E+00 -2.829418643E+00  3.450618777E+02  3.451254770E+02  4.750000000E+00  0.00000E+00  9.000E+00
      -5     1     1     2     0   503  1.176403301E+00  7.923704940E-01  1.846232532E+00  5.289881879E+00  4.750000000E+00  0.00000E+00  9.000E+00
       2     1     1     2   503     0 -4.628872316E+00  3.195431042E+00 -1.265821805E+03  1.265834302E+03  1.525878906E-05  0.00000E+00  9.000E+00
#rwgt            1           9   6.0662249549819124E-003           6     1225328           0
</event>
<event>
      6   9999 -3.45752E-01  2.09031E+01 -1.00000E+00  1.58760E-01
      21    -1     0     0   501   502  0.000000000E+00  0.000000000E+00  4.116312343E+01  4.116312343E+01  0.000000000E+00  0.00000E+00  9.000E+00
      21    -1     0     0   511   503  0.000000000E+00  0.000000000E+00 -1.344774735E+03  1.344774735E+03  0.000000000E+00  0.00000E+00  9.000E+00
      25     1     1     2     0     0 -7.442606815E+00 -4.699859777E+01 -5.249977062E+02  5.417678885E+02  1.250023719E+02  0.00000E+00  9.000E+00
       5     1     1     2   501     0 -1.214813400E+01  3.727908665E+00  2.934438495E+01  3.232846873E+01  4.750000000E+00  0.00000E+00  9.000E+00
      -5     1     1     2     0   503 -2.265910419E-01  4.991992491E+01 -7.050887249E+02  7.068696646E+02  4.750000000E+00  0.00000E+00  9.000E+00
      21     1     1     2   511   502  1.981733186E+01 -6.649235808E+00 -1.028695659E+02  1.049718370E+02  1.348699152E-06  0.00000E+00  9.000E+00
#rwgt            1           9  -1.1724357813767926E-002           6     1229772           0
</event>
<event>
      6   9999  3.45752E-01  1.23823E+01 -1.00000E+00  1.77921E-01
      21    -1     0     0   501   502  0.000000000E+00  0.000000000E+00  5.642359791E+01  5.642359791E+01  0.000000000E+00  0.00000E+00  9.000E+00
      21    -1     0     0   512   503  0.000000000E+00  0.000000000E+00 -1.771428501E+03  1.771428501E+03  0.000000000E+00  0.00000E+00  9.000E+00
      25     1     1     2     0     0 -7.493708458E+01  4.545754309E+01 -9.781551386E+02  9.899970644E+02  1.249990300E+02  0.00000E+00  9.000E+00
       5     1     1     2   501     0  6.539964468E+00  2.897055171E+00  4.437436179E+01  4.519746174E+01  4.750000000E+00  0.00000E+00  9.000E+00
      -5     1     1     2     0   503  6.387523345E+01 -5.988171377E+01 -3.357313253E+02  3.469927238E+02  4.750000000E+00  0.00000E+00  9.000E+00
      21     1     1     2   512   502  4.521886654E+00  1.152711551E+01 -4.454928006E+02  4.456648485E+02  5.394796609E-06  0.00000E+00  9.000E+00
#rwgt            1           9   6.6774371159813105E-004           6     1231733           0
</event>
<event>
      6   9999  3.45752E-01  6.05163E+00 -1.00000E+00  2.13541E-01
      21    -1     0     0   501   511  0.000000000E+00  0.000000000E+00  4.414555101E+00  4.414555101E+00  0.000000000E+00  0.00000E+00  9.000E+00
      21    -1     0     0   502   503  0.000000000E+00  0.000000000E+00 -3.109051982E+03  3.109051982E+03  0.000000000E+00  0.00000E+00  9.000E+00
      25     1     1     2     0     0  9.177136966E+00  1.070675575E+01 -2.865818410E+03  2.868577715E+03  1.249963727E+02  0.00000E+00  9.000E+00
       5     1     1     2   501     0  2.471025570E-01 -6.723929275E-01 -4.620515961E+00  6.665196147E+00  4.750000000E+00  0.00000E+00  9.000E+00
      -5     1     1     2     0   503 -1.420300794E+01 -6.321470765E+00 -2.306219046E+02  2.311940999E+02  4.750000000E+00  0.00000E+00  9.000E+00
      21     1     1     2   502   511  4.778768417E+00 -3.712892062E+00 -3.576596136E+00  7.029525942E+00  7.420718430E-07  0.00000E+00  9.000E+00
#rwgt            1           9   2.1270400003653802E-003           6     1235381           0
</event>
<event>
      6   9999  3.45752E-01  5.61295E+00 -1.00000E+00  2.18173E-01
      21    -1     0     0   501   512  0.000000000E+00  0.000000000E+00  1.216741463E+01  1.216741463E+01  0.000000000E+00  0.00000E+00  9.000E+00
      21    -1     0     0   502   503  0.000000000E+00  0.000000000E+00 -8.407689687E+02  8.407689687E+02  0.000000000E+00  0.00000E+00  9.000E+00
      25     1     1     2     0     0  5.987468193E+00  9.319260267E+00 -7.606569030E+02  7.709387101E+02  1.249994895E+02  0.00000E+00  9.000E+00
       5     1     1     2   501     0 -1.327915863E+00 -7.540212744E-01  4.475178106E+00  6.702359861E+00  4.750000000E+00  0.00000E+00  9.000E+00
      -5     1     1     2     0   503 -4.831932548E+00 -2.954936345E+00 -6.727916744E+01  6.768403130E+01  4.750000000E+00  0.00000E+00  9.000E+00
      21     1     1     2   502   512  1.723802190E-01 -5.610302648E+00 -5.140661787E+00  7.611282044E+00  0.000000000E+00  0.00000E+00  9.000E+00
#rwgt            1           9   2.6029069931416630E-004           6     1238538           0
</event>
<event>
      6   9999  3.45752E-01  7.26926E+00 -1.00000E+00  2.03071E-01
      21    -1     0     0   501   502  0.000000000E+00  0.000000000E+00  1.764254253E+02  1.764254253E+02  0.000000000E+00  0.00000E+00  9.000E+00
      21    -1     0     0   511   503  0.000000000E+00  0.000000000E+00 -9.258585168E+01  9.258585168E+01  0.000000000E+00  0.00000E+00  9.000E+00
      25     1     1     2     0     0  1.311293343E+01 -1.138040800E+01 -2.993769690E+01  1.296975205E+02  1.249948735E+02  0.00000E+00  9.000E+00
       5     1     1     2   501     0 -1.532295704E+00 -9.537480313E-01  1.121949915E+02  1.123100004E+02  4.750000000E+00  0.00000E+00  9.000E+00
      -5     1     1     2     0   503 -6.629069939E+00  1.765619824E+01 -4.566247997E-01  1.945396902E+01  4.750000000E+00  0.00000E+00  9.000E+00
      21     1     1     2   511   502 -4.951567783E+00 -5.322042211E+00  2.038903826E+00  7.549787124E+00  1.519626234E-07  0.00000E+00  9.000E+00
#rwgt            1           9   2.5451575116501530                6     1242294           0
</event>
<event>
      6   9999  3.45752E-01  2.83655E+01 -1.00000E+00  1.49429E-01
      21    -1     0     0   512   503  0.000000000E+00  0.000000000E+00  2.827835915E+01  2.827835915E+01  0.000000000E+00  0.00000E+00  9.000E+00
      21    -1     0     0   501   502  0.000000000E+00  0.000000000E+00 -7.736489747E+02  7.736489747E+02  0.000000000E+00  0.00000E+00  9.000E+00
      25     1     1     2     0     0  3.064060253E+01  2.401393165E+01 -6.569374787E+02  6.698553033E+02  1.249950442E+02  0.00000E+00  9.000E+00
       5     1     1     2   501     0 -5.657649470E-01 -2.479103729E+01 -8.241986441E+01  8.620041861E+01  4.750000000E+00  0.00000E+00  9.000E+00
      -5     1     1     2     0   503 -1.807956108E+00 -1.586418755E+00 -1.516003997E+01  1.606781696E+01  4.750000000E+00  0.00000E+00  9.000E+00
      21     1     1     2   512   502 -2.826688147E+01  2.363524400E+00  9.146767541E+00  2.980379493E+01  1.311302185E-06  0.00000E+00  9.000E+00
#rwgt            1           9   1.2565865906566468E-004           6     1245947           0
</event>
<event>
      6   9999  3.45752E-01  3.72847E+01 -1.00000E+00  1.41980E-01
      21    -1     0     0   511   502  0.000000000E+00  0.000000000E+00  6.099452081E+02  6.099452081E+02  0.000000000E+00  0.00000E+00  9.000E+00
      21    -1     0     0   502   503  0.000000000E+00  0.000000000E+00 -9.963690216E+02  9.963690216E+02  0.000000000E+00  0.00000E+00  9.000E+00
      25     1     1     2     0     0 -1.923344686E+02  3.680474546E+01 -8.431160856E+02  8.745379581E+02  1.249990773E+02  0.00000E+00  9.000E+00
       5     1     1     2   501     0 -8.944721939E-01  5.024890772E+00  1.665360292E+01  1.805421275E+01  4.750000000E+00  0.00000E+00  9.000E+00
      -5     1     1     2     0   503  2.028497048E+02 -5.807595172E+00 -6.048763731E+01  2.118089886E+02  4.750000000E+00  0.00000E+00  9.000E+00
      21     1     1     2   511   501 -9.620763981E+00 -3.602204106E+01  5.005263065E+02  5.019130702E+02  5.394796609E-06  0.00000E+00  9.000E+00
#rwgt            1           9   1.5480870192644252E-004           6     1246963           0
</event>
<event>
      6   9999  3.45752E-01  1.72561E+01 -1.00000E+00  1.65261E-01
      21    -1     0     0   501   512  0.000000000E+00  0.000000000E+00  1.223760424E+01  1.223760424E+01  0.000000000E+00  0.00000E+00  9.000E+00
      21    -1     0     0   502   503  0.000000000E+00  0.000000000E+00 -7.986395855E+02  7.986395855E+02  0.000000000E+00  0.00000E+00  9.000E+00
      25     1     1     2     0     0  3.574633523E+00 -7.257968765E+00 -6.839736983E+02  6.953503342E+02  1.250064444E+02  0.00000E+00  9.000E+00
       5     1     1     2   501     0 -1.694070530E-01 -5.593186177E+00  1.214073630E+00  7.439684479E+00  4.750000000E+00  0.00000E+00  9.000E+00
      -5     1     1     2     0   503 -2.756591777E+00 -4.392740329E+00 -6.927312672E+01  6.962918606E+01  4.750000000E+00  0.00000E+00  9.000E+00
      21     1     1     2   502   512 -6.486346933E-01  1.724389527E+01 -3.436922988E+01  3.845798505E+01  6.743495762E-07  0.00000E+00  9.000E+00
#rwgt            1           9   3.1809376170125595E-003           6     1249263           0
</event>
<event>
      6   9999  3.45752E-01  6.98344E+00 -1.00000E+00  2.05270E-01
      21    -1     0     0   511   502  0.000000000E+00  0.000000000E+00  1.816927756E+01  1.816927756E+01  0.000000000E+00  0.00000E+00  9.000E+00
      21    -1     0     0   502   503  0.000000000E+00  0.000000000E+00 -8.341625647E+02  8.341625647E+02  0.000000000E+00  0.00000E+00  9.000E+00
      25     1     1     2     0     0 -2.911194654E+00  1.235742136E+00 -8.081538732E+02  8.177697751E+02  1.249988808E+02  0.00000E+00  9.000E+00
       5     1     1     2   501     0  9.001675638E-02 -3.805783670E+00  5.172367646E+00  7.987989699E+00  4.750000000E+00  0.00000E+00  9.000E+00
      -5     1     1     2     0   503 -6.544245145E-01 -3.487075001E+00 -1.736209059E+01  1.834646160E+01  4.750000000E+00  0.00000E+00  9.000E+00
      21     1     1     2   511   501  3.475602412E+00  6.057116535E+00  4.350309055E+00  8.227615798E+00  4.951133646E-07  0.00000E+00  9.000E+00
#rwgt            1           9   5.6452931901972180E-004           6     1250792           0
</event>
<event>
      6   9999  3.45752E-01  2.70757E+01 -1.00000E+00  1.50778E-01
      21    -1     0     0   501   502  0.000000000E+00  0.000000000E+00  4.423981913E+01  4.423981913E+01  0.000000000E+00  0.00000E+00  9.000E+00
      21    -1     0     0   502   512  0.000000000E+00  0.000000000E+00 -1.572204877E+03  1.572204877E+03  0.000000000E+00  0.00000E+00  9.000E+00
      25     1     1     2     0     0  1.987565525E+01  1.052925382E+02 -9.831992520E+02  9.968891007E+02  1.250021985E+02  0.00000E+00  9.000E+00
       5     1     1     2   501     0 -7.522038423E-01  1.025775121E+00  2.912804686E+01  2.954020377E+01  4.750000000E+00  0.00000E+00  9.000E+00
      -5     1     1     2     0   503 -3.066828523E+01 -8.182733675E+01 -2.478043954E+02  2.628038006E+02  4.750000000E+00  0.00000E+00  9.000E+00
      21     1     1     2   503   512  1.154483382E+01 -2.449097654E+01 -3.260894570E+02  3.272115907E+02  3.814697266E-06  0.00000E+00  9.000E+00
#rwgt            1           9   7.0117327800282209E-002           6     1254213           0
</event>
<event>
      6   9999  3.45752E-01  2.99608E+01 -1.00000E+00  1.47875E-01
      21    -1     0     0   511   502  0.000000000E+00  0.000000000E+00  1.284439097E+03  1.284439097E+03  0.000000000E+00  0.00000E+00  9.000E+00
      21    -1     0     0   502   503  0.000000000E+00  0.000000000E+00 -4.172996654E+01  4.172996654E+01  0.000000000E+00  0.00000E+00  9.000E+00
      25     1     1     2     0     0 -3.130916567E+01  2.809870413E+00  2.785253469E+02  3.069063382E+02  1.250078891E+02  0.00000E+00  9.000E+00
       5     1     1     2   501     0 -4.569548517E+00  1.764418543E+00  4.571311840E+02  4.571821035E+02  4.750000000E+00  0.00000E+00  9.000E+00
      -5     1     1     2     0   503  7.088808502E+00  3.719621419E+00 -2.629404362E+01  2.789311778E+01  4.750000000E+00  0.00000E+00  9.000E+00
      21     1     1     2   511   501  2.878990569E+01 -8.293910375E+00  5.333466435E+02  5.341875043E+02  7.629394531E-06  0.00000E+00  9.000E+00
#rwgt            1           9   1054.0410454029482                6     1256111           0
</event>
<event>
      6   9999  3.45752E-01  2.74908E+01 -1.00000E+00  1.50334E-01
      21    -1     0     0   501   502  0.000000000E+00  0.000000000E+00  8.281105948E+01  8.281105948E+01  0.000000000E+00  0.00000E+00  9.000E+00
      21    -1     0     0   512   503  0.000000000E+00  0.000000000E+00 -1.731747479E+03  1.731747479E+03  0.000000000E+00  0.00000E+00  9.000E+00
      25     1     1     2     0     0 -1.384578219E+02  5.733561081E+01 -6.659849253E+02  6.939875814E+02  1.249996068E+02  0.00000E+00  9.000E+00
       5     1     1     2   501     0  2.249555135E+00 -1.991011448E+00  6.315538691E+01  6.340496842E+01  4.750000000E+00  0.00000E+00  9.000E+00
      -5     1     1     2     0   503  1.091755779E+02 -6.034216599E+01 -8.768068999E+02  8.856485680E+02  4.750000000E+00  0.00000E+00  9.000E+00
      21     1     1     2   512   502  2.703268891E+01  4.997566633E+00 -1.692999812E+02  1.715174206E+02  0.000000000E+00  0.00000E+00  9.000E+00
#rwgt            1           9   1.2041099373815047E-003           6     1257692           0
</event>
<event>
      6   9999  3.45752E-01  1.23801E+01 -1.00000E+00  1.77928E-01
      21    -1     0     0   511   503  0.000000000E+00  0.000000000E+00  4.265750312E+01  4.265750312E+01  0.000000000E+00  0.00000E+00  9.000E+00
      21    -1     0     0   501   502  0.000000000E+00  0.000000000E+00 -7.642479661E+02  7.642479661E+02  0.000000000E+00  0.00000E+00  9.000E+00
      25     1     1     2     0     0 -6.864751260E+00  8.699465675E-01 -4.502538076E+02  4.673330238E+02  1.249951288E+02  0.00000E+00  9.000E+00
       5     1     1     2   501     0  2.510422929E+00 -1.126393947E+01 -2.709219716E+02  2.712092472E+02  4.750000000E+00  0.00000E+00  9.000E+00
      -5     1     1     2     0   503  3.530221723E+00 -1.958598579E+00 -3.295917384E+01  3.354352715E+01  4.750000000E+00  0.00000E+00  9.000E+00
      21     1     1     2   511   502  8.241066083E-01  1.235259149E+01  3.254449004E+01  3.481967116E+01  2.286830675E-06  0.00000E+00  9.000E+00
#rwgt            1           9  0.65621121846942310                6     1260861           0
</event>
<event>
      6   9999 -3.45752E-01  2.11430E+01 -1.00000E+00  1.58390E-01
      21    -1     0     0   501   502  0.000000000E+00  0.000000000E+00  1.159973760E+01  1.159973760E+01  0.000000000E+00  0.00000E+00  9.000E+00
      21    -1     0     0   512   503  0.000000000E+00  0.000000000E+00 -9.768223342E+02  9.768223342E+02  0.000000000E+00  0.00000E+00  9.000E+00
      25     1     1     2     0     0  2.040267119E+00  2.790270136E+01 -7.590869545E+02  7.698190145E+02  1.250023485E+02  0.00000E+00  9.000E+00
       5     1     1     2   501     0  1.881757221E-01  2.268330973E+00  2.763468071E-01  5.274429170E+00  4.750000000E+00  0.00000E+00  9.000E+00
      -5     1     1     2     0   503 -1.004880115E+01 -1.052752260E+01 -1.755845975E+01  2.329526015E+01  4.750000000E+00  0.00000E+00  9.000E+00
      21     1     1     2   512   502  7.820358312E+00 -1.964350974E+01 -1.888535291E+02  1.900333680E+02  2.697398305E-06  0.00000E+00  9.000E+00
#rwgt            1           9  -2.7921762839511888E-004           6     1263212           0
</event>
<event>
      6   9999 -3.45752E-01  4.36289E+01 -1.00000E+00  1.38033E-01
      21    -1     0     0   502   511  0.000000000E+00  0.000000000E+00  2.177667412E+02  2.177667412E+02  0.000000000E+00  0.00000E+00  9.000E+00
      21    -1     0     0   501   502  0.000000000E+00  0.000000000E+00 -8.703167627E+02  8.703167627E+02  0.000000000E+00  0.00000E+00  9.000E+00
      25     1     1     2     0     0 -3.105034431E+01 -2.801447490E+01 -3.271907027E+02  3.527438511E+02  1.250021354E+02  0.00000E+00  9.000E+00
       5     1     1     2   501     0  2.554163130E+00  1.340265030E+01 -4.881242754E+02  4.883380238E+02  4.750000000E+00  0.00000E+00  9.000E+00
      -5     1     1     2     0   503 -1.336692128E+01  2.325023692E+00 -3.848224357E+01  4.107950693E+01  4.750000000E+00  0.00000E+00  9.000E+00
      21     1     1     2   503   511  4.186310246E+01  1.228680090E+01  2.012472001E+02  2.059221221E+02  2.697398305E-06  0.00000E+00  9.000E+00
#rwgt            1           9  -4.0125255598510634E-003           6     1264579           0
</event>
<event>
      6   9999  3.45752E-01  5.36058E+00 -1.00000E+00  2.21110E-01
      21    -1     0     0   512   503  0.000000000E+00  0.000000000E+00  3.600242052E+02  3.600242052E+02  0.000000000E+00  0.00000E+00  9.000E+00
      21    -1     0     0   501   502  0.000000000E+00  0.000000000E+00 -5.109330092E+01  5.109330092E+01  0.000000000E+00  0.00000E+00  9.000E+00
      25     1     1     2     0     0  1.432797920E+00 -2.694030405E+00  7.872616130E+01  1.477520929E+02  1.249942469E+02  0.00000E+00  9.000E+00
       5     1     1     2   501     0 -4.001050604E-01 -1.490700173E+00 -1.422895462E+01  1.508005042E+01  4.750000000E+00  0.00000E+00  9.000E+00
      -5     1     1     2     0   503  1.098699109E+00 -7.339043994E-01  1.308428056E+00  5.101003762E+00  4.750000000E+00  0.00000E+00  9.000E+00
      21     1     1     2   512   502 -2.131391968E+00  4.918634977E+00  2.431252696E+02  2.431843591E+02  2.697398305E-06  0.00000E+00  9.000E+00
#rwgt            1           9   2.8116912318368402E-004           6     1265497           0
</event>
<event>
      6   9999  3.45752E-01  1.38440E+01 -1.00000E+00  1.73446E-01
      21    -1     0     0   501   502  0.000000000E+00  0.000000000E+00  4.355221099E+00  4.355221099E+00  0.000000000E+00  0.00000E+00  9.000E+00
      21    -1     0     0   511   503  0.000000000E+00  0.000000000E+00 -4.923717285E+03  4.923717285E+03  0.000000000E+00  0.00000E+00  9.000E+00
      25     1     1     2     0     0 -8.130642867E+01 -4.433191195E+01 -2.902337790E+03  2.906504047E+03  1.250002941E+02  0.00000E+00  9.000E+00
       5     1     1     2   501     0 -1.965617032E-01 -1.463797681E+00 -4.954113187E+00  7.020475598E+00  4.750000000E+00  0.00000E+00  9.000E+00
      -5     1     1     2     0   503  7.119000709E+01  3.655995309E+01 -1.380351403E+03  1.382677549E+03  4.750000000E+00  0.00000E+00  9.000E+00
      21     1     1     2   511   502  1.031298328E+01  9.235756536E+00 -6.317187572E+02  6.318704337E+02  0.000000000E+00  0.00000E+00  9.000E+00
#rwgt            1           9   3.6007492464780965E-003           6     1268883           0
</event>
<event>
      6   9999  3.45752E-01  8.52560E+00 -1.00000E+00  1.94799E-01
      21    -1     0     0   512   503  0.000000000E+00  0.000000000E+00  5.065562192E+01  5.065562192E+01  0.000000000E+00  0.00000E+00  9.000E+00
      21    -1     0     0   501   502  0.000000000E+00  0.000000000E+00 -7.372752397E+02  7.372752397E+02  0.000000000E+00  0.00000E+00  9.000E+00
      25     1     1     2     0     0  8.710094467E+00 -4.023043642E+01 -6.195364495E+02  6.333580114E+02  1.249904183E+02  0.00000E+00  9.000E+00
       5     1     1     2   501     0 -8.254178620E+00  2.361161171E+01 -7.375604026E+01  7.802663421E+01  4.750000000E+00  0.00000E+00  9.000E+00
      -5     1     1     2     0   503  6.740471459E+00  1.204740579E+01 -3.293789153E+01  3.602833802E+01  4.750000000E+00  0.00000E+00  9.000E+00
      21     1     1     2   512   502 -7.196387306E+00  4.571418921E+00  3.961076342E+01  4.051787802E+01  2.023048729E-06  0.00000E+00  9.000E+00
#rwgt            1           9   1.7638856878409212E-004           6     1271062           0
</event>
<event>
      6   9999  3.45752E-01  1.38452E+01 -1.00000E+00  1.73443E-01
      21    -1     0     0   501   511  0.000000000E+00  0.000000000E+00  9.790987736E+01  9.790987736E+01  0.000000000E+00  0.00000E+00  9.000E+00
      21    -1     0     0   502   503  0.000000000E+00  0.000000000E+00 -2.896359448E+02  2.896359448E+02  0.000000000E+00  0.00000E+00  9.000E+00
      25     1     1     2     0     0  7.860727836E+00 -4.142542960E+00 -2.497234455E+02  2.794103724E+02  1.250176198E+02  0.00000E+00  9.000E+00
       5     1     1     2   501     0 -4.578764789E-01 -2.676160916E-01 -3.493495846E+00  5.920158990E+00  4.750000000E+00  0.00000E+00  9.000E+00
      -5     1     1     2     0   503 -2.090385705E+01  1.342192234E+00 -1.388661956E+01  2.557681416E+01  4.750000000E+00  0.00000E+00  9.000E+00
      21     1     1     2   502   511  1.350100569E+01  3.067966817E+00  7.537749348E+01  7.663847662E+01  1.907348633E-06  0.00000E+00  9.000E+00
#rwgt            1           9   1.3739379755911836E-003           6     1274230           0
</event>
<event>
      6   9999 -3.45752E-01  3.41506E+01 -1.00000E+00  1.44288E-01
      21    -1     0     0   501   512  0.000000000E+00  0.000000000E+00  3.008214254E+02  3.008214254E+02  0.000000000E+00  0.00000E+00  9.000E+00
      21    -1     0     0   502   503  0.000000000E+00  0.000000000E+00 -1.434992639E+03  1.434992639E+03  0.000000000E+00  0.00000E+00  9.000E+00
      25     1     1     2     0     0 -9.735240999E+01 -8.365871537E+01 -1.108739044E+03  1.123122285E+03  1.250005075E+02  0.00000E+00  9.000E+00
       5     1     1     2   501     0  1.135659585E+02  2.306248976E+01 -1.696556531E+02  2.055108476E+02  4.750000000E+00  0.00000E+00  9.000E+00
      -5     1     1     2     0   503  1.064054242E+01  3.949830533E+01 -1.271574363E+02  1.336596924E+02  4.750000000E+00  0.00000E+00  9.000E+00
      21     1     1     2   502   512 -2.685409093E+01  2.109792029E+01  2.713809201E+02  2.735212391E+02  0.000000000E+00  0.00000E+00  9.000E+00
#rwgt            1           9  -3.9682893725501147E-003           6     1275824           0
</event>
<event>
      6   9999  3.45752E-01  8.95640E+00 -1.00000E+00  1.92381E-01
      21    -1     0     0   501   502  0.000000000E+00  0.000000000E+00  7.826607333E+00  7.826607333E+00  0.000000000E+00  0.00000E+00  9.000E+00
      21    -1     0     0   502   511  0.000000000E+00  0.000000000E+00 -8.857307306E+02  8.857307306E+02  0.000000000E+00  0.00000E+00  9.000E+00
      25     1     1     2     0     0  1.192554561E+01 -4.531889408E+00 -6.177046475E+02  6.303538991E+02  1.249969997E+02  0.00000E+00  9.000E+00
       5     1     1     2   501     0  4.469195429E-01  3.600619661E-01 -4.212115375E+00  6.374464498E+00  4.750000000E+00  0.00000E+00  9.000E+00
      -5     1     1     2     0   503 -3.506164422E+00  2.904645619E+00 -3.235046654E+01  3.301280571E+01  4.750000000E+00  0.00000E+00  9.000E+00
      21     1     1     2   503   511 -8.866300730E+00  1.267181824E+00 -2.236368939E+02  2.238161686E+02  2.697398305E-06  0.00000E+00  9.000E+00
#rwgt            1           9   2.5237212848383853E-004           6     1277166           0
</event>
<event>
      6   9999 -3.45752E-01  7.83119E+00 -1.00000E+00  1.99118E-01
      21    -1     0     0   512   502  0.000000000E+00  0.000000000E+00  1.877364323E+01  1.877364323E+01  0.000000000E+00  0.00000E+00  9.000E+00
      21    -1     0     0   502   503  0.000000000E+00  0.000000000E+00 -5.993644665E+02  5.993644665E+02  0.000000000E+00  0.00000E+00  9.000E+00
      25     1     1     2     0     0  1.241274665E+00  8.094859065E+00 -5.523914433E+02  5.664168463E+02  1.249986786E+02  0.00000E+00  9.000E+00
       5     1     1     2   501     0  4.123769323E-01  3.028257493E-01  8.304057471E+00  9.580272890E+00  4.750000000E+00  0.00000E+00  9.000E+00
      -5     1     1     2     0   503  2.661483172E+00 -1.862611471E+00 -3.310969429E+01  3.360605854E+01  4.750000000E+00  0.00000E+00  9.000E+00
      21     1     1     2   512   501 -4.315134769E+00 -6.535073343E+00 -3.393743169E+00  8.534932008E+00  1.264405455E-07  0.00000E+00  9.000E+00
#rwgt            1           9  -3.9635312586032618E-004           6     1279716           0
</event>
<event>
      6   9999  3.45752E-01  1.38886E+02 -1.00000E+00  1.14669E-01
      21    -1     0     0   501   502  0.000000000E+00  0.000000000E+00  9.830339930E+01  9.830339930E+01  0.000000000E+00  0.00000E+00  9.000E+00
      21    -1     0     0   502   511  0.000000000E+00  0.000000000E+00 -2.459053880E+03  2.459053880E+03  0.000000000E+00  0.00000E+00  9.000E+00
      25     1     1     2     0     0  2.792261782E+02  6.471851632E+01 -7.880926500E+02  8.478627663E+02  1.250020022E+02  0.00000E+00  9.000E+00
       5     1     1     2   501     0 -8.614409371E+01  1.114522516E+01 -1.123440233E+02  1.420871669E+02  4.750000000E+00  0.00000E+00  9.000E+00
      -5     1     1     2     0   503 -3.278205219E+02 -1.095503302E+02 -5.722647383E+02  6.685634320E+02  4.750000000E+00  0.00000E+00  9.000E+00
      21     1     1     2   503   511  1.347384374E+02  3.368658873E+01 -8.880490693E+02  8.988439143E+02  0.000000000E+00  0.00000E+00  9.000E+00
#rwgt            1           9   1.0607404222184634E-002           6     1282550           0
</event>
<event>
      6   9999  3.45752E-01  1.52559E+01 -1.00000E+00  1.69737E-01
      21    -1     0     0   501   502  0.000000000E+00  0.000000000E+00  2.358100865E+03  2.358100865E+03  0.000000000E+00  0.00000E+00  9.000E+00
      21    -1     0     0   502   512  0.000000000E+00  0.000000000E+00 -4.249112907E+01  4.249112907E+01  0.000000000E+00  0.00000E+00  9.000E+00
      25     1     1     2     0     0  4.347165817E+01 -1.761578366E+01  1.010875759E+03  1.019654535E+03  1.250018726E+02  0.00000E+00  9.000E+00
       5     1     1     2   501     0  1.579895769E-01  8.784089565E+00  1.264599538E+03  1.264638975E+03  4.750000000E+00  0.00000E+00  9.000E+00
      -5     1     1     2     0   503 -4.745670677E+01  2.359978888E+01  6.690476791E+01  8.548625341E+01  4.750000000E+00  0.00000E+00  9.000E+00
      21     1     1     2   503   512  3.827059023E+00 -1.476809479E+01 -2.677032929E+01  3.081223028E+01  2.996875069E-06  0.00000E+00  9.000E+00
#rwgt            1           9   3.3588537616050526E-004           6     1283399           0
</event>
<event>
      6   9999  3.45752E-01  2.31123E+01 -1.00000E+00  1.55559E-01
      21    -1     0     0   501   502  0.000000000E+00  0.000000000E+00  9.074408269E+01  9.074408269E+01  0.000000000E+00  0.00000E+00  9.000E+00
      21    -1     0     0   511   503  0.000000000E+00  0.000000000E+00 -1.354058621E+02  1.354058621E+02  0.000000000E+00  0.00000E+00  9.000E+00
      25     1     1     2     0     0 -2.086346401E+01 -4.236720016E+00  6.777238470E+00  1.269805539E+02  1.249995848E+02  0.00000E+00  9.000E+00
       5     1     1     2   501     0 -2.837768411E+00 -1.840747818E+00  1.995777323E+01  2.079222197E+01  4.750000000E+00  0.00000E+00  9.000E+00
      -5     1     1     2     0   503  2.356940105E+00 -2.788156695E+00 -4.199455041E+00  7.316208516E+00  4.750000000E+00  0.00000E+00  9.000E+00
      21     1     1     2   511   502  2.134429232E+01  8.865624528E+00 -6.719733606E+01  7.106096035E+01  9.536743164E-07  0.00000E+00  9.000E+00
#rwgt            1           9   2.5082188533923988E-003           6     1286344           0
</event>
<event>
      6   9999 -3.45752E-01  6.92263E+00 -1.00000E+00  2.05756E-01
      21    -1     0     0   501   512  0.000000000E+00  0.000000000E+00  2.062680918E+01  2.062680918E+01  0.000000000E+00  0.00000E+00  9.000E+00
      21    -1     0     0   502   503  0.000000000E+00  0.000000000E+00 -3.485510350E+02  3.485510350E+02  0.000000000E+00  0.00000E+00  9.000E+00
      25     1     1     2     0     0  3.004517224E+00  4.298911441E+00 -3.114627265E+02  3.356568082E+02  1.250158194E+02  0.00000E+00  9.000E+00
       5     1     1     2   501     0  1.130154910E+00 -4.329054378E-01  4.863490792E+00  6.905121282E+00  4.750000000E+00  0.00000E+00  9.000E+00
      -5     1     1     2     0   503  5.421586878E-01  1.237913685E+00 -1.848509969E+01  1.913342042E+01  4.750000000E+00  0.00000E+00  9.000E+00
      21     1     1     2   502   512 -4.676830822E+00 -5.103919688E+00 -2.839890334E+00  7.482494225E+00  7.300048300E-08  0.00000E+00  9.000E+00
#rwgt            1           9  -5.5986584673401720E-004           6     1287367           0
</event>
<event>
      6   9999  3.45752E-01  2.01917E+02 -1.00000E+00  1.08751E-01
      21    -1     0     0   511   503  0.000000000E+00  0.000000000E+00  5.041963535E+01  5.041963535E+01  0.000000000E+00  0.00000E+00  9.000E+00
      21    -1     0     0   501   502  0.000000000E+00  0.000000000E+00 -1.785539922E+03  1.785539922E+03  0.000000000E+00  0.00000E+00  9.000E+00
      25     1     1     2     0     0  1.153408524E+02  1.508291116E+02 -9.610625791E+02  9.875827060E+02  1.250015481E+02  0.00000E+00  9.000E+00
       5     1     1     2   501     0  7.870187891E+01 -1.004970476E+02 -2.694444442E+02  2.981887210E+02  4.750000000E+00  0.00000E+00  9.000E+00
      -5     1     1     2     0   503  1.141097506E+00  1.376261302E+00  1.492673436E+00  5.290252610E+00  4.750000000E+00  0.00000E+00  9.000E+00
      21     1     1     2   511   502 -1.951838288E+02 -5.170832531E+01 -5.061059364E+02  5.448978774E+02  1.427329020E-05  0.00000E+00  9.000E+00
#rwgt            1           9   1.1923399929255529E-005           6     1290269           0
</event>
<event>
      6   9999  3.45752E-01  6.92600E+01 -1.00000E+00  1.27628E-01
      21    -1     0     0   501   512  0.000000000E+00  0.000000000E+00  2.350565908E+01  2.350565908E+01  0.000000000E+00  0.00000E+00  9.000E+00
      21    -1     0     0   502   503  0.000000000E+00  0.000000000E+00 -1.192018604E+03  1.192018604E+03  0.000000000E+00  0.00000E+00  9.000E+00
      25     1     1     2     0     0  1.506533901E+01 -5.220759738E+01 -7.410593666E+02  7.534897809E+02  1.250010699E+02  0.00000E+00  9.000E+00
       5     1     1     2   501     0  3.923113070E+01  8.942215059E+01 -2.684960881E+02  2.857413419E+02  4.750000000E+00  0.00000E+00  9.000E+00
      -5     1     1     2     0   503  4.078023489E+00  5.971058372E-02 -2.119343636E+01  2.209882544E+01  4.750000000E+00  0.00000E+00  9.000E+00
      21     1     1     2   502   512 -5.837449319E+01 -3.727426379E+01 -1.377640540E+02  1.541943149E+02  0.000000000E+00  0.00000E+00  9.000E+00
#rwgt            1           9   7.4593205173006927E-004           6     1290523           0
</event>
<event>
      6   9999  3.45752E-01  6.34081E+00 -1.00000E+00  2.10769E-01
      21    -1     0     0   502   511  0.000000000E+00  0.000000000E+00  4.960680881E+00  4.960680881E+00  0.000000000E+00  0.00000E+00  9.000E+00
      21    -1     0     0   501   502  0.000000000E+00  0.000000000E+00 -2.172346632E+03  2.172346632E+03  0.000000000E+00  0.00000E+00  9.000E+00
      25     1     1     2     0     0  6.086342306E+00 -3.449033603E+00 -1.722914973E+03  1.727446035E+03  1.248393428E+02  0.00000E+00  9.000E+00
       5     1     1     2   501     0  1.522046099E+00  6.759043509E+00 -3.299941328E+02  3.301010322E+02  4.750000000E+00  0.00000E+00  9.000E+00
      -5     1     1     2     0   503 -1.201731952E+01 -7.867117645E+00 -1.118964278E+02  1.129144834E+02  4.750000000E+00  0.00000E+00  9.000E+00
      21     1     1     2   503   511  4.408931114E+00  4.557107739E+00 -2.580417900E+00  6.845762270E+00  8.307313838E-07  0.00000E+00  9.000E+00
#rwgt            1           9   7.2042425932941009E-002           6     1291374           0
</event>
<event>
      6   9999 -3.45752E-01  2.21005E+01 -1.00000E+00  1.56969E-01
      21    -1     0     0   501   502  0.000000000E+00  0.000000000E+00  2.133685507E+01  2.133685507E+01  0.000000000E+00  0.00000E+00  9.000E+00
      21    -1     0     0   502   512  0.000000000E+00  0.000000000E+00 -1.620564128E+03  1.620564128E+03  0.000000000E+00  0.00000E+00  9.000E+00
      25     1     1     2     0     0 -1.346459353E+01 -2.583707508E+00 -9.059318428E+02  9.146178946E+02  1.250016737E+02  0.00000E+00  9.000E+00
       5     1     1     2   501     0  7.526861658E-01 -2.761813304E+00  1.504578950E+01  1.603534941E+01  4.750000000E+00  0.00000E+00  9.000E+00
      -5     1     1     2     0   503  1.329283291E+01 -1.674738745E+01 -9.435283486E+01  9.686172794E+01  4.750000000E+00  0.00000E+00  9.000E+00
      21     1     1     2   503   512 -5.809255396E-01  2.209290826E+01 -6.139883844E+02  6.143860108E+02  1.321449896E-05  0.00000E+00  9.000E+00
#rwgt            1           9  -1.1912366850393510E-003           6     1294621           0
</event>
<event>
      6   9999  3.45752E-01  1.29211E+01 -1.00000E+00  1.76185E-01
      21    -1     0     0   501   502  0.000000000E+00  0.000000000E+00  7.592713917E+01  7.592713917E+01  0.000000000E+00  0.00000E+00  9.000E+00
      -1    -1     0     0     0   503  0.000000000E+00  0.000000000E+00 -8.458514302E+02  8.458514302E+02  0.000000000E+00  0.00000E+00  9.000E+00
      25     1     1     2     0     0  1.707958849E+01 -3.890497275E+00 -4.371038806E+01  1.335783660E+02  1.250029341E+02  0.00000E+00  9.000E+00
       5     1     1     2   501     0 -2.860055883E-02  2.023671724E+00  2.639164991E+01  2.689196442E+01  4.750000000E+00  0.00000E+00  9.000E+00
      -5     1     1     2     0   503 -8.490988584E+00  1.154574027E+01 -8.973225564E+00  1.756366370E+01  4.750000000E+00  0.00000E+00  9.000E+00
      -1     1     1     2     0   502 -8.559999352E+00 -9.678914723E+00 -7.436323273E+02  7.437445752E+02  0.000000000E+00  0.00000E+00  9.000E+00
#rwgt            1           9   1.4263843520911501                6     1296408           0
</event>
<event>
      6   9999 -3.45752E-01  8.02475E+00 -1.00000E+00  1.97857E-01
      21    -1     0     0   501   502  0.000000000E+00  0.000000000E+00  2.172521936E+01  2.172521936E+01  0.000000000E+00  0.00000E+00  9.000E+00
      21    -1     0     0   511   503  0.000000000E+00  0.000000000E+00 -1.042361739E+03  1.042361739E+03  0.000000000E+00  0.00000E+00  9.000E+00
      25     1     1     2     0     0  6.502890206E+01  6.477108408E+01 -4.644776762E+02  4.896824947E+02  1.250015297E+02  0.00000E+00  9.000E+00
       5     1     1     2   501     0 -1.174120370E-01  1.381508138E-01  2.057685483E+00  5.179714353E+00  4.750000000E+00  0.00000E+00  9.000E+00
      -5     1     1     2     0   503 -7.267698479E+01 -6.693251430E+01 -4.515783610E+02  4.622850681E+02  4.750000000E+00  0.00000E+00  9.000E+00
      21     1     1     2   511   502  7.765494766E+00  2.023279403E+00 -1.066381684E+02  1.069396817E+02  1.907348633E-06  0.00000E+00  9.000E+00
#rwgt            1           9  -7.4852273865458176E-003           6     1298603           0
</event>
<event>
      6   9999  3.45752E-01  9.82643E+00 -1.00000E+00  1.87998E-01
      21    -1     0     0   501   502  0.000000000E+00  0.000000000E+00  1.370506872E+02  1.370506872E+02  0.000000000E+00  0.00000E+00  9.000E+00
      21    -1     0     0   502   512  0.000000000E+00  0.000000000E+00 -1.110606717E+02  1.110606717E+02  0.000000000E+00  0.00000E+00  9.000E+00
      25     1     1     2     0     0 -2.228898068E+01 -9.522676685E+00  1.189397065E+00  1.273317883E+02  1.249979585E+02  0.00000E+00  9.000E+00
       5     1     1     2   501     0  3.207994043E-04 -3.580246627E-01  6.369625965E+01  6.387412759E+01  4.750000000E+00  0.00000E+00  9.000E+00
      -5     1     1     2     0   503  1.345451414E+01  1.418378607E+01 -3.818563439E+00  2.047798000E+01  4.750000000E+00  0.00000E+00  9.000E+00
      21     1     1     2   503   512  8.834145739E+00 -4.303084726E+00 -3.507707778E+01  3.642746292E+01  0.000000000E+00  0.00000E+00  9.000E+00
#rwgt            1           9   4.0426992350284536E-003           6     1301871           0
</event>
<event>
      6   9999  3.45752E-01  6.25100E+00 -1.00000E+00  2.11608E-01
      21    -1     0     0   501   511  0.000000000E+00  0.000000000E+00  3.420710176E+01  3.420710176E+01  0.000000000E+00  0.00000E+00  9.000E+00
      21    -1     0     0   502   503  0.000000000E+00  0.000000000E+00 -1.183815540E+03  1.183815540E+03  0.000000000E+00  0.00000E+00  9.000E+00
      25     1     1     2     0     0 -1.043509546E+02 -3.604341708E+01 -9.087777297E+02  9.239529762E+02  1.249955617E+02  0.00000E+00  9.000E+00
       5     1     1     2   501     0  2.897582749E+00 -3.643660943E+00  1.475397714E+01  1.618377559E+01  4.750000000E+00  0.00000E+00  9.000E+00
      -5     1     1     2     0   503  9.584702466E+01  3.692232471E+01 -2.409604509E+02  2.619817009E+02  4.750000000E+00  0.00000E+00  9.000E+00
      21     1     1     2   502   511  5.606347199E+00  2.764753317E+00 -1.462423474E+01  1.590418912E+01  2.384185791E-07  0.00000E+00  9.000E+00
#rwgt            1           9   4.4861746857428642E-004           6     1304391           0
</event>
<event>
      6   9999  3.45752E-01  8.32598E+00 -1.00000E+00  1.95984E-01
      21    -1     0     0   512   502  0.000000000E+00  0.000000000E+00  5.241116593E+02  5.241116593E+02  0.000000000E+00  0.00000E+00  9.000E+00
      21    -1     0     0   502   503  0.000000000E+00  0.000000000E+00 -1.366167253E+03  1.366167253E+03  0.000000000E+00  0.00000E+00  9.000E+00
      25     1     1     2     0     0  4.177781903E+01 -2.768647903E+01 -3.880003353E+02  4.107084648E+02  1.250010222E+02  0.00000E+00  9.000E+00
       5     1     1     2   501     0 -7.728842941E+00 -2.771772154E+00  4.175552622E+01  4.281943723E+01  4.750000000E+00  0.00000E+00  9.000E+00
      -5     1     1     2     0   503 -3.279397116E+01  2.222740383E+01 -9.658321080E+02  9.666559499E+02  4.750000000E+00  0.00000E+00  9.000E+00
      21     1     1     2   512   501 -1.255004923E+00  8.230847352E+00  4.700213231E+02  4.700950607E+02  7.629394531E-06  0.00000E+00  9.000E+00
#rwgt            1           9   2.9812430767841643E-003           6     1309104           0
</event>
<event>
      6   9999  3.45752E-01  2.40227E+01 -1.00000E+00  1.54364E-01
      21    -1     0     0   511   503  0.000000000E+00  0.000000000E+00  2.544932352E+02  2.544932352E+02  0.000000000E+00  0.00000E+00  9.000E+00
      21    -1     0     0   501   502  0.000000000E+00  0.000000000E+00 -1.046286798E+03  1.046286798E+03  0.000000000E+00  0.00000E+00  9.000E+00
      25     1     1     2     0     0  1.152617815E+02  2.359949915E+01 -5.463829526E+02  5.727152230E+02  1.250047244E+02  0.00000E+00  9.000E+00
       5     1     1     2   501     0  1.124337042E+01  2.234025864E+01 -1.132648163E+02  1.160904029E+02  4.750000000E+00  0.00000E+00  9.000E+00
      -5     1     1     2     0   503 -1.033040175E+02 -5.216857508E+01 -3.624054989E+02  3.804649634E+02  4.750000000E+00  0.00000E+00  9.000E+00
      21     1     1     2   511   502 -2.320113443E+01  6.228817296E+00  2.302597050E+02  2.315094438E+02  5.394796609E-06  0.00000E+00  9.000E+00
#rwgt            1           9   5.5766288611322186E-004           6     1313589           0
</event>
<event>
      6   9999  3.45752E-01  2.25377E+01 -1.00000E+00  1.56349E-01
      21    -1     0     0   502   512  0.000000000E+00  0.000000000E+00  5.269921281E+02  5.269921281E+02  0.000000000E+00  0.00000E+00  9.000E+00
      21    -1     0     0   501   502  0.000000000E+00  0.000000000E+00 -4.309184186E+01  4.309184186E+01  0.000000000E+00  0.00000E+00  9.000E+00
      25     1     1     2     0     0 -3.207955760E+00  4.429989120E+01  2.266594630E+02  2.626159432E+02  1.249793989E+02  0.00000E+00  9.000E+00
       5     1     1     2   501     0  4.296887968E+00 -8.564340216E+00 -2.077942006E+00  1.089456344E+01  4.750000000E+00  0.00000E+00  9.000E+00
      -5     1     1     2     0   503 -2.680428338E+00 -5.821697613E+01  2.920699605E+01  6.536063130E+01  4.750000000E+00  0.00000E+00  9.000E+00
      21     1     1     2   503   512  1.591496130E+00  2.248142514E+01  2.301117693E+02  2.312128320E+02  2.697398305E-06  0.00000E+00  9.000E+00
#rwgt            1           9  0.19387695000885186                6     1315271           0
</event>
<event>
      6   9999  3.45752E-01  1.65361E+01 -1.00000E+00  1.66782E-01
      21    -1     0     0   501   502  0.000000000E+00  0.000000000E+00  8.045795785E+00  8.045795785E+00  0.000000000E+00  0.00000E+00  9.000E+00
      21    -1     0     0   502   511  0.000000000E+00  0.000000000E+00 -1.180589933E+03  1.180589933E+03  0.000000000E+00  0.00000E+00  9.000E+00
      25     1     1     2     0     0 -1.102788913E+01  7.822800567E-01 -5.474516310E+02  5.616190037E+02  1.248614860E+02  0.00000E+00  9.000E+00
       5     1     1     2   501     0 -8.647207198E-01 -2.714569722E-01 -7.105323573E+00  8.594739896E+00  4.750000000E+00  0.00000E+00  9.000E+00
      -5     1     1     2     0   503 -4.604725170E+00  6.202854157E-01 -1.832407372E+02  1.833611696E+02  4.750000000E+00  0.00000E+00  9.000E+00
      21     1     1     2   503   511  1.649733502E+01 -1.131108500E+00 -4.347464453E+02  4.350608155E+02  5.394796609E-06  0.00000E+00  9.000E+00
#rwgt            1           9   2.3105896141793876E-002           6     1316633           0
</event>
<event>
      6   9999 -3.45752E-01  2.37699E+01 -1.00000E+00  1.54689E-01
      21    -1     0     0   501   502  0.000000000E+00  0.000000000E+00  5.581099999E+01  5.581099999E+01  0.000000000E+00  0.00000E+00  9.000E+00
      21    -1     0     0   512   503  0.000000000E+00  0.000000000E+00 -4.260830816E+02  4.260830816E+02  0.000000000E+00  0.00000E+00  9.000E+00
      25     1     1     2     0     0 -2.332366726E+01  8.849124952E+00 -1.207432333E+02  1.755730155E+02  1.249986197E+02  0.00000E+00  9.000E+00
       5     1     1     2   501     0  1.854768079E+00  4.124574395E+00  1.701019308E+01  1.823078295E+01  4.750000000E+00  0.00000E+00  9.000E+00
      -5     1     1     2     0   503  3.476164488E+01  6.731893601E+00 -2.107454107E+01  4.147757379E+01  4.750000000E+00  0.00000E+00  9.000E+00
      21     1     1     2   512   502 -1.329274570E+01 -1.970559295E+01 -2.454645003E+02  2.466127093E+02  0.000000000E+00  0.00000E+00  9.000E+00
#rwgt            1           9  -7.2234039989814063                6     1318044           0
</event>
<event>
      6   9999  3.45752E-01  4.26189E+00 -1.00000E+00  2.42284E-01
      21    -1     0     0   511   502  0.000000000E+00  0.000000000E+00  7.657094751E+01  7.657094751E+01  0.000000000E+00  0.00000E+00  9.000E+00
      21    -1     0     0   502   503  0.000000000E+00  0.000000000E+00 -1.430333583E+03  1.430333583E+03  0.000000000E+00  0.00000E+00  9.000E+00
      25     1     1     2     0     0  3.581889344E+01 -4.811409415E+01 -5.581582664E+02  5.751206007E+02  1.250003834E+02  0.00000E+00  9.000E+00
       5     1     1     2   501     0 -6.640397497E+00  4.223364468E+00  5.309914107E+01  5.388889467E+01  4.750000000E+00  0.00000E+00  9.000E+00
      -5     1     1     2     0   503 -2.548873661E+01  4.175781083E+01 -8.622725980E+02  8.636723836E+02  4.750000000E+00  0.00000E+00  9.000E+00
      21     1     1     2   511   501 -3.689759331E+00  2.132918847E+00  1.356908791E+01  1.422265142E+01  7.539457465E-07  0.00000E+00  9.000E+00
#rwgt            1           9   6.4666562256582229E-004           6     1319299           0
</event>
<event>
      6   9999  3.45752E-01  1.00444E+01 -1.00000E+00  1.86991E-01
      21    -1     0     0   501   512  0.000000000E+00  0.000000000E+00  4.996656164E+01  4.996656164E+01  0.000000000E+00  0.00000E+00  9.000E+00
      21    -1     0     0   502   503  0.000000000E+00  0.000000000E+00 -1.299491405E+03  1.299491405E+03  0.000000000E+00  0.00000E+00  9.000E+00
      25     1     1     2     0     0 -1.064485766E+02 -7.912567761E+01 -1.049583385E+03  1.065290175E+03  1.250028125E+02  0.00000E+00  9.000E+00
       5     1     1     2   501     0 -8.406169749E-01 -3.733768991E+00  2.264962372E+01  2.345667543E+01  4.750000000E+00  0.00000E+00  9.000E+00
      -5     1     1     2     0   503  9.876550732E+01  7.754569698E+01 -2.046772289E+02  2.401734604E+02  4.750000000E+00  0.00000E+00  9.000E+00
      21     1     1     2   502   512  8.523686251E+00  5.313749616E+00 -1.791385377E+01  2.053765613E+01  0.000000000E+00  0.00000E+00  9.000E+00
#rwgt            1           9   4.4951420970186527E-002           6     1326407           0
</event>
<event>
      6   9999  3.45752E-01  3.73104E+01 -1.00000E+00  1.41962E-01
      21    -1     0     0   511   502  0.000000000E+00  0.000000000E+00  7.264752953E+01  7.264752953E+01  0.000000000E+00  0.00000E+00  9.000E+00
      21    -1     0     0   502   503  0.000000000E+00  0.000000000E+00 -3.856128682E+02  3.856128682E+02  0.000000000E+00  0.00000E+00  9.000E+00
      25     1     1     2     0     0 -7.748900439E+01  7.212549959E+01 -1.662062999E+02  2.333585859E+02  1.250002480E+02  0.00000E+00  9.000E+00
       5     1     1     2   501     0 -2.669222668E+00  3.155890905E+00  1.792818932E+01  1.900175963E+01  4.750000000E+00  0.00000E+00  9.000E+00
      -5     1     1     2     0   503  4.771774439E+01 -5.685085809E+01 -1.467083546E+02  1.644837591E+02  4.750000000E+00  0.00000E+00  9.000E+00
      21     1     1     2   511   501  3.244048266E+01 -1.843053241E+01 -1.797887350E+01  4.141629308E+01  2.384185791E-07  0.00000E+00  9.000E+00
#rwgt            1           9  0.67689224158550065                6     1330455           0
</event>
<event>
      6   9999  3.45752E-01  7.03080E+00 -1.00000E+00  2.04896E-01
      21    -1     0     0   501   512  0.000000000E+00  0.000000000E+00  1.961566778E+01  1.961566778E+01  0.000000000E+00  0.00000E+00  9.000E+00
      21    -1     0     0   502   503  0.000000000E+00  0.000000000E+00 -9.726539417E+02  9.726539417E+02  0.000000000E+00  0.00000E+00  9.000E+00
      25     1     1     2     0     0 -2.150208189E+00  2.797938426E+00 -9.298726525E+02  9.382430077E+02  1.249973591E+02  0.00000E+00  9.000E+00
       5     1     1     2   501     0 -2.360268371E+00  7.060400114E-01  1.348928262E+01  1.451180915E+01  4.750000000E+00  0.00000E+00  9.000E+00
      -5     1     1     2     0   503 -2.064740745E+00 -1.014258725E+00 -2.733774300E+01  2.784253162E+01  4.750000000E+00  0.00000E+00  9.000E+00
      21     1     1     2   502   512  6.575217304E+00 -2.489719712E+00 -9.317161009E+00  1.167226097E+01  1.192092896E-07  0.00000E+00  9.000E+00
#rwgt            1           9   2.3538947774130693E-004           6     1331761           0
</event>
<event>
      6   9999  3.45752E-01  7.18141E+00 -1.00000E+00  2.03733E-01
      21    -1     0     0   502   503  0.000000000E+00  0.000000000E+00  9.264454458E+00  9.264454458E+00  0.000000000E+00  0.00000E+00  9.000E+00
      21    -1     0     0   511   502  0.000000000E+00  0.000000000E+00 -8.364583406E+02  8.364583406E+02  0.000000000E+00  0.00000E+00  9.000E+00
      25     1     1     2     0     0  2.123026629E+01 -9.906831618E+00 -6.945925920E+02  7.061498773E+02  1.250596289E+02  0.00000E+00  9.000E+00
       5     1     1     2   501     0  1.283313222E+00 -1.185548091E+00 -2.289577997E+01  2.344848945E+01  4.750000000E+00  0.00000E+00  9.000E+00
      -5     1     1     2     0   503 -2.102381984E+01  4.067192045E+00 -3.661618748E+01  4.268314348E+01  4.750000000E+00  0.00000E+00  9.000E+00
      21     1     1     2   511   501 -1.489759673E+00  7.025187663E+00 -7.308932670E+01  7.344128487E+01  0.000000000E+00  0.00000E+00  9.000E+00
#rwgt            1           9   6.7862081208739933E-002           6     1335538           0
</event>
<event>
      6   9999  3.45752E-01  1.85924E+01 -1.00000E+00  1.62668E-01
      21    -1     0     0   512   502  0.000000000E+00  0.000000000E+00  1.743248654E+01  1.743248654E+01  0.000000000E+00  0.00000E+00  9.000E+00
      21    -1     0     0   502   503  0.000000000E+00  0.000000000E+00 -9.892039345E+02  9.892039345E+02  0.000000000E+00  0.00000E+00  9.000E+00
      25     1     1     2     0     0 -1.159376638E+01  3.432025618E+01 -5.382581146E+02  5.537674722E+02  1.249972798E+02  0.00000E+00  9.000E+00
       5     1     1     2   501     0 -2.010047938E+00  2.940158089E+00  6.067665792E+00  8.489045321E+00  4.750000000E+00  0.00000E+00  9.000E+00
      -5     1     1     2     0   503  1.258577257E+01 -1.869590240E+01 -3.998611632E+02  4.005239703E+02  4.750000000E+00  0.00000E+00  9.000E+00
      21     1     1     2   512   501  1.018041745E+00 -1.856451187E+01 -3.971983592E+01  4.385593319E+01  4.768371582E-07  0.00000E+00  9.000E+00
#rwgt            1           9   2.8707158675842740E-004           6     1338160           0
</event>
<event>
      6   9999  3.45752E-01  1.42792E+01 -1.00000E+00  1.72246E-01
      21    -1     0     0   501   502  0.000000000E+00  0.000000000E+00  3.874347490E+02  3.874347490E+02  0.000000000E+00  0.00000E+00  9.000E+00
      21    -1     0     0   511   503  0.000000000E+00  0.000000000E+00 -4.733600373E+02  4.733600373E+02  0.000000000E+00  0.00000E+00  9.000E+00
      25     1     1     2     0     0  8.679587760E+00 -1.388068871E+02 -2.057698977E+02  2.780361303E+02  1.249806057E+02  0.00000E+00  9.000E+00
       5     1     1     2   501     0 -9.575475666E-01 -1.157637098E+00  3.282281084E+02  3.282659145E+02  4.750000000E+00  0.00000E+00  9.000E+00
      -5     1     1     2     0   503 -1.292700732E+01  1.266677162E+02 -2.020557600E+02  2.388742567E+02  4.750000000E+00  0.00000E+00  9.000E+00
      21     1     1     2   511   502  5.204967122E+00  1.329680800E+01 -6.327738919E+00  1.561848474E+01  3.153981341E-07  0.00000E+00  9.000E+00
#rwgt            1           9   71.750377358102469                6     1340470           0
</event>
<event>
      6   9999  3.45752E-01  1.37832E+01 -1.00000E+00  1.73618E-01
      21    -1     0     0   501   502  0.000000000E+00  0.000000000E+00  1.137262402E+02  1.137262402E+02  0.000000000E+00  0.00000E+00  9.000E+00
      21    -1     0     0   502   512  0.000000000E+00  0.000000000E+00 -3.537475927E+02  3.537475927E+02  0.000000000E+00  0.00000E+00  9.000E+00
      25     1     1     2     0     0 -1.839843383E+01 -1.887464999E+01 -1.885753440E+02  2.277715582E+02  1.249978704E+02  0.00000E+00  9.000E+00
       5     1     1     2   501     0  5.780968577E+00 -2.117709612E+00  9.203553657E+01  9.236344939E+01  4.750000000E+00  0.00000E+00  9.000E+00
      -5     1     1     2     0   503  8.587303820E+00  7.811485660E+00 -2.414119359E+01  2.720516169E+01  4.750000000E+00  0.00000E+00  9.000E+00
      21     1     1     2   503   512  4.030161436E+00  1.318087394E+01 -1.193403515E+02  1.201336636E+02  1.348699152E-06  0.00000E+00  9.000E+00
#rwgt            1           9   249.35675132175038                6     1344553           0
</event>
<event>
      6   9999  3.45752E-01  7.48263E+00 -1.00000E+00  2.01516E-01
      21    -1     0     0   511   502  0.000000000E+00  0.000000000E+00  1.920593716E+01  1.920593716E+01  0.000000000E+00  0.00000E+00  9.000E+00
      21    -1     0     0   502   503  0.000000000E+00  0.000000000E+00 -7.385909480E+02  7.385909480E+02  0.000000000E+00  0.00000E+00  9.000E+00
      25     1     1     2     0     0  6.467820330E+00  5.358368156E+00 -6.097183087E+02  6.224620435E+02  1.250281362E+02  0.00000E+00  9.000E+00
       5     1     1     2   501     0  4.583023508E-01  9.134729065E-01 -1.854924171E+00  5.200742012E+00  4.750000000E+00  0.00000E+00  9.000E+00
      -5     1     1     2     0   503 -4.297177251E-01 -2.558823183E+00 -1.176495706E+02  1.177740048E+02  4.750000000E+00  0.00000E+00  9.000E+00
      21     1     1     2   511   501 -6.496404956E+00 -3.713017879E+00  9.837792689E+00  1.236009483E+01  6.419616708E-07  0.00000E+00  9.000E+00
#rwgt            1           9   4.6492273164323969E-004           6     1347088           0
</event>
<event>
      6   9999 -3.45752E-01  4.92746E+00 -1.00000E+00  2.30484E-01
      21    -1     0     0   512   502  0.000000000E+00  0.000000000E+00  1.097151776E+02  1.097151776E+02  0.000000000E+00  0.00000E+00  9.000E+00
      21    -1     0     0   502   503  0.000000000E+00  0.000000000E+00 -6.732922234E+02  6.732922234E+02  0.000000000E+00  0.00000E+00  9.000E+00
      25     1     1     2     0     0 -6.298532237E+00 -4.787784919E+00 -5.892575041E+02  6.024142211E+02  1.249635676E+02  0.00000E+00  9.000E+00
       5     1     1     2   501     0  7.724093341E-02 -4.421398525E-01 -5.888468817E+00  7.578787424E+00  4.750000000E+00  0.00000E+00  9.000E+00
      -5     1     1     2     0   503  2.637294003E+00  1.848376352E+00 -7.054680664E+01  7.077984347E+01  4.750000000E+00  0.00000E+00  9.000E+00
      21     1     1     2   512   501  3.583997300E+00  3.381548420E+00  1.021157338E+02  1.022345489E+02  2.336015456E-06  0.00000E+00  9.000E+00
#rwgt            1           9  -2.5535708936966033E-004           6     1349767           0
</event>
<event>
      6   9999  3.45752E-01  2.40477E+00 -1.00000E+00  3.04710E-01
      21    -1     0     0   511   503  0.000000000E+00  0.000000000E+00  2.629274112E+02  2.629274112E+02  0.000000000E+00  0.00000E+00  9.000E+00
      21    -1     0     0   501   502  0.000000000E+00  0.000000000E+00 -7.191748664E+02  7.191748664E+02  0.000000000E+00  0.00000E+00  9.000E+00
      25     1     1     2     0     0 -2.250296224E+00  5.623078054E+00 -6.573411617E+02  6.691480275E+02  1.249999883E+02  0.00000E+00  9.000E+00
       5     1     1     2   501     0 -7.912443052E-01  9.479886046E-01 -4.849686144E+01  4.874456708E+01  4.750000000E+00  0.00000E+00  9.000E+00
      -5     1     1     2     0   503  1.715278870E+00 -4.565091134E+00 -5.717592762E+00  8.890197167E+00  4.750000000E+00  0.00000E+00  9.000E+00
      21     1     1     2   511   502  1.326261659E+00 -2.005975525E+00  2.553081607E+02  2.553194858E+02  4.672030912E-06  0.00000E+00  9.000E+00
#rwgt            1           9   2.7679208390635765E-004           6     1353358           0
</event>
<event>
      6   9999  3.45752E-01  2.94051E+01 -1.00000E+00  1.48403E-01
      21    -1     0     0   501   512  0.000000000E+00  0.000000000E+00  7.303754999E+00  7.303754999E+00  0.000000000E+00  0.00000E+00  9.000E+00
      21    -1     0     0   502   503  0.000000000E+00  0.000000000E+00 -1.056540953E+03  1.056540953E+03  0.000000000E+00  0.00000E+00  9.000E+00
      25     1     1     2     0     0 -1.043990617E+01 -2.668750867E+01 -7.453257863E+02  7.562790649E+02  1.250051262E+02  0.00000E+00  9.000E+00
       5     1     1     2   501     0 -8.541387832E+00  5.900309215E+00 -1.128408986E+02  1.134169293E+02  4.750000000E+00  0.00000E+00  9.000E+00
      -5     1     1     2     0   503 -1.270257161E+00 -5.326190652E-01 -3.262392629E+01  3.299667109E+01  4.750000000E+00  0.00000E+00  9.000E+00
      21     1     1     2   502   512  2.025155117E+01  2.131981852E+01 -1.584465865E+02  1.611520424E+02  1.907348633E-06  0.00000E+00  9.000E+00
#rwgt            1           9   3.3156517837586727E-003           6     1359582           0
</event>
<event>
      6   9999  3.45752E-01  2.34939E+01 -1.00000E+00  1.55050E-01
      21    -1     0     0   502   503  0.000000000E+00  0.000000000E+00  1.420911036E+01  1.420911036E+01  0.000000000E+00  0.00000E+00  9.000E+00
      21    -1     0     0   511   502  0.000000000E+00  0.000000000E+00 -1.061484872E+03  1.061484872E+03  0.000000000E+00  0.00000E+00  9.000E+00
      25     1     1     2     0     0  7.388044032E-02 -3.225798661E+00 -2.976089364E+02  3.228062657E+02  1.249895792E+02  0.00000E+00  9.000E+00
       5     1     1     2   501     0 -1.369968522E+01  2.193536717E+01 -5.227113635E+02  5.233723089E+02  4.750000000E+00  0.00000E+00  9.000E+00
      -5     1     1     2     0   503  8.324798936E+00  4.178481037E+00 -5.809664913E+01  5.903003576E+01  4.750000000E+00  0.00000E+00  9.000E+00
      21     1     1     2   511   501  5.301005846E+00 -2.288804954E+01 -1.688588125E+02  1.704853719E+02  2.697398305E-06  0.00000E+00  9.000E+00
#rwgt            1           9   5.9706734015034328                6     1360428           0
</event>
<event>
      6   9999  3.45752E-01  1.37126E+01 -1.00000E+00  1.73819E-01
      21    -1     0     0   502   512  0.000000000E+00  0.000000000E+00  1.101501630E+03  1.101501630E+03  0.000000000E+00  0.00000E+00  9.000E+00
      21    -1     0     0   501   502  0.000000000E+00  0.000000000E+00 -5.636616857E+00  5.636616857E+00  0.000000000E+00  0.00000E+00  9.000E+00
      25     1     1     2     0     0  8.165454714E+00  1.199674938E+01  7.602964522E+02  7.706403527E+02  1.250010455E+02  0.00000E+00  9.000E+00
       5     1     1     2   501     0  3.280120782E-01  2.931352954E-01  4.034538288E+01  4.062641923E+01  4.750000000E+00  0.00000E+00  9.000E+00
      -5     1     1     2     0   503  5.179130038E-01 -1.953968224E+00  5.015706363E+01  5.042201660E+01  4.750000000E+00  0.00000E+00  9.000E+00
      21     1     1     2   503   512 -9.011379796E+00 -1.033591646E+01  2.450661146E+02  2.454494585E+02  0.000000000E+00  0.00000E+00  9.000E+00
#rwgt            1           9   6.1457633431850608E-002           6     1361891           0
</event>
<event>
      6   9999  3.45752E-01  1.93319E+01 -1.00000E+00  1.61345E-01
      21    -1     0     0   501   502  0.000000000E+00  0.000000000E+00  1.086291155E+01  1.086291155E+01  0.000000000E+00  0.00000E+00  9.000E+00
      21    -1     0     0   511   503  0.000000000E+00  0.000000000E+00 -1.279434350E+03  1.279434350E+03  0.000000000E+00  0.00000E+00  9.000E+00
      25     1     1     2     0     0 -3.626487810E+01 -1.489940435E+01 -4.156058203E+02  4.357712644E+02  1.250250508E+02  0.00000E+00  9.000E+00
       5     1     1     2   501     0 -6.221028535E-01  1.916649186E-01 -4.043156459E+01  4.071483344E+01  4.750000000E+00  0.00000E+00  9.000E+00
      -5     1     1     2     0   503  1.755959453E+01  1.512339490E+01 -3.081146807E+02  3.090214805E+02  4.750000000E+00  0.00000E+00  9.000E+00
      21     1     1     2   511   502  1.932738642E+01 -4.156554710E-01 -5.044193728E+02  5.047896832E+02  1.078959322E-05  0.00000E+00  9.000E+00
#rwgt            1           9   2.6256898767973796E-005           6     1364170           0
</event>
<event>
      6   9999  3.45752E-01  2.75865E+01 -1.00000E+00  1.50233E-01
      21    -1     0     0   501   512  0.000000000E+00  0.000000000E+00  1.498746808E+02  1.498746808E+02  0.000000000E+00  0.00000E+00  9.000E+00
      21    -1     0     0   502   503  0.000000000E+00  0.000000000E+00 -1.464673570E+03  1.464673570E+03  0.000000000E+00  0.00000E+00  9.000E+00
      25     1     1     2     0     0 -6.567294603E+01  5.684358332E+01 -7.885371434E+02  8.030938021E+02  1.249987987E+02  0.00000E+00  9.000E+00
       5     1     1     2   501     0  2.480446132E+00 -1.506601399E+01  6.246297677E+01  6.447730885E+01  4.750000000E+00  0.00000E+00  9.000E+00
      -5     1     1     2     0   503  4.079498325E+01 -5.788249662E+01 -6.634949977E+02  6.672801425E+02  4.750000000E+00  0.00000E+00  9.000E+00
      21     1     1     2   502   512  2.239751665E+01  1.610492729E+01  7.477027483E+01  7.969699764E+01  3.438521648E-06  0.00000E+00  9.000E+00
#rwgt            1           9   3.4440253563421287E-004           6     1365696           0
</event>
<event>
      6   9999  3.45752E-01  4.03316E+00 -1.00000E+00  2.47110E-01
      21    -1     0     0   511   502  0.000000000E+00  0.000000000E+00  4.506604735E+01  4.506604735E+01  0.000000000E+00  0.00000E+00  9.000E+00
      21    -1     0     0   502   503  0.000000000E+00  0.000000000E+00 -4.968299185E+02  4.968299185E+02  0.000000000E+00  0.00000E+00  9.000E+00
      25     1     1     2     0     0  4.572998112E-01  4.192250965E+00 -4.738549642E+02  4.900835981E+02  1.250024879E+02  0.00000E+00  9.000E+00
       5     1     1     2   501     0 -2.672121348E+00  2.927839794E-01  1.392256748E+01  1.495414124E+01  4.750000000E+00  0.00000E+00  9.000E+00
      -5     1     1     2     0   503 -4.132428928E-05 -1.114465292E+00 -1.374053011E+01  1.458103908E+01  4.750000000E+00  0.00000E+00  9.000E+00
      21     1     1     2   511   501  2.214862861E+00 -3.370569653E+00  2.190905569E+01  2.227718740E+01  2.384185791E-07  0.00000E+00  9.000E+00
#rwgt            1           9   5.8641981522053258E-002           6     1367830           0
</event>
<event>
      6   9999 -3.45752E-01  2.21823E+01 -1.00000E+00  1.56852E-01
      21    -1     0     0   501   502  0.000000000E+00  0.000000000E+00  4.338343716E+01  4.338343716E+01  0.000000000E+00  0.00000E+00  9.000E+00
       1    -1     0     0   502     0  0.000000000E+00  0.000000000E+00 -2.532179738E+03  2.532179738E+03  0.000000000E+00  0.00000E+00  9.000E+00
      25     1     1     2     0     0 -4.140321988E+01 -3.178901508E+01 -3.573486091E+02  3.821617032E+02  1.249990836E+02  0.00000E+00  9.000E+00
       5     1     1     2   501     0  7.496863186E-01 -1.910222802E-01  3.036011251E+01  3.073918429E+01  4.750000000E+00  0.00000E+00  9.000E+00
      -5     1     1     2     0   503  1.873671563E+01  2.855847969E+01 -9.015820404E+02  9.022413143E+02  4.750000000E+00  0.00000E+00  9.000E+00
       1     1     1     2   503     0  2.191681794E+01  3.421557670E+00 -1.260225764E+03  1.260420973E+03  1.525878906E-05  0.00000E+00  9.000E+00
#rwgt            1           9  -1.0732547446525609E-004           6     1372591           0
</event>
<event>
      6   9999 -3.45752E-01  1.86930E+01 -1.00000E+00  1.62483E-01
      21    -1     0     0   501   511  0.000000000E+00  0.000000000E+00  4.060349291E+01  4.060349291E+01  0.000000000E+00  0.00000E+00  9.000E+00
      21    -1     0     0   502   503  0.000000000E+00  0.000000000E+00 -8.377693096E+02  8.377693096E+02  0.000000000E+00  0.00000E+00  9.000E+00
      25     1     1     2     0     0 -5.306232187E+01 -2.004325984E+01 -4.374872356E+02  4.585146919E+02  1.249931959E+02  0.00000E+00  9.000E+00
       5     1     1     2   501     0  6.507937050E+00 -1.980615940E+00 -6.754447968E+01  6.805215147E+01  4.750000000E+00  0.00000E+00  9.000E+00
      -5     1     1     2     0   503  2.787196735E+01  2.265341180E+01 -3.179086610E+02  3.199664089E+02  4.750000000E+00  0.00000E+00  9.000E+00
      21     1     1     2   502   511  1.868241747E+01 -6.295360183E-01  2.577455960E+01  3.183955026E+01  9.536743164E-07  0.00000E+00  9.000E+00
#rwgt            1           9  -4.7838799816636747E-005           6     1374828           0
</event>
<event>
      6   9999  3.45752E-01  1.78926E+01 -1.00000E+00  1.63991E-01
      21    -1     0     0   501   502  0.000000000E+00  0.000000000E+00  1.095760761E+01  1.095760761E+01  0.000000000E+00  0.00000E+00  9.000E+00
      21    -1     0     0   502   512  0.000000000E+00  0.000000000E+00 -1.088975016E+03  1.088975016E+03  0.000000000E+00  0.00000E+00  9.000E+00
      25     1     1     2     0     0 -3.794294550E+01 -3.154555842E+01 -4.852890601E+02  5.035527293E+02  1.250003601E+02  0.00000E+00  9.000E+00
       5     1     1     2   501     0  2.794396069E+01  1.921719078E+01 -2.222682804E+02  2.248908987E+02  4.750000000E+00  0.00000E+00  9.000E+00
      -5     1     1     2     0   503 -2.313460297E+00 -6.542773775E-01 -2.474494171E+01  2.531115995E+01  4.750000000E+00  0.00000E+00  9.000E+00
      21     1     1     2   503   512  1.231244511E+01  1.298264501E+01 -3.457151259E+02  3.461778353E+02  3.814697266E-06  0.00000E+00  9.000E+00
#rwgt            1           9   1.9450116194509597                6     1376575           0
</event>
<event>
      6   9999  3.45752E-01  2.91675E+01 -1.00000E+00  1.48633E-01
      21    -1     0     0   501   502  0.000000000E+00  0.000000000E+00  4.207442443E+02  4.207442443E+02  0.000000000E+00  0.00000E+00  9.000E+00
      21    -1     0     0   511   503  0.000000000E+00  0.000000000E+00 -2.033126135E+02  2.033126135E+02  0.000000000E+00  0.00000E+00  9.000E+00
      25     1     1     2     0     0  9.116325197E+00  5.097773384E+01  3.504250349E+01  1.397677919E+02  1.250008874E+02  0.00000E+00  9.000E+00
       5     1     1     2   501     0  4.161552390E+00  4.774482498E+00  2.949938032E+02  2.951000180E+02  4.750000000E+00  0.00000E+00  9.000E+00
      -5     1     1     2     0   503  9.474977397E+00 -3.750254274E+01  2.645557317E+01  4.710282115E+01  4.750000000E+00  0.00000E+00  9.000E+00
      21     1     1     2   511   502 -2.275285498E+01 -1.824967359E+01 -1.390602490E+02  1.420862268E+02  0.000000000E+00  0.00000E+00  9.000E+00
#rwgt            1           9   1.4570427339737097E-003           6     1378413           0
</event>
<event>
      6   9999  3.45752E-01  5.98020E+01 -1.00000E+00  1.30755E-01
      21    -1     0     0   501   502  0.000000000E+00  0.000000000E+00  3.436602790E+02  3.436602790E+02  0.000000000E+00  0.00000E+00  9.000E+00
      21    -1     0     0   512   503  0.000000000E+00  0.000000000E+00 -6.160259443E+02  6.160259443E+02  0.000000000E+00  0.00000E+00  9.000E+00
      25     1     1     2     0     0  1.904438695E+02  1.427491920E+01 -3.854801533E+02  4.480158416E+02  1.251023778E+02  0.00000E+00  9.000E+00
       5     1     1     2   501     0  3.483551193E+00 -4.753412187E+00  5.406944850E+01  5.459668320E+01  4.750000000E+00  0.00000E+00  9.000E+00
      -5     1     1     2     0   503 -1.423534725E+02 -3.979374712E+01  2.314100466E+02  2.746292512E+02  4.750000000E+00  0.00000E+00  9.000E+00
      21     1     1     2   512   502 -5.157394817E+01  3.027224011E+01 -1.723650071E+02  1.824444472E+02  1.907348633E-06  0.00000E+00  9.000E+00
#rwgt            1           9   2.3887393751739261E-002           6     1380010           0
</event>
<event>
      6   9999  3.45752E-01  1.86723E+01 -1.00000E+00  1.62521E-01
      21    -1     0     0   501   502  0.000000000E+00  0.000000000E+00  1.798459225E+03  1.798459225E+03  0.000000000E+00  0.00000E+00  9.000E+00
      21    -1     0     0   502   511  0.000000000E+00  0.000000000E+00 -4.241854523E+01  4.241854523E+01  0.000000000E+00  0.00000E+00  9.000E+00
      25     1     1     2     0     0 -1.264736730E+01 -1.032504622E+01  1.417428846E+03  1.423023662E+03  1.250009826E+02  0.00000E+00  9.000E+00
       5     1     1     2   501     0 -1.451527792E+00 -1.166385023E-02  2.237841306E+02  2.238392430E+02  4.750000000E+00  0.00000E+00  9.000E+00
      -5     1     1     2     0   503 -3.761842727E+00  4.891476877E+00  1.521146640E+02  1.523138586E+02  4.750000000E+00  0.00000E+00  9.000E+00
      21     1     1     2   503   511  1.786073782E+01  5.445233196E+00 -3.728696098E+01  4.170100693E+01  1.066240300E-06  0.00000E+00  9.000E+00
#rwgt            1           9   1.1335176328418508E-002           6     1381552           0
</event>
<event>
      6   9999  3.45752E-01  6.44424E+00 -1.00000E+00  2.09826E-01
      21    -1     0     0   512   502  0.000000000E+00  0.000000000E+00  1.707785200E+02  1.707785200E+02  0.000000000E+00  0.00000E+00  9.000E+00
      21    -1     0     0   502   503  0.000000000E+00  0.000000000E+00 -1.184526097E+03  1.184526097E+03  0.000000000E+00  0.00000E+00  9.000E+00
      25     1     1     2     0     0 -1.434751251E+01  3.200715873E+01 -8.653234022E+02  8.750088134E+02  1.250020950E+02  0.00000E+00  9.000E+00
       5     1     1     2   501     0  5.173920093E+00 -3.852918618E+00  3.059166706E+01  3.162320389E+01  4.750000000E+00  0.00000E+00  9.000E+00
      -5     1     1     2     0   503  3.689028788E+00 -2.477078905E+01 -3.132492101E+02  3.142846338E+02  4.750000000E+00  0.00000E+00  9.000E+00
      21     1     1     2   512   501  5.484563625E+00 -3.383451060E+00  1.342333683E+02  1.343879658E+02  2.697398305E-06  0.00000E+00  9.000E+00
#rwgt            1           9   6.3885163835677897E-002           6     1383094           0
</event>
<event>
      6   9999  3.45752E-01  1.63507E+01 -1.00000E+00  1.67189E-01
      21    -1     0     0   501   502  0.000000000E+00  0.000000000E+00  2.630438415E+03  2.630438415E+03  0.000000000E+00  0.00000E+00  9.000E+00
       4    -1     0     0   502     0  0.000000000E+00  0.000000000E+00 -2.000886264E+02  2.000886264E+02  0.000000000E+00  0.00000E+00  9.000E+00
      25     1     1     2     0     0 -3.970302520E+01 -9.366649946E+01  1.337404760E+03  1.347080284E+03  1.249962212E+02  0.00000E+00  9.000E+00
       5     1     1     2   501     0  3.522855975E+00  6.945739087E-01  1.196257584E+03  1.196272403E+03  4.750000000E+00  0.00000E+00  9.000E+00
      -5     1     1     2     0   503  2.163851927E+01  1.004475885E+02  6.262980973E+01  1.204283983E+02  4.750000000E+00  0.00000E+00  9.000E+00
       4     1     1     2   503     0  1.454164995E+01 -7.475662986E+00 -1.659423655E+02  1.667459558E+02  5.394796609E-06  0.00000E+00  9.000E+00
#rwgt            1           9   3.6653454738972861E-004           6     1388051           0
</event>
<event>
      6   9999  3.45752E-01  7.82882E+00 -1.00000E+00  1.99134E-01
      21    -1     0     0   511   502  0.000000000E+00  0.000000000E+00  9.944259115E+01  9.944259115E+01  0.000000000E+00  0.00000E+00  9.000E+00
      21    -1     0     0   502   503  0.000000000E+00  0.000000000E+00 -9.163484966E+02  9.163484966E+02  0.000000000E+00  0.00000E+00  9.000E+00
      25     1     1     2     0     0  2.812954743E+00 -2.440947665E+00 -6.717419327E+02  6.832840916E+02  1.250042190E+02  0.00000E+00  9.000E+00
       5     1     1     2   501     0 -6.986194505E+00  2.316752896E+00  1.300005344E+01  1.567603735E+01  4.750000000E+00  0.00000E+00  9.000E+00
      -5     1     1     2     0   503 -3.624530567E+00 -5.724015959E-01 -2.372663033E+02  2.373422130E+02  4.750000000E+00  0.00000E+00  9.000E+00
      21     1     1     2   511   501  7.797770330E+00  6.965963656E-01  7.910227712E+01  7.948874584E+01  2.523185073E-06  0.00000E+00  9.000E+00
#rwgt            1           9  0.14537878703244411                6     1391028           0
</event>
<event>
      6   9999  3.45752E-01  1.80976E+01 -1.00000E+00  1.63596E-01
      21    -1     0     0   512   503  0.000000000E+00  0.000000000E+00  1.885772619E+01  1.885772619E+01  0.000000000E+00  0.00000E+00  9.000E+00
      21    -1     0     0   501   502  0.000000000E+00  0.000000000E+00 -7.192535748E+02  7.192535748E+02  0.000000000E+00  0.00000E+00  9.000E+00
      25     1     1     2     0     0 -8.430993859E+00  6.661869914E+00 -6.116097998E+02  6.243450929E+02  1.249991426E+02  0.00000E+00  9.000E+00
       5     1     1     2   501     0  2.828564605E+00 -1.389599391E+00 -3.664022233E+01  3.708099455E+01  4.750000000E+00  0.00000E+00  9.000E+00
      -5     1     1     2     0   503 -2.277971878E+00  1.101951108E+01 -5.671864294E+01  5.801883951E+01  4.750000000E+00  0.00000E+00  9.000E+00
      21     1     1     2   512   502  7.880401132E+00 -1.629178160E+01  4.572816445E+00  1.866637405E+01  8.301966356E-07  0.00000E+00  9.000E+00
#rwgt            1           9   8.4259048099159198E-005           6     1394565           0
</event>
<event>
      6   9999  3.45752E-01  2.75667E+01 -1.00000E+00  1.50254E-01
       1    -1     0     0   501     0  0.000000000E+00  0.000000000E+00  3.399261749E+01  3.399261749E+01  0.000000000E+00  0.00000E+00  9.000E+00
      21    -1     0     0   502   503  0.000000000E+00  0.000000000E+00 -7.620253065E+02  7.620253065E+02  0.000000000E+00  0.00000E+00  9.000E+00
      25     1     1     2     0     0  1.759733675E+01  2.643083582E+00 -6.058672742E+02  6.188830435E+02  1.249976619E+02  0.00000E+00  9.000E+00
       5     1     1     2   501     0  1.168414734E+00 -8.320002373E-01 -5.346231169E+00  7.293977316E+00  4.750000000E+00  0.00000E+00  9.000E+00
      -5     1     1     2     0   503  5.977305424E+00 -1.396446156E+01 -1.355703168E+02  1.365013101E+02  4.750000000E+00  0.00000E+00  9.000E+00
       1     1     1     2   502     0 -2.474305691E+01  1.215337822E+01  1.875113317E+01  3.333959302E+01  1.143415337E-06  0.00000E+00  9.000E+00
#rwgt            1           9   5.4263526467009647E-004           6     1395784           0
</event>
<event>
      6   9999  3.45752E-01  1.83254E+01 -1.00000E+00  1.63164E-01
      21    -1     0     0   511   502  0.000000000E+00  0.000000000E+00  2.771075457E+01  2.771075457E+01  0.000000000E+00  0.00000E+00  9.000E+00
      21    -1     0     0   502   503  0.000000000E+00  0.000000000E+00 -7.536443878E+02  7.536443878E+02  0.000000000E+00  0.00000E+00  9.000E+00
      25     1     1     2     0     0 -1.893570357E+00 -4.667170810E+00 -7.032011340E+02  7.142405568E+02  1.249894794E+02  0.00000E+00  9.000E+00
       5     1     1     2   501     0 -7.999844922E+00  1.802599252E+00 -7.856602409E+00  1.230997905E+01  4.750000000E+00  0.00000E+00  9.000E+00
      -5     1     1     2     0   503 -6.807068077E+00 -4.679617313E+00 -2.972707823E+01  3.121692929E+01  4.750000000E+00  0.00000E+00  9.000E+00
      21     1     1     2   511   501  1.670048336E+01  7.544188871E+00  1.485118141E+01  2.358767728E+01  7.725644944E-07  0.00000E+00  9.000E+00
#rwgt            1           9   6.1345641049761156E-004           6     1396662           0
</event>
<event>
      6   9999  3.45752E-01  1.82505E+01 -1.00000E+00  1.63305E-01
      21    -1     0     0   501   502  0.000000000E+00  0.000000000E+00  8.284367622E+00  8.284367622E+00  0.000000000E+00  0.00000E+00  9.000E+00
       1    -1     0     0   502     0  0.000000000E+00  0.000000000E+00 -1.266369653E+03  1.266369653E+03  0.000000000E+00  0.00000E+00  9.000E+00
      25     1     1     2     0     0 -2.877665728E+01 -2.807654224E+01 -8.299897482E+02  8.403120701E+02  1.250000193E+02  0.00000E+00  9.000E+00
       5     1     1     2   501     0 -2.365385074E+00 -2.795562377E+00 -9.115928223E+00  1.091205127E+01  4.750000000E+00  0.00000E+00  9.000E+00
      -5     1     1     2     0   503  3.071288005E+01  1.262665192E+01 -1.444319442E+02  1.482763040E+02  4.750000000E+00  0.00000E+00  9.000E+00
       1     1     1     2   503     0  4.291623069E-01  1.824545269E+01 -2.745476649E+02  2.751535954E+02  3.814697266E-06  0.00000E+00  9.000E+00
#rwgt            1           9   130.18991036317487                6     1398117           0
</event>
<event>
      6   9999 -3.45752E-01  1.20893E+01 -1.00000E+00  1.78912E-01
      21    -1     0     0   501   502  0.000000000E+00  0.000000000E+00  7.268902594E+00  7.268902594E+00  0.000000000E+00  0.00000E+00  9.000E+00
      21    -1     0     0   511   503  0.000000000E+00  0.000000000E+00 -1.171178995E+03  1.171178995E+03  0.000000000E+00  0.00000E+00  9.000E+00
      25     1     1     2     0     0  7.163746806E+00  5.829341810E+00 -8.881374477E+02  8.969386108E+02  1.250017808E+02  0.00000E+00  9.000E+00
       5     1     1     2   501     0  1.980014172E+00  4.494570813E-01 -1.727386267E-02  5.165778371E+00  4.750000000E+00  0.00000E+00  9.000E+00
      -5     1     1     2     0   503  1.066839352E+00  1.938199394E-01 -4.315137525E+01  4.342556157E+01  4.750000000E+00  0.00000E+00  9.000E+00
      21     1     1     2   511   502 -1.021060033E+01 -6.472618831E+00 -2.326039960E+02  2.329179472E+02  5.394796609E-06  0.00000E+00  9.000E+00
#rwgt            1           9  -7.2173047806881529E-005           6     1399668           0
</event>
<event>
      6   9999  3.45752E-01  2.21495E+02 -1.00000E+00  1.07382E-01
      21    -1     0     0   512   503  0.000000000E+00  0.000000000E+00  3.250843483E+02  3.250843483E+02  0.000000000E+00  0.00000E+00  9.000E+00
      21    -1     0     0   501   502  0.000000000E+00  0.000000000E+00 -1.317415508E+03  1.317415508E+03  0.000000000E+00  0.00000E+00  9.000E+00
      25     1     1     2     0     0  1.942810008E+02 -7.531146010E+01 -6.977119617E+02  7.388125063E+02  1.250000591E+02  0.00000E+00  9.000E+00
       5     1     1     2   501     0  7.496489732E+01  3.222645460E+01 -3.422574484E+02  3.518820878E+02  4.750000000E+00  0.00000E+00  9.000E+00
      -5     1     1     2     0   503 -4.820915691E+01  2.885163109E+01 -2.068675109E+02  2.144137798E+02  4.750000000E+00  0.00000E+00  9.000E+00
      21     1     1     2   512   502 -2.210367412E+02  1.423337442E+01  2.545057612E+02  3.373914824E+02  8.092194914E-06  0.00000E+00  9.000E+00
#rwgt            1           9   2.3477131294554645E-003           6     1402366           0
</event>
<event>
      6   9999 -3.45752E-01  8.27548E+00 -1.00000E+00  1.96290E-01
      21    -1     0     0   511   502  0.000000000E+00  0.000000000E+00  1.420689745E+01  1.420689745E+01  0.000000000E+00  0.00000E+00  9.000E+00
      21    -1     0     0   502   503  0.000000000E+00  0.000000000E+00 -1.543357120E+03  1.543357120E+03  0.000000000E+00  0.00000E+00  9.000E+00
      25     1     1     2     0     0  2.116931171E+01  3.299905509E+01 -8.219260091E+02  8.323006161E+02  1.249994945E+02  0.00000E+00  9.000E+00
       5     1     1     2   501     0 -3.858496564E+00  9.184800345E-02  1.662394131E+00  6.342119996E+00  4.750000000E+00  0.00000E+00  9.000E+00
      -5     1     1     2     0   503 -2.454816329E+01 -3.710392148E+01 -7.092288276E+02  7.106387308E+02  4.750000000E+00  0.00000E+00  9.000E+00
      21     1     1     2   511   501  7.237348146E+00  4.013018390E+00  3.422203380E-01  8.282550304E+00  5.780925602E-07  0.00000E+00  9.000E+00
#rwgt            1           9  -2.7284006597174526E-004           6     1402510           0
</event>
<event>
      6   9999  3.45752E-01  1.32785E+01 -1.00000E+00  1.75091E-01
      21    -1     0     0   512   502  0.000000000E+00  0.000000000E+00  9.277874451E+01  9.277874451E+01  0.000000000E+00  0.00000E+00  9.000E+00
      21    -1     0     0   502   503  0.000000000E+00  0.000000000E+00 -1.659542304E+02  1.659542304E+02  0.000000000E+00  0.00000E+00  9.000E+00
      25     1     1     2     0     0 -1.992076518E+01 -1.498920077E+01 -9.493648054E+01  1.589296715E+02  1.249967684E+02  0.00000E+00  9.000E+00
       5     1     1     2   501     0 -5.420931462E-01 -9.438912080E-01  3.688216233E+00  6.111483828E+00  4.750000000E+00  0.00000E+00  9.000E+00
      -5     1     1     2     0   503  1.945584854E+01  2.692829066E+00 -3.421914223E+01  3.974032669E+01  4.750000000E+00  0.00000E+00  9.000E+00
      21     1     1     2   512   501  1.007009792E+00  1.324026291E+01  5.229192060E+01  5.395149295E+01  0.000000000E+00  0.00000E+00  9.000E+00
#rwgt            1           9   4.1437310321833995E-002           6     1405671           0
</event>
<event>
      6   9999  3.45752E-01  4.57099E+00 -1.00000E+00  2.36436E-01
      21    -1     0     0   501   502  0.000000000E+00  0.000000000E+00  4.023753230E+02  4.023753230E+02  0.000000000E+00  0.00000E+00  9.000E+00
       2    -1     0     0   502     0  0.000000000E+00  0.000000000E+00 -2.224003101E+03  2.224003101E+03  0.000000000E+00  0.00000E+00  9.000E+00
      25     1     1     2     0     0  2.508204876E+00  4.351905091E+00  6.031477986E+01  1.388768159E+02  1.249946686E+02  0.00000E+00  9.000E+00
       5     1     1     2   501     0  2.174284622E+00 -2.974663514E+00  2.958122048E+02  2.958732822E+02  4.750000000E+00  0.00000E+00  9.000E+00
      -5     1     1     2     0   503 -1.210370317E+00  1.595695664E+00  5.976347719E+00  7.892431375E+00  4.750000000E+00  0.00000E+00  9.000E+00
       2     1     1     2   503     0 -3.472119182E+00 -2.972937240E+00 -2.183731110E+03  2.183735894E+03  4.315837288E-05  0.00000E+00  9.000E+00
#rwgt            1           9   3.0064637567953058E-005           6     1407470           0
</event>
<event>
      6   9999  3.45752E-01  8.94995E+00 -1.00000E+00  1.92416E-01
      21    -1     0     0   501   502  0.000000000E+00  0.000000000E+00  1.055140607E+03  1.055140607E+03  0.000000000E+00  0.00000E+00  9.000E+00
      21    -1     0     0   502   511  0.000000000E+00  0.000000000E+00 -7.564009543E+01  7.564009543E+01  0.000000000E+00  0.00000E+00  9.000E+00
      25     1     1     2     0     0  2.063831573E+01  1.067209807E+01 -1.641496575E+01  1.281979263E+02  1.250016938E+02  0.00000E+00  9.000E+00
       5     1     1     2   501     0 -6.322956220E+00 -7.713797376E+00  9.784676918E+02  9.785300551E+02  4.750000000E+00  0.00000E+00  9.000E+00
      -5     1     1     2     0   503 -5.778868446E+00 -2.694321095E-01  6.512678836E+00  9.921965520E+00  4.750000000E+00  0.00000E+00  9.000E+00
      21     1     1     2   503   511 -8.536491060E+00 -2.688868583E+00  1.093510688E+01  1.413075569E+01  2.064765462E-07  0.00000E+00  9.000E+00
#rwgt            1           9   7.0083029705412372E-002           6     1412135           0
</event>
<event>
      6   9999 -3.45752E-01  9.81188E+00 -1.00000E+00  1.88067E-01
      21    -1     0     0   501   502  0.000000000E+00  0.000000000E+00  8.767124268E+00  8.767124268E+00  0.000000000E+00  0.00000E+00  9.000E+00
      21    -1     0     0   502   512  0.000000000E+00  0.000000000E+00 -2.747158476E+03  2.747158476E+03  0.000000000E+00  0.00000E+00  9.000E+00
      25     1     1     2     0     0 -1.303627724E+01  6.356173944E+00 -2.502158036E+03  2.505319982E+03  1.249921101E+02  0.00000E+00  9.000E+00
       5     1     1     2   501     0  7.494066361E-01  2.044407140E+00  5.152375708E+00  7.338302685E+00  4.750000000E+00  0.00000E+00  9.000E+00
      -5     1     1     2     0   503  5.233222799E+00 -1.522106100E+01 -8.915146730E+01  9.071721965E+01  4.750000000E+00  0.00000E+00  9.000E+00
      21     1     1     2   503   512  7.053647801E+00  6.820479912E+00 -1.522342236E+02  1.525500958E+02  2.697398305E-06  0.00000E+00  9.000E+00
#rwgt            1           9  -2.1978185039176808E-003           6     1416810           0
</event>
<event>
      6   9999 -3.45752E-01  2.81660E+01 -1.00000E+00  1.49632E-01
      21    -1     0     0   502   503  0.000000000E+00  0.000000000E+00  1.614941530E+01  1.614941530E+01  0.000000000E+00  0.00000E+00  9.000E+00
      21    -1     0     0   501   511  0.000000000E+00  0.000000000E+00 -1.142182329E+03  1.142182329E+03  0.000000000E+00  0.00000E+00  9.000E+00
      25     1     1     2     0     0 -6.692319874E+01  3.749383065E-01 -5.563817172E+02  5.741644899E+02  1.250015648E+02  0.00000E+00  9.000E+00
       5     1     1     2   501     0  1.517523905E+01  7.384098134E-01 -7.274236077E+01  7.446372728E+01  4.750000000E+00  0.00000E+00  9.000E+00
      -5     1     1     2     0   503  6.224704790E+01 -2.724943831E+01 -1.963834514E+02  2.078611300E+02  4.750000000E+00  0.00000E+00  9.000E+00
      21     1     1     2   502   511 -1.049908821E+01  2.613609019E+01 -3.005253841E+02  3.018423968E+02  6.607249480E-06  0.00000E+00  9.000E+00
#rwgt            1           9  -4.4097193448937337E-003           6     1420357           0
</event>
<event>
      6   9999  3.45752E-01  1.68041E+01 -1.00000E+00  1.66205E-01
      21    -1     0     0   501   512  0.000000000E+00  0.000000000E+00  4.271449922E+02  4.271449922E+02  0.000000000E+00  0.00000E+00  9.000E+00
      21    -1     0     0   502   503  0.000000000E+00  0.000000000E+00 -9.288923236E+02  9.288923236E+02  0.000000000E+00  0.00000E+00  9.000E+00
      25     1     1     2     0     0 -5.806442235E+00 -1.107110443E+01 -8.769752156E+02  8.859271002E+02  1.250000560E+02  0.00000E+00  9.000E+00
       5     1     1     2   501     0 -8.003164148E+00 -3.108652918E+00  1.483375502E+01  1.778530706E+01  4.750000000E+00  0.00000E+00  9.000E+00
      -5     1     1     2     0   503  3.078878510E+00  1.248019691E+00 -4.560814944E+01  4.597502411E+01  4.750000000E+00  0.00000E+00  9.000E+00
      21     1     1     2   502   512  1.073072787E+01  1.293173766E+01  4.060022786E+02  4.063498845E+02  0.000000000E+00  0.00000E+00  9.000E+00
#rwgt            1           9   3.6568297354821870E-004           6     1421666           0
</event>
<event>
      6   9999  3.45752E-01  1.10533E+01 -1.00000E+00  1.82726E-01
      21    -1     0     0   511   502  0.000000000E+00  0.000000000E+00  8.564144438E+01  8.564144438E+01  0.000000000E+00  0.00000E+00  9.000E+00
      21    -1     0     0   502   503  0.000000000E+00  0.000000000E+00 -1.402139271E+02  1.402139271E+02  0.000000000E+00  0.00000E+00  9.000E+00
      25     1     1     2     0     0  4.893636070E+00  7.778153175E+00 -1.043979763E+02  1.631247799E+02  1.250052359E+02  0.00000E+00  9.000E+00
       5     1     1     2   501     0  4.026415289E+00  6.065503450E-03  4.235317029E+01  4.280847568E+01  4.750000000E+00  0.00000E+00  9.000E+00
      -5     1     1     2     0   503 -1.378912166E+00  2.970821717E-01 -2.021292683E+00  5.351427911E+00  4.750000000E+00  0.00000E+00  9.000E+00
      21     1     1     2   511   501 -7.541139193E+00 -8.081300851E+00  9.493616024E+00  1.457068801E+01  2.384185791E-07  0.00000E+00  9.000E+00
#rwgt            1           9   1.1170539008418998E-003           6     1423615           0
</event>
<event>
      6   9999 -3.45752E-01  1.66451E+01 -1.00000E+00  1.66546E-01
      21    -1     0     0   501   502  0.000000000E+00  0.000000000E+00  3.292316957E+01  3.292316957E+01  0.000000000E+00  0.00000E+00  9.000E+00
      21    -1     0     0   502   512  0.000000000E+00  0.000000000E+00 -1.302094758E+03  1.302094758E+03  0.000000000E+00  0.00000E+00  9.000E+00
      25     1     1     2     0     0 -5.225471724E+01 -2.742497018E+01 -1.082756658E+03  1.091544825E+03  1.250017597E+02  0.00000E+00  9.000E+00
       5     1     1     2   501     0 -6.642579590E-01 -1.349304073E+00  2.058344806E+01  2.117788219E+01  4.750000000E+00  0.00000E+00  9.000E+00
      -5     1     1     2     0   503  3.706408096E+01  2.370663647E+01 -6.105518650E+01  7.540589505E+01  4.750000000E+00  0.00000E+00  9.000E+00
      21     1     1     2   503   512  1.585489423E+01  5.067637779E+00 -1.459431920E+02  1.468893254E+02  1.907348633E-06  0.00000E+00  9.000E+00
#rwgt            1           9  -7.5394522472085749E-004           6     1426133           0
</event>
<event>
      6   9999  3.45752E-01  3.28687E+01 -1.00000E+00  1.45317E-01
      21    -1     0     0   501   511  0.000000000E+00  0.000000000E+00  2.257771024E+02  2.257771024E+02  0.000000000E+00  0.00000E+00  9.000E+00
      21    -1     0     0   502   503  0.000000000E+00  0.000000000E+00 -1.262891640E+03  1.262891640E+03  0.000000000E+00  0.00000E+00  9.000E+00
      25     1     1     2     0     0 -1.307714974E+02  1.873854673E+02 -4.244546195E+02  4.979978704E+02  1.250026279E+02  0.00000E+00  9.000E+00
       5     1     1     2   501     0 -3.779729422E+00 -1.931492160E+00  5.963285854E+01  5.997213798E+01  4.750000000E+00  0.00000E+00  9.000E+00
      -5     1     1     2     0   503  1.211454463E+02 -1.554433681E+02 -7.870316979E+02  8.113447577E+02  4.750000000E+00  0.00000E+00  9.000E+00
      21     1     1     2   502   511  1.340578052E+01 -3.001060708E+01  1.147389216E+02  1.193539761E+02  4.046097457E-06  0.00000E+00  9.000E+00
#rwgt            1           9  0.49588265567010570                6     1428613           0
</event>
<event>
      6   9999 -3.45752E-01  4.21261E+00 -1.00000E+00  2.43285E-01
      21    -1     0     0   501   502  0.000000000E+00  0.000000000E+00  1.996101591E+01  1.996101591E+01  0.000000000E+00  0.00000E+00  9.000E+00
      21    -1     0     0   512   503  0.000000000E+00  0.000000000E+00 -9.215772164E+02  9.215772164E+02  0.000000000E+00  0.00000E+00  9.000E+00
      25     1     1     2     0     0  3.769066467E+01 -2.509781694E+01 -6.323451169E+02  6.461684886E+02  1.249915288E+02  0.00000E+00  9.000E+00
       5     1     1     2   501     0  1.624346938E+00  4.531412469E+00  9.604654589E+00  1.174666300E+01  4.750000000E+00  0.00000E+00  9.000E+00
      -5     1     1     2     0   503 -3.959355990E+01  2.476979453E+01 -2.648561012E+02  2.689842181E+02  4.750000000E+00  0.00000E+00  9.000E+00
      21     1     1     2   512   502  2.785482895E-01 -4.203390053E+00 -1.401963701E+01  1.463886262E+01  0.000000000E+00  0.00000E+00  9.000E+00
#rwgt            1           9  -4.1516660430291187E-004           6     1430930           0
</event>
<event>
      6   9999 -3.45752E-01  3.00741E+00 -1.00000E+00  2.76632E-01
      -2    -1     0     0     0   502  0.000000000E+00  0.000000000E+00  1.982317762E+02  1.982317762E+02  0.000000000E+00  0.00000E+00  9.000E+00
      21    -1     0     0   502   503  0.000000000E+00  0.000000000E+00 -9.087045267E+02  9.087045267E+02  0.000000000E+00  0.00000E+00  9.000E+00
      25     1     1     2     0     0 -1.127663295E+01 -5.363457748E+01 -3.487876484E+02  3.745422117E+02  1.250008572E+02  0.00000E+00  9.000E+00
       5     1     1     2   501     0  3.148329656E+00 -9.490308617E-01 -5.658685808E+00  8.086770943E+00  4.750000000E+00  0.00000E+00  9.000E+00
      -5     1     1     2     0   503  1.111869816E+01  5.490304271E+01 -5.386916998E+02  5.416172813E+02  4.750000000E+00  0.00000E+00  9.000E+00
      -2     1     1     2     0   501 -2.990394861E+00 -3.194343680E-01  1.826652835E+02  1.826900389E+02  6.031565972E-06  0.00000E+00  9.000E+00
#rwgt            1           9  -5.9364260567703525E-005           6     1436417           0
</event>
<event>
      6   9999  3.45752E-01  8.15088E+00 -1.00000E+00  1.97059E-01
      21    -1     0     0   511   502  0.000000000E+00  0.000000000E+00  1.081216885E+01  1.081216885E+01  0.000000000E+00  0.00000E+00  9.000E+00
      21    -1     0     0   502   503  0.000000000E+00  0.000000000E+00 -7.510498410E+02  7.510498410E+02  0.000000000E+00  0.00000E+00  9.000E+00
      25     1     1     2     0     0 -9.334092019E+00  1.121119970E+01 -6.974183825E+02  7.086846555E+02  1.250148969E+02  0.00000E+00  9.000E+00
       5     1     1     2   501     0 -2.363142708E+00 -6.498544016E-01  7.997291314E-01  5.404518562E+00  4.750000000E+00  0.00000E+00  9.000E+00
      -5     1     1     2     0   503  3.632119843E+00 -9.382034469E+00 -2.854024884E+01  3.063206113E+01  4.750000000E+00  0.00000E+00  9.000E+00
      21     1     1     2   511   501  8.065114884E+00 -1.179310828E+00 -1.507876993E+01  1.714077462E+01  1.685873940E-07  0.00000E+00  9.000E+00
#rwgt            1           9   3.3244633988737841E-004           6     1442523           0
</event>
<event>
      6   9999 -3.45752E-01  6.45307E+00 -1.00000E+00  2.09747E-01
      -4    -1     0     0     0   502  0.000000000E+00  0.000000000E+00  6.196380873E+01  6.196380873E+01  0.000000000E+00  0.00000E+00  9.000E+00
      21    -1     0     0   502   503  0.000000000E+00  0.000000000E+00 -3.344726744E+02  3.344726744E+02  0.000000000E+00  0.00000E+00  9.000E+00
      25     1     1     2     0     0 -6.617442382E-01  1.214678670E+00 -1.425677581E+02  1.896121950E+02  1.250012219E+02  0.00000E+00  9.000E+00
       5     1     1     2   501     0  1.685472726E+00 -4.837067210E-01  7.173229486E+00  8.780234152E+00  4.750000000E+00  0.00000E+00  9.000E+00
      -5     1     1     2     0   503  1.930982488E+00 -6.467850770E+00 -1.671344886E+02  1.673381653E+02  4.750000000E+00  0.00000E+00  9.000E+00
      -4     1     1     2     0   501 -2.954710975E+00  5.736878821E+00  3.002015160E+01  3.070588865E+01  8.920806376E-07  0.00000E+00  9.000E+00
#rwgt            1           9  -145.08761303651013                6     1445308           0
</event>
<event>
      6   9999  3.45752E-01  9.12615E+00 -1.00000E+00  1.91476E-01
      21    -1     0     0   501   502  0.000000000E+00  0.000000000E+00  2.783309890E+01  2.783309890E+01  0.000000000E+00  0.00000E+00  9.000E+00
      21    -1     0     0   511   503  0.000000000E+00  0.000000000E+00 -3.096180301E+03  3.096180301E+03  0.000000000E+00  0.00000E+00  9.000E+00
      25     1     1     2     0     0  5.504749344E+01  7.294134663E+01 -4.714317768E+02  4.962100357E+02  1.250032509E+02  0.00000E+00  9.000E+00
       5     1     1     2   501     0 -1.598255374E+01  7.149791219E+00  5.969717726E+00  1.909873211E+01  4.750000000E+00  0.00000E+00  9.000E+00
      -5     1     1     2     0   503 -3.012578677E+01 -7.825318276E+01 -6.053194568E+02  6.111180990E+02  4.750000000E+00  0.00000E+00  9.000E+00
      21     1     1     2   511   502 -8.939152933E+00 -1.837955086E+00 -1.997565686E+03  1.997586533E+03  3.051757812E-05  0.00000E+00  9.000E+00
#rwgt            1           9   7.6433001136440586E-004           6     1449001           0
</event>
<event>
      6   9999  3.45752E-01  1.94120E+01 -1.00000E+00  1.61206E-01
      21    -1     0     0   501   502  0.000000000E+00  0.000000000E+00  7.538731642E+01  7.538731642E+01  0.000000000E+00  0.00000E+00  9.000E+00
      21    -1     0     0   502   512  0.000000000E+00  0.000000000E+00 -1.915989977E+03  1.915989977E+03  0.000000000E+00  0.00000E+00  9.000E+00
      25     1     1     2     0     0  4.113948367E+01 -1.827740524E+01 -1.291303388E+03  1.298119702E+03  1.249952019E+02  0.00000E+00  9.000E+00
       5     1     1     2   501     0 -1.097628286E+00  4.743216430E+00  7.102319549E+01  7.134815827E+01  4.750000000E+00  0.00000E+00  9.000E+00
      -5     1     1     2     0   503 -2.165465896E+01  7.310169461E+00 -2.530919932E+02  2.541662495E+02  4.750000000E+00  0.00000E+00  9.000E+00
      21     1     1     2   503   512 -1.838719643E+01  6.224019352E+00 -3.672304747E+02  3.677431834E+02  7.629394531E-06  0.00000E+00  9.000E+00
#rwgt            1           9   3.0923765738411151E-002           6     1452359           0
</event>
<event>
      6   9999  3.45752E-01  1.32972E+01 -1.00000E+00  1.75035E-01
      21    -1     0     0   501   502  0.000000000E+00  0.000000000E+00  4.383757007E+01  4.383757007E+01  0.000000000E+00  0.00000E+00  9.000E+00
      21    -1     0     0   511   503  0.000000000E+00  0.000000000E+00 -1.693921411E+03  1.693921411E+03  0.000000000E+00  0.00000E+00  9.000E+00
      25     1     1     2     0     0 -2.257125778E+01 -6.444926761E+00 -1.183552222E+03  1.190366012E+03  1.249975219E+02  0.00000E+00  9.000E+00
       5     1     1     2   501     0  3.795493465E+00  7.345805279E+00  3.960257889E+01  4.073442500E+01  4.750000000E+00  0.00000E+00  9.000E+00
      -5     1     1     2     0   503  5.479552912E+00 -7.414945182E-01 -8.422667739E+01  8.454153416E+01  4.750000000E+00  0.00000E+00  9.000E+00
      21     1     1     2   511   502  1.329621141E+01 -1.593839999E-01 -4.219075209E+02  4.221170108E+02  0.000000000E+00  0.00000E+00  9.000E+00
#rwgt            1           9   8.2637472427907687E-004           6     1455506           0
</event>
<event>
      6   9999  3.45752E-01  9.20774E+00 -1.00000E+00  1.91050E-01
      21    -1     0     0   512   503  0.000000000E+00  0.000000000E+00  2.670416208E+02  2.670416208E+02  0.000000000E+00  0.00000E+00  9.000E+00
      21    -1     0     0   501   502  0.000000000E+00  0.000000000E+00 -9.314569428E+02  9.314569428E+02  0.000000000E+00  0.00000E+00  9.000E+00
      25     1     1     2     0     0 -1.263577759E+01 -1.356932980E+01 -2.226668387E+02  2.560246030E+02  1.249971468E+02  0.00000E+00  9.000E+00
       5     1     1     2   501     0  1.237967313E+01  3.978625131E+00 -6.849195307E+02  6.850594221E+02  4.750000000E+00  0.00000E+00  9.000E+00
      -5     1     1     2     0   503 -2.603064250E+00  8.381245373E-01 -5.969406061E+00  8.103993149E+00  4.750000000E+00  0.00000E+00  9.000E+00
      21     1     1     2   512   502  2.859168712E+00  8.752580134E+00  2.491404535E+02  2.493105454E+02  4.672030912E-06  0.00000E+00  9.000E+00
#rwgt            1           9   6.3114855415290407E-003           6     1458519           0
</event>
<event>
      6   9999  3.45752E-01  2.33545E+01 -1.00000E+00  1.55235E-01
      21    -1     0     0   501   502  0.000000000E+00  0.000000000E+00  6.491391621E+01  6.491391621E+01  0.000000000E+00  0.00000E+00  9.000E+00
      21    -1     0     0   502   511  0.000000000E+00  0.000000000E+00 -1.932320221E+03  1.932320221E+03  0.000000000E+00  0.00000E+00  9.000E+00
      25     1     1     2     0     0 -9.222160350E+01 -1.039851788E+02 -2.709490984E+02  3.291756261E+02  1.250017494E+02  0.00000E+00  9.000E+00
       5     1     1     2   501     0  3.523342163E+00  2.490829494E+00  3.095084317E+01  3.160910256E+01  4.750000000E+00  0.00000E+00  9.000E+00
      -5     1     1     2     0   503  7.260907522E+01  1.184227596E+02 -1.133555901E+03  1.142045345E+03  4.750000000E+00  0.00000E+00  9.000E+00
      21     1     1     2   503   511  1.608918612E+01 -1.692841034E+01 -4.938521485E+02  4.944040631E+02  7.629394531E-06  0.00000E+00  9.000E+00
#rwgt            1           9   4.8894352738484597E-003           6     1462082           0
</event>
<event>
      6   9999  3.45752E-01  7.54388E+00 -1.00000E+00  2.01082E-01
      21    -1     0     0   501   512  0.000000000E+00  0.000000000E+00  6.296162284E+02  6.296162284E+02  0.000000000E+00  0.00000E+00  9.000E+00
      21    -1     0     0   502   503  0.000000000E+00  0.000000000E+00 -2.036341853E+01  2.036341853E+01  0.000000000E+00  0.00000E+00  9.000E+00
      25     1     1     2     0     0  1.094331311E+01 -5.329675280E+00  1.824307068E+02  2.214807182E+02  1.249983368E+02  0.00000E+00  9.000E+00
       5     1     1     2   501     0 -1.525538641E+00 -3.540951219E+00  3.585836040E+02  3.586357891E+02  4.750000000E+00  0.00000E+00  9.000E+00
      -5     1     1     2     0   503 -4.822560451E+00  2.887806885E+00  3.019426095E+01  3.107816617E+01  4.750000000E+00  0.00000E+00  9.000E+00
      21     1     1     2   502   512 -4.595214022E+00  5.982819614E+00  3.804423807E+01  3.878497354E+01  6.743495762E-07  0.00000E+00  9.000E+00
#rwgt            1           9   3.0460462232308216E-003           6     1464658           0
</event>
<event>
      6   9999 -3.45752E-01  7.82292E+00 -1.00000E+00  1.99173E-01
      21    -1     0     0   501   511  0.000000000E+00  0.000000000E+00  1.875073255E+01  1.875073255E+01  0.000000000E+00  0.00000E+00  9.000E+00
      21    -1     0     0   502   503  0.000000000E+00  0.000000000E+00 -7.658044247E+02  7.658044247E+02  0.000000000E+00  0.00000E+00  9.000E+00
      25     1     1     2     0     0  1.510060085E+00  4.429287875E+00 -7.396874994E+02  7.501900440E+02  1.250024261E+02  0.00000E+00  9.000E+00
       5     1     1     2   501     0 -2.304571350E+00  2.902917705E+00  4.744015095E+00  7.668517427E+00  4.750000000E+00  0.00000E+00  9.000E+00
      -5     1     1     2     0   503 -7.246533578E-02  4.425236576E-01 -1.687521557E+01  1.753671802E+01  4.750000000E+00  0.00000E+00  9.000E+00
      21     1     1     2   502   511  8.669766002E-01 -7.774729238E+00  4.765007682E+00  9.159877803E+00  6.899736466E-07  0.00000E+00  9.000E+00
#rwgt            1           9  -2.6011627625343946E-004           6     1467638           0
</event>
<event>
      6   9999 -3.45752E-01  2.67750E+01 -1.00000E+00  1.51106E-01
      21    -1     0     0   501   502  0.000000000E+00  0.000000000E+00  1.141510406E+01  1.141510406E+01  0.000000000E+00  0.00000E+00  9.000E+00
      21    -1     0     0   512   503  0.000000000E+00  0.000000000E+00 -2.675824129E+03  2.675824129E+03  0.000000000E+00  0.00000E+00  9.000E+00
      25     1     1     2     0     0 -8.343830978E+01 -1.839105472E+01 -2.057622177E+03  2.063185509E+03  1.250009660E+02  0.00000E+00  9.000E+00
       5     1     1     2   501     0  1.617672267E+01  1.194581105E+01 -1.632981814E+01  2.633655670E+01  4.750000000E+00  0.00000E+00  9.000E+00
      -5     1     1     2     0   503  5.056677332E+01 -1.448758047E+01 -2.182986408E+02  2.245968558E+02  4.750000000E+00  0.00000E+00  9.000E+00
      21     1     1     2   512   502  1.669481379E+01  2.093282415E+01 -3.721583890E+02  3.731203109E+02  5.394796609E-06  0.00000E+00  9.000E+00
#rwgt            1           9  -4.4867068920085183E-003           6     1470673           0
</event>
<event>
      6   9999 -3.45752E-01  1.03138E+01 -1.00000E+00  1.85791E-01
      21    -1     0     0   501   502  0.000000000E+00  0.000000000E+00  4.830198787E+01  4.830198787E+01  0.000000000E+00  0.00000E+00  9.000E+00
      21    -1     0     0   511   503  0.000000000E+00  0.000000000E+00 -5.566265215E+02  5.566265215E+02  0.000000000E+00  0.00000E+00  9.000E+00
      25     1     1     2     0     0 -7.355519938E+01 -6.571864298E+00 -4.466015841E+02  4.696083745E+02  1.250019750E+02  0.00000E+00  9.000E+00
       5     1     1     2   501     0  8.030296912E-01 -7.788960509E-01  1.736726801E+01  1.803984573E+01  4.750000000E+00  0.00000E+00  9.000E+00
      -5     1     1     2     0   503  6.964047757E+01  1.718400910E+01 -5.325867618E+01  8.946583355E+01  4.750000000E+00  0.00000E+00  9.000E+00
      21     1     1     2   511   502  3.111692116E+00 -9.833248752E+00 -2.583154140E+01  2.781445560E+01  0.000000000E+00  0.00000E+00  9.000E+00
#rwgt            1           9  -1.9020703304338617E-005           6     1472233           0
</event>
<event>
      6   9999  3.45752E-01  1.31421E+01 -1.00000E+00  1.75503E-01
      21    -1     0     0   501   512  0.000000000E+00  0.000000000E+00  1.289377782E+01  1.289377782E+01  0.000000000E+00  0.00000E+00  9.000E+00
      21    -1     0     0   502   503  0.000000000E+00  0.000000000E+00 -8.218994954E+02  8.218994954E+02  0.000000000E+00  0.00000E+00  9.000E+00
      25     1     1     2     0     0 -2.894186952E+01 -5.192309995E+00 -6.449725018E+02  6.576304062E+02  1.249945245E+02  0.00000E+00  9.000E+00
       5     1     1     2   501     0  5.405456437E-01 -1.713837634E+00  1.456901675E+00  5.283416652E+00  4.750000000E+00  0.00000E+00  9.000E+00
      -5     1     1     2     0   503  2.467185301E+01 -5.695660660E+00 -1.467275059E+02  1.489720255E+02  4.750000000E+00  0.00000E+00  9.000E+00
      21     1     1     2   502   512  3.729470862E+00  1.260180829E+01 -1.876261155E+01  2.290742494E+01  5.331201500E-07  0.00000E+00  9.000E+00
#rwgt            1           9   2.7829594741839978E-002           6     1475555           0
</event>
<event>
      6   9999  3.45752E-01  1.77672E+01 -1.00000E+00  1.64236E-01
      21    -1     0     0   501   502  0.000000000E+00  0.000000000E+00  1.440971420E+02  1.440971420E+02  0.000000000E+00  0.00000E+00  9.000E+00
      21    -1     0     0   502   511  0.000000000E+00  0.000000000E+00 -4.928463771E+01  4.928463771E+01  0.000000000E+00  0.00000E+00  9.000E+00
      25     1     1     2     0     0 -7.465881770E-01 -1.121589259E+01  8.711455349E+01  1.527814004E+02  1.250074287E+02  0.00000E+00  9.000E+00
       5     1     1     2   501     0  1.333512193E-02 -1.086929459E+00  1.274656758E+01  1.364621114E+01  4.750000000E+00  0.00000E+00  9.000E+00
      -5     1     1     2     0   503  2.815631614E+00 -5.341963889E+00  1.836801572E+00  7.899411344E+00  4.750000000E+00  0.00000E+00  9.000E+00
      21     1     1     2   503   511 -2.082378559E+00  1.764478594E+01 -6.885418351E+00  1.905475681E+01  2.795705652E-07  0.00000E+00  9.000E+00
#rwgt            1           9   2.0782162860043898                6     1477560           0
</event>
<event>
      6   9999  3.45752E-01  7.54875E+00 -1.00000E+00  2.01048E-01
      21    -1     0     0   501   502  0.000000000E+00  0.000000000E+00  1.358065658E+03  1.358065658E+03  0.000000000E+00  0.00000E+00  9.000E+00
      21    -1     0     0   502   512  0.000000000E+00  0.000000000E+00 -9.237341996E+00  9.237341996E+00  0.000000000E+00  0.00000E+00  9.000E+00
      25     1     1     2     0     0 -4.336446731E+01 -1.895664190E+00  5.302006408E+02  5.464628505E+02  1.249994277E+02  0.00000E+00  9.000E+00
       5     1     1     2   501     0  8.734027197E+00 -5.526597428E+00  3.563027202E+02  3.564842457E+02  4.750000000E+00  0.00000E+00  9.000E+00
      -5     1     1     2     0   503  3.067369983E+01  1.385093978E+01  4.191609529E+02  4.205367895E+02  4.750000000E+00  0.00000E+00  9.000E+00
      21     1     1     2   503   512  3.956740280E+00 -6.428678164E+00  4.316400192E+01  4.381911407E+01  4.768371582E-07  0.00000E+00  9.000E+00
#rwgt            1           9   4.2630761226578676E-003           6     1479988           0
</event>
<event>
      6   9999 -3.45752E-01  2.68300E+01 -1.00000E+00  1.51045E-01
      21    -1     0     0   501   511  0.000000000E+00  0.000000000E+00  2.109315552E+01  2.109315552E+01  0.000000000E+00  0.00000E+00  9.000E+00
      21    -1     0     0   502   503  0.000000000E+00  0.000000000E+00 -8.787357163E+02  8.787357163E+02  0.000000000E+00  0.00000E+00  9.000E+00
      25     1     1     2     0     0  2.544963961E+01  4.171946225E+01 -5.516173911E+02  5.677111193E+02  1.250038846E+02  0.00000E+00  9.000E+00
       5     1     1     2   501     0  1.919901100E+00  3.607712858E-01  4.119801351E-01  5.152514317E+00  4.750000000E+00  0.00000E+00  9.000E+00
      -5     1     1     2     0   503 -1.207449199E+00 -3.613113645E+01 -2.959035737E+02  2.981415844E+02  4.750000000E+00  0.00000E+00  9.000E+00
      21     1     1     2   502   511 -2.616209151E+01 -5.949097082E+00 -1.053357612E+01  2.882365372E+01  7.052516679E-07  0.00000E+00  9.000E+00
#rwgt            1           9  -4.3590982431005663E-004           6     1483116           0
</event>
<event>
      6   9999  3.45752E-01  5.78644E+00 -1.00000E+00  2.16274E-01
      21    -1     0     0   501   502  0.000000000E+00  0.000000000E+00  1.006650805E+02  1.006650805E+02  0.000000000E+00  0.00000E+00  9.000E+00
      21    -1     0     0   512   503  0.000000000E+00  0.000000000E+00 -1.159544429E+02  1.159544429E+02  0.000000000E+00  0.00000E+00  9.000E+00
      25     1     1     2     0     0  3.751346159E+00  7.665117133E+00 -6.360271623E+01  1.405115338E+02  1.250014359E+02  0.00000E+00  9.000E+00
       5     1     1     2   501     0 -2.061720142E+00  9.414521067E-02  5.967310889E+01  5.989742880E+01  4.750000000E+00  0.00000E+00  9.000E+00
      -5     1     1     2     0   503  1.114926351E+00 -2.697901144E+00 -7.088878449E+00  9.018671133E+00  4.750000000E+00  0.00000E+00  9.000E+00
      21     1     1     2   512   502 -2.804552367E+00 -5.061361200E+00 -4.270876602E+00  7.191889747E+00  5.960464478E-08  0.00000E+00  9.000E+00
#rwgt            1           9   1.5074689979935685E-003           6     1484507           0
</event>
<event>
      6   9999 -3.45752E-01  2.80051E+01 -1.00000E+00  1.49797E-01
      21    -1     0     0   501   511  0.000000000E+00  0.000000000E+00  7.054766450E+02  7.054766450E+02  0.000000000E+00  0.00000E+00  9.000E+00
      21    -1     0     0   502   503  0.000000000E+00  0.000000000E+00 -1.291293211E+02  1.291293211E+02  0.000000000E+00  0.00000E+00  9.000E+00
      25     1     1     2     0     0 -2.405994333E+01  1.904937487E+00 -9.063684010E+01  1.562773684E+02  1.250002778E+02  0.00000E+00  9.000E+00
       5     1     1     2   501     0  4.274464386E+00  1.258404153E+01  6.198487233E+02  6.200093801E+02  4.750000000E+00  0.00000E+00  9.000E+00
      -5     1     1     2     0   503 -4.118654032E+00  1.014009250E-01  9.894333733E+00  1.172322196E+01  4.750000000E+00  0.00000E+00  9.000E+00
      21     1     1     2   502   511  2.390413298E+01 -1.459037994E+01  3.724110703E+01  4.659599568E+01  0.000000000E+00  0.00000E+00  9.000E+00
#rwgt            1           9  -1378.4898521865207                6     1488300           0
</event>
<event>
      6   9999  3.45752E-01  4.65060E+00 -1.00000E+00  2.35039E-01
      21    -1     0     0   501   502  0.000000000E+00  0.000000000E+00  3.776921215E+01  3.776921215E+01  0.000000000E+00  0.00000E+00  9.000E+00
      21    -1     0     0   512   503  0.000000000E+00  0.000000000E+00 -1.431067406E+03  1.431067406E+03  0.000000000E+00  0.00000E+00  9.000E+00
      25     1     1     2     0     0 -2.441859918E+00 -3.165749104E+00 -1.097339106E+03  1.104446147E+03  1.250287657E+02  0.00000E+00  9.000E+00
       5     1     1     2   501     0  5.949133934E+00  2.034259847E+00  3.364683510E+01  3.455723397E+01  4.750000000E+00  0.00000E+00  9.000E+00
      -5     1     1     2     0   503 -3.437832126E+00 -3.518589844E+00 -1.363531817E+02  1.365245466E+02  4.750000000E+00  0.00000E+00  9.000E+00
      21     1     1     2   512   502 -6.944188991E-02  4.650079101E+00 -1.932527408E+02  1.933086907E+02  0.000000000E+00  0.00000E+00  9.000E+00
#rwgt            1           9   1.3287708883575137E-002           6     1490252           0
</event>
<event>
      6   9999  3.45752E-01  8.61118E+00 -1.00000E+00  1.94304E-01
      21    -1     0     0   501   502  0.000000000E+00  0.000000000E+00  1.132943322E+01  1.132943322E+01  0.000000000E+00  0.00000E+00  9.000E+00
      21    -1     0     0   502   511  0.000000000E+00  0.000000000E+00 -8.462529455E+02  8.462529455E+02  0.000000000E+00  0.00000E+00  9.000E+00
      25     1     1     2     0     0  2.508051680E+01  4.953678519E+00 -6.218797430E+02  6.348343961E+02  1.250068978E+02  0.00000E+00  9.000E+00
       5     1     1     2   501     0 -8.385159163E-01  2.212115448E+00  1.644170122E+00  5.555390093E+00  4.750000000E+00  0.00000E+00  9.000E+00
      -5     1     1     2     0   503 -2.187949202E+01  1.114963118E+00 -1.171651043E+02  1.192903159E+02  4.750000000E+00  0.00000E+00  9.000E+00
      21     1     1     2   503   511 -2.362508857E+00 -8.280757085E+00 -9.752283521E+01  9.790227665E+01  0.000000000E+00  0.00000E+00  9.000E+00
#rwgt            1           9   7.6916685546847012E-005           6     1496905           0
</event>
<event>
      6   9999  3.45752E-01  7.93622E+00 -1.00000E+00  1.98428E-01
      21    -1     0     0   501   502  0.000000000E+00  0.000000000E+00  2.353777078E+03  2.353777078E+03  0.000000000E+00  0.00000E+00  9.000E+00
      21    -1     0     0   502   512  0.000000000E+00  0.000000000E+00 -2.075476633E+02  2.075476633E+02  0.000000000E+00  0.00000E+00  9.000E+00
      25     1     1     2     0     0 -7.791655427E+00 -1.200383735E+00  1.583447992E+03  1.588393865E+03  1.250015001E+02  0.00000E+00  9.000E+00
       5     1     1     2   501     0 -6.055112621E-02  2.261009945E-01  7.132767883E+02  7.132926426E+02  4.750000000E+00  0.00000E+00  9.000E+00
      -5     1     1     2     0   503 -5.120223878E-02  2.534092036E-01  5.439079604E+01  5.459842518E+01  4.750000000E+00  0.00000E+00  9.000E+00
      21     1     1     2   503   512  7.903408792E+00  7.208735368E-01 -2.048861622E+02  2.050398083E+02  8.946258087E-06  0.00000E+00  9.000E+00
#rwgt            1           9   1.7788882244968299E-003           6     1499471           0
</event>
<event>
      6   9999 -3.45752E-01  2.65287E+01 -1.00000E+00  1.51378E-01
      21    -1     0     0   502   511  0.000000000E+00  0.000000000E+00  1.968764781E+02  1.968764781E+02  0.000000000E+00  0.00000E+00  9.000E+00
      21    -1     0     0   501   502  0.000000000E+00  0.000000000E+00 -1.004677279E+03  1.004677279E+03  0.000000000E+00  0.00000E+00  9.000E+00
      25     1     1     2     0     0 -5.629387126E+01 -1.551326679E+01 -8.979804548E+02  9.085158768E+02  1.249901593E+02  0.00000E+00  9.000E+00
       5     1     1     2   501     0  5.069153636E+01  2.104494704E+01 -6.285413332E+01  8.358065703E+01  4.750000000E+00  0.00000E+00  9.000E+00
      -5     1     1     2     0   503  1.899867342E+01 -2.842954248E+01 -1.621621086E+01  3.814074556E+01  4.750000000E+00  0.00000E+00  9.000E+00
      21     1     1     2   503   511 -1.339633852E+01  2.289786223E+01  1.692499976E+02  1.713164781E+02  4.672030912E-06  0.00000E+00  9.000E+00
#rwgt            1           9  -5.5278661548099212E-004           6     1501801           0
</event>
<event>
      6   9999  3.45752E-01  1.94037E+01 -1.00000E+00  1.61220E-01
      21    -1     0     0   512   503  0.000000000E+00  0.000000000E+00  4.277155255E+02  4.277155255E+02  0.000000000E+00  0.00000E+00  9.000E+00
      21    -1     0     0   501   502  0.000000000E+00  0.000000000E+00 -1.274749501E+03  1.274749501E+03  0.000000000E+00  0.00000E+00  9.000E+00
      25     1     1     2     0     0  7.204764982E+01 -6.252615506E+01 -1.272998504E+02  2.023115862E+02  1.249973683E+02  0.00000E+00  9.000E+00
       5     1     1     2   501     0 -4.277228237E+00 -4.231990568E+00 -7.340842261E+02  7.341242524E+02  4.750000000E+00  0.00000E+00  9.000E+00
      -5     1     1     2     0   503 -8.151858073E+01  5.306545099E+01 -3.692818291E+02  3.819068642E+02  4.750000000E+00  0.00000E+00  9.000E+00
      21     1     1     2   512   502  1.374815915E+01  1.369269463E+01  3.836319302E+02  3.841223237E+02  5.394796609E-06  0.00000E+00  9.000E+00
#rwgt            1           9   1.7565477750113609E-003           6     1503250           0
</event>
<event>
      6   9999  3.45752E-01  1.27048E+01 -1.00000E+00  1.76869E-01
      21    -1     0     0   501   511  0.000000000E+00  0.000000000E+00  2.238550528E+02  2.238550528E+02  0.000000000E+00  0.00000E+00  9.000E+00
      21    -1     0     0   502   503  0.000000000E+00  0.000000000E+00 -2.972649203E+02  2.972649203E+02  0.000000000E+00  0.00000E+00  9.000E+00
      25     1     1     2     0     0  9.353984741E+00 -7.536434908E+00 -2.297355172E+02  2.618164696E+02  1.250006440E+02  0.00000E+00  9.000E+00
       5     1     1     2   501     0 -4.934264860E+00 -2.052830420E+00  9.696972897E+01  9.723297753E+01  4.750000000E+00  0.00000E+00  9.000E+00
      -5     1     1     2     0   503  1.791563694E+00 -1.493686464E+00 -5.085507648E+01  5.112965973E+01  4.750000000E+00  0.00000E+00  9.000E+00
      21     1     1     2   502   511 -6.211283574E+00  1.108295179E+01  1.102109973E+02  1.109408662E+02  0.000000000E+00  0.00000E+00  9.000E+00
#rwgt            1           9  0.78097596430590577                6     1505746           0
</event>
<event>
      6   9999  3.45752E-01  1.26004E+01 -1.00000E+00  1.77205E-01
       2    -1     0     0   501     0  0.000000000E+00  0.000000000E+00  6.724111247E+02  6.724111247E+02  0.000000000E+00  0.00000E+00  9.000E+00
      21    -1     0     0   502   503  0.000000000E+00  0.000000000E+00 -2.488536476E+02  2.488536476E+02  0.000000000E+00  0.00000E+00  9.000E+00
      25     1     1     2     0     0 -1.698584265E+01  5.424133486E+00 -2.172740999E+02  2.512998288E+02  1.250025176E+02  0.00000E+00  9.000E+00
       5     1     1     2   501     0 -8.513132809E-01  5.989417399E-01  4.706130431E+00  6.767099020E+00  4.750000000E+00  0.00000E+00  9.000E+00
      -5     1     1     2     0   503  5.243602032E+00 -6.438858194E+00 -1.177703510E+01  1.517284789E+01  4.750000000E+00  0.00000E+00  9.000E+00
       2     1     1     2   502     0  1.259355390E+01  4.157829687E-01  6.479024817E+02  6.480249966E+02  0.000000000E+00  0.00000E+00  9.000E+00
#rwgt            1           9   3.1870436517976864E-004           6     1508656           0
</event>
<event>
      6   9999  3.45752E-01  1.35855E+02 -1.00000E+00  1.15039E-01
      21    -1     0     0   511   502  0.000000000E+00  0.000000000E+00  6.318039434E+02  6.318039434E+02  0.000000000E+00  0.00000E+00  9.000E+00
      21    -1     0     0   502   503  0.000000000E+00  0.000000000E+00 -2.807341553E+02  2.807341553E+02  0.000000000E+00  0.00000E+00  9.000E+00
      25     1     1     2     0     0  7.798550114E+01  2.533223293E+01 -2.394473500E+02  2.822813019E+02  1.249969583E+02  0.00000E+00  9.000E+00
       5     1     1     2   501     0  4.674973082E+01  3.000398129E+01  2.265545250E+02  2.333137191E+02  4.750000000E+00  0.00000E+00  9.000E+00
      -5     1     1     2     0   503 -4.436734863E-02 -1.402302467E+00 -2.895967348E+00  5.737381594E+00  4.750000000E+00  0.00000E+00  9.000E+00
      21     1     1     2   511   501 -1.246908646E+02 -5.393391175E+01  3.668585805E+02  3.912056961E+02  5.394796609E-06  0.00000E+00  9.000E+00
#rwgt            1           9   5.4848661416327131E-005           6     1510591           0
</event>
<event>
      6   9999  3.45752E-01  2.41148E+01 -1.00000E+00  1.54246E-01
      21    -1     0     0   501   502  0.000000000E+00  0.000000000E+00  9.079833856E+01  9.079833856E+01  0.000000000E+00  0.00000E+00  9.000E+00
      21    -1     0     0   512   503  0.000000000E+00  0.000000000E+00 -1.692338099E+03  1.692338099E+03  0.000000000E+00  0.00000E+00  9.000E+00
      25     1     1     2     0     0 -3.094913431E+02  1.806327212E+01 -4.938448642E+02  5.963411787E+02  1.250155123E+02  0.00000E+00  9.000E+00
       5     1     1     2   501     0 -4.901369739E+00 -3.286955786E+00  1.712124775E+01  1.872236973E+01  4.750000000E+00  0.00000E+00  9.000E+00
      -5     1     1     2     0   503  2.905682588E+02 -1.104524070E+01 -1.039624329E+03  1.079533797E+03  4.750000000E+00  0.00000E+00  9.000E+00
      21     1     1     2   512   502  2.382445401E+01 -3.731075633E+00 -8.519181477E+01  8.853909215E+01  1.348699152E-06  0.00000E+00  9.000E+00
#rwgt            1           9   5.5927877435035384E-005           6     1511070           0
</event>
<event>
      6   9999  3.45752E-01  3.51046E+01 -1.00000E+00  1.43555E-01
      21    -1     0     0   501   502  0.000000000E+00  0.000000000E+00  1.859195628E+01  1.859195628E+01  0.000000000E+00  0.00000E+00  9.000E+00
      21    -1     0     0   511   503  0.000000000E+00  0.000000000E+00 -1.258223652E+03  1.258223652E+03  0.000000000E+00  0.00000E+00  9.000E+00
      25     1     1     2     0     0  3.839327348E+01  2.361394697E+01 -4.632706533E+02  4.819519836E+02  1.250054173E+02  0.00000E+00  9.000E+00
       5     1     1     2   501     0 -1.884574873E+01  6.697890376E+00 -6.717399647E+00  2.162660257E+01  4.750000000E+00  0.00000E+00  9.000E+00
      -5     1     1     2     0   503  1.526198962E+01 -3.485423064E+01 -4.647379478E+02  4.663171328E+02  4.750000000E+00  0.00000E+00  9.000E+00
      21     1     1     2   511   502 -3.480951437E+01  4.542393295E+00 -3.049056952E+02  3.069198895E+02  3.814697266E-06  0.00000E+00  9.000E+00
#rwgt            1           9  0.35386708336837303                6     1513761           0
</event>
<event>
      6   9999  3.45752E-01  1.09183E+02 -1.00000E+00  1.18836E-01
      21    -1     0     0   512   502  0.000000000E+00  0.000000000E+00  1.794509645E+02  1.794509645E+02  0.000000000E+00  0.00000E+00  9.000E+00
      21    -1     0     0   502   503  0.000000000E+00  0.000000000E+00 -1.315860908E+03  1.315860908E+03  0.000000000E+00  0.00000E+00  9.000E+00
      25     1     1     2     0     0  1.248945548E+02  3.589562452E+01 -1.705259105E+02  2.481700665E+02  1.249885997E+02  0.00000E+00  9.000E+00
       5     1     1     2   501     0  6.210619431E+00 -2.731209857E+01 -1.511750967E+02  1.538213082E+02  4.750000000E+00  0.00000E+00  9.000E+00
      -5     1     1     2     0   503 -7.268592792E+01  8.365577611E+01 -9.288021265E+02  9.354023123E+02  4.750000000E+00  0.00000E+00  9.000E+00
      21     1     1     2   512   501 -5.841924628E+01 -9.223930206E+01  1.140931903E+02  1.579181853E+02  1.907348633E-06  0.00000E+00  9.000E+00
#rwgt            1           9   9.5906127564485176E-004           6     1514803           0
</event>
<event>
      6   9999  3.45752E-01  1.12123E+01 -1.00000E+00  1.82107E-01
      21    -1     0     0   511   503  0.000000000E+00  0.000000000E+00  1.387296396E+01  1.387296396E+01  0.000000000E+00  0.00000E+00  9.000E+00
      21    -1     0     0   501   502  0.000000000E+00  0.000000000E+00 -6.760614475E+02  6.760614475E+02  0.000000000E+00  0.00000E+00  9.000E+00
      25     1     1     2     0     0 -1.964104348E+00  1.011466902E+01 -5.112717829E+02  5.264334517E+02  1.250087153E+02  0.00000E+00  9.000E+00
       5     1     1     2   501     0 -4.549019234E+00 -2.434844351E+00 -1.333706911E+02  1.335549542E+02  4.750000000E+00  0.00000E+00  9.000E+00
      -5     1     1     2     0   503 -6.522282232E-01  9.441201439E-01 -1.807239730E+01  1.872139975E+01  4.750000000E+00  0.00000E+00  9.000E+00
      21     1     1     2   511   502  7.165351805E+00 -8.623944816E+00  5.263877598E-01  1.122460577E+01  5.589425365E-07  0.00000E+00  9.000E+00
#rwgt            1           9   2.9618046150076049E-003           6     1515888           0
</event>
<event>
      6   9999  3.45752E-01  1.38495E+01 -1.00000E+00  1.73431E-01
      21    -1     0     0   501   512  0.000000000E+00  0.000000000E+00  1.890992472E+02  1.890992472E+02  0.000000000E+00  0.00000E+00  9.000E+00
      21    -1     0     0   502   503  0.000000000E+00  0.000000000E+00 -6.826117022E+02  6.826117022E+02  0.000000000E+00  0.00000E+00  9.000E+00
      25     1     1     2     0     0  1.668850997E+01  5.011601413E-01 -6.307036041E+02  6.431873773E+02  1.249968343E+02  0.00000E+00  9.000E+00
       5     1     1     2   501     0  1.062052434E+00 -6.319832468E-01 -4.982119270E+00  6.993666464E+00  4.750000000E+00  0.00000E+00  9.000E+00
      -5     1     1     2     0   503 -4.742816939E+00 -4.623794060E+00 -3.899261879E+01  3.983541897E+01  4.750000000E+00  0.00000E+00  9.000E+00
      21     1     1     2   502   512 -1.300774546E+01  4.754617165E+00  1.811658872E+02  1.816944867E+02  4.672030912E-06  0.00000E+00  9.000E+00
#rwgt            1           9   1.9888567610748969E-003           6     1518127           0
</event>
<event>
      6   9999  3.45752E-01  7.71385E+00 -1.00000E+00  1.99907E-01
      21    -1     0     0   501   511  0.000000000E+00  0.000000000E+00  1.743832069E+01  1.743832069E+01  0.000000000E+00  0.00000E+00  9.000E+00
      21    -1     0     0   502   503  0.000000000E+00  0.000000000E+00 -9.630088344E+02  9.630088344E+02  0.000000000E+00  0.00000E+00  9.000E+00
      25     1     1     2     0     0  2.191248679E+01 -7.344020386E+00 -8.780358187E+02  8.871899074E+02  1.249997649E+02  0.00000E+00  9.000E+00
       5     1     1     2   501     0  5.413790962E+00  1.259365816E+00  8.877288049E+00  1.150060337E+01  4.750000000E+00  0.00000E+00  9.000E+00
      -5     1     1     2     0   503 -1.961552602E+01  5.865891854E+00 -4.990990415E+01  5.415476508E+01  4.750000000E+00  0.00000E+00  9.000E+00
      21     1     1     2   502   511 -7.710751736E+00  2.187627160E-01 -2.650207898E+01  2.760187928E+01  0.000000000E+00  0.00000E+00  9.000E+00
#rwgt            1           9   3.2408307678022022E-004           6     1519648           0
</event>
<event>
      6   9999  3.45752E-01  4.83001E+00 -1.00000E+00  2.32036E-01
      21    -1     0     0   512   502  0.000000000E+00  0.000000000E+00  4.578166391E+02  4.578166391E+02  0.000000000E+00  0.00000E+00  9.000E+00
      21    -1     0     0   502   503  0.000000000E+00  0.000000000E+00 -8.960491851E+02  8.960491851E+02  0.000000000E+00  0.00000E+00  9.000E+00
      25     1     1     2     0     0  1.187562103E+01 -2.628140547E+01 -8.290434373E+02  8.389105454E+02  1.250045587E+02  0.00000E+00  9.000E+00
       5     1     1     2   501     0 -1.097894462E+00  1.939294926E+01 -2.815182326E+01  3.453084861E+01  4.750000000E+00  0.00000E+00  9.000E+00
      -5     1     1     2     0   503 -6.848773879E+00  4.079126095E+00 -3.001707511E+01  3.141866120E+01  4.750000000E+00  0.00000E+00  9.000E+00
      21     1     1     2   512   501 -3.928952691E+00  2.809330112E+00  4.489797897E+02  4.490057689E+02  0.000000000E+00  0.00000E+00  9.000E+00
#rwgt            1           9   6.4127849321924668E-002           6     1523085           0
</event>
<event>
      6   9999  3.45752E-01  1.18488E+01 -1.00000E+00  1.79753E-01
      21    -1     0     0   501   502  0.000000000E+00  0.000000000E+00  1.219204372E+02  1.219204372E+02  0.000000000E+00  0.00000E+00  9.000E+00
       2    -1     0     0   502     0  0.000000000E+00  0.000000000E+00 -1.146307145E+03  1.146307145E+03  0.000000000E+00  0.00000E+00  9.000E+00
      25     1     1     2     0     0  1.372264809E+01  6.118270093E+00  3.436302263E+01  1.305044280E+02  1.249993764E+02  0.00000E+00  9.000E+00
       5     1     1     2   501     0  3.143418328E-01  2.025884062E+00  2.513613104E+01  2.566302010E+01  4.750000000E+00  0.00000E+00  9.000E+00
      -5     1     1     2     0   503 -1.050124747E+01  3.164856982E+00  1.151411247E+01  1.659607798E+01  4.750000000E+00  0.00000E+00  9.000E+00
       2     1     1     2   503     0 -3.535742454E+00 -1.130901114E+01 -1.095399974E+03  1.095464056E+03  1.525878906E-05  0.00000E+00  9.000E+00
#rwgt            1           9   3.4774376129257822E-005           6     1527093           0
</event>
<event>
      6   9999  3.45752E-01  1.12285E+01 -1.00000E+00  1.82044E-01
      21    -1     0     0   511   502  0.000000000E+00  0.000000000E+00  5.330020123E+03  5.330020123E+03  0.000000000E+00  0.00000E+00  9.000E+00
      21    -1     0     0   502   503  0.000000000E+00  0.000000000E+00 -3.417663315E+01  3.417663315E+01  0.000000000E+00  0.00000E+00  9.000E+00
      25     1     1     2     0     0 -9.880720433E+00  1.341475544E+02  1.957992380E+03  1.966586592E+03  1.250418557E+02  0.00000E+00  9.000E+00
       5     1     1     2   501     0 -2.991768578E+00  1.636095559E+00  2.926665302E+03  2.926671143E+03  4.750000000E+00  0.00000E+00  9.000E+00
      -5     1     1     2     0   503  7.929570222E+00 -1.257016054E+02  1.036161191E+02  1.631644395E+02  4.750000000E+00  0.00000E+00  9.000E+00
      21     1     1     2   511   501  4.942918789E+00 -1.008204453E+01  3.075696881E+02  3.077745817E+02  3.814697266E-06  0.00000E+00  9.000E+00
#rwgt            1           9  0.28697525966269360                6     1529500           0
</event>
<event>
      6   9999  3.45752E-01  5.68286E+00 -1.00000E+00  2.17397E-01
      21    -1     0     0   501   502  0.000000000E+00  0.000000000E+00  1.293828071E+01  1.293828071E+01  0.000000000E+00  0.00000E+00  9.000E+00
      21    -1     0     0   512   503  0.000000000E+00  0.000000000E+00 -1.939818572E+03  1.939818572E+03  0.000000000E+00  0.00000E+00  9.000E+00
      25     1     1     2     0     0 -4.595811695E+01  4.171117335E+00 -1.214361369E+03  1.221649516E+03  1.249978262E+02  0.00000E+00  9.000E+00
       5     1     1     2   501     0 -2.694202672E+00  7.005778001E-01  6.435431443E+00  8.469168504E+00  4.750000000E+00  0.00000E+00  9.000E+00
      -5     1     1     2     0   503  5.095284656E+01 -1.006808019E+01 -3.721054801E+02  3.757427440E+02  4.750000000E+00  0.00000E+00  9.000E+00
      21     1     1     2   512   502 -2.300526936E+00  5.196385057E+00 -3.468488733E+02  3.468954248E+02  3.814697266E-06  0.00000E+00  9.000E+00
#rwgt            1           9   5.5959746977227347                6     1533703           0
</event>
<event>
      6   9999  3.45752E-01  1.91755E+01 -1.00000E+00  1.61619E-01
      21    -1     0     0   511   502  0.000000000E+00  0.000000000E+00  8.531577274E+01  8.531577274E+01  0.000000000E+00  0.00000E+00  9.000E+00
      21    -1     0     0   502   503  0.000000000E+00  0.000000000E+00 -1.272857503E+03  1.272857503E+03  0.000000000E+00  0.00000E+00  9.000E+00
      25     1     1     2     0     0  1.233803255E+01  8.591584800E+00 -1.240166429E+03  1.246540751E+03  1.250001180E+02  0.00000E+00  9.000E+00
       5     1     1     2   501     0  8.816756930E+00 -9.715656147E-01  9.631898403E+00  1.392893066E+01  4.750000000E+00  0.00000E+00  9.000E+00
      -5     1     1     2     0   503 -3.154211994E+00 -1.011102888E+00 -2.572076757E+01  2.636459305E+01  4.750000000E+00  0.00000E+00  9.000E+00
      21     1     1     2   511   501 -1.800057749E+01 -6.608916297E+00  6.871356831E+01  7.133900079E+01  1.348699152E-06  0.00000E+00  9.000E+00
#rwgt            1           9   2.1814902781922604E-004           6     1538079           0
</event>
<event>
      6   9999  3.45752E-01  3.32519E+00 -1.00000E+00  2.65721E-01
      21    -1     0     0   512   502  0.000000000E+00  0.000000000E+00  2.769189935E+02  2.769189935E+02  0.000000000E+00  0.00000E+00  9.000E+00
      21    -1     0     0   502   503  0.000000000E+00  0.000000000E+00 -3.266303343E+02  3.266303343E+02  0.000000000E+00  0.00000E+00  9.000E+00
      25     1     1     2     0     0  1.547981017E+01  2.805855589E+01 -3.819258444E+01  1.345783722E+02  1.250030307E+02  0.00000E+00  9.000E+00
       5     1     1     2   501     0 -3.030687946E+00  4.144284677E-01  2.757069697E+01  2.814360765E+01  4.750000000E+00  0.00000E+00  9.000E+00
      -5     1     1     2     0   503 -1.393319204E+01 -3.144862475E+01 -2.386883121E+02  2.412007932E+02  4.750000000E+00  0.00000E+00  9.000E+00
      21     1     1     2   512   501  1.484069818E+00  2.975640393E+00  1.995988588E+02  1.996265547E+02  0.000000000E+00  0.00000E+00  9.000E+00
#rwgt            1           9   3.1163996367683343E-004           6     1539700           0
</event>
<event>
      6   9999  3.45752E-01  2.00847E+01 -1.00000E+00  1.60070E-01
      21    -1     0     0   501   511  0.000000000E+00  0.000000000E+00  9.027796387E+00  9.027796387E+00  0.000000000E+00  0.00000E+00  9.000E+00
      21    -1     0     0   502   503  0.000000000E+00  0.000000000E+00 -8.108321791E+02  8.108321791E+02  0.000000000E+00  0.00000E+00  9.000E+00
      25     1     1     2     0     0  7.220167019E+00 -1.402101819E+01 -6.634863477E+02  6.753447148E+02  1.250105216E+02  0.00000E+00  9.000E+00
       5     1     1     2   501     0  1.074476929E+00 -1.050965193E+00 -1.935197049E+00  5.344765302E+00  4.750000000E+00  0.00000E+00  9.000E+00
      -5     1     1     2     0   503  2.673613045E+00 -1.753334184E+00 -5.697608256E+01  5.726306725E+01  4.750000000E+00  0.00000E+00  9.000E+00
      21     1     1     2   502   511 -1.096825699E+01  1.682531757E+01 -7.940675538E+01  8.190742807E+01  9.536743164E-07  0.00000E+00  9.000E+00
#rwgt            1           9   4.4980730243211318E-005           6     1547189           0
</event>
<event>
      6   9999  3.45752E-01  9.66053E+00 -1.00000E+00  1.88788E-01
      21    -1     0     0   502   512  0.000000000E+00  0.000000000E+00  2.496213046E+01  2.496213046E+01  0.000000000E+00  0.00000E+00  9.000E+00
      21    -1     0     0   501   502  0.000000000E+00  0.000000000E+00 -9.907429335E+02  9.907429335E+02  0.000000000E+00  0.00000E+00  9.000E+00
      25     1     1     2     0     0 -3.433490510E+00 -3.123263422E+01 -2.947743155E+02  3.217184450E+02  1.249943778E+02  0.00000E+00  9.000E+00
       5     1     1     2   501     0 -5.479241481E+01 -3.813516558E+00 -4.506293620E+02  4.539891365E+02  4.750000000E+00  0.00000E+00  9.000E+00
      -5     1     1     2     0   503  6.208043784E+01  2.618790790E+01 -2.202091923E+02  2.303354905E+02  4.750000000E+00  0.00000E+00  9.000E+00
      21     1     1     2   503   512 -3.854532515E+00  8.858242876E+00 -1.679331984E-01  9.661991995E+00  1.038080066E-07  0.00000E+00  9.000E+00
#rwgt            1           9   2.7852871223955216                6     1548464           0
</event>
<event>
      6   9999 -3.45752E-01  8.99544E+00 -1.00000E+00  1.92170E-01
      21    -1     0     0   501   511  0.000000000E+00  0.000000000E+00  2.175985656E+01  2.175985656E+01  0.000000000E+00  0.00000E+00  9.000E+00
      21    -1     0     0   502   503  0.000000000E+00  0.000000000E+00 -7.740093757E+02  7.740093757E+02  0.000000000E+00  0.00000E+00  9.000E+00
      25     1     1     2     0     0 -6.116518060E+00  2.705291731E+00 -7.419054542E+02  7.523922451E+02  1.250026284E+02  0.00000E+00  9.000E+00
       5     1     1     2   501     0 -1.533131705E+00  3.261867730E-01 -2.880685916E+00  5.772152283E+00  4.750000000E+00  0.00000E+00  9.000E+00
      -5     1     1     2     0   503  1.049244984E-01  1.866999008E+00 -2.085598736E+01  2.147164184E+01  4.750000000E+00  0.00000E+00  9.000E+00
      21     1     1     2   502   511  7.544725267E+00 -4.898477512E+00  1.339260832E+01  1.613319307E+01  4.129530925E-07  0.00000E+00  9.000E+00
#rwgt            1           9  -1.9279273976903168E-004           6     1551800           0
</event>
<event>
      6   9999  3.45752E-01  3.03587E+01 -1.00000E+00  1.47505E-01
      21    -1     0     0   501   502  0.000000000E+00  0.000000000E+00  1.454394275E+01  1.454394275E+01  0.000000000E+00  0.00000E+00  9.000E+00
      21    -1     0     0   502   512  0.000000000E+00  0.000000000E+00 -1.092198727E+03  1.092198727E+03  0.000000000E+00  0.00000E+00  9.000E+00
      25     1     1     2     0     0 -2.466611017E+01  3.598396056E+01 -8.819401060E+02  8.918217305E+02  1.249975444E+02  0.00000E+00  9.000E+00
       5     1     1     2   501     0 -1.628789492E+00  5.836505435E+00  3.980985224E+00  8.667669482E+00  4.750000000E+00  0.00000E+00  9.000E+00
      -5     1     1     2     0   503  1.150728643E+01 -1.530670685E+01 -5.567332171E+01  5.906601532E+01  4.750000000E+00  0.00000E+00  9.000E+00
      21     1     1     2   503   512  1.478761323E+01 -2.651375914E+01 -1.440223419E+02  1.471872545E+02  1.907348633E-06  0.00000E+00  9.000E+00
#rwgt            1           9  0.11787364872961949                6     1553921           0
</event>
<event>
      6   9999  3.45752E-01  1.26528E+02 -1.00000E+00  1.16247E-01
      21    -1     0     0   511   502  0.000000000E+00  0.000000000E+00  1.585690132E+03  1.585690132E+03  0.000000000E+00  0.00000E+00  9.000E+00
      21    -1     0     0   502   503  0.000000000E+00  0.000000000E+00 -2.355317730E+02  2.355317730E+02  0.000000000E+00  0.00000E+00  9.000E+00
      25     1     1     2     0     0  3.361163449E+01  8.717748529E+01  1.911501090E+01  1.572317868E+02  1.250071807E+02  0.00000E+00  9.000E+00
       5     1     1     2   501     0  6.641511175E+00  4.877008128E+01  3.478716844E+02  3.513686124E+02  4.750000000E+00  0.00000E+00  9.000E+00
      -5     1     1     2     0   503  4.559492963E+00 -1.762122354E+01 -1.606879305E+02  1.617852589E+02  4.750000000E+00  0.00000E+00  9.000E+00
      21     1     1     2   511   501 -4.481263863E+01 -1.183263430E+02  1.143859594E+03  1.150836247E+03  2.157918644E-05  0.00000E+00  9.000E+00
#rwgt            1           9   8.0877623994086729E-003           6     1555397           0
</event>
<event>
      6   9999  3.45752E-01  3.46478E+00 -1.00000E+00  2.61512E-01
      21    -1     0     0   502   503  0.000000000E+00  0.000000000E+00  5.220651723E+01  5.220651723E+01  0.000000000E+00  0.00000E+00  9.000E+00
      21    -1     0     0   512   502  0.000000000E+00  0.000000000E+00 -1.828946899E+02  1.828946899E+02  0.000000000E+00  0.00000E+00  9.000E+00
      25     1     1     2     0     0  1.826082295E+01  4.883572416E+00 -1.107134773E+02  1.680464956E+02  1.249993748E+02  0.00000E+00  9.000E+00
       5     1     1     2   501     0 -6.086564362E-02 -4.031812992E-04 -7.445682624E-01  4.808387119E+00  4.750000000E+00  0.00000E+00  9.000E+00
      -5     1     1     2     0   503 -1.967929362E+01 -8.016259337E+00  1.589023726E+01  2.695546607E+01  4.750000000E+00  0.00000E+00  9.000E+00
      21     1     1     2   512   501  1.479336306E+00  3.133090102E+00 -3.512036432E+01  3.529085830E+01  4.768371582E-07  0.00000E+00  9.000E+00
#rwgt            1           9   7.8883750998241853E-002           6     1556553           0
</event>
<event>
      6   9999  3.45752E-01  5.16259E+00 -1.00000E+00  2.23575E-01
      21    -1     0     0   511   502  0.000000000E+00  0.000000000E+00  4.713524246E+01  4.713524246E+01  0.000000000E+00  0.00000E+00  9.000E+00
      21    -1     0     0   502   503  0.000000000E+00  0.000000000E+00 -1.240184490E+03  1.240184490E+03  0.000000000E+00  0.00000E+00  9.000E+00
      25     1     1     2     0     0  2.433444327E+00  7.349189398E+00 -8.888719349E+02  8.976469101E+02  1.249669008E+02  0.00000E+00  9.000E+00
       5     1     1     2   501     0 -6.354616234E+00 -1.183264386E+01  3.454040684E+01  3.736301397E+01  4.750000000E+00  0.00000E+00  9.000E+00
      -5     1     1     2     0   503  4.643426944E+00 -6.283646951E-01 -3.444963414E+02  3.445609496E+02  4.750000000E+00  0.00000E+00  9.000E+00
      21     1     1     2   511   501 -7.222550369E-01  5.111819158E+00  5.778621698E+00  7.748859024E+00  5.196212463E-07  0.00000E+00  9.000E+00
#rwgt            1           9   5.6171397086293685E-005           6     1561436           0
</event>
<event>
      6   9999  3.45752E-01  1.46365E+01 -1.00000E+00  1.71300E-01
      21    -1     0     0   512   502  0.000000000E+00  0.000000000E+00  7.119122977E+01  7.119122977E+01  0.000000000E+00  0.00000E+00  9.000E+00
      21    -1     0     0   502   503  0.000000000E+00  0.000000000E+00 -8.704284720E+02  8.704284720E+02  0.000000000E+00  0.00000E+00  9.000E+00
      25     1     1     2     0     0 -1.158060005E+01 -3.180668677E+01 -4.958859346E+02  5.125097775E+02  1.249705418E+02  0.00000E+00  9.000E+00
       5     1     1     2   501     0  1.954719295E+01  4.258638775E+01 -3.301866836E+02  3.335288619E+02  4.750000000E+00  0.00000E+00  9.000E+00
      -5     1     1     2     0   503  1.950630796E+00 -1.519327487E-02 -3.329822932E+01  3.369183532E+01  4.750000000E+00  0.00000E+00  9.000E+00
      21     1     1     2   512   501 -9.917223689E+00 -1.076450770E+01  6.013360524E+01  6.188922710E+01  1.507891493E-06  0.00000E+00  9.000E+00
#rwgt            1           9  0.83405278470522248                6     1567842           0
</event>
<event>
      6   9999 -3.45752E-01  7.16744E+00 -1.00000E+00  2.03839E-01
      21    -1     0     0   501   502  0.000000000E+00  0.000000000E+00  4.444193918E+00  4.444193918E+00  0.000000000E+00  0.00000E+00  9.000E+00
      21    -1     0     0   502   511  0.000000000E+00  0.000000000E+00 -4.230416877E+03  4.230416877E+03  0.000000000E+00  0.00000E+00  9.000E+00
      25     1     1     2     0     0  2.163337434E+01  3.233382617E+01 -2.859662752E+03  2.862657280E+03  1.249886872E+02  0.00000E+00  9.000E+00
       5     1     1     2   501     0  2.564283956E+00 -4.544009856E+00 -2.137198875E+00  7.372495969E+00  4.750000000E+00  0.00000E+00  9.000E+00
      -5     1     1     2     0   503 -1.713903696E+01 -2.903404577E+01 -1.226091785E+03  1.226564450E+03  4.750000000E+00  0.00000E+00  9.000E+00
      21     1     1     2   503   511 -7.058621339E+00  1.244229458E+00 -1.380809482E+02  1.382668453E+02  2.697398305E-06  0.00000E+00  9.000E+00
#rwgt            1           9  -8.9928658786496106E-003           6     1569987           0
</event>
<event>
      6   9999  3.45752E-01  1.84773E+01 -1.00000E+00  1.62881E-01
      21    -1     0     0   501   512  0.000000000E+00  0.000000000E+00  1.396785117E+01  1.396785117E+01  0.000000000E+00  0.00000E+00  9.000E+00
      21    -1     0     0   502   503  0.000000000E+00  0.000000000E+00 -8.257420682E+02  8.257420682E+02  0.000000000E+00  0.00000E+00  9.000E+00
      25     1     1     2     0     0 -4.759219454E+01 -5.412386851E+00 -6.891300722E+02  7.020107638E+02  1.249981808E+02  0.00000E+00  9.000E+00
       5     1     1     2   501     0 -1.304281109E+00 -1.154630793E+00 -3.163822118E+00  5.967125931E+00  4.750000000E+00  0.00000E+00  9.000E+00
      -5     1     1     2     0   503  3.576114869E+01 -6.428115969E+00 -8.622505315E+01  9.368832756E+01  4.750000000E+00  0.00000E+00  9.000E+00
      21     1     1     2   502   512  1.313532696E+01  1.299513361E+01 -3.325526960E+01  3.804370209E+01  6.743495762E-07  0.00000E+00  9.000E+00
#rwgt            1           9   2.4994186994724087E-004           6     1574619           0
</event>
<event>
      6   9999  3.45752E-01  2.27212E+00 -1.00000E+00  3.12829E-01
      21    -1     0     0   511   502  0.000000000E+00  0.000000000E+00  5.929890452E+01  5.929890452E+01  0.000000000E+00  0.00000E+00  9.000E+00
      21    -1     0     0   502   503  0.000000000E+00  0.000000000E+00 -1.404118688E+03  1.404118688E+03  0.000000000E+00  0.00000E+00  9.000E+00
      25     1     1     2     0     0 -1.761492132E+01  1.460582486E+01 -1.916487222E+02  2.299528007E+02  1.250017690E+02  0.00000E+00  9.000E+00
       5     1     1     2   501     0  6.611427776E+00  3.296345904E+00  3.906475149E+01  4.003990737E+01  4.750000000E+00  0.00000E+00  9.000E+00
      -5     1     1     2     0   503  1.319237262E+01 -1.729277756E+01 -1.190094577E+03  1.190302795E+03  4.750000000E+00  0.00000E+00  9.000E+00
      21     1     1     2   511   501 -2.188879075E+00 -6.093932049E-01 -2.141235220E+00  3.122089037E+00  7.884953353E-08  0.00000E+00  9.000E+00
#rwgt            1           9   6.9154600309049200E-002           6     1576092           0
</event>
<event>
      6   9999  3.45752E-01  1.05397E+01 -1.00000E+00  1.84821E-01
      21    -1     0     0   512   502  0.000000000E+00  0.000000000E+00  3.587727661E+01  3.587727661E+01  0.000000000E+00  0.00000E+00  9.000E+00
      21    -1     0     0   502   503  0.000000000E+00  0.000000000E+00 -9.010529569E+02  9.010529569E+02  0.000000000E+00  0.00000E+00  9.000E+00
      25     1     1     2     0     0  1.669488309E+01 -2.082907319E+00 -8.647549561E+02  8.739045182E+02  1.249996607E+02  0.00000E+00  9.000E+00
       5     1     1     2   501     0  2.120792931E+00 -1.148484175E+00  5.714255630E+00  7.812297739E+00  4.750000000E+00  0.00000E+00  9.000E+00
      -5     1     1     2     0   503 -1.276030598E+01 -5.395181580E+00 -2.763105037E+01  3.127252528E+01  4.750000000E+00  0.00000E+00  9.000E+00
      21     1     1     2   512   501 -6.055370043E+00  8.626573073E+00  2.149607061E+01  2.394089224E+01  9.233911863E-07  0.00000E+00  9.000E+00
#rwgt            1           9   4.3657987640091813E-005           6     1587280           0
</event>
<event>
      6   9999  3.45752E-01  1.64307E+01 -1.00000E+00  1.67012E-01
      21    -1     0     0   511   502  0.000000000E+00  0.000000000E+00  3.055316218E+02  3.055316218E+02  0.000000000E+00  0.00000E+00  9.000E+00
      21    -1     0     0   502   503  0.000000000E+00  0.000000000E+00 -1.599614245E+02  1.599614245E+02  0.000000000E+00  0.00000E+00  9.000E+00
      25     1     1     2     0     0 -6.161961662E+01  4.666460777E+01  2.192697374E+01  1.485970396E+02  1.250029008E+02  0.00000E+00  9.000E+00
       5     1     1     2   501     0 -4.663101766E+00 -1.342291328E+00  1.255127106E+02  1.256962580E+02  4.750000000E+00  0.00000E+00  9.000E+00
      -5     1     1     2     0   503  5.670551249E+01 -3.197146250E+01 -8.460062769E+01  1.068527878E+02  4.750000000E+00  0.00000E+00  9.000E+00
      21     1     1     2   511   501  9.577205898E+00 -1.335085394E+01  8.273114067E+01  8.434696089E+01  1.651812370E-06  0.00000E+00  9.000E+00
#rwgt            1           9   2.6876093277001411E-004           6     1590024           0
</event>
<event>
      6   9999  3.45752E-01  3.08590E+01 -1.00000E+00  1.47049E-01
      21    -1     0     0   512   503  0.000000000E+00  0.000000000E+00  2.302649356E+02  2.302649356E+02  0.000000000E+00  0.00000E+00  9.000E+00
      21    -1     0     0   501   502  0.000000000E+00  0.000000000E+00 -8.632977855E+02  8.632977855E+02  0.000000000E+00  0.00000E+00  9.000E+00
      25     1     1     2     0     0 -3.117188071E+01  2.379113322E+01 -5.760559142E+02  5.907739673E+02  1.250430325E+02  0.00000E+00  9.000E+00
       5     1     1     2   501     0  2.841899446E+00 -4.080703519E+00 -2.026323970E+02  2.027490551E+02  4.750000000E+00  0.00000E+00  9.000E+00
      -5     1     1     2     0   503  3.998370195E+01  8.863505337E+00 -7.051191650E+01  8.168078731E+01  4.750000000E+00  0.00000E+00  9.000E+00
      21     1     1     2   512   502 -1.165372068E+01 -2.857393504E+01  2.161673778E+02  2.183589114E+02  5.394796609E-06  0.00000E+00  9.000E+00
#rwgt            1           9   1.2232438858848447                6     1592265           0
</event>
<event>
      6   9999  3.45752E-01  1.40867E+01 -1.00000E+00  1.72770E-01
      21    -1     0     0   501   502  0.000000000E+00  0.000000000E+00  1.163684994E+01  1.163684994E+01  0.000000000E+00  0.00000E+00  9.000E+00
      21    -1     0     0   502   511  0.000000000E+00  0.000000000E+00 -1.075795677E+03  1.075795677E+03  0.000000000E+00  0.00000E+00  9.000E+00
      25     1     1     2     0     0 -4.273578613E+01  9.654639146E+00 -4.953966531E+02  5.127988773E+02  1.250011405E+02  0.00000E+00  9.000E+00
       5     1     1     2   501     0 -4.450762525E-01  6.852178216E-01 -9.202175852E-01  4.906823488E+00  4.750000000E+00  0.00000E+00  9.000E+00
      -5     1     1     2     0   503  2.972074800E+01 -6.185371670E+00 -3.157365702E+02  3.172281922E+02  4.750000000E+00  0.00000E+00  9.000E+00
      21     1     1     2   503   511  1.346011438E+01 -4.154485297E+00 -2.521053861E+02  2.524986339E+02  3.814697266E-06  0.00000E+00  9.000E+00
#rwgt            1           9   6.4587217133749944E-004           6     1593408           0
</event>
<event>
      6   9999 -3.45752E-01  1.28121E+01 -1.00000E+00  1.76527E-01
      21    -1     0     0   501   502  0.000000000E+00  0.000000000E+00  2.702704350E+01  2.702704350E+01  0.000000000E+00  0.00000E+00  9.000E+00
      21    -1     0     0   512   503  0.000000000E+00  0.000000000E+00 -8.003385365E+02  8.003385365E+02  0.000000000E+00  0.00000E+00  9.000E+00
      25     1     1     2     0     0 -2.825165818E+01  5.465653679E+00 -7.105337902E+02  7.220191519E+02  1.250014364E+02  0.00000E+00  9.000E+00
       5     1     1     2   501     0 -1.173793259E+00 -1.420712673E+00  9.906554841E+00  1.113995260E+01  4.750000000E+00  0.00000E+00  9.000E+00
      -5     1     1     2     0   503  1.815443739E+01  2.047113433E+00  1.488349593E+00  1.893546817E+01  4.750000000E+00  0.00000E+00  9.000E+00
      21     1     1     2   512   502  1.127101405E+01 -6.092054439E+00 -7.417260725E+01  7.527100737E+01  1.348699152E-06  0.00000E+00  9.000E+00
#rwgt            1           9  -4.8036189453828958E-004           6     1595130           0
</event>
<event>
      6   9999 -3.45752E-01  3.77189E+01 -1.00000E+00  1.41681E-01
      21    -1     0     0   501   511  0.000000000E+00  0.000000000E+00  8.649734125E+02  8.649734125E+02  0.000000000E+00  0.00000E+00  9.000E+00
      21    -1     0     0   502   503  0.000000000E+00  0.000000000E+00 -2.817442820E+03  2.817442820E+03  0.000000000E+00  0.00000E+00  9.000E+00
      25     1     1     2     0     0 -1.212645683E+01  4.471720637E+01 -2.665410065E+03  2.668741762E+03  1.250003901E+02  0.00000E+00  9.000E+00
       5     1     1     2   501     0  2.546062726E+01  2.090711700E+01  4.799001577E+01  5.840338343E+01  4.750000000E+00  0.00000E+00  9.000E+00
      -5     1     1     2     0   503  8.694832551E-02 -3.037389594E+01 -1.430875774E+02  1.463529925E+02  4.750000000E+00  0.00000E+00  9.000E+00
      21     1     1     2   502   511 -1.342111875E+01 -3.525042744E+01  8.080382195E+02  8.089180942E+02  1.078959322E-05  0.00000E+00  9.000E+00
#rwgt            1           9  -2.3389149168776064E-004           6     1597935           0
</event>
<event>
      6   9999  3.45752E-01  5.09862E+00 -1.00000E+00  2.24404E-01
      21    -1     0     0   501   502  0.000000000E+00  0.000000000E+00  3.847830247E+01  3.847830247E+01  0.000000000E+00  0.00000E+00  9.000E+00
      21    -1     0     0   512   503  0.000000000E+00  0.000000000E+00 -1.303605132E+03  1.303605132E+03  0.000000000E+00  0.00000E+00  9.000E+00
      25     1     1     2     0     0  8.609842794E+00 -3.966412180E+01 -2.393525663E+02  2.730610205E+02  1.250011918E+02  0.00000E+00  9.000E+00
       5     1     1     2   501     0  5.812587255E+00  1.320860727E+00  2.047262945E+01  2.184540914E+01  4.750000000E+00  0.00000E+00  9.000E+00
      -5     1     1     2     0   503 -9.664353359E+00  3.651114145E+01 -9.776973431E+02  9.784381025E+02  4.750000000E+00  0.00000E+00  9.000E+00
      21     1     1     2   512   502 -4.758076690E+00  1.832119627E+00 -6.854954915E+01  6.873890198E+01  1.348699152E-06  0.00000E+00  9.000E+00
#rwgt            1           9   1.7669280628558956E-004           6     1599773           0
</event>
<event>
      6   9999  3.45752E-01  3.23738E+00 -1.00000E+00  2.68538E-01
      21    -1     0     0   511   502  0.000000000E+00  0.000000000E+00  2.163214902E+03  2.163214902E+03  0.000000000E+00  0.00000E+00  9.000E+00
      21    -1     0     0   502   503  0.000000000E+00  0.000000000E+00 -5.726840855E+01  5.726840855E+01  0.000000000E+00  0.00000E+00  9.000E+00
      25     1     1     2     0     0  9.517650758E+01 -3.623302176E+01  1.262939279E+03  1.273189692E+03  1.249998759E+02  0.00000E+00  9.000E+00
       5     1     1     2   501     0 -1.426916531E+00 -7.127943650E+00  8.312892538E+02  8.313346075E+02  4.750000000E+00  0.00000E+00  9.000E+00
      -5     1     1     2     0   503 -9.391669342E+01  4.012789813E+01 -1.600024515E+00  1.022531960E+02  4.750000000E+00  0.00000E+00  9.000E+00
      21     1     1     2   511   501  1.671023748E-01  3.233067282E+00  1.331798504E+01  1.370581529E+01  1.685873940E-07  0.00000E+00  9.000E+00
#rwgt            1           9   326.45696096973484                6     1604846           0
</event>
<event>
      6   9999 -3.45752E-01  1.48382E+01 -1.00000E+00  1.70781E-01
      21    -1     0     0   501   502  0.000000000E+00  0.000000000E+00  9.414636694E+00  9.414636694E+00  0.000000000E+00  0.00000E+00  9.000E+00
      21    -1     0     0   502   512  0.000000000E+00  0.000000000E+00 -1.215151860E+03  1.215151860E+03  0.000000000E+00  0.00000E+00  9.000E+00
      25     1     1     2     0     0  1.426848145E+01 -7.888275704E+00 -6.854874597E+02  6.969817609E+02  1.249988127E+02  0.00000E+00  9.000E+00
       5     1     1     2   501     0  1.303655819E+00  1.566692929E-01  1.691971347E+00  5.210501972E+00  4.750000000E+00  0.00000E+00  9.000E+00
      -5     1     1     2     0   503 -1.291308527E+00  3.703072595E+00 -1.188938825E+02  1.190533411E+02  4.750000000E+00  0.00000E+00  9.000E+00
      21     1     1     2   503   512 -1.428082875E+01  4.028533816E+00 -4.030478529E+02  4.033208932E+02  0.000000000E+00  0.00000E+00  9.000E+00
#rwgt            1           9 -0.10666053926993851                6     1613666           0
</event>
<event>
      6   9999  3.45752E-01  7.40886E+01 -1.00000E+00  1.26243E-01
      21    -1     0     0   511   502  0.000000000E+00  0.000000000E+00  3.020776128E+02  3.020776128E+02  0.000000000E+00  0.00000E+00  9.000E+00
      21    -1     0     0   502   503  0.000000000E+00  0.000000000E+00 -2.948724736E+02  2.948724736E+02  0.000000000E+00  0.00000E+00  9.000E+00
      25     1     1     2     0     0 -7.747623980E+01 -1.695240806E+01 -9.659625832E+01  1.767652687E+02  1.250006849E+02  0.00000E+00  9.000E+00
       5     1     1     2   501     0 -1.990157128E+01 -8.828188842E+00  6.357049953E+01  6.736304898E+01  4.750000000E+00  0.00000E+00  9.000E+00
      -5     1     1     2     0   503  2.442464705E+01  1.285946046E+01 -1.479518421E+02  1.505796772E+02  4.750000000E+00  0.00000E+00  9.000E+00
      21     1     1     2   511   501  7.295316404E+01  1.292113644E+01  1.881827401E+02  2.022420915E+02  0.000000000E+00  0.00000E+00  9.000E+00
#rwgt            1           9   4.5696999301681421E-003           6     1615483           0
</event>
<event>
      6   9999  3.45752E-01  6.81607E+00 -1.00000E+00  2.06623E-01
      21    -1     0     0   512   502  0.000000000E+00  0.000000000E+00  3.307904046E+01  3.307904046E+01  0.000000000E+00  0.00000E+00  9.000E+00
      21    -1     0     0   502   503  0.000000000E+00  0.000000000E+00 -1.154078744E+03  1.154078744E+03  0.000000000E+00  0.00000E+00  9.000E+00
      25     1     1     2     0     0  8.287319595E+00 -2.068950775E+00 -1.052842740E+03  1.060271959E+03  1.250033227E+02  0.00000E+00  9.000E+00
       5     1     1     2   501     0  1.441035354E+00  4.626963483E+00  2.737968898E+01  2.820807052E+01  4.750000000E+00  0.00000E+00  9.000E+00
      -5     1     1     2     0   503 -4.788408142E+00  2.138335010E+00 -8.884381189E+01  8.912511845E+01  4.750000000E+00  0.00000E+00  9.000E+00
      21     1     1     2   512   501 -4.939946806E+00 -4.696347718E+00 -6.692840541E+00  9.552636853E+00  0.000000000E+00  0.00000E+00  9.000E+00
#rwgt            1           9   2.7430682504513137E-004           6     1616188           0
</event>
<event>
      6   9999  3.45752E-01  6.98987E+00 -1.00000E+00  2.05219E-01
      21    -1     0     0   501   502  0.000000000E+00  0.000000000E+00  2.481957797E+01  2.481957797E+01  0.000000000E+00  0.00000E+00  9.000E+00
      21    -1     0     0   502   511  0.000000000E+00  0.000000000E+00 -2.862722926E+03  2.862722926E+03  0.000000000E+00  0.00000E+00  9.000E+00
      25     1     1     2     0     0 -1.050414985E+02  9.201517223E+01 -6.174419751E+02  6.452599296E+02  1.250011032E+02  0.00000E+00  9.000E+00
       5     1     1     2   501     0 -1.741761134E+00  3.815656234E+00  6.919503499E+00  9.382696468E+00  4.750000000E+00  0.00000E+00  9.000E+00
      -5     1     1     2     0   503  1.130196958E+02 -9.267407249E+01 -1.968309489E+03  1.973734212E+03  4.750000000E+00  0.00000E+00  9.000E+00
      21     1     1     2   503   511 -6.236436185E+00 -3.156755979E+00 -2.590713877E+02  2.591656655E+02  3.814697266E-06  0.00000E+00  9.000E+00
#rwgt            1           9   7.1034699611493687E-003           6     1620611           0
</event>
<event>
      6   9999  3.45752E-01  1.61631E+01 -1.00000E+00  1.67608E-01
      21    -1     0     0   501   512  0.000000000E+00  0.000000000E+00  3.338384637E+01  3.338384637E+01  0.000000000E+00  0.00000E+00  9.000E+00
      21    -1     0     0   502   503  0.000000000E+00  0.000000000E+00 -1.123727137E+03  1.123727137E+03  0.000000000E+00  0.00000E+00  9.000E+00
      25     1     1     2     0     0 -4.894903064E+00  1.633290771E+01 -9.798258233E+02  9.879146010E+02  1.250035633E+02  0.00000E+00  9.000E+00
       5     1     1     2   501     0 -2.767097818E+00 -2.254930722E+00  2.716080483E+01  2.780311784E+01  4.750000000E+00  0.00000E+00  9.000E+00
      -5     1     1     2     0   503 -2.739747692E-01  2.674715054E-03 -1.032516514E+02  1.033612165E+02  4.750000000E+00  0.00000E+00  9.000E+00
      21     1     1     2   502   512  7.935975652E+00 -1.408065170E+01 -3.442662117E+01  3.803204842E+01  0.000000000E+00  0.00000E+00  9.000E+00
#rwgt            1           9   2.2167731535901189E-003           6     1625699           0
</event>
<event>
      6   9999  3.45752E-01  8.63091E+00 -1.00000E+00  1.94191E-01
      21    -1     0     0   511   502  0.000000000E+00  0.000000000E+00  3.290943562E+02  3.290943562E+02  0.000000000E+00  0.00000E+00  9.000E+00
      21    -1     0     0   502   503  0.000000000E+00  0.000000000E+00 -8.296477084E+02  8.296477084E+02  0.000000000E+00  0.00000E+00  9.000E+00
      25     1     1     2     0     0  2.083633534E+00  7.491061576E+00 -8.207329504E+02  8.302349083E+02  1.250078783E+02  0.00000E+00  9.000E+00
       5     1     1     2   501     0  3.282557342E+00  1.267186611E+00  5.230881517E+00  7.893387489E+00  4.750000000E+00  0.00000E+00  9.000E+00
      -5     1     1     2     0   503  8.485211122E-01 -2.769100666E+00  1.652684893E-02  5.563333507E+00  4.750000000E+00  0.00000E+00  9.000E+00
      21     1     1     2   511   501 -6.214711988E+00 -5.989147521E+00  3.149321899E+02  3.150504353E+02  3.814697266E-06  0.00000E+00  9.000E+00
#rwgt            1           9   1.3401682350372792E-003           6     1628080           0
</event>
<event>
      6   9999  3.45752E-01  1.62279E+01 -1.00000E+00  1.67462E-01
      21    -1     0     0   501   502  0.000000000E+00  0.000000000E+00  5.462378051E+01  5.462378051E+01  0.000000000E+00  0.00000E+00  9.000E+00
       2    -1     0     0   502     0  0.000000000E+00  0.000000000E+00 -7.782017189E+02  7.782017189E+02  0.000000000E+00  0.00000E+00  9.000E+00
      25     1     1     2     0     0  2.152219737E+01  6.757161315E+01 -4.598607256E+02  4.817948007E+02  1.250008605E+02  0.00000E+00  9.000E+00
       5     1     1     2   501     0 -8.836950333E+00  5.338742822E+00  3.753929994E+01  3.922187407E+01  4.750000000E+00  0.00000E+00  9.000E+00
      -5     1     1     2     0   503 -2.125949641E+01 -5.913262332E+01 -2.152606794E+02  2.242952427E+02  4.750000000E+00  0.00000E+00  9.000E+00
       2     1     1     2   503     0  8.574249382E+00 -1.377773265E+01 -8.599583337E+01  8.751358195E+01  1.348699152E-06  0.00000E+00  9.000E+00
#rwgt            1           9  0.55438156157743612                6     1631621           0
</event>
<event>
      6   9999  3.45752E-01  2.25992E+01 -1.00000E+00  1.56263E-01
      21    -1     0     0   501   502  0.000000000E+00  0.000000000E+00  3.261662938E+01  3.261662938E+01  0.000000000E+00  0.00000E+00  9.000E+00
      21    -1     0     0   502   511  0.000000000E+00  0.000000000E+00 -1.233808067E+03  1.233808067E+03  0.000000000E+00  0.00000E+00  9.000E+00
      25     1     1     2     0     0 -5.422691296E+01  4.399327753E+01 -9.879234609E+02  9.982460622E+02  1.250058783E+02  0.00000E+00  9.000E+00
       5     1     1     2   501     0  8.331029507E+00  6.527191998E+00  1.408613438E+01  1.824806756E+01  4.750000000E+00  0.00000E+00  9.000E+00
      -5     1     1     2     0   503  6.076989915E+01 -3.350608464E+01 -1.080362252E+02  1.284913491E+02  4.750000000E+00  0.00000E+00  9.000E+00
      21     1     1     2   503   511 -1.487401569E+01 -1.701438488E+01 -1.193178855E+02  1.214392171E+02  2.336015456E-06  0.00000E+00  9.000E+00
#rwgt            1           9   4.0931213932356129E-005           6     1634282           0
</event>
<event>
      6   9999  3.45752E-01  4.94216E+00 -1.00000E+00  2.30254E-01
      21    -1     0     0   501   512  0.000000000E+00  0.000000000E+00  6.867744931E+02  6.867744931E+02  0.000000000E+00  0.00000E+00  9.000E+00
      21    -1     0     0   502   503  0.000000000E+00  0.000000000E+00 -3.734211848E+03  3.734211848E+03  0.000000000E+00  0.00000E+00  9.000E+00
      25     1     1     2     0     0  1.367404249E+00  2.037749360E+00 -3.544652399E+03  3.546856400E+03  1.249946917E+02  0.00000E+00  9.000E+00
       5     1     1     2   501     0 -3.849610802E+00  3.528792285E+00 -3.079579005E+00  7.701829988E+00  4.750000000E+00  0.00000E+00  9.000E+00
      -5     1     1     2     0   503  1.490936593E+00 -7.248118736E-01 -1.830232416E+02  1.830923748E+02  4.750000000E+00  0.00000E+00  9.000E+00
      21     1     1     2   502   512  9.912699600E-01 -4.841729771E+00  6.833178643E+02  6.833357364E+02  1.321449896E-05  0.00000E+00  9.000E+00
#rwgt            1           9   4.2126156746410875E-002           6     1636672           0
</event>
<event>
      6   9999  3.45752E-01  3.26993E+01 -1.00000E+00  1.45458E-01
      21    -1     0     0   501   502  0.000000000E+00  0.000000000E+00  4.694981221E+01  4.694981221E+01  0.000000000E+00  0.00000E+00  9.000E+00
      21    -1     0     0   511   503  0.000000000E+00  0.000000000E+00 -1.368957756E+03  1.368957756E+03  0.000000000E+00  0.00000E+00  9.000E+00
      25     1     1     2     0     0 -1.077384172E+01  2.302815280E+01 -1.160090045E+03  1.167082389E+03  1.250040725E+02  0.00000E+00  9.000E+00
       5     1     1     2   501     0  2.684310597E+00  5.925015115E+00  4.000125189E+01  4.080409269E+01  4.750000000E+00  0.00000E+00  9.000E+00
      -5     1     1     2     0   503 -2.751266724E+00  1.896853324E+00 -1.151278347E+02  1.152742311E+02  4.750000000E+00  0.00000E+00  9.000E+00
      21     1     1     2   511   502  1.084079784E+01 -3.085002124E+01 -8.679131522E+01  9.274685496E+01  9.536743164E-07  0.00000E+00  9.000E+00
#rwgt            1           9   3.5615852546511047E-004           6     1640537           0
</event>
<event>
      6   9999 -3.45752E-01  2.04502E+01 -1.00000E+00  1.59476E-01
      21    -1     0     0   501   502  0.000000000E+00  0.000000000E+00  5.011576236E+01  5.011576236E+01  0.000000000E+00  0.00000E+00  9.000E+00
      21    -1     0     0   512   503  0.000000000E+00  0.000000000E+00 -2.976015802E+03  2.976015802E+03  0.000000000E+00  0.00000E+00  9.000E+00
      25     1     1     2     0     0 -1.651902552E+01 -2.097891336E+02 -3.368256353E+02  4.163686004E+02  1.250077758E+02  0.00000E+00  9.000E+00
       5     1     1     2   501     0  1.929958146E+00 -1.001831302E+00  4.815884818E+00  7.105184796E+00  4.750000000E+00  0.00000E+00  9.000E+00
      -5     1     1     2     0   503  1.913632744E+01  1.908526991E+02 -2.253275601E+03  2.261429736E+03  4.750000000E+00  0.00000E+00  9.000E+00
      21     1     1     2   512   502 -4.547260062E+00  1.993826587E+01 -3.406146876E+02  3.412280431E+02  0.000000000E+00  0.00000E+00  9.000E+00
#rwgt            1           9  -1.5752887841620296E-004           6     1642606           0
</event>
<event>
      6   9999  3.45752E-01  2.99405E+01 -1.00000E+00  1.47894E-01
      21    -1     0     0   501   502  0.000000000E+00  0.000000000E+00  1.061142248E+01  1.061142248E+01  0.000000000E+00  0.00000E+00  9.000E+00
      21    -1     0     0   502   511  0.000000000E+00  0.000000000E+00 -1.465700105E+03  1.465700105E+03  0.000000000E+00  0.00000E+00  9.000E+00
      25     1     1     2     0     0 -1.291522036E+00 -4.607730745E+01 -5.934841192E+02  6.082526489E+02  1.249923954E+02  0.00000E+00  9.000E+00
       5     1     1     2   501     0  8.719093108E-01 -2.008710056E+00 -1.201506128E+00  5.366680437E+00  4.750000000E+00  0.00000E+00  9.000E+00
      -5     1     1     2     0   503  1.280741397E+01  2.082848138E+01 -1.906470106E+02  1.922672635E+02  4.750000000E+00  0.00000E+00  9.000E+00
      21     1     1     2   503   511 -1.238780124E+01  2.725753612E+01 -6.697560462E+02  6.704249342E+02  1.525878906E-05  0.00000E+00  9.000E+00
#rwgt            1           9   1.2739047924111751E-003           6     1645746           0
</event>
<event>
      6   9999  3.45752E-01  3.49742E+00 -1.00000E+00  2.60572E-01
      21    -1     0     0   512   502  0.000000000E+00  0.000000000E+00  1.254076855E+02  1.254076855E+02  0.000000000E+00  0.00000E+00  9.000E+00
      21    -1     0     0   502   503  0.000000000E+00  0.000000000E+00 -7.660777972E+02  7.660777972E+02  0.000000000E+00  0.00000E+00  9.000E+00
      25     1     1     2     0     0  4.267421681E-01  1.700431874E+00 -7.117178492E+02  7.226135661E+02  1.249999814E+02  0.00000E+00  9.000E+00
       5     1     1     2   501     0 -2.860879708E+00 -6.631045646E-01  4.795850088E+00  7.361183223E+00  4.750000000E+00  0.00000E+00  9.000E+00
      -5     1     1     2     0   503 -2.234909981E-01  1.236207595E+00 -4.747575827E+01  4.772932307E+01  4.750000000E+00  0.00000E+00  9.000E+00
      21     1     1     2   512   501  2.657628538E+00 -2.273534904E+00  1.137276457E+02  1.137814103E+02  4.473129043E-06  0.00000E+00  9.000E+00
#rwgt            1           9   1.7826045641834869E-004           6     1647004           0
</event>
<event>
      6   9999  3.45752E-01  7.28598E+00 -1.00000E+00  2.02947E-01
      21    -1     0     0   501   502  0.000000000E+00  0.000000000E+00  1.045239517E+01  1.045239517E+01  0.000000000E+00  0.00000E+00  9.000E+00
      -1    -1     0     0     0   503  0.000000000E+00  0.000000000E+00 -9.783861568E+02  9.783861568E+02  0.000000000E+00  0.00000E+00  9.000E+00
      25     1     1     2     0     0  5.371721127E-01 -3.862478344E+01 -7.337269295E+02  7.453035508E+02  1.250200513E+02  0.00000E+00  9.000E+00
       5     1     1     2   501     0  1.613372620E-01 -1.408785938E+00  2.879581126E-01  4.965493672E+00  4.750000000E+00  0.00000E+00  9.000E+00
      -5     1     1     2     0   503 -3.565708819E+00  3.333545696E+01 -1.506330532E+02  1.543918592E+02  4.750000000E+00  0.00000E+00  9.000E+00
      -1     1     1     2     0   502  2.867199444E+00  6.698112422E+00 -8.386173697E+01  8.417764829E+01  0.000000000E+00  0.00000E+00  9.000E+00
#rwgt            1           9   1.7395883991288694E-002           6     1652178           0
</event>
<event>
      6   9999  3.45752E-01  1.42655E+01 -1.00000E+00  1.72283E-01
      21    -1     0     0   511   502  0.000000000E+00  0.000000000E+00  2.564415492E+01  2.564415492E+01  0.000000000E+00  0.00000E+00  9.000E+00
      21    -1     0     0   502   503  0.000000000E+00  0.000000000E+00 -8.040687084E+02  8.040687084E+02  0.000000000E+00  0.00000E+00  9.000E+00
      25     1     1     2     0     0  1.078380758E+01 -1.370370547E+01 -5.107126712E+02  5.260758782E+02  1.249972602E+02  0.00000E+00  9.000E+00
       5     1     1     2   501     0 -1.495893549E+00  9.159075904E-01 -1.035301815E+00  5.168262191E+00  4.750000000E+00  0.00000E+00  9.000E+00
      -5     1     1     2     0   503 -2.354595695E+01  1.324852594E+01 -2.785567341E+02  2.799041839E+02  4.750000000E+00  0.00000E+00  9.000E+00
      21     1     1     2   511   501  1.425804292E+01 -4.607280621E-01  1.188015367E+01  1.856453903E+01  8.259061849E-07  0.00000E+00  9.000E+00
#rwgt            1           9   1.1052096963861321E-003           6     1655240           0
</event>
<event>
      6   9999 -3.45752E-01  6.06191E+00 -1.00000E+00  2.13439E-01
       2    -1     0     0   502     0  0.000000000E+00  0.000000000E+00  2.685454568E+02  2.685454568E+02  0.000000000E+00  0.00000E+00  9.000E+00
      21    -1     0     0   501   502  0.000000000E+00  0.000000000E+00 -2.960147797E+01  2.960147797E+01  0.000000000E+00  0.00000E+00  9.000E+00
      25     1     1     2     0     0 -1.240567334E+00  1.705481340E+00  1.156023088E+02  1.702768235E+02  1.250034206E+02  0.00000E+00  9.000E+00
       5     1     1     2   501     0 -2.043474440E+00 -2.329495342E+00  3.814617583E+00  6.834920895E+00  4.750000000E+00  0.00000E+00  9.000E+00
      -5     1     1     2     0   503  8.100767149E+00 -3.056469088E+00  3.730644083E+01  3.859141691E+01  4.750000000E+00  0.00000E+00  9.000E+00
       2     1     1     2   503     0 -4.816725375E+00  3.680483090E+00  8.222061167E+01  8.244377346E+01  9.536743164E-07  0.00000E+00  9.000E+00
#rwgt            1           9  -68836.430542776245                6     1657423           0
</event>
<event>
      6   9999  3.45752E-01  8.51672E+00 -1.00000E+00  1.94851E-01
      21    -1     0     0   511   502  0.000000000E+00  0.000000000E+00  7.205219336E+01  7.205219336E+01  0.000000000E+00  0.00000E+00  9.000E+00
      21    -1     0     0   502   503  0.000000000E+00  0.000000000E+00 -7.436789052E+02  7.436789052E+02  0.000000000E+00  0.00000E+00  9.000E+00
      25     1     1     2     0     0 -3.946272007E+00  3.767341065E-01 -6.718868428E+02  6.834279476E+02  1.250044600E+02  0.00000E+00  9.000E+00
       5     1     1     2   501     0 -3.663120107E+00  2.752810420E+00 -4.474877900E+00  7.973922895E+00  4.750000000E+00  0.00000E+00  9.000E+00
      -5     1     1     2     0   503 -7.117007719E-01 -1.314622419E+00 -5.941149092E+01  5.961981636E+01  4.750000000E+00  0.00000E+00  9.000E+00
      21     1     1     2   511   501  8.321092886E+00 -1.814922108E+00  6.414649979E+01  6.470941172E+01  2.523185073E-06  0.00000E+00  9.000E+00
#rwgt            1           9   7.4176965468303937                6     1660493           0
</event>
<event>
      6   9999  3.45752E-01  8.20003E+01 -1.00000E+00  1.24215E-01
      21    -1     0     0   502   512  0.000000000E+00  0.000000000E+00  1.977383760E+02  1.977383760E+02  0.000000000E+00  0.00000E+00  9.000E+00
      21    -1     0     0   501   502  0.000000000E+00  0.000000000E+00 -1.431580136E+03  1.431580136E+03  0.000000000E+00  0.00000E+00  9.000E+00
      25     1     1     2     0     0 -6.268770115E+00  1.368848772E+02 -7.026498901E+02  7.267174896E+02  1.249986984E+02  0.00000E+00  9.000E+00
       5     1     1     2   501     0  9.484381943E+01 -1.164702186E+02 -5.436127348E+02  5.640017995E+02  4.750000000E+00  0.00000E+00  9.000E+00
      -5     1     1     2     0   503 -1.145077931E+02 -9.820629772E+01 -1.131456083E+02  1.886292734E+02  4.750000000E+00  0.00000E+00  9.000E+00
      21     1     1     2   503   512  2.593274382E+01  7.779163911E+01  1.255664736E+02  1.499699490E+02  1.348699152E-06  0.00000E+00  9.000E+00
#rwgt            1           9   7.3953178969882825E-003           6     1662851           0
</event>
<event>
      6   9999  3.45752E-01  1.03202E+01 -1.00000E+00  1.85763E-01
       3    -1     0     0   502     0  0.000000000E+00  0.000000000E+00  3.076909840E+01  3.076909840E+01  0.000000000E+00  0.00000E+00  9.000E+00
      21    -1     0     0   501   502  0.000000000E+00  0.000000000E+00 -6.929101225E+02  6.929101225E+02  0.000000000E+00  0.00000E+00  9.000E+00
      25     1     1     2     0     0  5.098011436E+00 -7.657747324E+00 -6.115467805E+02  6.242586032E+02  1.249988321E+02  0.00000E+00  9.000E+00
       5     1     1     2   501     0  1.583101570E+00  5.886459815E-01 -4.180756285E+01  4.211042064E+01  4.750000000E+00  0.00000E+00  9.000E+00
      -5     1     1     2     0   503  1.605240192E+00  9.173759134E-01 -3.173833460E+01  3.214502695E+01  4.750000000E+00  0.00000E+00  9.000E+00
       3     1     1     2   503     0 -8.286353198E+00  6.151725429E+00  2.295165385E+01  2.516517017E+01  1.581489940E-06  0.00000E+00  9.000E+00
#rwgt            1           9   9.8494754763012466E-003           6     1663679           0
</event>
<event>
      6   9999  3.45752E-01  4.28257E+00 -1.00000E+00  2.41870E-01
      21    -1     0     0   501   511  0.000000000E+00  0.000000000E+00  1.291909546E+01  1.291909546E+01  0.000000000E+00  0.00000E+00  9.000E+00
      21    -1     0     0   502   503  0.000000000E+00  0.000000000E+00 -7.415596813E+02  7.415596813E+02  0.000000000E+00  0.00000E+00  9.000E+00
      25     1     1     2     0     0  3.031320929E+00  3.152249068E+00 -7.166112699E+02  7.274453719E+02  1.250037254E+02  0.00000E+00  9.000E+00
       5     1     1     2   501     0  6.757528913E-01  3.242481979E-01  3.717646576E+00  6.078254267E+00  4.750000000E+00  0.00000E+00  9.000E+00
      -5     1     1     2     0   503 -5.207765375E+00  5.345308673E-01 -1.503492406E+01  1.661378900E+01  4.750000000E+00  0.00000E+00  9.000E+00
      21     1     1     2   502   511  1.500691555E+00 -4.011028134E+00 -7.120384597E-01  4.341361607E+00  5.866593029E-08  0.00000E+00  9.000E+00
#rwgt            1           9   5.7858938515287791E-005           6     1665958           0
</event>
<event>
      6   9999  3.45752E-01  9.14793E+00 -1.00000E+00  1.91362E-01
      21    -1     0     0   501   502  0.000000000E+00  0.000000000E+00  1.682193153E+01  1.682193153E+01  0.000000000E+00  0.00000E+00  9.000E+00
      21    -1     0     0   502   512  0.000000000E+00  0.000000000E+00 -1.354417763E+03  1.354417763E+03  0.000000000E+00  0.00000E+00  9.000E+00
      25     1     1     2     0     0  2.238825615E+00 -8.543032952E+00 -9.702826561E+02  9.783299023E+02  1.249118460E+02  0.00000E+00  9.000E+00
       5     1     1     2   501     0  1.436741314E+00  6.345846971E-01  1.190980995E+01  1.291793313E+01  4.750000000E+00  0.00000E+00  9.000E+00
      -5     1     1     2     0   503  2.415565131E+00  1.083292132E+00 -2.236378777E+01  2.301542917E+01  4.750000000E+00  0.00000E+00  9.000E+00
      21     1     1     2   503   512 -6.091132060E+00  6.825156123E+00 -3.568591973E+02  3.569764297E+02  3.814697266E-06  0.00000E+00  9.000E+00
#rwgt            1           9   2.6964213280370800E-005           6     1670816           0
</event>
<event>
      6   9999  3.45752E-01  8.39362E+00 -1.00000E+00  1.95577E-01
      21    -1     0     0   501   502  0.000000000E+00  0.000000000E+00  1.135088339E+02  1.135088339E+02  0.000000000E+00  0.00000E+00  9.000E+00
      21    -1     0     0   502   511  0.000000000E+00  0.000000000E+00 -2.670050155E+02  2.670050155E+02  0.000000000E+00  0.00000E+00  9.000E+00
      25     1     1     2     0     0  5.410581963E+00 -4.206835044E+00  1.812201604E+01  1.264969974E+02  1.250044440E+02  0.00000E+00  9.000E+00
       5     1     1     2   501     0  1.638727616E+00  6.763023055E-01  3.862869763E+01  3.895999992E+01  4.750000000E+00  0.00000E+00  9.000E+00
      -5     1     1     2     0   503  2.972981818E-01 -5.290502826E-01 -1.485558067E-01  4.790913195E+00  4.750000000E+00  0.00000E+00  9.000E+00
      21     1     1     2   503   511 -7.346607761E+00  4.059583021E+00 -2.100983394E+02  2.102659389E+02  0.000000000E+00  0.00000E+00  9.000E+00
#rwgt            1           9   7.9731902888201412E-003           6     1674017           0
</event>
<event>
      6   9999  3.45752E-01  2.98716E+01 -1.00000E+00  1.47959E-01
      21    -1     0     0   501   502  0.000000000E+00  0.000000000E+00  5.110010296E+01  5.110010296E+01  0.000000000E+00  0.00000E+00  9.000E+00
      21    -1     0     0   512   503  0.000000000E+00  0.000000000E+00 -1.445400583E+03  1.445400583E+03  0.000000000E+00  0.00000E+00  9.000E+00
      25     1     1     2     0     0 -4.126897925E+01 -2.570630246E+01 -5.859144769E+02  6.010678934E+02  1.249915824E+02  0.00000E+00  9.000E+00
       5     1     1     2   501     0 -2.449443804E+00 -5.141564024E+00  4.130516397E+01  4.196563506E+01  4.750000000E+00  0.00000E+00  9.000E+00
      -5     1     1     2     0   503  1.387985639E+01  2.944301629E+01 -7.027999609E+02  7.035693918E+02  4.750000000E+00  0.00000E+00  9.000E+00
      21     1     1     2   512   502  2.983856667E+01  1.404850193E+00 -1.468912063E+02  1.498977657E+02  0.000000000E+00  0.00000E+00  9.000E+00
#rwgt            1           9   1.5541747940667523E-002           6     1676550           0
</event>
<event>
      6   9999  3.45752E-01  6.40692E+00 -1.00000E+00  2.10164E-01
      21    -1     0     0   501   502  0.000000000E+00  0.000000000E+00  2.305261437E+01  2.305261437E+01  0.000000000E+00  0.00000E+00  9.000E+00
       2    -1     0     0   502     0  0.000000000E+00  0.000000000E+00 -1.354241930E+03  1.354241930E+03  0.000000000E+00  0.00000E+00  9.000E+00
      25     1     1     2     0     0 -6.682744416E+00 -2.001248307E+01 -9.441614973E+02  9.526350312E+02  1.250096439E+02  0.00000E+00  9.000E+00
       5     1     1     2   501     0  9.997815210E-01  7.167121772E-01  1.766905956E+01  1.833770447E+01  4.750000000E+00  0.00000E+00  9.000E+00
      -5     1     1     2     0   503  4.892443050E-01  1.554424401E+01 -8.391944332E+01  8.548039746E+01  4.750000000E+00  0.00000E+00  9.000E+00
       2     1     1     2   503     0  5.193718590E+00  3.751526880E+00 -3.207774343E+02  3.208414110E+02  3.814697266E-06  0.00000E+00  9.000E+00
#rwgt            1           9   4.4402121906121671E-004           6     1679127           0
</event>
<event>
      6   9999  3.45752E-01  3.15074E+01 -1.00000E+00  1.46474E-01
      21    -1     0     0   501   511  0.000000000E+00  0.000000000E+00  3.270467047E+01  3.270467047E+01  0.000000000E+00  0.00000E+00  9.000E+00
      21    -1     0     0   502   503  0.000000000E+00  0.000000000E+00 -4.859776944E+02  4.859776944E+02  0.000000000E+00  0.00000E+00  9.000E+00
      25     1     1     2     0     0  3.799474995E+01 -4.551999932E+00 -2.498459901E+02  2.819793770E+02  1.250001143E+02  0.00000E+00  9.000E+00
       5     1     1     2   501     0  9.165078963E-01 -1.202911093E+00 -8.478747567E-01  5.056517915E+00  4.750000000E+00  0.00000E+00  9.000E+00
      -5     1     1     2     0   503 -1.955228099E+01 -1.910360402E+01 -1.978502285E+02  1.997861727E+02  4.750000000E+00  0.00000E+00  9.000E+00
      21     1     1     2   502   511 -1.935897686E+01  2.485851505E+01 -4.728930576E+00  3.186029723E+01  0.000000000E+00  0.00000E+00  9.000E+00
#rwgt            1           9   2.6069532287510949E-004           6     1682853           0
</event>
<event>
      6   9999  3.45752E-01  1.41672E+01 -1.00000E+00  1.72550E-01
      21    -1     0     0   512   503  0.000000000E+00  0.000000000E+00  3.114030391E+01  3.114030391E+01  0.000000000E+00  0.00000E+00  9.000E+00
      21    -1     0     0   501   502  0.000000000E+00  0.000000000E+00 -6.865788582E+02  6.865788582E+02  0.000000000E+00  0.00000E+00  9.000E+00
      25     1     1     2     0     0 -6.869407447E+00  1.573192808E+01 -5.919666338E+02  6.052636764E+02  1.249997606E+02  0.00000E+00  9.000E+00
       5     1     1     2   501     0  1.025873023E+01 -9.125735812E+00 -4.740928844E+01  4.958551936E+01  4.750000000E+00  0.00000E+00  9.000E+00
      -5     1     1     2     0   503  9.313294665E+00 -3.330078576E-01 -3.651861788E+01  3.798710707E+01  4.750000000E+00  0.00000E+00  9.000E+00
      21     1     1     2   512   502 -1.270261745E+01 -6.273184412E+00  2.045598579E+01  2.488285930E+01  1.450243599E-06  0.00000E+00  9.000E+00
#rwgt            1           9   2.0811137845052698                6     1684023           0
</event>
<event>
      6   9999  3.45752E-01  1.07796E+01 -1.00000E+00  1.83824E-01
      21    -1     0     0   501   511  0.000000000E+00  0.000000000E+00  6.558939109E+00  6.558939109E+00  0.000000000E+00  0.00000E+00  9.000E+00
      21    -1     0     0   502   503  0.000000000E+00  0.000000000E+00 -2.774893805E+03  2.774893805E+03  0.000000000E+00  0.00000E+00  9.000E+00
      25     1     1     2     0     0  1.017137596E+01 -8.579387105E+00 -2.604458973E+03  2.607490140E+03  1.249848937E+02  0.00000E+00  9.000E+00
       5     1     1     2   501     0  3.246145212E+00 -2.912081802E-01  2.155393973E+00  6.150649081E+00  4.750000000E+00  0.00000E+00  9.000E+00
      -5     1     1     2     0   503 -5.206335791E+00  1.886640240E+00 -1.299549238E+02  1.301595562E+02  4.750000000E+00  0.00000E+00  9.000E+00
      21     1     1     2   502   511 -8.211185377E+00  6.983955046E+00 -3.607636341E+01  3.765239952E+01  6.743495762E-07  0.00000E+00  9.000E+00
#rwgt            1           9   1.3010854580263964E-004           6     1686166           0
</event>
<event>
      6   9999  3.45752E-01  1.95763E+01 -1.00000E+00  1.60923E-01
      21    -1     0     0   501   512  0.000000000E+00  0.000000000E+00  4.465992566E+01  4.465992566E+01  0.000000000E+00  0.00000E+00  9.000E+00
      21    -1     0     0   502   503  0.000000000E+00  0.000000000E+00 -1.859031209E+03  1.859031209E+03  0.000000000E+00  0.00000E+00  9.000E+00
      25     1     1     2     0     0 -6.872179014E+01  7.764961903E+00 -1.543260819E+02  2.102956303E+02  1.249989340E+02  0.00000E+00  9.000E+00
       5     1     1     2   501     0  1.432178455E+00 -4.945750158E+00  1.088294434E+01  1.294266423E+01  4.750000000E+00  0.00000E+00  9.000E+00
      -5     1     1     2     0   503  7.720627429E+01 -1.969794957E+01 -1.649494547E+03  1.651424730E+03  4.750000000E+00  0.00000E+00  9.000E+00
      21     1     1     2   502   512 -9.916662607E+00  1.687873783E+01 -2.143359918E+01  2.902810985E+01  6.307962682E-07  0.00000E+00  9.000E+00
#rwgt            1           9   2.3367822123256284E-004           6     1688910           0
</event>
<event>
      6   9999  3.45752E-01  5.40597E+00 -1.00000E+00  2.20565E-01
      21    -1     0     0   511   502  0.000000000E+00  0.000000000E+00  7.139019407E+01  7.139019407E+01  0.000000000E+00  0.00000E+00  9.000E+00
      21    -1     0     0   502   503  0.000000000E+00  0.000000000E+00 -2.828836193E+02  2.828836193E+02  0.000000000E+00  0.00000E+00  9.000E+00
      25     1     1     2     0     0  1.885792599E+00  4.398737469E+01 -1.197387354E+02  1.786068730E+02  1.249984199E+02  0.00000E+00  9.000E+00
       5     1     1     2   501     0 -4.024782369E+00 -1.511486056E+00  2.863348264E+01  2.934147732E+01  4.750000000E+00  0.00000E+00  9.000E+00
      -5     1     1     2     0   503 -1.604335885E+00 -4.637615140E+01 -1.284281580E+02  1.366370213E+02  4.750000000E+00  0.00000E+00  9.000E+00
      21     1     1     2   511   501  3.743325655E+00  3.900262771E+00  8.039985568E+00  9.688441804E+00  1.192092896E-07  0.00000E+00  9.000E+00
#rwgt            1           9   1.6054240441595844E-002           6     1691245           0
</event>
<event>
      6   9999  3.45752E-01  9.73630E+00 -1.00000E+00  1.88425E-01
      21    -1     0     0   501   502  0.000000000E+00  0.000000000E+00  1.433705821E+01  1.433705821E+01  0.000000000E+00  0.00000E+00  9.000E+00
      21    -1     0     0   512   503  0.000000000E+00  0.000000000E+00 -1.436365617E+03  1.436365617E+03  0.000000000E+00  0.00000E+00  9.000E+00
      25     1     1     2     0     0 -4.994052720E+01 -5.006803688E+00 -6.903161408E+02  7.033338893E+02  1.249922447E+02  0.00000E+00  9.000E+00
       5     1     1     2   501     0 -3.355892429E+00  7.521163855E-01  3.810597575E+00  6.993629024E+00  4.750000000E+00  0.00000E+00  9.000E+00
      -5     1     1     2     0   503  4.431307596E+01  5.003538842E-01 -2.061662484E+02  2.109288590E+02  4.750000000E+00  0.00000E+00  9.000E+00
      21     1     1     2   512   502  8.983343664E+00  3.754333419E+00 -5.293567670E+02  5.294462978E+02  7.629394531E-06  0.00000E+00  9.000E+00
#rwgt            1           9   2.0107057284837957E-004           6     1695565           0
</event>
<event>
      6   9999  3.45752E-01  2.20416E+01 -1.00000E+00  1.57054E-01
      21    -1     0     0   511   502  0.000000000E+00  0.000000000E+00  1.365329569E+03  1.365329569E+03  0.000000000E+00  0.00000E+00  9.000E+00
      21    -1     0     0   502   503  0.000000000E+00  0.000000000E+00 -1.268114205E+02  1.268114205E+02  0.000000000E+00  0.00000E+00  9.000E+00
      25     1     1     2     0     0 -1.095898357E+01  7.428607566E+00 -7.563650762E+01  1.467034758E+02  1.250029799E+02  0.00000E+00  9.000E+00
       5     1     1     2   501     0 -2.386372309E+00 -2.594193191E+01  7.567654373E+02  7.572286103E+02  4.750000000E+00  0.00000E+00  9.000E+00
      -5     1     1     2     0   503  1.141942071E+01 -3.443962232E+00 -1.248525558E+01  1.790832634E+01  4.750000000E+00  0.00000E+00  9.000E+00
      21     1     1     2   511   501  1.925935168E+00  2.195728657E+01  5.698744748E+02  5.703005775E+02  1.078959322E-05  0.00000E+00  9.000E+00
#rwgt            1           9   1.7833798857595047E-004           6     1698725           0
</event>
<event>
      6   9999  3.45752E-01  4.01121E+00 -1.00000E+00  2.47599E-01
      21    -1     0     0   501   502  0.000000000E+00  0.000000000E+00  1.201550043E+01  1.201550043E+01  0.000000000E+00  0.00000E+00  9.000E+00
      21    -1     0     0   502   512  0.000000000E+00  0.000000000E+00 -8.657536627E+02  8.657536627E+02  0.000000000E+00  0.00000E+00  9.000E+00
      25     1     1     2     0     0  1.311251134E+01 -1.124872035E+01 -7.997902543E+02  8.096830069E+02  1.249945966E+02  0.00000E+00  9.000E+00
       5     1     1     2   501     0  1.277084188E+00  7.090870102E-01  3.101410924E+00  5.857900488E+00  4.750000000E+00  0.00000E+00  9.000E+00
      -5     1     1     2     0   503 -1.040983856E+01  1.104099155E+01 -2.310449290E+01  2.804725165E+01  4.750000000E+00  0.00000E+00  9.000E+00
      21     1     1     2   503   512 -3.979756964E+00 -5.013582046E-01 -3.394482600E+01  3.418100405E+01  0.000000000E+00  0.00000E+00  9.000E+00
#rwgt            1           9   5.7014113140192602E-003           6     1701540           0
</event>
<event>
      6   9999  3.45752E-01  1.01464E+01 -1.00000E+00  1.86531E-01
      21    -1     0     0   501   502  0.000000000E+00  0.000000000E+00  1.523770584E+01  1.523770584E+01  0.000000000E+00  0.00000E+00  9.000E+00
      21    -1     0     0   511   503  0.000000000E+00  0.000000000E+00 -9.464125445E+02  9.464125445E+02  0.000000000E+00  0.00000E+00  9.000E+00
      25     1     1     2     0     0 -2.936754890E+01 -3.084737884E+01 -8.113420845E+02  8.220181234E+02  1.249952138E+02  0.00000E+00  9.000E+00
       5     1     1     2   501     0  5.931106384E+00  1.062749475E+01  1.507670733E+00  1.315132080E+01  4.750000000E+00  0.00000E+00  9.000E+00
      -5     1     1     2     0   503  1.610618952E+01  1.320444400E+01 -4.929670297E+01  5.372610265E+01  4.750000000E+00  0.00000E+00  9.000E+00
      21     1     1     2   511   502  7.330252998E+00  7.015440087E+00 -7.204372198E+01  7.275470353E+01  1.348699152E-06  0.00000E+00  9.000E+00
#rwgt            1           9   1.2182467274113007E-002           6     1706857           0
</event>
<event>
      6   9999  3.45752E-01  3.42855E+01 -1.00000E+00  1.44182E-01
      21    -1     0     0   501   502  0.000000000E+00  0.000000000E+00  6.604843525E+02  6.604843525E+02  0.000000000E+00  0.00000E+00  9.000E+00
      21    -1     0     0   512   503  0.000000000E+00  0.000000000E+00 -1.288836597E+02  1.288836597E+02  0.000000000E+00  0.00000E+00  9.000E+00
      25     1     1     2     0     0  5.512464457E+01  9.735606815E+01  2.595243814E+02  3.090255622E+02  1.250078523E+02  0.00000E+00  9.000E+00
       5     1     1     2   501     0  3.211760667E+00 -4.367790401E+00  3.332916740E+02  3.333696079E+02  4.750000000E+00  0.00000E+00  9.000E+00
      -5     1     1     2     0   503 -2.405253214E+01 -9.265827254E+01 -5.914118826E+01  1.126246972E+02  4.750000000E+00  0.00000E+00  9.000E+00
      21     1     1     2   512   502 -3.428387309E+01 -3.300052080E-01 -2.074174379E+00  3.434814488E+01  4.636153336E-07  0.00000E+00  9.000E+00
#rwgt            1           9   1.5169705913651330                6     1709593           0
</event>
<event>
      6   9999  3.45752E-01  2.27167E+01 -1.00000E+00  1.56100E-01
      21    -1     0     0   501   502  0.000000000E+00  0.000000000E+00  3.380675480E+01  3.380675480E+01  0.000000000E+00  0.00000E+00  9.000E+00
      21    -1     0     0   511   503  0.000000000E+00  0.000000000E+00 -1.549845617E+03  1.549845617E+03  0.000000000E+00  0.00000E+00  9.000E+00
      25     1     1     2     0     0 -4.885019322E+01 -1.123657191E+01 -3.948013590E+02  4.171401301E+02  1.250006926E+02  0.00000E+00  9.000E+00
       5     1     1     2   501     0 -1.855003509E+00 -4.870946818E-01  2.097373676E+01  2.159023930E+01  4.750000000E+00  0.00000E+00  9.000E+00
      -5     1     1     2     0   503  5.442357000E+01 -1.068665383E+01 -7.595751939E+02  7.616122158E+02  4.750000000E+00  0.00000E+00  9.000E+00
      21     1     1     2   511   502 -3.718373265E+00  2.241032041E+01 -3.826360457E+02  3.833097863E+02  0.000000000E+00  0.00000E+00  9.000E+00
#rwgt            1           9   8.4626218935956506E-003           6     1711327           0
</event>
<event>
      6   9999  3.45752E-01  7.85245E+00 -1.00000E+00  1.98977E-01
      21    -1     0     0   501   512  0.000000000E+00  0.000000000E+00  5.832931852E+02  5.832931852E+02  0.000000000E+00  0.00000E+00  9.000E+00
      21    -1     0     0   502   503  0.000000000E+00  0.000000000E+00 -1.586437384E+01  1.586437384E+01  0.000000000E+00  0.00000E+00  9.000E+00
      25     1     1     2     0     0 -1.372394801E+01 -2.618858453E+00  2.530719834E+02  2.825979209E+02  1.249838029E+02  0.00000E+00  9.000E+00
       5     1     1     2   501     0  1.225874510E+00  1.306629224E+00  1.186019401E+02  1.187105418E+02  4.750000000E+00  0.00000E+00  9.000E+00
      -5     1     1     2     0   503  1.958777635E+01  4.688195237E+00  1.508595544E+02  1.522722162E+02  4.750000000E+00  0.00000E+00  9.000E+00
      21     1     1     2   502   512 -7.089702850E+00 -3.375966008E+00  4.489533341E+01  4.557688005E+01  0.000000000E+00  0.00000E+00  9.000E+00
#rwgt            1           9   7.6445242796105572E-005           6     1713294           0
</event>
<event>
      6   9999  3.45752E-01  2.72987E+01 -1.00000E+00  1.50539E-01
      21    -1     0     0   501   502  0.000000000E+00  0.000000000E+00  1.816130912E+02  1.816130912E+02  0.000000000E+00  0.00000E+00  9.000E+00
      21    -1     0     0   511   503  0.000000000E+00  0.000000000E+00 -2.863856135E+02  2.863856135E+02  0.000000000E+00  0.00000E+00  9.000E+00
      25     1     1     2     0     0  8.139487086E+01  6.818710024E+00  1.069492169E+02  1.836901532E+02  1.250292669E+02  0.00000E+00  9.000E+00
       5     1     1     2   501     0 -7.224994236E-01 -2.899011629E-01  1.580501905E+01  1.652171829E+01  4.750000000E+00  0.00000E+00  9.000E+00
      -5     1     1     2     0   503 -1.064024205E+02  2.591764820E+00 -1.389191818E+02  1.750693973E+02  4.750000000E+00  0.00000E+00  9.000E+00
      21     1     1     2   511   502  2.573004902E+01 -9.120573681E+00 -8.860757654E+01  9.271743583E+01  9.536743164E-07  0.00000E+00  9.000E+00
#rwgt            1           9  0.12311503045902084                6     1716167           0
</event>
<event>
      6   9999 -3.45752E-01  7.73717E+00 -1.00000E+00  1.99749E-01
      21    -1     0     0   501   502  0.000000000E+00  0.000000000E+00  1.882576140E+03  1.882576140E+03  0.000000000E+00  0.00000E+00  9.000E+00
      21    -1     0     0   502   512  0.000000000E+00  0.000000000E+00 -1.532077905E+01  1.532077905E+01  0.000000000E+00  0.00000E+00  9.000E+00
      25     1     1     2     0     0  4.512413105E+00 -8.418379108E+00  3.715467329E+02  3.928310992E+02  1.271930296E+02  0.00000E+00  9.000E+00
       5     1     1     2   501     0 -5.453279202E+00 -1.850849528E-01  1.446005168E+03  1.446023264E+03  4.750000000E+00  0.00000E+00  9.000E+00
      -5     1     1     2     0   503 -3.175417880E-01  9.693143355E-01  5.097120307E+01  5.120221134E+01  4.750000000E+00  0.00000E+00  9.000E+00
      21     1     1     2   503   512  1.258407885E+00  7.634149725E+00 -1.267742622E+00  7.840344622E+00  4.300734308E-07  0.00000E+00  9.000E+00
#rwgt            1           9  -4.4509724536916755E-002           6     1717984           0
</event>
<event>
      6   9999  3.45752E-01  7.37541E+01 -1.00000E+00  1.26335E-01
      -1    -1     0     0     0   502  0.000000000E+00  0.000000000E+00  1.531998979E+01  1.531998979E+01  0.000000000E+00  0.00000E+00  9.000E+00
      21    -1     0     0   501   511  0.000000000E+00  0.000000000E+00 -1.336614738E+03  1.336614738E+03  0.000000000E+00  0.00000E+00  9.000E+00
      25     1     1     2     0     0  5.208312935E+01  3.691138488E+01 -1.145105895E+03  1.153675837E+03  1.250012926E+02  0.00000E+00  9.000E+00
       5     1     1     2   501     0  6.788516390E+00  4.984392263E+00 -1.499051313E+01  1.783833246E+01  4.750000000E+00  0.00000E+00  9.000E+00
      -5     1     1     2     0   502 -1.181983378E+00  4.056073207E+00 -2.187056176E+01  2.277570605E+01  4.750000000E+00  0.00000E+00  9.000E+00
      -1     1     1     2     0   511 -5.768966236E+01 -4.595185035E+01 -1.393277789E+02  1.576448530E+02  3.303624740E-06  0.00000E+00  9.000E+00
#rwgt            1           1   3.5997488043474186E-005           6     1721768           0
</event>
<event>
      6   9999  3.45752E-01  1.36770E+01 -1.00000E+00  1.73922E-01
      21    -1     0     0   512   502  0.000000000E+00  0.000000000E+00  2.386311159E+01  2.386311159E+01  0.000000000E+00  0.00000E+00  9.000E+00
      21    -1     0     0   502   503  0.000000000E+00  0.000000000E+00 -2.670210497E+02  2.670210497E+02  0.000000000E+00  0.00000E+00  9.000E+00
      25     1     1     2     0     0 -1.720764329E+01 -5.346274491E-01 -2.106462305E+02  2.455499820E+02  1.250062815E+02  0.00000E+00  9.000E+00
       5     1     1     2   501     0 -6.300347297E-01 -4.631536701E-01 -1.047505011E+00  4.926583180E+00  4.750000000E+00  0.00000E+00  9.000E+00
      -5     1     1     2     0   503  4.523977643E+00 -2.133527166E+00 -2.369368788E+01  2.467735109E+01  4.750000000E+00  0.00000E+00  9.000E+00
      21     1     1     2   512   501  1.331370038E+01  3.131308285E+00 -7.770514717E+00  1.573024501E+01  2.064765462E-07  0.00000E+00  9.000E+00
#rwgt            1           9   6.5668618483134197E-002           6     1721920           0
</event>
<event>
      6   9999  3.45752E-01  1.18078E+01 -1.00000E+00  1.79899E-01
      21    -1     0     0   501   502  0.000000000E+00  0.000000000E+00  8.761330332E+00  8.761330332E+00  0.000000000E+00  0.00000E+00  9.000E+00
      21    -1     0     0   502   511  0.000000000E+00  0.000000000E+00 -8.368621435E+02  8.368621435E+02  0.000000000E+00  0.00000E+00  9.000E+00
      25     1     1     2     0     0  1.104079344E+01  2.815425666E+00 -6.558528298E+02  6.677575666E+02  1.250096300E+02  0.00000E+00  9.000E+00
       5     1     1     2   501     0  9.845400423E-01  1.974313140E-01 -8.271947342E-01  4.924941558E+00  4.750000000E+00  0.00000E+00  9.000E+00
      -5     1     1     2     0   503 -1.565079343E+00  2.465114641E+00 -1.387646004E+01  1.495476201E+01  4.750000000E+00  0.00000E+00  9.000E+00
      21     1     1     2   503   511 -1.046025414E+01 -5.477971622E+00 -1.575443286E+02  1.579862037E+02  1.907348633E-06  0.00000E+00  9.000E+00
#rwgt            1           9   1.9783793689024165E-005           6     1723539           0
</event>
<event>
      6   9999  3.45752E-01  1.25373E+01 -1.00000E+00  1.77410E-01
      21    -1     0     0   501   502  0.000000000E+00  0.000000000E+00  7.816394592E+01  7.816394592E+01  0.000000000E+00  0.00000E+00  9.000E+00
      21    -1     0     0   502   512  0.000000000E+00  0.000000000E+00 -4.718517810E+02  4.718517810E+02  0.000000000E+00  0.00000E+00  9.000E+00
      25     1     1     2     0     0 -7.218434470E+01 -4.743730111E+01 -2.895878495E+02  3.270279577E+02  1.250011417E+02  0.00000E+00  9.000E+00
       5     1     1     2   501     0  9.541304114E-01 -1.925660133E+00  4.362943435E+01  4.393982901E+01  4.750000000E+00  0.00000E+00  9.000E+00
      -5     1     1     2     0   503  5.945159558E+01  5.365805266E+01 -9.263872392E+01  1.225486618E+02  4.750000000E+00  0.00000E+00  9.000E+00
      21     1     1     2   503   512  1.177861871E+01 -4.295091420E+00 -5.509069604E+01  5.649927839E+01  9.536743164E-07  0.00000E+00  9.000E+00
#rwgt            1           9   3.5908680684695665E-004           6     1725683           0
</event>
<event>
      6   9999  3.45752E-01  1.04183E+01 -1.00000E+00  1.85338E-01
      21    -1     0     0   511   502  0.000000000E+00  0.000000000E+00  6.833403393E+01  6.833403393E+01  0.000000000E+00  0.00000E+00  9.000E+00
      21    -1     0     0   502   503  0.000000000E+00  0.000000000E+00 -1.365197551E+03  1.365197551E+03  0.000000000E+00  0.00000E+00  9.000E+00
      25     1     1     2     0     0  8.828088544E+01 -5.492072273E+01 -1.419508560E+02  2.158348334E+02  1.249993171E+02  0.00000E+00  9.000E+00
       5     1     1     2   501     0 -1.930940667E+00 -3.127099626E+00  1.389269158E+01  1.513527876E+01  4.750000000E+00  0.00000E+00  9.000E+00
      -5     1     1     2     0   503 -9.511235434E+01  5.241202977E+01 -1.181301390E+03  1.186292087E+03  4.750000000E+00  0.00000E+00  9.000E+00
      21     1     1     2   511   501  8.762409563E+00  5.635792587E+00  1.249603669E+01  1.626938574E+01  5.840038640E-07  0.00000E+00  9.000E+00
#rwgt            1           9   7.3672738302582618E-004           6     1729115           0
</event>
<event>
      6   9999  3.45752E-01  7.48795E+00 -1.00000E+00  2.01478E-01
      21    -1     0     0   501   502  0.000000000E+00  0.000000000E+00  4.967057088E+01  4.967057088E+01  0.000000000E+00  0.00000E+00  9.000E+00
       2    -1     0     0   502     0  0.000000000E+00  0.000000000E+00 -1.142725298E+03  1.142725298E+03  0.000000000E+00  0.00000E+00  9.000E+00
      25     1     1     2     0     0 -2.431945405E+01 -1.127096314E+00 -6.931190358E+01  1.449905195E+02  1.250016183E+02  0.00000E+00  9.000E+00
       5     1     1     2   501     0  2.311522422E-01  7.716870326E-01  5.319525049E+00  7.176961682E+00  4.750000000E+00  0.00000E+00  9.000E+00
      -5     1     1     2     0   503  2.681806892E+01  7.328053957E+00 -3.014090289E+01  4.127887743E+01  4.750000000E+00  0.00000E+00  9.000E+00
       2     1     1     2   503     0 -2.729767104E+00 -6.972644675E+00 -9.989214460E+02  9.989495106E+02  1.868812365E-05  0.00000E+00  9.000E+00
#rwgt            1           9   2.9204277405928570E-004           6     1732726           0
</event>
<event>
      6   9999  3.45752E-01  2.23151E+01 -1.00000E+00  1.56662E-01
      21    -1     0     0   502   511  0.000000000E+00  0.000000000E+00  7.078876311E+01  7.078876311E+01  0.000000000E+00  0.00000E+00  9.000E+00
      21    -1     0     0   501   502  0.000000000E+00  0.000000000E+00 -2.692208527E+02  2.692208527E+02  0.000000000E+00  0.00000E+00  9.000E+00
      25     1     1     2     0     0  5.771687669E+01  2.180956866E+01 -9.249273554E+01  1.672913168E+02  1.249983336E+02  0.00000E+00  9.000E+00
       5     1     1     2   501     0 -8.981204208E+01 -2.498386455E+01 -1.001175548E+02  1.368812758E+02  4.750000000E+00  0.00000E+00  9.000E+00
      -5     1     1     2     0   503  1.011089402E+01 -6.542154627E-01 -7.480593290E+00  1.346031024E+01  4.750000000E+00  0.00000E+00  9.000E+00
      21     1     1     2   503   511  2.198427137E+01  3.828511353E+00  1.658793991E+00  2.237671300E+01  6.854534149E-07  0.00000E+00  9.000E+00
#rwgt            1           9   9.7358834464867283E-004           6     1735449           0
</event>
<event>
      6   9999 -3.45752E-01  5.95840E+00 -1.00000E+00  2.14480E-01
      21    -1     0     0   512   503  0.000000000E+00  0.000000000E+00  3.054219178E+02  3.054219178E+02  0.000000000E+00  0.00000E+00  9.000E+00
      21    -1     0     0   501   502  0.000000000E+00  0.000000000E+00 -7.100564101E+02  7.100564101E+02  0.000000000E+00  0.00000E+00  9.000E+00
      25     1     1     2     0     0 -4.891316371E+00  2.723651093E-01 -5.467826325E+02  5.609095476E+02  1.249970968E+02  0.00000E+00  9.000E+00
       5     1     1     2   501     0 -2.506929157E+00  5.009312609E-01 -8.542494520E+01  8.559508975E+01  4.750000000E+00  0.00000E+00  9.000E+00
      -5     1     1     2     0   503  2.072469313E+00  1.898519506E+00 -7.056277446E+01  7.077829572E+01  4.750000000E+00  0.00000E+00  9.000E+00
      21     1     1     2   512   502  5.325776214E+00 -2.671815876E+00  2.981358599E+02  2.981953948E+02  0.000000000E+00  0.00000E+00  9.000E+00
#rwgt            1           9  -1.7455141439016199E-003           6     1738119           0
</event>
<event>
      6   9999  3.45752E-01  4.47256E+00 -1.00000E+00  2.38222E-01
      21    -1     0     0   501   502  0.000000000E+00  0.000000000E+00  1.369858246E+01  1.369858246E+01  0.000000000E+00  0.00000E+00  9.000E+00
      21    -1     0     0   502   511  0.000000000E+00  0.000000000E+00 -1.164012588E+03  1.164012588E+03  0.000000000E+00  0.00000E+00  9.000E+00
      25     1     1     2     0     0  2.198506467E+01 -1.249180770E+00 -4.090571744E+02  4.282965296E+02  1.250009672E+02  0.00000E+00  9.000E+00
       5     1     1     2   501     0 -7.403574269E-01  1.999597331E+00  2.005386353E+00  5.579479638E+00  4.750000000E+00  0.00000E+00  9.000E+00
      -5     1     1     2     0   503 -2.117745417E+01  3.721642388E+00 -4.496416936E+02  4.501805752E+02  4.750000000E+00  0.00000E+00  9.000E+00
      21     1     1     2   503   511 -6.725307576E-02 -4.472058948E+00 -2.936205241E+02  2.936545862E+02  0.000000000E+00  0.00000E+00  9.000E+00
#rwgt            1           9   3.7503557700114561E-004           6     1741123           0
</event>
<event>
      6   9999  3.45752E-01  7.22225E+01 -1.00000E+00  1.26763E-01
      21    -1     0     0   501   502  0.000000000E+00  0.000000000E+00  7.713504865E+01  7.713504865E+01  0.000000000E+00  0.00000E+00  9.000E+00
      21    -1     0     0   512   503  0.000000000E+00  0.000000000E+00 -2.401117358E+03  2.401117358E+03  0.000000000E+00  0.00000E+00  9.000E+00
      25     1     1     2     0     0 -1.356835286E+02  1.468658366E+02 -6.388163016E+02  6.809481427E+02  1.249980479E+02  0.00000E+00  9.000E+00
       5     1     1     2   501     0 -6.469484679E+00  1.656017956E+01  4.610770697E+01  4.964450544E+01  4.750000000E+00  0.00000E+00  9.000E+00
      -5     1     1     2     0   503  1.335142188E+02 -9.172208172E+01 -1.341359704E+03  1.351113395E+03  4.750000000E+00  0.00000E+00  9.000E+00
      21     1     1     2   512   502  8.638794491E+00 -7.170393447E+01 -3.899140106E+02  3.965463638E+02  7.629394531E-06  0.00000E+00  9.000E+00
#rwgt            1           9   2.4179142772672944E-003           6     1746027           0
</event>
<event>
      6   9999  3.45752E-01  1.09520E+01 -1.00000E+00  1.83127E-01
      21    -1     0     0   501   502  0.000000000E+00  0.000000000E+00  5.077308710E+01  5.077308710E+01  0.000000000E+00  0.00000E+00  9.000E+00
       2    -1     0     0   502     0  0.000000000E+00  0.000000000E+00 -2.878824531E+03  2.878824531E+03  0.000000000E+00  0.00000E+00  9.000E+00
      25     1     1     2     0     0  6.054085314E-01 -1.092926037E+02 -2.803991126E+02  3.258769374E+02  1.250075047E+02  0.00000E+00  9.000E+00
       5     1     1     2   501     0  3.377922392E+00  7.777990938E+00  2.403077754E+01  2.592196505E+01  4.750000000E+00  0.00000E+00  9.000E+00
      -5     1     1     2     0   503 -7.935456682E+00  1.117286726E+02 -1.031147760E+03  1.037224437E+03  4.750000000E+00  0.00000E+00  9.000E+00
       2     1     1     2   503     0  3.952125759E+00 -1.021405988E+01 -1.540535349E+03  1.540574278E+03  2.157918644E-05  0.00000E+00  9.000E+00
#rwgt            1           9   1.6404446212802000E-003           6     1747046           0
</event>
<event>
      6   9999  3.45752E-01  2.55412E+01 -1.00000E+00  1.52505E-01
      21    -1     0     0   501   502  0.000000000E+00  0.000000000E+00  8.941102333E+01  8.941102333E+01  0.000000000E+00  0.00000E+00  9.000E+00
      21    -1     0     0   502   511  0.000000000E+00  0.000000000E+00 -6.504608281E+02  6.504608281E+02  0.000000000E+00  0.00000E+00  9.000E+00
      25     1     1     2     0     0  2.869327831E+00  2.636266631E+01 -5.217013465E+02  5.371284468E+02  1.250257983E+02  0.00000E+00  9.000E+00
       5     1     1     2   501     0  1.518631263E+00  2.546630066E-01  7.799903686E+01  7.815870614E+01  4.750000000E+00  0.00000E+00  9.000E+00
      -5     1     1     2     0   503  9.946505208E+00 -5.477885645E+00 -6.708666658E+01  6.820647718E+01  4.750000000E+00  0.00000E+00  9.000E+00
      21     1     1     2   503   511 -1.433446430E+01 -2.113944367E+01 -5.026082853E+01  5.637822124E+01  6.743495762E-07  0.00000E+00  9.000E+00
#rwgt            1           9   4.3005770145892417E-004           6     1750955           0
</event>
<event>
      6   9999  3.45752E-01  3.95083E+00 -1.00000E+00  2.48967E-01
      21    -1     0     0   512   502  0.000000000E+00  0.000000000E+00  3.195926607E+01  3.195926607E+01  0.000000000E+00  0.00000E+00  9.000E+00
      21    -1     0     0   502   503  0.000000000E+00  0.000000000E+00 -6.840808571E+02  6.840808571E+02  0.000000000E+00  0.00000E+00  9.000E+00
      25     1     1     2     0     0 -4.028838662E+00 -6.651248900E-01 -5.877962625E+02  6.009541241E+02  1.249989568E+02  0.00000E+00  9.000E+00
       5     1     1     2   501     0  3.578047728E-01  5.189167437E-03 -2.481129599E+00  5.370898926E+00  4.750000000E+00  0.00000E+00  9.000E+00
      -5     1     1     2     0   503  5.151083863E+00  4.323069293E+00 -8.541732168E+01  8.581319209E+01  4.750000000E+00  0.00000E+00  9.000E+00
      21     1     1     2   512   501 -1.480049975E+00 -3.663133571E+00  2.357312269E+01  2.390190806E+01  3.371747881E-07  0.00000E+00  9.000E+00
#rwgt            1           9   2.4605162950434977E-002           6     1752918           0
</event>
<event>
      6   9999  3.45752E-01  1.21140E+01 -1.00000E+00  1.78827E-01
      21    -1     0     0   501   502  0.000000000E+00  0.000000000E+00  8.916103674E+00  8.916103674E+00  0.000000000E+00  0.00000E+00  9.000E+00
      21    -1     0     0   502   511  0.000000000E+00  0.000000000E+00 -1.653842527E+03  1.653842527E+03  0.000000000E+00  0.00000E+00  9.000E+00
      25     1     1     2     0     0  1.227805291E+01  8.057830252E+00 -6.287074839E+02  6.411808073E+02  1.249961926E+02  0.00000E+00  9.000E+00
       5     1     1     2   501     0  2.482913044E+00  1.568983213E+00 -5.406232071E-01  5.610823376E+00  4.750000000E+00  0.00000E+00  9.000E+00
      -5     1     1     2     0   503 -4.258290206E+00 -3.590078581E+00 -1.300588465E+02  1.302646834E+02  4.750000000E+00  0.00000E+00  9.000E+00
      21     1     1     2   503   511 -1.050267575E+01 -6.036734884E+00 -8.856194697E+02  8.857023165E+02  1.078959322E-05  0.00000E+00  9.000E+00
#rwgt            1           9   8.0006677998227631E-003           6     1757231           0
</event>
<event>
      6   9999  3.45752E-01  1.06196E+01 -1.00000E+00  1.84485E-01
      21    -1     0     0   501   502  0.000000000E+00  0.000000000E+00  7.481848812E+01  7.481848812E+01  0.000000000E+00  0.00000E+00  9.000E+00
      21    -1     0     0   502   512  0.000000000E+00  0.000000000E+00 -1.389103224E+02  1.389103224E+02  0.000000000E+00  0.00000E+00  9.000E+00
      25     1     1     2     0     0  6.667192211E+00 -9.632251864E+00 -6.717999175E+01  1.423882056E+02  1.249960723E+02  0.00000E+00  9.000E+00
       5     1     1     2   501     0 -7.636868333E-01 -3.293084804E+00  3.312091049E+01  3.363011800E+01  4.750000000E+00  0.00000E+00  9.000E+00
      -5     1     1     2     0   503 -1.405460519E+00  3.305410159E+00 -1.067334227E-01  5.956084923E+00  4.750000000E+00  0.00000E+00  9.000E+00
      21     1     1     2   503   512 -4.498044859E+00  9.619926508E+00 -2.992601957E+01  3.175440192E+01  3.371747881E-07  0.00000E+00  9.000E+00
#rwgt            1           9  0.49940631018301157                6     1759144           0
</event>
<event>
      6   9999  3.45752E-01  5.50953E+00 -1.00000E+00  2.19350E-01
      21    -1     0     0   511   502  0.000000000E+00  0.000000000E+00  8.014381422E+00  8.014381422E+00  0.000000000E+00  0.00000E+00  9.000E+00
      21    -1     0     0   502   503  0.000000000E+00  0.000000000E+00 -3.418760857E+03  3.418760857E+03  0.000000000E+00  0.00000E+00  9.000E+00
      25     1     1     2     0     0  3.401113621E+00  8.983016485E-01 -3.276576176E+03  3.278961578E+03  1.250008686E+02  0.00000E+00  9.000E+00
       5     1     1     2   501     0 -2.805140070E+00  2.451285452E+00 -4.329270062E-02  6.036719758E+00  4.750000000E+00  0.00000E+00  9.000E+00
      -5     1     1     2     0   503  3.217853327E+00  6.265433413E-01 -1.358744247E+02  1.359969445E+02  4.750000000E+00  0.00000E+00  9.000E+00
      21     1     1     2   511   501 -3.813826879E+00 -3.976130442E+00  1.747417792E+00  5.779996340E+00  1.366689144E-06  0.00000E+00  9.000E+00
#rwgt            1           9   3.3509232825577068E-003           6     1761569           0
</event>
<event>
      6   9999  3.45752E-01  1.10204E+01 -1.00000E+00  1.82856E-01
      21    -1     0     0   501   512  0.000000000E+00  0.000000000E+00  1.289405766E+01  1.289405766E+01  0.000000000E+00  0.00000E+00  9.000E+00
      21    -1     0     0   502   503  0.000000000E+00  0.000000000E+00 -7.521997657E+02  7.521997657E+02  0.000000000E+00  0.00000E+00  9.000E+00
      25     1     1     2     0     0  1.076237685E+01  1.607946476E+00 -6.721241754E+02  6.837365104E+02  1.250051772E+02  0.00000E+00  9.000E+00
       5     1     1     2   501     0  3.988550973E-01  8.081272041E-02 -1.302000688E+00  4.941995738E+00  4.750000000E+00  0.00000E+00  9.000E+00
      -5     1     1     2     0   503 -3.844120400E-01  6.154132045E-01 -6.519697602E+01  6.537380736E+01  4.750000000E+00  0.00000E+00  9.000E+00
      21     1     1     2   502   512 -1.077681990E+01 -2.304172401E+00 -6.825559951E-01  1.104150988E+01  4.192234545E-07  0.00000E+00  9.000E+00
#rwgt            1           9   2.2517134162729552E-004           6     1765746           0
</event>
<event>
      6   9999  3.45752E-01  1.43358E+01 -1.00000E+00  1.72094E-01
      21    -1     0     0   501   502  0.000000000E+00  0.000000000E+00  9.470584017E+01  9.470584017E+01  0.000000000E+00  0.00000E+00  9.000E+00
      21    -1     0     0   502   511  0.000000000E+00  0.000000000E+00 -1.645293321E+03  1.645293321E+03  0.000000000E+00  0.00000E+00  9.000E+00
      25     1     1     2     0     0  2.958665609E+00  3.879978718E+00 -1.190038570E+03  1.196594294E+03  1.249891971E+02  0.00000E+00  9.000E+00
       5     1     1     2   501     0  1.497073581E+00  4.684914484E+00  9.075308095E+01  9.101029532E+01  4.750000000E+00  0.00000E+00  9.000E+00
      -5     1     1     2     0   503  3.251042034E+00  3.523146672E+00 -3.518438751E+02  3.519085915E+02  4.750000000E+00  0.00000E+00  9.000E+00
      21     1     1     2   503   511 -7.706781224E+00 -1.208803987E+01 -9.945811622E+01  1.004859795E+02  1.907348633E-06  0.00000E+00  9.000E+00
#rwgt            1           9   8.5493014560185224E-002           6     1767901           0
</event>
<event>
      6   9999  3.45752E-01  3.58522E+01 -1.00000E+00  1.43000E-01
      21    -1     0     0   501   502  0.000000000E+00  0.000000000E+00  3.327484156E+01  3.327484156E+01  0.000000000E+00  0.00000E+00  9.000E+00
       2    -1     0     0   502     0  0.000000000E+00  0.000000000E+00 -2.479452927E+03  2.479452927E+03  0.000000000E+00  0.00000E+00  9.000E+00
      25     1     1     2     0     0 -3.803713912E+01  2.896937269E+01 -1.623866035E+02  2.104279350E+02  1.249978332E+02  0.00000E+00  9.000E+00
       5     1     1     2   501     0 -2.230965153E+00  1.256932895E+00  7.991893327E+00  9.643129407E+00  4.750000000E+00  0.00000E+00  9.000E+00
      -5     1     1     2     0   503  4.598994206E+00 -2.660811665E+01 -9.780408355E+02  9.784250513E+02  4.750000000E+00  0.00000E+00  9.000E+00
       2     1     1     2   503     0  3.566911007E+01 -3.618188931E+00 -1.313742539E+03  1.314231653E+03  0.000000000E+00  0.00000E+00  9.000E+00
#rwgt            1           9   9.6721351582130556E-003           6     1772482           0
</event>
<event>
      6   9999  3.45752E-01  1.29434E+01 -1.00000E+00  1.76115E-01
      21    -1     0     0   501   502  0.000000000E+00  0.000000000E+00  8.934165607E+00  8.934165607E+00  0.000000000E+00  0.00000E+00  9.000E+00
      21    -1     0     0   502   511  0.000000000E+00  0.000000000E+00 -1.678721020E+03  1.678721020E+03  0.000000000E+00  0.00000E+00  9.000E+00
      25     1     1     2     0     0  2.633276856E+01  6.450387923E+01 -1.259232464E+03  1.267337814E+03  1.249982934E+02  0.00000E+00  9.000E+00
       5     1     1     2   501     0  1.050538178E+00  1.676117817E-01 -1.574456885E+00  5.115968985E+00  4.750000000E+00  0.00000E+00  9.000E+00
      -5     1     1     2     0   503 -2.262573316E+01 -5.263421487E+01 -3.002662636E+02  3.057199305E+02  4.750000000E+00  0.00000E+00  9.000E+00
      21     1     1     2   503   511 -4.757573583E+00 -1.203727614E+01 -1.087136699E+02  1.094814713E+02  1.348699152E-06  0.00000E+00  9.000E+00
#rwgt            1           9   1.2169794817719621E-003           6     1774214           0
</event>
<event>
      6   9999  3.45752E-01  7.06693E+00 -1.00000E+00  2.04613E-01
      21    -1     0     0   501   502  0.000000000E+00  0.000000000E+00  3.340322866E+01  3.340322866E+01  0.000000000E+00  0.00000E+00  9.000E+00
       1    -1     0     0   502     0  0.000000000E+00  0.000000000E+00 -3.027712068E+03  3.027712068E+03  0.000000000E+00  0.00000E+00  9.000E+00
      25     1     1     2     0     0  6.132078148E+01 -3.473349378E+01 -4.743736587E+02  4.955997087E+02  1.249881971E+02  0.00000E+00  9.000E+00
       5     1     1     2   501     0 -7.523061153E+00 -2.093091070E+00  2.026820778E+01  2.223376319E+01  4.750000000E+00  0.00000E+00  9.000E+00
      -5     1     1     2     0   503 -5.677943006E+01  3.041948320E+01 -6.790195720E+02  6.820845917E+02  4.750000000E+00  0.00000E+00  9.000E+00
       1     1     1     2   503     0  2.981709731E+00  6.407101649E+00 -1.861183816E+03  1.861197233E+03  2.157918644E-05  0.00000E+00  9.000E+00
#rwgt            1           9   1.1640316000863880E-004           6     1776528           0
</event>
<event>
      6   9999  3.45752E-01  4.60461E+01 -1.00000E+00  1.36730E-01
      21    -1     0     0   501   502  0.000000000E+00  0.000000000E+00  4.009114258E+01  4.009114258E+01  0.000000000E+00  0.00000E+00  9.000E+00
      21    -1     0     0   511   503  0.000000000E+00  0.000000000E+00 -2.508457894E+03  2.508457894E+03  0.000000000E+00  0.00000E+00  9.000E+00
      25     1     1     2     0     0  7.121491277E+01 -6.115071354E+01 -1.953745960E+02  2.502145220E+02  1.250004027E+02  0.00000E+00  9.000E+00
       5     1     1     2   501     0 -4.571290024E+00  7.036571919E-01  5.964615301E+00  8.918013323E+00  4.750000000E+00  0.00000E+00  9.000E+00
      -5     1     1     2     0   503 -1.090787690E+02  7.832158479E+01 -9.282275129E+02  9.379026211E+02  4.750000000E+00  0.00000E+00  9.000E+00
      21     1     1     2   511   502  4.243514625E+01 -1.787452844E+01 -1.350729258E+03  1.351513880E+03  2.642899792E-05  0.00000E+00  9.000E+00
#rwgt            1           9   1.3197597379077796E-003           6     1780786           0
</event>
<event>
      6   9999  3.45752E-01  1.69327E+01 -1.00000E+00  1.65933E-01
       1    -1     0     0   502     0  0.000000000E+00  0.000000000E+00  3.052715420E+01  3.052715420E+01  0.000000000E+00  0.00000E+00  9.000E+00
      21    -1     0     0   501   502  0.000000000E+00  0.000000000E+00 -8.835890627E+02  8.835890627E+02  0.000000000E+00  0.00000E+00  9.000E+00
      25     1     1     2     0     0 -9.409072300E+00  9.882111517E+00 -3.081692476E+02  3.328305165E+02  1.249867224E+02  0.00000E+00  9.000E+00
       5     1     1     2   501     0  2.271210768E+00 -6.194515101E-01 -5.235042745E+02  5.235311166E+02  4.750000000E+00  0.00000E+00  9.000E+00
      -5     1     1     2     0   503  1.310151977E+01  6.585097246E+00 -3.354045612E+01  3.691257269E+01  4.750000000E+00  0.00000E+00  9.000E+00
       1     1     1     2   503     0 -5.963658242E+00 -1.584775725E+01  1.215206970E+01  2.084201112E+01  5.057621821E-07  0.00000E+00  9.000E+00
#rwgt            1           9   3.1884811436135659E-003           6     1781758           0
</event>
<event>
      6   9999  3.45752E-01  1.56777E+01 -1.00000E+00  1.68725E-01
      21    -1     0     0   501   502  0.000000000E+00  0.000000000E+00  8.681114699E+00  8.681114699E+00  0.000000000E+00  0.00000E+00  9.000E+00
      21    -1     0     0   511   503  0.000000000E+00  0.000000000E+00 -1.734803701E+03  1.734803701E+03  0.000000000E+00  0.00000E+00  9.000E+00
      25     1     1     2     0     0  1.626800014E+01 -1.034317835E+01 -1.138498465E+03  1.145502032E+03  1.249980851E+02  0.00000E+00  9.000E+00
       5     1     1     2   501     0  6.558099073E-03 -1.104887709E+00 -6.262869059E-01  4.916864361E+00  4.750000000E+00  0.00000E+00  9.000E+00
      -5     1     1     2     0   503 -2.589374551E+01 -9.318118398E-01 -5.652845753E+01  6.236492076E+01  4.750000000E+00  0.00000E+00  9.000E+00
      21     1     1     2   511   502  9.619187272E+00  1.237987790E+01 -5.304693774E+02  5.307009991E+02  7.629394531E-06  0.00000E+00  9.000E+00
#rwgt            1           9   2.2336726088907039E-004           6     1783345           0
</event>
<event>
      6   9999  3.45752E-01  1.58573E+02 -1.00000E+00  1.12499E-01
      21    -1     0     0   502   512  0.000000000E+00  0.000000000E+00  9.803315113E+02  9.803315113E+02  0.000000000E+00  0.00000E+00  9.000E+00
      21    -1     0     0   501   502  0.000000000E+00  0.000000000E+00 -1.152740612E+03  1.152740612E+03  0.000000000E+00  0.00000E+00  9.000E+00
      25     1     1     2     0     0 -8.002396429E+01 -3.364784873E+02  2.462399792E+02  4.425840269E+02  1.249995452E+02  0.00000E+00  9.000E+00
       5     1     1     2   501     0  2.664002389E+02 -1.185865634E+02 -9.302346678E+02  9.748799721E+02  4.750000000E+00  0.00000E+00  9.000E+00
      -5     1     1     2     0   503 -1.031504917E+02  3.200878767E+02  2.963469772E+02  4.482637239E+02  4.750000000E+00  0.00000E+00  9.000E+00
      21     1     1     2   503   512 -8.322578289E+01  1.349771740E+02  2.152386112E+02  2.673444000E+02  2.697398305E-06  0.00000E+00  9.000E+00
#rwgt            1           9   2.0062217068527944E-002           6     1784960           0
</event>
<event>
      6   9999  3.45752E-01  3.01703E+00 -1.00000E+00  2.76270E-01
      21    -1     0     0   501   502  0.000000000E+00  0.000000000E+00  1.743233382E+03  1.743233382E+03  0.000000000E+00  0.00000E+00  9.000E+00
      21    -1     0     0   511   503  0.000000000E+00  0.000000000E+00 -1.042386890E+02  1.042386890E+02  0.000000000E+00  0.00000E+00  9.000E+00
      25     1     1     2     0     0 -4.343731873E+00  2.867408614E+00  1.178053494E+03  1.184678365E+03  1.250028097E+02  0.00000E+00  9.000E+00
       5     1     1     2   501     0 -2.094100495E-01 -1.955730144E+00  5.580485555E+02  5.580722368E+02  4.750000000E+00  0.00000E+00  9.000E+00
      -5     1     1     2     0   503  2.239859516E+00 -2.848471647E+00  1.425775900E+00  6.142157462E+00  4.750000000E+00  0.00000E+00  9.000E+00
      21     1     1     2   511   502  2.313282406E+00  1.936793178E+00 -9.853313285E+01  9.857931179E+01  5.223489356E-06  0.00000E+00  9.000E+00
#rwgt            1           9   1.4712685409022841                6     1786009           0
</event>
<event>
      6   9999 -3.45752E-01  6.27716E+00 -1.00000E+00  2.11362E-01
       1    -1     0     0   501     0  0.000000000E+00  0.000000000E+00  2.804388028E+03  2.804388028E+03  0.000000000E+00  0.00000E+00  9.000E+00
      -1    -1     0     0     0   512  0.000000000E+00  0.000000000E+00 -4.853559608E+01  4.853559608E+01  0.000000000E+00  0.00000E+00  9.000E+00
      25     1     1     2     0     0  2.681585205E+02 -1.009712106E+02  6.775328364E+02  7.461803257E+02  1.250206249E+02  0.00000E+00  9.000E+00
       5     1     1     2   501     0 -1.580014521E+02  1.412795869E+02  1.610061592E+03  1.623959751E+03  4.750000000E+00  0.00000E+00  9.000E+00
      -5     1     1     2     0   502 -1.042005040E+02 -3.832796426E+01  4.478873940E+02  4.614677216E+02  4.750000000E+00  0.00000E+00  9.000E+00
      21     1     1     2   502   512 -5.956564456E+00 -1.980412048E+00  2.037061005E+01  2.131582618E+01  2.384185791E-07  0.00000E+00  9.000E+00
#rwgt            1           2  -5.2438085649139611E-005           6     1791480           0
</event>
<event>
      6   9999  3.45752E-01  3.32182E+01 -1.00000E+00  1.45031E-01
      21    -1     0     0   511   502  0.000000000E+00  0.000000000E+00  3.203281167E+02  3.203281167E+02  0.000000000E+00  0.00000E+00  9.000E+00
      21    -1     0     0   502   503  0.000000000E+00  0.000000000E+00 -4.285615814E+02  4.285615814E+02  0.000000000E+00  0.00000E+00  9.000E+00
      25     1     1     2     0     0 -2.780508908E+02  2.631680304E+01  1.116362208E+02  3.256519498E+02  1.248265783E+02  0.00000E+00  9.000E+00
       5     1     1     2   501     0 -8.850331408E-01  7.343140838E-02  2.347890966E+01  2.397103199E+01  4.750000000E+00  0.00000E+00  9.000E+00
      -5     1     1     2     0   503  2.752992878E+02  6.628346365E+00 -2.409850958E+02  3.659644952E+02  4.750000000E+00  0.00000E+00  9.000E+00
      21     1     1     2   511   501  3.636636070E+00 -3.301858082E+01 -2.363499459E+00  3.330222111E+01  8.413549789E-07  0.00000E+00  9.000E+00
#rwgt            1           9   4.9326481386101784E-004           6     1793197           0
</event>
<event>
      6   9999  3.45752E-01  4.52289E+00 -1.00000E+00  2.37300E-01
      21    -1     0     0   501   512  0.000000000E+00  0.000000000E+00  2.164768234E+01  2.164768234E+01  0.000000000E+00  0.00000E+00  9.000E+00
      21    -1     0     0   502   503  0.000000000E+00  0.000000000E+00 -6.901547629E+02  6.901547629E+02  0.000000000E+00  0.00000E+00  9.000E+00
      25     1     1     2     0     0 -4.837897642E+00  2.034749383E+01 -5.494393782E+02  5.638669656E+02  1.249995951E+02  0.00000E+00  9.000E+00
       5     1     1     2   501     0  4.607358277E+00 -6.274690274E-01  9.635704117E+00  1.170601390E+01  4.750000000E+00  0.00000E+00  9.000E+00
      -5     1     1     2     0   503  4.741654637E+00 -2.004614539E+01 -1.298532040E+02  1.315627163E+02  4.750000000E+00  0.00000E+00  9.000E+00
      21     1     1     2   502   512 -4.511115272E+00  3.261205898E-01  1.149797573E+00  4.666749414E+00  2.225217897E-07  0.00000E+00  9.000E+00
#rwgt            1           9   1.3742796672461073                6     1795032           0
</event>
<event>
      6   9999  3.45752E-01  2.86532E+00 -1.00000E+00  2.82235E-01
      21    -1     0     0   511   502  0.000000000E+00  0.000000000E+00  2.387366455E+01  2.387366455E+01  0.000000000E+00  0.00000E+00  9.000E+00
      21    -1     0     0   502   503  0.000000000E+00  0.000000000E+00 -7.951032113E+02  7.951032113E+02  0.000000000E+00  0.00000E+00  9.000E+00
      25     1     1     2     0     0 -7.978856213E+00  1.306458920E+00 -7.585134856E+02  7.687873470E+02  1.250036317E+02  0.00000E+00  9.000E+00
       5     1     1     2   501     0  2.007613347E-01 -4.995387318E-01 -2.313629265E+00  5.310859105E+00  4.750000000E+00  0.00000E+00  9.000E+00
      -5     1     1     2     0   503  5.948305455E+00  1.398056484E+00 -2.697340945E+01  2.806179284E+01  4.750000000E+00  0.00000E+00  9.000E+00
      21     1     1     2   511   501  1.829789423E+00 -2.204976673E+00  1.657097761E+01  1.681687696E+01  9.233911863E-07  0.00000E+00  9.000E+00
#rwgt            1           9   1.8415777248994168E-003           6     1800775           0
</event>
<event>
      6   9999 -3.45752E-01  1.10827E+01 -1.00000E+00  1.82610E-01
      21    -1     0     0   501   512  0.000000000E+00  0.000000000E+00  1.222367006E+01  1.222367006E+01  0.000000000E+00  0.00000E+00  9.000E+00
      21    -1     0     0   502   503  0.000000000E+00  0.000000000E+00 -8.409402209E+02  8.409402209E+02  0.000000000E+00  0.00000E+00  9.000E+00
      25     1     1     2     0     0 -1.200991376E+01  1.746504361E+01 -4.790833319E+02  4.955758968E+02  1.250014596E+02  0.00000E+00  9.000E+00
       5     1     1     2   501     0  3.443513858E-01  2.243815742E+00 -2.161216842E-01  5.269012768E+00  4.750000000E+00  0.00000E+00  9.000E+00
      -5     1     1     2     0   503  1.644994951E+01 -9.712072877E+00 -3.239178539E+02  3.245154292E+02  4.750000000E+00  0.00000E+00  9.000E+00
      21     1     1     2   502   512 -4.784387138E+00 -9.996786472E+00 -2.549924345E+01  2.780355223E+01  3.371747881E-07  0.00000E+00  9.000E+00
#rwgt            1           9  -8.7589654551095133E-005           6     1806600           0
</event>
<event>
      6   9999 -3.45752E-01  1.80776E+01 -1.00000E+00  1.63634E-01
      21    -1     0     0   501   502  0.000000000E+00  0.000000000E+00  3.942814134E+00  3.942814134E+00  0.000000000E+00  0.00000E+00  9.000E+00
      21    -1     0     0   502   511  0.000000000E+00  0.000000000E+00 -2.145032599E+03  2.145032599E+03  0.000000000E+00  0.00000E+00  9.000E+00
      25     1     1     2     0     0  1.949962498E+01 -1.647415493E+01 -1.733126923E+03  1.737817415E+03  1.250152115E+02  0.00000E+00  9.000E+00
       5     1     1     2   501     0 -8.853896696E+00  3.688395483E+00 -2.239621577E+01  2.482234334E+01  4.750000000E+00  0.00000E+00  9.000E+00
      -5     1     1     2     0   503  1.205765210E+00 -8.648934306E-01 -4.200825219E+01  4.230198178E+01  4.750000000E+00  0.00000E+00  9.000E+00
      21     1     1     2   503   511 -1.185149350E+01  1.365065288E+01 -3.435583939E+02  3.440336731E+02  0.000000000E+00  0.00000E+00  9.000E+00
#rwgt            1           9  -1.2538144872127914E-004           6     1809183           0
</event>
<event>
      6   9999  3.45752E-01  2.14091E+00 -1.00000E+00  3.21851E-01
      21    -1     0     0   501   502  0.000000000E+00  0.000000000E+00  3.724688453E+00  3.724688453E+00  0.000000000E+00  0.00000E+00  9.000E+00
      21    -1     0     0   502   512  0.000000000E+00  0.000000000E+00 -1.469000406E+03  1.469000406E+03  0.000000000E+00  0.00000E+00  9.000E+00
      25     1     1     2     0     0 -9.883889029E-01 -2.968409983E+00 -1.283595290E+03  1.289671191E+03  1.250004943E+02  0.00000E+00  9.000E+00
       5     1     1     2   501     0 -4.005206764E-01  8.686737210E-02 -8.947376204E+00  1.013834324E+01  4.750000000E+00  0.00000E+00  9.000E+00
      -5     1     1     2     0   503  2.901601547E+00  1.366534528E+00 -1.148327208E+02  1.149756626E+02  4.750000000E+00  0.00000E+00  9.000E+00
      21     1     1     2   503   512 -1.512691968E+00  1.515008083E+00 -5.790032999E+01  5.793989731E+01  6.743495762E-07  0.00000E+00  9.000E+00
#rwgt            1           9   5.2719858377521557E-003           6     1810657           0
</event>
<event>
      6   9999  3.45752E-01  2.66916E+01 -1.00000E+00  1.51197E-01
      21    -1     0     0   501   502  0.000000000E+00  0.000000000E+00  1.315736059E+01  1.315736059E+01  0.000000000E+00  0.00000E+00  9.000E+00
      21    -1     0     0   511   503  0.000000000E+00  0.000000000E+00 -1.037092976E+03  1.037092976E+03  0.000000000E+00  0.00000E+00  9.000E+00
      25     1     1     2     0     0  6.191188928E+01 -6.424049347E+00 -7.159704113E+02  7.294608020E+02  1.250003252E+02  0.00000E+00  9.000E+00
       5     1     1     2   501     0  1.850068281E+00  3.930064011E-02  4.501116112E-01  5.117557782E+00  4.750000000E+00  0.00000E+00  9.000E+00
      -5     1     1     2     0   503 -3.762877040E+01  9.533382990E-01 -1.355995841E+02  1.408071125E+02  4.750000000E+00  0.00000E+00  9.000E+00
      21     1     1     2   511   502 -2.613318716E+01  5.431410408E+00 -1.728157312E+02  1.748648640E+02  3.303624740E-06  0.00000E+00  9.000E+00
#rwgt            1           9   2.0723740122669494E-002           6     1816981           0
</event>
<event>
      6   9999  3.45752E-01  8.64746E+00 -1.00000E+00  1.94096E-01
      21    -1     0     0   512   502  0.000000000E+00  0.000000000E+00  2.477478894E+01  2.477478894E+01  0.000000000E+00  0.00000E+00  9.000E+00
      21    -1     0     0   502   503  0.000000000E+00  0.000000000E+00 -3.633029477E+02  3.633029477E+02  0.000000000E+00  0.00000E+00  9.000E+00
      25     1     1     2     0     0  1.042471846E+01  1.450198794E+01 -3.273058553E+02  3.508179185E+02  1.250004263E+02  0.00000E+00  9.000E+00
       5     1     1     2   501     0 -3.123774165E-01  1.177171028E+00  7.741606617E+00  9.163966625E+00  4.750000000E+00  0.00000E+00  9.000E+00
      -5     1     1     2     0   503 -5.359694928E+00 -8.454825202E+00 -6.254854180E+00  1.272383982E+01  4.750000000E+00  0.00000E+00  9.000E+00
      21     1     1     2   512   501 -4.752646120E+00 -7.224333764E+00 -1.270905589E+01  1.537201175E+01  2.920019320E-07  0.00000E+00  9.000E+00
#rwgt            1           9   5.2391306565358030E-003           6     1818967           0
</event>
<event>
      6   9999 -3.45752E-01  9.80113E+00 -1.00000E+00  1.88117E-01
      21    -1     0     0   501   502  0.000000000E+00  0.000000000E+00  2.742750752E+01  2.742750752E+01  0.000000000E+00  0.00000E+00  9.000E+00
      21    -1     0     0   502   511  0.000000000E+00  0.000000000E+00 -4.191173706E+03  4.191173706E+03  0.000000000E+00  0.00000E+00  9.000E+00
      25     1     1     2     0     0 -2.256672553E+01  5.095287502E+01 -2.058242122E+03  2.062787207E+03  1.249999050E+02  0.00000E+00  9.000E+00
       5     1     1     2   501     0 -1.906215229E+01 -1.672259447E+00  2.053662276E+01  2.846888611E+01  4.750000000E+00  0.00000E+00  9.000E+00
      -5     1     1     2     0   503  3.240848076E+01 -5.260422526E+01 -1.983545791E+03  1.984513538E+03  4.750000000E+00  0.00000E+00  9.000E+00
      21     1     1     2   503   511  9.220397066E+00  3.323609691E+00 -1.424949080E+02  1.428315823E+02  2.697398305E-06  0.00000E+00  9.000E+00
#rwgt            1           9 -0.12552444202827037                6     1821470           0
</event>
<event>
      6   9999  3.45752E-01  1.86792E+01 -1.00000E+00  1.62509E-01
      21    -1     0     0   512   502  0.000000000E+00  0.000000000E+00  1.094948256E+02  1.094948256E+02  0.000000000E+00  0.00000E+00  9.000E+00
      21    -1     0     0   502   503  0.000000000E+00  0.000000000E+00 -1.221646634E+03  1.221646634E+03  0.000000000E+00  0.00000E+00  9.000E+00
      25     1     1     2     0     0  3.088117749E+01  4.501142242E+01 -2.102769489E+02  2.506424168E+02  1.250022023E+02  0.00000E+00  9.000E+00
       5     1     1     2   501     0 -3.762630239E+01  3.201301808E+00  5.304596686E+01  6.528724275E+01  4.750000000E+00  0.00000E+00  9.000E+00
      -5     1     1     2     0   503  2.526829159E+01 -5.062191533E+01 -9.812711730E+02  9.829123778E+02  4.750000000E+00  0.00000E+00  9.000E+00
      21     1     1     2   512   501 -1.852316669E+01  2.409191107E+00  2.635034665E+01  3.229942220E+01  0.000000000E+00  0.00000E+00  9.000E+00
#rwgt            1           9   24048.222965622928                6     1825780           0
</event>
<event>
      6   9999  3.45752E-01  4.00714E+01 -1.00000E+00  1.40141E-01
      21    -1     0     0   501   511  0.000000000E+00  0.000000000E+00  2.010122622E+01  2.010122622E+01  0.000000000E+00  0.00000E+00  9.000E+00
      21    -1     0     0   502   503  0.000000000E+00  0.000000000E+00 -9.145133168E+02  9.145133168E+02  0.000000000E+00  0.00000E+00  9.000E+00
      25     1     1     2     0     0 -3.250987849E+01 -1.876442097E+01 -3.698835562E+02  3.922349598E+02  1.250016915E+02  0.00000E+00  9.000E+00
       5     1     1     2   501     0 -2.899548373E+00 -1.191407160E+00 -1.410025273E-01  5.692909054E+00  4.750000000E+00  0.00000E+00  9.000E+00
      -5     1     1     2     0   503  1.252686662E+00 -9.972776391E-01 -4.651023812E+02  4.651293920E+02  4.750000000E+00  0.00000E+00  9.000E+00
      21     1     1     2   502   511  3.415674020E+01  2.095310577E+01 -5.928515069E+01  7.155728219E+01  1.168007728E-06  0.00000E+00  9.000E+00
#rwgt            1           9   1.4510779501829931E-002           6     1828634           0
</event>
<event>
      6   9999  3.45752E-01  1.10130E+01 -1.00000E+00  1.82885E-01
      21    -1     0     0   512   502  0.000000000E+00  0.000000000E+00  2.068874265E+01  2.068874265E+01  0.000000000E+00  0.00000E+00  9.000E+00
      21    -1     0     0   502   503  0.000000000E+00  0.000000000E+00 -9.222692992E+02  9.222692992E+02  0.000000000E+00  0.00000E+00  9.000E+00
      25     1     1     2     0     0 -2.371627089E+01 -1.601563107E+01 -7.694503633E+02  7.800606900E+02  1.249874257E+02  0.00000E+00  9.000E+00
       5     1     1     2   501     0 -2.446893602E+00  1.640521337E+00  9.003760407E+00  1.059758463E+01  4.750000000E+00  0.00000E+00  9.000E+00
      -5     1     1     2     0   503  1.886651642E+01  6.126154016E+00 -1.397146449E+02  1.411956788E+02  4.750000000E+00  0.00000E+00  9.000E+00
      21     1     1     2   512   501  7.296648073E+00  8.248955712E+00 -1.419308800E+00  1.110408848E+01  2.466581070E-07  0.00000E+00  9.000E+00
#rwgt            1           9   2.4967882725980865E-004           6     1829772           0
</event>
<event>
      6   9999  3.45752E-01  4.74088E+00 -1.00000E+00  2.33504E-01
      21    -1     0     0   501   502  0.000000000E+00  0.000000000E+00  1.438274389E+01  1.438274389E+01  0.000000000E+00  0.00000E+00  9.000E+00
      21    -1     0     0   511   503  0.000000000E+00  0.000000000E+00 -1.846107300E+03  1.846107300E+03  0.000000000E+00  0.00000E+00  9.000E+00
      25     1     1     2     0     0  3.670273922E+01  6.296843647E+01 -5.981965686E+02  6.154475592E+02  1.249977938E+02  0.00000E+00  9.000E+00
       5     1     1     2   501     0  2.256859016E+00 -1.127826102E-01  3.093970759E+00  6.102564018E+00  4.750000000E+00  0.00000E+00  9.000E+00
      -5     1     1     2     0   503 -3.439606723E+01 -6.157109546E+01 -1.126152965E+03  1.128369244E+03  4.750000000E+00  0.00000E+00  9.000E+00
      21     1     1     2   511   502 -4.563531000E+00 -1.284558400E+00 -1.104689934E+02  1.105706761E+02  0.000000000E+00  0.00000E+00  9.000E+00
#rwgt            1           9   3.0579194933050524                6     1832856           0
</event>
<event>
      6   9999 -3.45752E-01  3.11491E+01 -1.00000E+00  1.46790E-01
      21    -1     0     0   501   502  0.000000000E+00  0.000000000E+00  3.732083414E+01  3.732083414E+01  0.000000000E+00  0.00000E+00  9.000E+00
      21    -1     0     0   512   503  0.000000000E+00  0.000000000E+00 -1.758089560E+03  1.758089560E+03  0.000000000E+00  0.00000E+00  9.000E+00
      25     1     1     2     0     0 -1.397570035E+02  4.580695382E+01 -2.993577652E+02  3.561908414E+02  1.250061874E+02  0.00000E+00  9.000E+00
       5     1     1     2   501     0  9.995722871E+00 -2.042861230E+00 -1.855934625E+01  2.170482874E+01  4.750000000E+00  0.00000E+00  9.000E+00
      -5     1     1     2     0   503  1.449917117E+02 -1.659236256E+01 -7.594421690E+02  7.733517140E+02  4.750000000E+00  0.00000E+00  9.000E+00
      21     1     1     2   512   502 -1.523043108E+01 -2.717173003E+01 -6.434094458E+02  6.441630104E+02  7.629394531E-06  0.00000E+00  9.000E+00
#rwgt            1           9  -7.9272266089529229                6     1838019           0
</event>
<event>
      6   9999  3.45752E-01  2.15929E+01 -1.00000E+00  1.57711E-01
      21    -1     0     0   502   503  0.000000000E+00  0.000000000E+00  1.115204410E+01  1.115204410E+01  0.000000000E+00  0.00000E+00  9.000E+00
      21    -1     0     0   511   502  0.000000000E+00  0.000000000E+00 -1.304444675E+03  1.304444675E+03  0.000000000E+00  0.00000E+00  9.000E+00
      25     1     1     2     0     0 -1.072728252E+01  4.033946884E+01 -4.900820934E+02  5.074917891E+02  1.250004415E+02  0.00000E+00  9.000E+00
       5     1     1     2   501     0  3.723218797E+00 -5.061034351E+01 -3.725468349E+02  3.760172549E+02  4.750000000E+00  0.00000E+00  9.000E+00
      -5     1     1     2     0   503 -7.124213958E+00 -6.058403269E+00 -7.036265843E+01  7.114017765E+01  4.750000000E+00  0.00000E+00  9.000E+00
      21     1     1     2   511   501  1.412827768E+01  1.632927794E+01 -3.603010445E+02  3.609474978E+02  0.000000000E+00  0.00000E+00  9.000E+00
#rwgt            1           9   1.1015948759857902E-002           6     1839578           0
</event>
<event>
      6   9999 -3.45752E-01  1.50540E+01 -1.00000E+00  1.70236E-01
       2    -1     0     0   501     0  0.000000000E+00  0.000000000E+00  1.214447043E+03  1.214447043E+03  0.000000000E+00  0.00000E+00  9.000E+00
      -2    -1     0     0     0   512  0.000000000E+00  0.000000000E+00 -2.136853419E+03  2.136853419E+03  0.000000000E+00  0.00000E+00  9.000E+00
      25     1     1     2     0     0  8.855197679E+02 -7.056307043E+01 -7.208129909E+02  1.150788702E+03  1.249754463E+02  0.00000E+00  9.000E+00
       5     1     1     2   501     0 -1.249676986E+03 -5.571441039E+01  5.362053344E+02  1.361005286E+03  4.750000000E+00  0.00000E+00  9.000E+00
      -5     1     1     2     0   502  3.687526162E+02  1.119420296E+02 -7.067912855E+02  8.050378834E+02  4.750000000E+00  0.00000E+00  9.000E+00
      21     1     1     2   502   512 -4.595398297E+00  1.433545118E+01 -3.100743406E+01  3.446859169E+01  3.371747881E-07  0.00000E+00  9.000E+00
#rwgt            1           4  -2.1882089450716560E-004           6     1841234           0
</event>
<event>
      6   9999 -3.45752E-01  3.76939E+01 -1.00000E+00  1.41698E-01
      21    -1     0     0   511   502  0.000000000E+00  0.000000000E+00  4.000583434E+01  4.000583434E+01  0.000000000E+00  0.00000E+00  9.000E+00
      21    -1     0     0   502   503  0.000000000E+00  0.000000000E+00 -1.177909012E+03  1.177909012E+03  0.000000000E+00  0.00000E+00  9.000E+00
      25     1     1     2     0     0 -4.671755347E+01  1.730521685E+02 -7.658001898E+02  7.963700945E+02  1.250032553E+02  0.00000E+00  9.000E+00
       5     1     1     2   501     0  2.428919553E+01 -7.392944303E+01 -1.606927737E+02  1.786064321E+02  4.750000000E+00  0.00000E+00  9.000E+00
      -5     1     1     2     0   503  3.072768952E+01 -6.235387834E+01 -1.827623582E+02  1.955935559E+02  4.750000000E+00  0.00000E+00  9.000E+00
      21     1     1     2   511   501 -8.299331582E+00 -3.676884714E+01 -2.864785625E+01  4.734476415E+01  3.371747881E-07  0.00000E+00  9.000E+00
#rwgt            1           9  -1.4055000142857221E-002           6     1842287           0
</event>
<event>
      6   9999  3.45752E-01  7.13364E+00 -1.00000E+00  2.04097E-01
      21    -1     0     0   501   512  0.000000000E+00  0.000000000E+00  1.322383871E+02  1.322383871E+02  0.000000000E+00  0.00000E+00  9.000E+00
      21    -1     0     0   502   503  0.000000000E+00  0.000000000E+00 -1.628200715E+03  1.628200715E+03  0.000000000E+00  0.00000E+00  9.000E+00
      25     1     1     2     0     0 -2.016926890E+01  2.006636597E+01 -1.301016534E+03  1.307316103E+03  1.249876535E+02  0.00000E+00  9.000E+00
       5     1     1     2   501     0 -1.053779997E-01 -8.453623572E-01 -1.112411400E+01  1.212576407E+01  4.750000000E+00  0.00000E+00  9.000E+00
      -5     1     1     2     0   503  1.731682968E+01 -2.571254510E+01 -3.115225753E+02  3.130972452E+02  4.750000000E+00  0.00000E+00  9.000E+00
      21     1     1     2   502   512  2.957817217E+00  6.491541484E+00  1.277008951E+02  1.278999899E+02  2.697398305E-06  0.00000E+00  9.000E+00
#rwgt            1           9   2.5043863508107667E-003           6     1843820           0
</event>
<event>
      6   9999  3.45752E-01  1.86481E+01 -1.00000E+00  1.62566E-01
       3    -1     0     0   501     0  0.000000000E+00  0.000000000E+00  9.452123417E+01  9.452123417E+01  0.000000000E+00  0.00000E+00  9.000E+00
      21    -1     0     0   502   503  0.000000000E+00  0.000000000E+00 -1.419308175E+03  1.419308175E+03  0.000000000E+00  0.00000E+00  9.000E+00
      25     1     1     2     0     0  8.637299328E+00  2.598946671E+01 -1.322605493E+03  1.328781370E+03  1.249983337E+02  0.00000E+00  9.000E+00
       5     1     1     2   501     0 -2.029977639E+01  9.155634618E+00  5.350737702E+01  5.815073913E+01  4.750000000E+00  0.00000E+00  9.000E+00
      -5     1     1     2     0   503 -2.159384165E+00 -2.262676701E+01 -8.722346259E+01  9.026144499E+01  4.750000000E+00  0.00000E+00  9.000E+00
       3     1     1     2   502     0  1.382186122E+01 -1.251833431E+01  3.153463750E+01  3.663585544E+01  1.011524364E-06  0.00000E+00  9.000E+00
#rwgt            1           9   3.3572251678759470E-004           6     1847081           0
</event>
<event>
      6   9999  3.45752E-01  2.19209E+01 -1.00000E+00  1.57229E-01
      21    -1     0     0   501   511  0.000000000E+00  0.000000000E+00  5.608332351E+01  5.608332351E+01  0.000000000E+00  0.00000E+00  9.000E+00
      21    -1     0     0   502   503  0.000000000E+00  0.000000000E+00 -1.194055097E+03  1.194055097E+03  0.000000000E+00  0.00000E+00  9.000E+00
      25     1     1     2     0     0 -1.772629379E+01  2.139403286E+01 -9.876369924E+02  9.959021649E+02  1.249894683E+02  0.00000E+00  9.000E+00
       5     1     1     2   501     0  3.606238560E+00  1.788735359E+00  4.201842964E+01  4.247723461E+01  4.750000000E+00  0.00000E+00  9.000E+00
      -5     1     1     2     0   503  2.964103784E+00 -4.312897932E+00 -1.895246168E+02  1.896563468E+02  4.750000000E+00  0.00000E+00  9.000E+00
      21     1     1     2   502   511  1.115595144E+01 -1.886987029E+01 -2.828593774E+00  2.210267405E+01  6.179941104E-07  0.00000E+00  9.000E+00
#rwgt            1           9   1.0886476022503868E-002           6     1850121           0
</event>
<event>
      6   9999  3.45752E-01  3.67280E+01 -1.00000E+00  1.42370E-01
      21    -1     0     0   501   502  0.000000000E+00  0.000000000E+00  8.085961995E+02  8.085961995E+02  0.000000000E+00  0.00000E+00  9.000E+00
      21    -1     0     0   512   503  0.000000000E+00  0.000000000E+00 -8.514074442E+01  8.514074442E+01  0.000000000E+00  0.00000E+00  9.000E+00
      25     1     1     2     0     0 -1.084735665E+02 -1.165865475E+01  2.196537210E+02  2.752735129E+02  1.250012436E+02  0.00000E+00  9.000E+00
       5     1     1     2   501     0 -5.894803624E+00 -3.738991073E+00  5.027471981E+02  5.028180948E+02  4.750000000E+00  0.00000E+00  9.000E+00
      -5     1     1     2     0   503  7.831610775E+01  8.384715654E+00  1.256219979E+00  7.891677121E+01  4.750000000E+00  0.00000E+00  9.000E+00
      21     1     1     2   512   502  3.605226233E+01  7.012930167E+00 -2.016840414E-01  3.672856498E+01  2.098929189E-07  0.00000E+00  9.000E+00
#rwgt            1           9   208.44553603891518                6     1852940           0
</event>
<event>
      6   9999  3.45752E-01  6.01171E+00 -1.00000E+00  2.13940E-01
      21    -1     0     0   501   502  0.000000000E+00  0.000000000E+00  5.356049314E+01  5.356049314E+01  0.000000000E+00  0.00000E+00  9.000E+00
      21    -1     0     0   511   503  0.000000000E+00  0.000000000E+00 -1.462803469E+03  1.462803469E+03  0.000000000E+00  0.00000E+00  9.000E+00
      25     1     1     2     0     0 -8.335809766E-02 -8.904272694E-02 -1.305424755E+03  1.311395907E+03  1.250016731E+02  0.00000E+00  9.000E+00
       5     1     1     2   501     0  6.730944105E+00  3.923151917E+00  4.948513656E+01  5.031935979E+01  4.750000000E+00  0.00000E+00  9.000E+00
      -5     1     1     2     0   503 -2.942068850E+00 -8.568010067E+00 -4.372315402E+01  4.490371102E+01  4.750000000E+00  0.00000E+00  9.000E+00
      21     1     1     2   511   502 -3.705517156E+00  4.733900877E+00 -1.095802027E+02  1.097449839E+02  1.348699152E-06  0.00000E+00  9.000E+00
#rwgt            1           9   9.2729880038324632E-003           6     1854878           0
</event>
<event>
      6   9999  3.45752E-01  8.74619E+01 -1.00000E+00  1.22960E-01
      21    -1     0     0   501   502  0.000000000E+00  0.000000000E+00  2.766828477E+03  2.766828477E+03  0.000000000E+00  0.00000E+00  9.000E+00
      21    -1     0     0   502   512  0.000000000E+00  0.000000000E+00 -3.337089675E+01  3.337089675E+01  0.000000000E+00  0.00000E+00  9.000E+00
      25     1     1     2     0     0 -1.694409611E+02 -6.516197786E+01  7.394233280E+02  7.715747209E+02  1.249974774E+02  0.00000E+00  9.000E+00
       5     1     1     2   501     0  7.844384891E+01 -7.658748528E+01  1.525788127E+03  1.529729078E+03  4.750000000E+00  0.00000E+00  9.000E+00
      -5     1     1     2     0   503  4.017693383E+01  7.056735322E+01  2.750151170E+02  2.867922844E+02  4.750000000E+00  0.00000E+00  9.000E+00
      21     1     1     2   503   512  5.082017839E+01  7.118210992E+01  1.932310079E+02  2.121032902E+02  0.000000000E+00  0.00000E+00  9.000E+00
#rwgt            1           9  0.33922079088496521                6     1860625           0
</event>
<event>
      6   9999  3.45752E-01  1.18359E+01 -1.00000E+00  1.79799E-01
      21    -1     0     0   501   502  0.000000000E+00  0.000000000E+00  8.506668278E+01  8.506668278E+01  0.000000000E+00  0.00000E+00  9.000E+00
      21    -1     0     0   502   511  0.000000000E+00  0.000000000E+00 -3.776746558E+02  3.776746558E+02  0.000000000E+00  0.00000E+00  9.000E+00
      25     1     1     2     0     0  3.279555984E+01  2.783824893E+01 -5.704551686E+00  1.323193141E+02  1.250013685E+02  0.00000E+00  9.000E+00
       5     1     1     2   501     0 -1.078287233E+00  2.856437849E+00  1.925154021E+01  2.006255818E+01  4.750000000E+00  0.00000E+00  9.000E+00
      -5     1     1     2     0   503 -2.889934049E+01 -1.919913823E+01 -2.712764903E+02  2.735274675E+02  4.750000000E+00  0.00000E+00  9.000E+00
      21     1     1     2   503   511 -2.817932125E+00 -1.149554855E+01 -3.487847127E+01  3.683199880E+01  6.743495762E-07  0.00000E+00  9.000E+00
#rwgt            1           9   4.4006055598645884E-004           6     1861319           0
</event>
<event>
      6   9999  3.45752E-01  4.99424E+01 -1.00000E+00  1.34814E-01
      21    -1     0     0   501   502  0.000000000E+00  0.000000000E+00  3.638976949E+01  3.638976949E+01  0.000000000E+00  0.00000E+00  9.000E+00
      21    -1     0     0   502   512  0.000000000E+00  0.000000000E+00 -1.494387916E+03  1.494387916E+03  0.000000000E+00  0.00000E+00  9.000E+00
      25     1     1     2     0     0 -9.129976515E+01 -6.266260295E+01 -4.480249355E+02  4.781352390E+02  1.249988599E+02  0.00000E+00  9.000E+00
       5     1     1     2   501     0 -4.171400980E+00 -8.129987835E+00  1.633106742E+01  1.930708552E+01  4.750000000E+00  0.00000E+00  9.000E+00
      -5     1     1     2     0   503  5.918355380E+01  3.647852665E+01 -6.522025600E+02  6.559147184E+02  4.750000000E+00  0.00000E+00  9.000E+00
      21     1     1     2   503   512  3.628761233E+01  3.431406414E+01 -3.741017184E+02  3.774206427E+02  0.000000000E+00  0.00000E+00  9.000E+00
#rwgt            1           9   6.5070467745151665E-004           6     1863770           0
</event>
<event>
      6   9999  3.45752E-01  4.51422E+00 -1.00000E+00  2.37458E-01
      21    -1     0     0   501   502  0.000000000E+00  0.000000000E+00  8.168300464E+01  8.168300464E+01  0.000000000E+00  0.00000E+00  9.000E+00
      21    -1     0     0   502   511  0.000000000E+00  0.000000000E+00 -1.630263337E+02  1.630263337E+02  0.000000000E+00  0.00000E+00  9.000E+00
      25     1     1     2     0     0 -1.867767168E+00 -6.208437226E+00 -1.190911387E+02  1.727711923E+02  1.250006093E+02  0.00000E+00  9.000E+00
       5     1     1     2   501     0  1.182857088E+00 -1.213763852E+00  4.794872664E+01  4.821322702E+01  4.750000000E+00  0.00000E+00  9.000E+00
      -5     1     1     2     0   503 -3.825534093E+00  7.606805835E+00  2.650470077E+00  1.010374672E+01  4.750000000E+00  0.00000E+00  9.000E+00
      21     1     1     2   503   511  4.510444172E+00 -1.846047570E-01 -1.285138712E+01  1.362117236E+01  1.685873940E-07  0.00000E+00  9.000E+00
#rwgt            1           9   5.2012364868078845E-003           6     1864804           0
</event>
<event>
      6   9999 -3.45752E-01  2.83491E+01 -1.00000E+00  1.49446E-01
      21    -1     0     0   501   502  0.000000000E+00  0.000000000E+00  6.216174414E+01  6.216174414E+01  0.000000000E+00  0.00000E+00  9.000E+00
      21    -1     0     0   502   512  0.000000000E+00  0.000000000E+00 -1.869495906E+03  1.869495906E+03  0.000000000E+00  0.00000E+00  9.000E+00
      25     1     1     2     0     0 -1.199454731E+02 -1.924739696E+02 -1.162362597E+03  1.190858900E+03  1.249998629E+02  0.00000E+00  9.000E+00
       5     1     1     2   501     0  5.445970460E+00 -5.074022246E+00  2.830775014E+01  2.965291746E+01  4.750000000E+00  0.00000E+00  9.000E+00
      -5     1     1     2     0   503  1.038180325E+02  1.712881721E+02 -5.780242242E+02  6.117617086E+02  4.750000000E+00  0.00000E+00  9.000E+00
      21     1     1     2   503   512  1.068147019E+01  2.625981976E+01 -9.525509054E+01  9.938412455E+01  0.000000000E+00  0.00000E+00  9.000E+00
#rwgt            1           9  -9.5512205626705816E-004           6     1869556           0
</event>
<event>
      6   9999  3.45752E-01  4.74437E+00 -1.00000E+00  2.33445E-01
      21    -1     0     0   511   502  0.000000000E+00  0.000000000E+00  1.392205435E+01  1.392205435E+01  0.000000000E+00  0.00000E+00  9.000E+00
      21    -1     0     0   502   503  0.000000000E+00  0.000000000E+00 -8.816099133E+02  8.816099133E+02  0.000000000E+00  0.00000E+00  9.000E+00
      25     1     1     2     0     0 -2.815057363E+01 -1.133056606E+01 -4.707874237E+02  4.880442228E+02  1.250021142E+02  0.00000E+00  9.000E+00
       5     1     1     2   501     0  2.472789830E+01 -3.168288198E+01 -1.134100618E+02  1.204146111E+02  4.750000000E+00  0.00000E+00  9.000E+00
      -5     1     1     2     0   503  2.393016294E+00  3.838215290E+01 -2.701374520E+02  2.729024032E+02  4.750000000E+00  0.00000E+00  9.000E+00
      21     1     1     2   511   501  1.029659036E+00  4.631295139E+00 -1.335292148E+01  1.417073056E+01  1.685873940E-07  0.00000E+00  9.000E+00
#rwgt            1           9   8.6283294218033827E-003           6     1872615           0
</event>
<event>
      6   9999  3.45752E-01  1.05601E+01 -1.00000E+00  1.84735E-01
      21    -1     0     0   512   502  0.000000000E+00  0.000000000E+00  8.084933670E+02  8.084933670E+02  0.000000000E+00  0.00000E+00  9.000E+00
      21    -1     0     0   502   503  0.000000000E+00  0.000000000E+00 -1.676820423E+02  1.676820423E+02  0.000000000E+00  0.00000E+00  9.000E+00
      25     1     1     2     0     0 -1.664869154E+02  2.868518070E+01 -8.209722696E+01  2.256209263E+02  1.249964605E+02  0.00000E+00  9.000E+00
       5     1     1     2   501     0  4.419875346E+00  1.418325236E-02  2.363796460E+02  2.364686767E+02  4.750000000E+00  0.00000E+00  9.000E+00
      -5     1     1     2     0   503  1.535710774E+02 -2.242773558E+01  4.614827636E+02  4.869044904E+02  4.750000000E+00  0.00000E+00  9.000E+00
      21     1     1     2   512   501  8.495962700E+00 -6.271628375E+00  2.504614201E+01  2.718131590E+01  3.371747881E-07  0.00000E+00  9.000E+00
#rwgt            1           9   1.2631770324674271E-003           6     1877628           0
</event>
<event>
      6   9999  3.45752E-01  8.90132E+00 -1.00000E+00  1.92680E-01
      21    -1     0     0   511   502  0.000000000E+00  0.000000000E+00  5.181815293E+01  5.181815293E+01  0.000000000E+00  0.00000E+00  9.000E+00
      21    -1     0     0   502   503  0.000000000E+00  0.000000000E+00 -1.310693722E+03  1.310693722E+03  0.000000000E+00  0.00000E+00  9.000E+00
      25     1     1     2     0     0  1.135786888E+01 -1.865967659E+01 -7.377735151E+02  7.486086824E+02  1.250120597E+02  0.00000E+00  9.000E+00
       5     1     1     2   501     0  5.035936920E-01  4.255517316E+00  2.131030149E+00  6.742909144E+00  4.750000000E+00  0.00000E+00  9.000E+00
      -5     1     1     2     0   503 -1.446533499E+01  2.291610944E+01 -5.643857455E+02  5.650559496E+02  4.750000000E+00  0.00000E+00  9.000E+00
      21     1     1     2   511   501  2.603872423E+00 -8.511950160E+00  4.115266099E+01  4.210433414E+01  2.236564522E-06  0.00000E+00  9.000E+00
#rwgt            1           9  0.20737130831557907                6     1881768           0
</event>
<event>
      6   9999  3.45752E-01  1.21579E+01 -1.00000E+00  1.78677E-01
      21    -1     0     0   501   502  0.000000000E+00  0.000000000E+00  2.100949745E+01  2.100949745E+01  0.000000000E+00  0.00000E+00  9.000E+00
      21    -1     0     0   512   503  0.000000000E+00  0.000000000E+00 -1.034552537E+03  1.034552537E+03  0.000000000E+00  0.00000E+00  9.000E+00
      25     1     1     2     0     0  4.494509541E+01  6.670984457E+01 -7.525103062E+02  7.670524954E+02  1.250100192E+02  0.00000E+00  9.000E+00
       5     1     1     2   501     0 -1.408540618E+00  9.729676019E-01  6.985882311E+00  8.619495594E+00  4.750000000E+00  0.00000E+00  9.000E+00
      -5     1     1     2     0   503 -3.690627866E+01 -5.749192101E+01 -2.260893121E+02  2.362336427E+02  4.750000000E+00  0.00000E+00  9.000E+00
      21     1     1     2   512   502 -6.630276128E+00 -1.019089117E+01 -4.192930326E+01  4.365640040E+01  4.768371582E-07  0.00000E+00  9.000E+00
#rwgt            1           9   3.5973705577896793E-004           6     1885140           0
</event>
<event>
      6   9999  3.45752E-01  5.50622E+00 -1.00000E+00  2.19389E-01
      21    -1     0     0   501   502  0.000000000E+00  0.000000000E+00  5.223162963E+01  5.223162963E+01  0.000000000E+00  0.00000E+00  9.000E+00
      21    -1     0     0   502   511  0.000000000E+00  0.000000000E+00 -6.468740933E+02  6.468740933E+02  0.000000000E+00  0.00000E+00  9.000E+00
      25     1     1     2     0     0 -6.955899361E-01 -1.175550563E+01 -5.630995832E+02  5.769289296E+02  1.250086934E+02  0.00000E+00  9.000E+00
       5     1     1     2   501     0  1.576235457E+00  5.166115349E+00  4.456996081E+01  4.514661862E+01  4.750000000E+00  0.00000E+00  9.000E+00
      -5     1     1     2     0   503 -3.531336942E+00  1.763178062E+00 -3.367778360E+01  3.423937420E+01  4.750000000E+00  0.00000E+00  9.000E+00
      21     1     1     2   503   511  2.650691421E+00  4.826212217E+00 -4.243505767E+01  4.279080051E+01  0.000000000E+00  0.00000E+00  9.000E+00
#rwgt            1           9   9.4142630058190232E-003           6     1887334           0
</event>
<event>
      6   9999  3.45752E-01  2.84163E+01 -1.00000E+00  1.49378E-01
      21    -1     0     0   502   512  0.000000000E+00  0.000000000E+00  3.411309928E+01  3.411309928E+01  0.000000000E+00  0.00000E+00  9.000E+00
      21    -1     0     0   501   502  0.000000000E+00  0.000000000E+00 -2.630963125E+03  2.630963125E+03  0.000000000E+00  0.00000E+00  9.000E+00
      25     1     1     2     0     0  9.152281893E+01 -1.113535046E+02 -6.380367400E+02  6.659524664E+02  1.250031061E+02  0.00000E+00  9.000E+00
       5     1     1     2   501     0 -8.713588603E+01  1.742538343E+02 -1.820523117E+03  1.830924369E+03  4.750000000E+00  0.00000E+00  9.000E+00
      -5     1     1     2     0   503 -2.412361319E+00 -3.455272336E+01 -1.351633079E+02  1.396115771E+02  4.750000000E+00  0.00000E+00  9.000E+00
      21     1     1     2   503   512 -1.974571582E+00 -2.834760634E+01 -3.126860303E+00  2.858781162E+01  1.618131633E-06  0.00000E+00  9.000E+00
#rwgt            1           9   2.1722200380543867E-004           6     1892960           0
</event>
<event>
      6   9999  3.45752E-01  6.51520E+00 -1.00000E+00  2.09193E-01
      21    -1     0     0   511   502  0.000000000E+00  0.000000000E+00  5.228638193E+01  5.228638193E+01  0.000000000E+00  0.00000E+00  9.000E+00
      21    -1     0     0   502   503  0.000000000E+00  0.000000000E+00 -7.639155575E+02  7.639155575E+02  0.000000000E+00  0.00000E+00  9.000E+00
      25     1     1     2     0     0  9.884056691E+00  1.126659109E+01 -6.211979583E+02  6.338263709E+02  1.249973376E+02  0.00000E+00  9.000E+00
       5     1     1     2   501     0 -1.077503800E+00 -8.231331675E-01 -9.063065855E-01  5.022196161E+00  4.750000000E+00  0.00000E+00  9.000E+00
      -5     1     1     2     0   503 -1.528033016E+01 -1.117700087E+01 -1.324784086E+02  1.339085698E+02  4.750000000E+00  0.00000E+00  9.000E+00
      21     1     1     2   511   501  6.473777270E+00  7.335429501E-01  4.295349794E+01  4.344480248E+01  2.078484985E-06  0.00000E+00  9.000E+00
#rwgt            1           9   3.1082640915975848E-004           6     1895016           0
</event>
<event>
      6   9999  3.45752E-01  6.20721E+01 -1.00000E+00  1.29947E-01
      -3    -1     0     0     0   502  0.000000000E+00  0.000000000E+00  7.733018656E+01  7.733018656E+01  0.000000000E+00  0.00000E+00  9.000E+00
      21    -1     0     0   501   512  0.000000000E+00  0.000000000E+00 -1.502032355E+03  1.502032355E+03  0.000000000E+00  0.00000E+00  9.000E+00
      25     1     1     2     0     0 -1.273262907E+01 -3.537300968E+01 -1.255514268E+03  1.262281623E+03  1.250017946E+02  0.00000E+00  9.000E+00
       5     1     1     2   501     0  1.732828520E+01  9.311472316E+00  5.019587325E+01  5.412172555E+01  4.750000000E+00  0.00000E+00  9.000E+00
      -5     1     1     2     0   502  5.527381356E+01  4.245050191E+01 -1.694872574E+02  1.833186638E+02  4.750000000E+00  0.00000E+00  9.000E+00
      -3     1     1     2     0   512 -5.986946969E+01 -1.638896454E+01 -4.989651606E+01  7.964052909E+01  9.536743164E-07  0.00000E+00  9.000E+00
#rwgt            1           7   1.4399758307425209E-007           6     1898567           0
</event>
<event>
      6   9999  3.45752E-01  1.03808E+01 -1.00000E+00  1.85500E-01
      21    -1     0     0   501   502  0.000000000E+00  0.000000000E+00  1.925814462E+01  1.925814462E+01  0.000000000E+00  0.00000E+00  9.000E+00
      21    -1     0     0   511   503  0.000000000E+00  0.000000000E+00 -9.273782886E+02  9.273782886E+02  0.000000000E+00  0.00000E+00  9.000E+00
      25     1     1     2     0     0 -1.815428021E+01 -1.073642684E+01 -2.217420505E+02  2.554187877E+02  1.249974854E+02  0.00000E+00  9.000E+00
       5     1     1     2   501     0 -4.168470169E-01  8.164624747E-01 -1.290740244E+00  5.006883540E+00  4.750000000E+00  0.00000E+00  9.000E+00
      -5     1     1     2     0   503  1.995629508E+01  2.020794010E+01 -4.844415015E+02  4.852965541E+02  4.750000000E+00  0.00000E+00  9.000E+00
      21     1     1     2   511   502 -1.385167855E+00 -1.028797573E+01 -2.006458517E+02  2.009142079E+02  2.697398305E-06  0.00000E+00  9.000E+00
#rwgt            1           9  0.43480600422210314                6     1899134           0
</event>
<event>
      6   9999  3.45752E-01  1.21844E+02 -1.00000E+00  1.16898E-01
      21    -1     0     0   501   512  0.000000000E+00  0.000000000E+00  1.283675854E+02  1.283675854E+02  0.000000000E+00  0.00000E+00  9.000E+00
      21    -1     0     0   502   503  0.000000000E+00  0.000000000E+00 -1.496137514E+03  1.496137514E+03  0.000000000E+00  0.00000E+00  9.000E+00
      25     1     1     2     0     0  1.600791441E+02 -2.800608765E+02 -7.563949711E+02  8.317557829E+02  1.249996127E+02  0.00000E+00  9.000E+00
       5     1     1     2   501     0 -2.641371418E+01  9.672562256E+01 -1.452854518E+02  1.765897940E+02  4.750000000E+00  0.00000E+00  9.000E+00
      -5     1     1     2     0   503 -5.454609147E+01  9.067357095E+01 -4.818004410E+02  4.933063957E+02  4.750000000E+00  0.00000E+00  9.000E+00
      21     1     1     2   502   512 -7.911933844E+01  9.266168299E+01  1.571093557E+01  1.228531266E+02  1.215700987E-06  0.00000E+00  9.000E+00
#rwgt            1           9   2.7075850525371019E-005           6     1901819           0
</event>
<event>
      6   9999  3.45752E-01  9.70428E+00 -1.00000E+00  1.88577E-01
      21    -1     0     0   501   511  0.000000000E+00  0.000000000E+00  6.778776307E+01  6.778776307E+01  0.000000000E+00  0.00000E+00  9.000E+00
      21    -1     0     0   502   503  0.000000000E+00  0.000000000E+00 -2.402156442E+02  2.402156442E+02  0.000000000E+00  0.00000E+00  9.000E+00
      25     1     1     2     0     0 -2.451875840E+01  1.765827774E+01 -2.062372506E+02  2.430480352E+02  1.250022384E+02  0.00000E+00  9.000E+00
       5     1     1     2   501     0 -8.862408244E-01  1.848189072E+00  2.764771397E+01  2.812756323E+01  4.750000000E+00  0.00000E+00  9.000E+00
      -5     1     1     2     0   503  1.579498110E+01 -2.085574513E+01  4.047029795E+00  2.689580791E+01  4.750000000E+00  0.00000E+00  9.000E+00
      21     1     1     2   502   511  9.610018125E+00  1.349278323E+00  2.114625704E+00  9.932000917E+00  1.737759082E-07  0.00000E+00  9.000E+00
#rwgt            1           9   1.7535298633052972E-003           6     1902931           0
</event>
<event>
      6   9999  3.45752E-01  7.07439E+00 -1.00000E+00  2.04555E-01
      21    -1     0     0   512   502  0.000000000E+00  0.000000000E+00  5.338377197E+01  5.338377197E+01  0.000000000E+00  0.00000E+00  9.000E+00
      21    -1     0     0   502   503  0.000000000E+00  0.000000000E+00 -1.094643975E+02  1.094643975E+02  0.000000000E+00  0.00000E+00  9.000E+00
      25     1     1     2     0     0  7.857631507E+00 -3.588079032E+00 -6.504002829E+01  1.411704514E+02  1.249970975E+02  0.00000E+00  9.000E+00
       5     1     1     2   501     0 -1.158535724E-01 -1.671690408E-01  3.061654017E+00  5.654873372E+00  4.750000000E+00  0.00000E+00  9.000E+00
      -5     1     1     2     0   503 -5.443507599E+00 -2.935412086E+00  3.558941513E+00  8.571871662E+00  4.750000000E+00  0.00000E+00  9.000E+00
      21     1     1     2   512   501 -2.298270335E+00  6.690660159E+00  2.338807227E+00  7.450973033E+00  7.300048300E-08  0.00000E+00  9.000E+00
#rwgt            1           9   5.2286675549216956E-005           6     1906346           0
</event>
<event>
      6   9999  3.45752E-01  8.44166E+00 -1.00000E+00  1.95292E-01
      21    -1     0     0   501   502  0.000000000E+00  0.000000000E+00  1.150962206E+02  1.150962206E+02  0.000000000E+00  0.00000E+00  9.000E+00
      21    -1     0     0   511   503  0.000000000E+00  0.000000000E+00 -3.248323589E+02  3.248323589E+02  0.000000000E+00  0.00000E+00  9.000E+00
      25     1     1     2     0     0 -6.131941267E-01 -3.983525338E+01 -9.699109706E+01  1.631547154E+02  1.249998593E+02  0.00000E+00  9.000E+00
       5     1     1     2   501     0  6.607669616E+00  4.755507656E+00  7.819953468E+01  7.876551197E+01  4.750000000E+00  0.00000E+00  9.000E+00
      -5     1     1     2     0   503 -4.710795470E+00  4.342323791E+01 -1.572573169E+02  1.632795009E+02  4.750000000E+00  0.00000E+00  9.000E+00
      21     1     1     2   511   502 -1.283680020E+00 -8.343492185E+00 -3.368725896E+01  3.472885129E+01  4.768371582E-07  0.00000E+00  9.000E+00
#rwgt            1           9   2.7795709868437757                6     1909166           0
</event>
<event>
      6   9999  3.45752E-01  2.85904E+01 -1.00000E+00  1.49203E-01
      21    -1     0     0   501   502  0.000000000E+00  0.000000000E+00  2.376829189E+02  2.376829189E+02  0.000000000E+00  0.00000E+00  9.000E+00
      21    -1     0     0   512   503  0.000000000E+00  0.000000000E+00 -9.233468629E+01  9.233468629E+01  0.000000000E+00  0.00000E+00  9.000E+00
      25     1     1     2     0     0  3.715719201E+00 -3.566032294E+01  5.257214357E+01  1.402638327E+02  1.249985891E+02  0.00000E+00  9.000E+00
       5     1     1     2   501     0 -2.078276001E+00 -1.234209507E-01  4.749357963E+01  4.777590470E+01  4.750000000E+00  0.00000E+00  9.000E+00
      -5     1     1     2     0   503 -2.817575127E+01  2.514757678E+01  8.494596031E+01  9.308411385E+01  4.750000000E+00  0.00000E+00  9.000E+00
      21     1     1     2   512   502  2.653830807E+01  1.063616712E+01 -3.966345087E+01  4.889375401E+01  1.066240300E-06  0.00000E+00  9.000E+00
#rwgt            1           9  0.10808876131128829                6     1912846           0
</event>
<event>
      6   9999 -3.45752E-01  3.79947E+01 -1.00000E+00  1.41494E-01
      21    -1     0     0   501   502  0.000000000E+00  0.000000000E+00  3.372142463E+01  3.372142463E+01  0.000000000E+00  0.00000E+00  9.000E+00
      21    -1     0     0   511   503  0.000000000E+00  0.000000000E+00 -1.477160543E+03  1.477160543E+03  0.000000000E+00  0.00000E+00  9.000E+00
      25     1     1     2     0     0 -1.253336721E+02  5.781982409E+01 -8.439752124E+02  8.642745154E+02  1.249984696E+02  0.00000E+00  9.000E+00
       5     1     1     2   501     0 -2.636295751E-01  2.894743567E+00  6.833834941E+00  8.815488692E+00  4.750000000E+00  0.00000E+00  9.000E+00
      -5     1     1     2     0   503  1.317152080E+02 -2.321563249E+01 -2.920209451E+02  3.212267992E+02  4.750000000E+00  0.00000E+00  9.000E+00
      21     1     1     2   511   502 -6.117906281E+00 -3.749893517E+01 -3.142767954E+02  3.165651640E+02  3.814697266E-06  0.00000E+00  9.000E+00
#rwgt            1           9  -5.5415159161477323E-005           6     1914272           0
</event>
<event>
      6   9999  3.45752E-01  5.86114E+00 -1.00000E+00  2.15484E-01
      21    -1     0     0   512   502  0.000000000E+00  0.000000000E+00  2.496950186E+03  2.496950186E+03  0.000000000E+00  0.00000E+00  9.000E+00
      21    -1     0     0   502   503  0.000000000E+00  0.000000000E+00 -7.616484186E+02  7.616484186E+02  0.000000000E+00  0.00000E+00  9.000E+00
      25     1     1     2     0     0  2.068423226E+00  2.875592938E+00 -7.248871152E+02  7.355953468E+02  1.250065478E+02  0.00000E+00  9.000E+00
       5     1     1     2   501     0 -2.218731781E+00  1.320889790E+00  2.457829603E+00  5.938934830E+00  4.750000000E+00  0.00000E+00  9.000E+00
      -5     1     1     2     0   503 -5.566279115E+00 -2.902833215E+00 -2.914088078E+01  3.018548222E+01  4.750000000E+00  0.00000E+00  9.000E+00
      21     1     1     2   512   501  5.716587670E+00 -1.293649512E+00  2.486871934E+03  2.486878841E+03  5.285799584E-05  0.00000E+00  9.000E+00
#rwgt            1           9   3.4808765496915104E-006           6     1915687           0
</event>
<event>
      6   9999  3.45752E-01  8.44840E+00 -1.00000E+00  1.95252E-01
      21    -1     0     0   511   502  0.000000000E+00  0.000000000E+00  8.106003164E+01  8.106003164E+01  0.000000000E+00  0.00000E+00  9.000E+00
      21    -1     0     0   502   503  0.000000000E+00  0.000000000E+00 -8.275307289E+02  8.275307289E+02  0.000000000E+00  0.00000E+00  9.000E+00
      25     1     1     2     0     0 -2.621043943E+01  4.365707351E+01 -4.739017820E+02  4.927507835E+02  1.250100335E+02  0.00000E+00  9.000E+00
       5     1     1     2   501     0  5.168915644E-01  2.131551573E+00  1.078505098E+00  5.341943676E+00  4.750000000E+00  0.00000E+00  9.000E+00
      -5     1     1     2     0   503  2.677326230E+01 -3.740950592E+01 -3.402414782E+02  3.433702152E+02  4.750000000E+00  0.00000E+00  9.000E+00
      21     1     1     2   511   501 -1.079714434E+00 -8.379119165E+00  6.659405787E+01  6.712781811E+01  1.348699152E-06  0.00000E+00  9.000E+00
#rwgt            1           9   4.3150303153081052E-003           6     1919231           0
</event>
<event>
      6   9999  3.45752E-01  2.85967E+00 -1.00000E+00  2.82468E-01
      21    -1     0     0   512   502  0.000000000E+00  0.000000000E+00  1.481753663E+02  1.481753663E+02  0.000000000E+00  0.00000E+00  9.000E+00
      21    -1     0     0   502   503  0.000000000E+00  0.000000000E+00 -3.935795256E+02  3.935795256E+02  0.000000000E+00  0.00000E+00  9.000E+00
      25     1     1     2     0     0 -1.996243613E+00  6.925462957E+00 -3.738569784E+02  3.942656085E+02  1.249975308E+02  0.00000E+00  9.000E+00
       5     1     1     2   501     0 -1.031736762E-01 -2.471858081E+00  1.509617162E+01  1.601804060E+01  4.750000000E+00  0.00000E+00  9.000E+00
      -5     1     1     2     0   503  1.264726791E-02 -2.498322160E+00 -8.243951866E+00  9.837022717E+00  4.750000000E+00  0.00000E+00  9.000E+00
      21     1     1     2   512   501  2.086770022E+00 -1.955282715E+00  1.216005994E+02  1.216342202E+02  1.348699152E-06  0.00000E+00  9.000E+00
#rwgt            1           9   1.5935739498162927E-004           6     1922020           0
</event>
<event>
      6   9999  3.45752E-01  7.70919E+00 -1.00000E+00  1.99938E-01
      21    -1     0     0   501   502  0.000000000E+00  0.000000000E+00  2.202592162E+01  2.202592162E+01  0.000000000E+00  0.00000E+00  9.000E+00
      21    -1     0     0   502   511  0.000000000E+00  0.000000000E+00 -1.317542353E+03  1.317542353E+03  0.000000000E+00  0.00000E+00  9.000E+00
      25     1     1     2     0     0  5.545540101E-01 -4.239363080E+00 -9.438757156E+02  9.521260360E+02  1.249973692E+02  0.00000E+00  9.000E+00
       5     1     1     2   501     0  4.255492939E+00  7.414260198E+00  1.640342740E+01  1.909752353E+01  4.750000000E+00  0.00000E+00  9.000E+00
      -5     1     1     2     0   503  2.213019251E+00  4.438938582E-03 -6.802386680E+01  6.822540896E+01  4.750000000E+00  0.00000E+00  9.000E+00
      21     1     1     2   503   511 -7.023066200E+00 -3.179336057E+00 -3.000202765E+02  3.001193062E+02  5.394796609E-06  0.00000E+00  9.000E+00
#rwgt            1           9   4.6430438882618444E-006           6     1928393           0
</event>
<event>
      6   9999  3.45752E-01  2.45218E+01 -1.00000E+00  1.53735E-01
      21    -1     0     0   501   502  0.000000000E+00  0.000000000E+00  4.189227334E+01  4.189227334E+01  0.000000000E+00  0.00000E+00  9.000E+00
      21    -1     0     0   502   512  0.000000000E+00  0.000000000E+00 -1.805286548E+03  1.805286548E+03  0.000000000E+00  0.00000E+00  9.000E+00
      25     1     1     2     0     0  1.158670251E+02 -5.197061932E+01 -4.992643672E+02  5.301094387E+02  1.249999833E+02  0.00000E+00  9.000E+00
       5     1     1     2   501     0  5.685437142E+00 -9.637217419E+00  2.019098249E+01  2.356774128E+01  4.750000000E+00  0.00000E+00  9.000E+00
      -5     1     1     2     0   503 -1.031188695E+02  4.543629121E+01 -7.321169918E+02  7.407535420E+02  4.750000000E+00  0.00000E+00  9.000E+00
      21     1     1     2   503   512 -1.843359279E+01  1.617154553E+01 -5.522038980E+02  5.527480992E+02  7.629394531E-06  0.00000E+00  9.000E+00
#rwgt            1           9   1.0577717191475799E-003           6     1931927           0
</event>
<event>
      6   9999  3.45752E-01  1.51945E+01 -1.00000E+00  1.69888E-01
      21    -1     0     0   501   502  0.000000000E+00  0.000000000E+00  1.484541379E+02  1.484541379E+02  0.000000000E+00  0.00000E+00  9.000E+00
      21    -1     0     0   511   503  0.000000000E+00  0.000000000E+00 -2.345330441E+02  2.345330441E+02  0.000000000E+00  0.00000E+00  9.000E+00
      25     1     1     2     0     0  2.788306560E+01  4.765851864E+01  9.102493685E+01  1.641907137E+02  1.249970063E+02  0.00000E+00  9.000E+00
       5     1     1     2   501     0  1.324937290E-02  8.661190777E-01  1.646340923E+01  1.715682608E+01  4.750000000E+00  0.00000E+00  9.000E+00
      -5     1     1     2     0   503 -1.844711691E+01 -3.662569143E+01 -1.403205369E+02  1.462674023E+02  4.750000000E+00  0.00000E+00  9.000E+00
      21     1     1     2   511   502 -9.449198067E+00 -1.189894629E+01 -5.324671531E+01  5.537223997E+01  0.000000000E+00  0.00000E+00  9.000E+00
#rwgt            1           9   5.7503997623239848E-004           6     1934560           0
</event>
<event>
      6   9999  3.45752E-01  1.22634E+01 -1.00000E+00  1.78319E-01
      21    -1     0     0   501   502  0.000000000E+00  0.000000000E+00  3.451397685E+01  3.451397685E+01  0.000000000E+00  0.00000E+00  9.000E+00
      21    -1     0     0   502   512  0.000000000E+00  0.000000000E+00 -2.506707820E+02  2.506707820E+02  0.000000000E+00  0.00000E+00  9.000E+00
      25     1     1     2     0     0 -1.489570865E+01 -2.200106023E+01 -1.299346487E+02  1.822451829E+02  1.249974599E+02  0.00000E+00  9.000E+00
       5     1     1     2   501     0  3.787198341E+00  5.020902475E+00 -4.963729902E+00  9.314153074E+00  4.750000000E+00  0.00000E+00  9.000E+00
      -5     1     1     2     0   503  7.077544929E-01  2.347756404E+01 -2.018222548E+01  3.133020355E+01  4.750000000E+00  0.00000E+00  9.000E+00
      21     1     1     2   503   512  1.040075582E+01 -6.497406278E+00 -6.107620110E+01  6.229521932E+01  6.743495762E-07  0.00000E+00  9.000E+00
#rwgt            1           9   1.0631091173340516E-003           6     1937270           0
</event>
<event>
      6   9999  3.45752E-01  1.99465E+01 -1.00000E+00  1.60299E-01
      21    -1     0     0   501   502  0.000000000E+00  0.000000000E+00  7.039991375E+00  7.039991375E+00  0.000000000E+00  0.00000E+00  9.000E+00
       4    -1     0     0   502     0  0.000000000E+00  0.000000000E+00 -1.687685238E+03  1.687685238E+03  0.000000000E+00  0.00000E+00  9.000E+00
      25     1     1     2     0     0 -9.556076575E+00 -1.076243994E+01 -6.187500718E+02  6.314131357E+02  1.249949915E+02  0.00000E+00  9.000E+00
       5     1     1     2   501     0 -7.092225539E+00  1.925052701E+00 -4.692465356E+01  4.773354274E+01  4.750000000E+00  0.00000E+00  9.000E+00
      -5     1     1     2     0   503 -1.704620403E+00  1.025011070E+00 -3.249042913E+01  3.289600072E+01  4.750000000E+00  0.00000E+00  9.000E+00
       4     1     1     2   503     0  1.835292252E+01  7.812376169E+00 -9.824800926E+02  9.826825506E+02  1.525878906E-05  0.00000E+00  9.000E+00
#rwgt            1           9   1.0301278558861257E-006           6     1939619           0
</event>
<event>
      6   9999  3.45752E-01  3.79999E+00 -1.00000E+00  2.52553E-01
      21    -1     0     0   501   502  0.000000000E+00  0.000000000E+00  2.800770506E+02  2.800770506E+02  0.000000000E+00  0.00000E+00  9.000E+00
      21    -1     0     0   502   511  0.000000000E+00  0.000000000E+00 -1.804090248E+01  1.804090248E+01  0.000000000E+00  0.00000E+00  9.000E+00
      25     1     1     2     0     0  2.781959774E+00  1.386111379E+00  2.269766451E+02  2.591369777E+02  1.249956606E+02  0.00000E+00  9.000E+00
       5     1     1     2   501     0  6.038300886E-02  4.640559644E-02  1.640216895E+01  1.707628314E+01  4.750000000E+00  0.00000E+00  9.000E+00
      -5     1     1     2     0   503 -1.648841105E+00  2.175180399E+00  1.680860604E+01  1.767885245E+01  4.750000000E+00  0.00000E+00  9.000E+00
      21     1     1     2   503   511 -1.193501678E+00 -3.607697375E+00  1.848728018E+00  4.225839785E+00  2.980232239E-08  0.00000E+00  9.000E+00
#rwgt            1           9   2.4698115933365107E-002           6     1941102           0
</event>
<event>
      6   9999  3.45752E-01  3.97040E+00 -1.00000E+00  2.48520E-01
      21    -1     0     0   501   502  0.000000000E+00  0.000000000E+00  8.386034781E+01  8.386034781E+01  0.000000000E+00  0.00000E+00  9.000E+00
      21    -1     0     0   502   512  0.000000000E+00  0.000000000E+00 -2.446902873E+02  2.446902873E+02  0.000000000E+00  0.00000E+00  9.000E+00
      25     1     1     2     0     0  8.362419287E+01 -9.480674613E+00 -4.530857568E+01  1.573487716E+02  1.249915200E+02  0.00000E+00  9.000E+00
       5     1     1     2   501     0  9.759987177E-01 -1.051352096E+00  1.465688561E+01  1.547400111E+01  4.750000000E+00  0.00000E+00  9.000E+00
      -5     1     1     2     0   503 -8.063890116E+01  1.080079400E+01 -1.241835234E+02  1.485375357E+02  4.750000000E+00  0.00000E+00  9.000E+00
      21     1     1     2   503   512 -3.961290423E+00 -2.687672888E-01 -5.994725981E+00  7.190326644E+00  8.429369702E-08  0.00000E+00  9.000E+00
#rwgt            1           9   28.121687406665270                6     1945371           0
</event>
<event>
      6   9999  3.45752E-01  1.11398E+01 -1.00000E+00  1.82388E-01
      21    -1     0     0   501   502  0.000000000E+00  0.000000000E+00  1.360627508E+01  1.360627508E+01  0.000000000E+00  0.00000E+00  9.000E+00
      21    -1     0     0   511   503  0.000000000E+00  0.000000000E+00 -1.320352260E+03  1.320352260E+03  0.000000000E+00  0.00000E+00  9.000E+00
      25     1     1     2     0     0 -2.188048278E+01  2.916865692E+01 -7.713540765E+02  7.822671863E+02  1.250010938E+02  0.00000E+00  9.000E+00
       5     1     1     2   501     0  3.044224883E+00 -1.572658033E+00  3.824009893E+00  6.994720158E+00  4.750000000E+00  0.00000E+00  9.000E+00
      -5     1     1     2     0   503  2.822206013E+01 -3.359609069E+01 -1.808318090E+02  1.861394306E+02  4.750000000E+00  0.00000E+00  9.000E+00
      21     1     1     2   511   502 -9.385802238E+00  6.000091805E+00 -3.583841096E+02  3.585571982E+02  7.629394531E-06  0.00000E+00  9.000E+00
#rwgt            1           9   1.1647598741243028                6     1951040           0
</event>
<event>
      6   9999  3.45752E-01  1.34898E+01 -1.00000E+00  1.74465E-01
      21    -1     0     0   501   502  0.000000000E+00  0.000000000E+00  1.658872703E+01  1.658872703E+01  0.000000000E+00  0.00000E+00  9.000E+00
      21    -1     0     0   512   503  0.000000000E+00  0.000000000E+00 -4.734247256E+02  4.734247256E+02  0.000000000E+00  0.00000E+00  9.000E+00
      25     1     1     2     0     0 -1.168269104E+00 -8.850294942E+00 -3.357794078E+02  3.584000714E+02  1.249924314E+02  0.00000E+00  9.000E+00
       5     1     1     2   501     0 -6.180414795E-01 -2.832575126E+00  2.768081939E+00  6.215322577E+00  4.750000000E+00  0.00000E+00  9.000E+00
      -5     1     1     2     0   503 -3.789209253E+00 -6.008126245E-01 -3.068838341E+01  3.128990986E+01  4.750000000E+00  0.00000E+00  9.000E+00
      21     1     1     2   512   502  5.575519837E+00  1.228368269E+01 -9.313628929E+01  9.410814876E+01  1.348699152E-06  0.00000E+00  9.000E+00
#rwgt            1           9  0.31433326373140597                6     1953129           0
</event>
<event>
      6   9999  3.45752E-01  1.33639E+01 -1.00000E+00  1.74836E-01
      21    -1     0     0   501   511  0.000000000E+00  0.000000000E+00  1.872251490E+01  1.872251490E+01  0.000000000E+00  0.00000E+00  9.000E+00
      21    -1     0     0   502   503  0.000000000E+00  0.000000000E+00 -1.006697294E+03  1.006697294E+03  0.000000000E+00  0.00000E+00  9.000E+00
      25     1     1     2     0     0 -1.247433314E+01  5.314354868E+00 -9.333694024E+02  9.417999629E+02  1.249995101E+02  0.00000E+00  9.000E+00
       5     1     1     2   501     0 -1.505146898E+00  3.760380027E+00  1.230425254E+01  1.379721188E+01  4.750000000E+00  0.00000E+00  9.000E+00
      -5     1     1     2     0   503  2.749118458E+00 -1.830843680E+00 -3.036229552E+01  3.090859314E+01  4.750000000E+00  0.00000E+00  9.000E+00
      21     1     1     2   502   511  1.123036158E+01 -7.243891216E+00 -3.654733409E+01  3.891404130E+01  4.768371582E-07  0.00000E+00  9.000E+00
#rwgt            1           9   5.8335556568023562E-003           6     1955054           0
</event>
<event>
      6   9999 -3.45752E-01  7.49271E+00 -1.00000E+00  2.01444E-01
      21    -1     0     0   501   512  0.000000000E+00  0.000000000E+00  2.948776364E+01  2.948776364E+01  0.000000000E+00  0.00000E+00  9.000E+00
      21    -1     0     0   502   503  0.000000000E+00  0.000000000E+00 -8.935729215E+02  8.935729215E+02  0.000000000E+00  0.00000E+00  9.000E+00
      25     1     1     2     0     0 -4.297812829E+00 -2.796884414E+01 -8.171666384E+02  8.271562967E+02  1.250019873E+02  0.00000E+00  9.000E+00
       5     1     1     2   501     0  2.023421817E+00  3.709365824E+00  8.013129031E+00  1.022870312E+01  4.750000000E+00  0.00000E+00  9.000E+00
      -5     1     1     2     0   503 -7.462820529E-01  3.111631998E+01 -6.552687211E+01  7.269880174E+01  4.750000000E+00  0.00000E+00  9.000E+00
      21     1     1     2   502   512  3.020673065E+00 -6.856841660E+00  1.059522363E+01  1.297688356E+01  6.529361695E-07  0.00000E+00  9.000E+00
#rwgt            1           9  -2.2876592247254138E-002           6     1957540           0
</event>
<event>
      6   9999  3.45752E-01  2.07516E+01 -1.00000E+00  1.58997E-01
      21    -1     0     0   501   511  0.000000000E+00  0.000000000E+00  8.073827417E+01  8.073827417E+01  0.000000000E+00  0.00000E+00  9.000E+00
      21    -1     0     0   502   503  0.000000000E+00  0.000000000E+00 -1.574513161E+03  1.574513161E+03  0.000000000E+00  0.00000E+00  9.000E+00
      25     1     1     2     0     0  3.960511490E+01 -1.962878380E+02 -1.125671566E+03  1.150156084E+03  1.250002511E+02  0.00000E+00  9.000E+00
       5     1     1     2   501     0 -8.228709884E+01  2.445607381E+02 -2.093316428E+02  3.323001962E+02  4.750000000E+00  0.00000E+00  9.000E+00
      -5     1     1     2     0   503  3.109741053E+01 -3.105591031E+01 -1.300774538E+02  1.373834961E+02  4.750000000E+00  0.00000E+00  9.000E+00
      21     1     1     2   502   511  1.158457341E+01 -1.721698972E+01 -2.869422428E+01  3.541165886E+01  4.768371582E-07  0.00000E+00  9.000E+00
#rwgt            1           9  0.10828817456801859                6     1960898           0
</event>
<event>
      6   9999  3.45752E-01  5.73823E+00 -1.00000E+00  2.16792E-01
      21    -1     0     0   501   502  0.000000000E+00  0.000000000E+00  1.659109513E+00  1.659109513E+00  0.000000000E+00  0.00000E+00  9.000E+00
      21    -1     0     0   512   503  0.000000000E+00  0.000000000E+00 -3.861097448E+03  3.861097448E+03  0.000000000E+00  0.00000E+00  9.000E+00
      25     1     1     2     0     0  8.173631839E+00  2.028625514E+00 -3.123512027E+03  3.126023577E+03  1.250003739E+02  0.00000E+00  9.000E+00
       5     1     1     2   501     0  8.452794929E-01  2.464144565E-01 -1.664337862E+01  1.733031359E+01  4.750000000E+00  0.00000E+00  9.000E+00
      -5     1     1     2     0   503 -5.263864224E+00  2.063963646E+00 -3.983869951E+02  3.984554286E+02  4.750000000E+00  0.00000E+00  9.000E+00
      21     1     1     2   512   502 -3.755047109E+00 -4.339003617E+00 -3.208959371E+02  3.209472383E+02  3.814697266E-06  0.00000E+00  9.000E+00
#rwgt            1           9   1.3141204259880510E-003           6     1963724           0
</event>
<event>
      6   9999  3.45752E-01  1.77690E+01 -1.00000E+00  1.64233E-01
      21    -1     0     0   501   502  0.000000000E+00  0.000000000E+00  1.691991786E+03  1.691991786E+03  0.000000000E+00  0.00000E+00  9.000E+00
      21    -1     0     0   502   511  0.000000000E+00  0.000000000E+00 -2.018381092E+01  2.018381092E+01  0.000000000E+00  0.00000E+00  9.000E+00
      25     1     1     2     0     0 -1.171425520E+00 -3.950357602E+00  1.424011887E+03  1.429493477E+03  1.249990739E+02  0.00000E+00  9.000E+00
       5     1     1     2   501     0 -9.213527012E-01  3.967679905E-01  1.275929420E+02  1.276852680E+02  4.750000000E+00  0.00000E+00  9.000E+00
      -5     1     1     2     0   503 -1.325794020E+01  1.250313698E+01  1.322144758E+02  1.335489855E+02  4.750000000E+00  0.00000E+00  9.000E+00
      21     1     1     2   503   511  1.535071842E+01 -8.949547372E+00 -1.201132949E+01  2.144786680E+01  1.980453459E-06  0.00000E+00  9.000E+00
#rwgt            1           9   5.5079245031056025E-004           6     1966698           0
</event>
<event>
      6   9999  3.45752E-01  1.05139E+01 -1.00000E+00  1.84930E-01
      21    -1     0     0   512   502  0.000000000E+00  0.000000000E+00  1.552527673E+02  1.552527673E+02  0.000000000E+00  0.00000E+00  9.000E+00
      21    -1     0     0   502   503  0.000000000E+00  0.000000000E+00 -9.827242600E+02  9.827242600E+02  0.000000000E+00  0.00000E+00  9.000E+00
      25     1     1     2     0     0 -2.207888946E+00  9.143979340E+00 -9.309195889E+02  9.393224082E+02  1.250072736E+02  0.00000E+00  9.000E+00
       5     1     1     2   501     0 -6.705825443E+00  1.769023202E-01  1.401842289E+01  1.625047906E+01  4.750000000E+00  0.00000E+00  9.000E+00
      -5     1     1     2     0   503 -1.228852622E+00 -6.551456110E+00 -4.592149570E+01  4.664523473E+01  4.750000000E+00  0.00000E+00  9.000E+00
      21     1     1     2   512   501  1.014256701E+01 -2.769425550E+00  1.353511690E+02  1.357589052E+02  4.264961200E-06  0.00000E+00  9.000E+00
#rwgt            1           9   1.4950826011900277E-004           6     1968059           0
</event>
<event>
      6   9999  3.45752E-01  7.06152E+00 -1.00000E+00  2.04655E-01
      21    -1     0     0   501   511  0.000000000E+00  0.000000000E+00  2.642920352E+01  2.642920352E+01  0.000000000E+00  0.00000E+00  9.000E+00
      21    -1     0     0   502   503  0.000000000E+00  0.000000000E+00 -1.893491512E+03  1.893491512E+03  0.000000000E+00  0.00000E+00  9.000E+00
      25     1     1     2     0     0 -4.213444306E+01 -2.413384980E+01 -1.815689910E+03  1.820635324E+03  1.250015234E+02  0.00000E+00  9.000E+00
       5     1     1     2   501     0  4.114768645E+01  2.730683998E+01 -8.811202591E+00  5.038844511E+01  4.750000000E+00  0.00000E+00  9.000E+00
      -5     1     1     2     0   503 -1.678625365E+00  3.366186233E+00 -4.127734139E+01  4.171966449E+01  4.750000000E+00  0.00000E+00  9.000E+00
      21     1     1     2   502   511  2.665381974E+00 -6.539176414E+00 -1.283854527E+00  7.177281636E+00  2.184939131E-07  0.00000E+00  9.000E+00
#rwgt            1           9   9.3576815922038388E-005           6     1970908           0
</event>
<event>
      6   9999  3.45752E-01  4.75961E+00 -1.00000E+00  2.33191E-01
      21    -1     0     0   502   512  0.000000000E+00  0.000000000E+00  5.836522385E+01  5.836522385E+01  0.000000000E+00  0.00000E+00  9.000E+00
      21    -1     0     0   501   502  0.000000000E+00  0.000000000E+00 -7.410236787E+02  7.410236787E+02  0.000000000E+00  0.00000E+00  9.000E+00
      25     1     1     2     0     0  4.283000863E+00  1.981553002E-01 -4.858841961E+02  5.017233634E+02  1.249979920E+02  0.00000E+00  9.000E+00
       5     1     1     2   501     0  1.504171395E+00  2.674188443E+00 -2.224708473E+02  2.225427020E+02  4.750000000E+00  0.00000E+00  9.000E+00
      -5     1     1     2     0   503 -2.514459619E+00  5.835608776E-01 -2.430310315E+01  2.489711576E+01  4.750000000E+00  0.00000E+00  9.000E+00
      21     1     1     2   503   512 -3.272712640E+00 -3.455904620E+00  4.999969167E+01  5.022572142E+01  1.168007728E-06  0.00000E+00  9.000E+00
#rwgt            1           9   1.6396711197937737E-005           6     1975501           0
</event>
<event>
      6   9999  3.45752E-01  3.23323E+01 -1.00000E+00  1.45765E-01
      21    -1     0     0   501   502  0.000000000E+00  0.000000000E+00  8.039276877E+01  8.039276877E+01  0.000000000E+00  0.00000E+00  9.000E+00
      21    -1     0     0   511   503  0.000000000E+00  0.000000000E+00 -2.351834223E+02  2.351834223E+02  0.000000000E+00  0.00000E+00  9.000E+00
      25     1     1     2     0     0  1.008775968E+01 -8.922472179E+00 -3.147435002E+01  1.296059159E+02  1.250027412E+02  0.00000E+00  9.000E+00
       5     1     1     2   501     0 -2.973502226E+00  6.807035148E-01  1.082967589E+01  1.221267590E+01  4.750000000E+00  0.00000E+00  9.000E+00
      -5     1     1     2     0   503 -3.757120392E+01  1.909321075E+01 -7.524718721E+00  4.307354121E+01  4.750000000E+00  0.00000E+00  9.000E+00
      21     1     1     2   511   502  3.045694647E+01 -1.085144209E+01 -1.266212607E+02  1.306840581E+02  0.000000000E+00  0.00000E+00  9.000E+00
#rwgt            1           9   1.0989676245599822E-003           6     1979606           0
</event>
<event>
      6   9999  3.45752E-01  2.87249E+01 -1.00000E+00  1.49069E-01
       2    -1     0     0   501     0  0.000000000E+00  0.000000000E+00  2.640758382E+03  2.640758382E+03  0.000000000E+00  0.00000E+00  9.000E+00
      21    -1     0     0   502   503  0.000000000E+00  0.000000000E+00 -1.166855157E+01  1.166855157E+01  0.000000000E+00  0.00000E+00  9.000E+00
      25     1     1     2     0     0 -6.645982069E-01  1.316729698E+01  3.524501158E+02  3.741830958E+02  1.249723396E+02  0.00000E+00  9.000E+00
       5     1     1     2   501     0  1.158624299E-01 -9.225162970E-01  6.116415090E+01  6.135536094E+01  4.750000000E+00  0.00000E+00  9.000E+00
      -5     1     1     2     0   503  9.545847370E+00 -3.952424943E+01  7.386110933E+02  7.397446851E+02  4.750000000E+00  0.00000E+00  9.000E+00
       2     1     1     2   502     0 -8.997111593E+00  2.727946874E+01  1.476864470E+03  1.477143791E+03  3.737624730E-05  0.00000E+00  9.000E+00
#rwgt            1           9   3.8662673685935960E-004           6     1980866           0
</event>
<event>
      6   9999  3.45752E-01  3.61565E+00 -1.00000E+00  2.57295E-01
      21    -1     0     0   511   502  0.000000000E+00  0.000000000E+00  2.947923511E+01  2.947923511E+01  0.000000000E+00  0.00000E+00  9.000E+00
      21    -1     0     0   502   503  0.000000000E+00  0.000000000E+00 -8.675131737E+02  8.675131737E+02  0.000000000E+00  0.00000E+00  9.000E+00
      25     1     1     2     0     0 -3.214513988E+00  1.735239747E+00 -5.058724458E+02  5.211001421E+02  1.250003301E+02  0.00000E+00  9.000E+00
       5     1     1     2   501     0  1.266275126E+00  1.213193647E+00  4.782350124E+00  6.964816166E+00  4.750000000E+00  0.00000E+00  9.000E+00
      -5     1     1     2     0   503  5.472846759E+00 -3.754680521E+00 -3.526834611E+02  3.527778847E+02  4.750000000E+00  0.00000E+00  9.000E+00
      21     1     1     2   511   501 -3.524607897E+00  8.062471278E-01  1.573961822E+01  1.614956584E+01  8.596304120E-07  0.00000E+00  9.000E+00
#rwgt            1           9   3.4651775291711893E-003           6     1982068           0
</event>
<event>
      6   9999 -3.45752E-01  2.76437E+01 -1.00000E+00  1.50173E-01
      21    -1     0     0   501   502  0.000000000E+00  0.000000000E+00  3.305105693E+01  3.305105693E+01  0.000000000E+00  0.00000E+00  9.000E+00
      21    -1     0     0   502   512  0.000000000E+00  0.000000000E+00 -1.327383056E+03  1.327383056E+03  0.000000000E+00  0.00000E+00  9.000E+00
      25     1     1     2     0     0  1.405252123E+02 -5.406876228E+01 -5.729472857E+02  6.054468566E+02  1.250061503E+02  0.00000E+00  9.000E+00
       5     1     1     2   501     0 -1.565210316E+01  6.851427776E+01 -1.284311183E+02  1.464797229E+02  4.750000000E+00  0.00000E+00  9.000E+00
      -5     1     1     2     0   503 -1.021560812E+02 -3.019710259E+01 -4.181606939E+02  4.315421861E+02  4.750000000E+00  0.00000E+00  9.000E+00
      21     1     1     2   503   512 -2.271702786E+01  1.575158711E+01 -1.747929010E+02  1.769653472E+02  1.907348633E-06  0.00000E+00  9.000E+00
#rwgt            1           9  -2.1996922110767113E-004           6     1987171           0
</event>
<event>
      6   9999  3.45752E-01  5.16682E+00 -1.00000E+00  2.23520E-01
      21    -1     0     0   501   502  0.000000000E+00  0.000000000E+00  1.441690461E+01  1.441690461E+01  0.000000000E+00  0.00000E+00  9.000E+00
      21    -1     0     0   511   503  0.000000000E+00  0.000000000E+00 -9.574693557E+02  9.574693557E+02  0.000000000E+00  0.00000E+00  9.000E+00
      25     1     1     2     0     0  1.672865517E+01  4.835446003E+01 -5.318003138E+02  5.486853050E+02  1.250039540E+02  0.00000E+00  9.000E+00
       5     1     1     2   501     0  1.319556122E+00 -1.098853753E+00  2.092467769E+00  5.467140870E+00  4.750000000E+00  0.00000E+00  9.000E+00
      -5     1     1     2     0   503 -1.497588941E+01 -5.140974703E+01 -3.416558836E+02  3.458591399E+02  4.750000000E+00  0.00000E+00  9.000E+00
      21     1     1     2   511   502 -3.072321883E+00  4.154140757E+00 -7.168872146E+01  7.187467448E+01  9.536743164E-07  0.00000E+00  9.000E+00
#rwgt            1           9   1.9559531015259555E-003           6     1988662           0
</event>
<event>
      6   9999  3.45752E-01  9.69184E+00 -1.00000E+00  1.88637E-01
      21    -1     0     0   501   502  0.000000000E+00  0.000000000E+00  1.003976177E+01  1.003976177E+01  0.000000000E+00  0.00000E+00  9.000E+00
      21    -1     0     0   502   512  0.000000000E+00  0.000000000E+00 -8.470057562E+02  8.470057562E+02  0.000000000E+00  0.00000E+00  9.000E+00
      25     1     1     2     0     0  1.348788189E+01  1.304847781E+00 -4.277540641E+02  4.458508874E+02  1.250033954E+02  0.00000E+00  9.000E+00
       5     1     1     2   501     0 -2.090800752E+01 -8.104787437E+00 -2.498096201E+02  2.508590065E+02  4.750000000E+00  0.00000E+00  9.000E+00
      -5     1     1     2     0   503 -1.711848829E+00  3.553593332E+00 -9.583918375E+01  9.603785761E+01  4.750000000E+00  0.00000E+00  9.000E+00
      21     1     1     2   503   512  9.131974452E+00  3.246346323E+00 -6.356312650E+01  6.429776646E+01  0.000000000E+00  0.00000E+00  9.000E+00
#rwgt            1           9   3.1706112278700558                6     1993145           0
</event>
<event>
      6   9999  3.45752E-01  1.00967E+01 -1.00000E+00  1.86754E-01
      21    -1     0     0   502   503  0.000000000E+00  0.000000000E+00  7.839941874E+00  7.839941874E+00  0.000000000E+00  0.00000E+00  9.000E+00
      21    -1     0     0   511   502  0.000000000E+00  0.000000000E+00 -8.081421200E+02  8.081421200E+02  0.000000000E+00  0.00000E+00  9.000E+00
      25     1     1     2     0     0  1.000603319E+01 -5.263639807E+00 -5.851814262E+02  5.984893653E+02  1.249975687E+02  0.00000E+00  9.000E+00
       5     1     1     2   501     0  5.386285756E+00  1.446976540E+00 -9.854571925E+01  9.881764568E+01  4.750000000E+00  0.00000E+00  9.000E+00
      -5     1     1     2     0   503 -5.514508545E+00  5.907760315E+00 -2.802434843E+01  2.955060137E+01  4.750000000E+00  0.00000E+00  9.000E+00
      21     1     1     2   511   501 -9.877810404E+00 -2.091097048E+00 -8.855068420E+01  8.912444949E+01  1.348699152E-06  0.00000E+00  9.000E+00
#rwgt            1           9   2.1996286140126692E-003           6     1995470           0
</event>
<event>
      6   9999  3.45752E-01  3.12782E+00 -1.00000E+00  2.72257E-01
      21    -1     0     0   501   502  0.000000000E+00  0.000000000E+00  8.174706520E+00  8.174706520E+00  0.000000000E+00  0.00000E+00  9.000E+00
      21    -1     0     0   512   503  0.000000000E+00  0.000000000E+00 -8.134371866E+02  8.134371866E+02  0.000000000E+00  0.00000E+00  9.000E+00
      25     1     1     2     0     0  1.252594452E+00 -4.034745630E+00 -7.098317727E+02  7.207663489E+02  1.250005442E+02  0.00000E+00  9.000E+00
       5     1     1     2   501     0  3.085550492E-01  3.608237358E-01  1.195654007E-01  4.775164486E+00  4.750000000E+00  0.00000E+00  9.000E+00
      -5     1     1     2     0   503 -3.069363707E+00  9.337445690E-01 -3.746415370E+01  3.790010798E+01  4.750000000E+00  0.00000E+00  9.000E+00
      21     1     1     2   512   502  1.508214206E+00  2.740177325E+00 -5.808611914E+01  5.817027178E+01  9.536743164E-07  0.00000E+00  9.000E+00
#rwgt            1           9   3.7495988257237038E-002           6     1997554           0
</event>
<event>
      6   9999  3.45752E-01  1.67311E+02 -1.00000E+00  1.11644E-01
       2    -1     0     0   501     0  0.000000000E+00  0.000000000E+00  1.204015264E+02  1.204015264E+02  0.000000000E+00  0.00000E+00  9.000E+00
      21    -1     0     0   511   502  0.000000000E+00  0.000000000E+00 -2.164537423E+03  2.164537423E+03  0.000000000E+00  0.00000E+00  9.000E+00
      25     1     1     2     0     0 -1.423321907E+02  7.515356689E+00 -1.598473649E+03  1.609676389E+03  1.250005514E+02  0.00000E+00  9.000E+00
       5     1     1     2   501     0 -2.149608652E+01  1.076296188E+00 -7.078785968E+01  7.413989295E+01  4.750000000E+00  0.00000E+00  9.000E+00
      -5     1     1     2     0   502 -3.352068392E+00 -1.979527418E+00 -4.261008687E+02  4.261451251E+02  4.750000000E+00  0.00000E+00  9.000E+00
       2     1     1     2   511     0  1.671803456E+02 -6.612125460E+00  5.122648036E+01  1.749775427E+02  5.682170528E-06  0.00000E+00  9.000E+00
#rwgt            1           4   2.3883684131262993E-003           6     2003105           0
</event>
<event>
      6   9999  3.45752E-01  1.91774E+01 -1.00000E+00  1.61615E-01
      21    -1     0     0   501   502  0.000000000E+00  0.000000000E+00  2.815964284E+01  2.815964284E+01  0.000000000E+00  0.00000E+00  9.000E+00
      21    -1     0     0   502   512  0.000000000E+00  0.000000000E+00 -1.153000986E+03  1.153000986E+03  0.000000000E+00  0.00000E+00  9.000E+00
      25     1     1     2     0     0 -8.198313022E+00 -2.515900158E+01 -1.364388943E+02  1.869244431E+02  1.249999513E+02  0.00000E+00  9.000E+00
       5     1     1     2   501     0  3.535421072E-02 -1.425632118E-01 -2.337523716E+00  5.296044874E+00  4.750000000E+00  0.00000E+00  9.000E+00
      -5     1     1     2     0   503  2.778310678E+00  6.895618461E+00 -9.225734451E+02  9.226156256E+02  4.750000000E+00  0.00000E+00  9.000E+00
      21     1     1     2   503   512  5.384648134E+00  1.840594633E+01 -6.349148048E+01  6.632451575E+01  1.168007728E-06  0.00000E+00  9.000E+00
#rwgt            1           9   5.1074654979247497E-004           6     2003260           0
</event>
<event>
      6   9999  3.45752E-01  4.36841E+00 -1.00000E+00  2.40188E-01
      21    -1     0     0   501   502  0.000000000E+00  0.000000000E+00  3.372648938E+01  3.372648938E+01  0.000000000E+00  0.00000E+00  9.000E+00
      21    -1     0     0   511   503  0.000000000E+00  0.000000000E+00 -1.215173697E+03  1.215173697E+03  0.000000000E+00  0.00000E+00  9.000E+00
      25     1     1     2     0     0 -5.686863473E+01 -8.627641506E+00 -9.350156495E+02  9.450823043E+02  1.249712734E+02  0.00000E+00  9.000E+00
       5     1     1     2   501     0  1.025612761E+00 -4.222397721E+00  2.519498450E+01  2.600442785E+01  4.750000000E+00  0.00000E+00  9.000E+00
      -5     1     1     2     0   503  5.170625093E+01  1.425365237E+01 -2.467897966E+02  2.525954655E+02  4.750000000E+00  0.00000E+00  9.000E+00
      21     1     1     2   511   502  4.136771046E+00 -1.403613145E+00 -2.483674564E+01  2.521798839E+01  0.000000000E+00  0.00000E+00  9.000E+00
#rwgt            1           9   9.8698589008357061E-006           6     2005232           0
</event>
<event>
      6   9999  3.45752E-01  2.07308E+01 -1.00000E+00  1.59030E-01
      21    -1     0     0   512   502  0.000000000E+00  0.000000000E+00  9.815840519E+01  9.815840519E+01  0.000000000E+00  0.00000E+00  9.000E+00
      21    -1     0     0   502   503  0.000000000E+00  0.000000000E+00 -3.521027992E+02  3.521027992E+02  0.000000000E+00  0.00000E+00  9.000E+00
      25     1     1     2     0     0 -8.210742775E+01 -4.793188384E+01 -2.360637913E+02  2.835310389E+02  1.249985651E+02  0.00000E+00  9.000E+00
       5     1     1     2   501     0 -4.331217770E+00  1.176826427E+00  4.789242033E+01  4.833622651E+01  4.750000000E+00  0.00000E+00  9.000E+00
      -5     1     1     2     0   503  6.781034178E+01  3.765814744E+01 -5.219587552E+01  9.361276858E+01  4.750000000E+00  0.00000E+00  9.000E+00
      21     1     1     2   512   501  1.862830374E+01  9.096909971E+00 -1.357714753E+01  2.478117040E+01  5.591411304E-07  0.00000E+00  9.000E+00
#rwgt            1           9   1.6708471014446538                6     2010925           0
</event>
<event>
      6   9999 -3.45752E-01  1.10976E+01 -1.00000E+00  1.82552E-01
      21    -1     0     0   502   503  0.000000000E+00  0.000000000E+00  1.081567126E+01  1.081567126E+01  0.000000000E+00  0.00000E+00  9.000E+00
      21    -1     0     0   501   511  0.000000000E+00  0.000000000E+00 -8.531726313E+02  8.531726313E+02  0.000000000E+00  0.00000E+00  9.000E+00
      25     1     1     2     0     0  1.708663676E+01 -2.909524357E+00 -5.135085650E+02  5.287869761E+02  1.249968049E+02  0.00000E+00  9.000E+00
       5     1     1     2   501     0 -5.261714249E+00  1.927121897E+01 -1.458889747E+02  1.473269186E+02  4.750000000E+00  0.00000E+00  9.000E+00
      -5     1     1     2     0   503 -2.066604929E+01 -2.306918360E+01 -1.254520135E+02  1.293060053E+02  4.750000000E+00  0.00000E+00  9.000E+00
      21     1     1     2   502   511  8.841126779E+00  6.707488983E+00 -5.750740686E+01  5.856840253E+01  1.168007728E-06  0.00000E+00  9.000E+00
#rwgt            1           9  -2.6573722536481549E-003           6     2013039           0
</event>
<event>
      6   9999  3.45752E-01  2.45368E+01 -1.00000E+00  1.53716E-01
      21    -1     0     0   501   502  0.000000000E+00  0.000000000E+00  5.244934051E+01  5.244934051E+01  0.000000000E+00  0.00000E+00  9.000E+00
      21    -1     0     0   502   512  0.000000000E+00  0.000000000E+00 -1.534483654E+03  1.534483654E+03  0.000000000E+00  0.00000E+00  9.000E+00
      25     1     1     2     0     0 -1.133782996E+02 -3.270776510E+01 -5.210741254E+02  5.486962327E+02  1.249994997E+02  0.00000E+00  9.000E+00
       5     1     1     2   501     0  1.201036604E+00  3.049648208E-01  3.431666150E+01  3.466599557E+01  4.750000000E+00  0.00000E+00  9.000E+00
      -5     1     1     2     0   503  9.239411501E+01  4.691762886E+01 -7.681894925E+02  7.751616575E+02  4.750000000E+00  0.00000E+00  9.000E+00
      21     1     1     2   503   512  1.978314798E+01 -1.451482858E+01 -2.270873569E+02  2.284091085E+02  0.000000000E+00  0.00000E+00  9.000E+00
#rwgt            1           9   1.4815880964862588E-004           6     2015826           0
</event>
<event>
      6   9999  3.45752E-01  1.76132E+01 -1.00000E+00  1.64541E-01
      21    -1     0     0   501   502  0.000000000E+00  0.000000000E+00  7.866213667E+01  7.866213667E+01  0.000000000E+00  0.00000E+00  9.000E+00
      21    -1     0     0   502   511  0.000000000E+00  0.000000000E+00 -7.963298433E+02  7.963298433E+02  0.000000000E+00  0.00000E+00  9.000E+00
      25     1     1     2     0     0  3.178062958E+01  3.221343843E+01 -4.762210504E+02  4.944300216E+02  1.250073735E+02  0.00000E+00  9.000E+00
       5     1     1     2   501     0  1.642595677E+00  2.255418381E+00  6.637581146E+01  6.660402300E+01  4.750000000E+00  0.00000E+00  9.000E+00
      -5     1     1     2     0   503 -1.586931387E+01 -3.302464364E+01 -1.265828677E+02  1.318645029E+02  4.750000000E+00  0.00000E+00  9.000E+00
      21     1     1     2   503   511 -1.755391139E+01 -1.444213177E+00 -1.812396000E+02  1.820934325E+02  0.000000000E+00  0.00000E+00  9.000E+00
#rwgt            1           9   1.4051779325599241E-004           6     2018380           0
</event>
<event>
      6   9999  3.45752E-01  8.09870E+00 -1.00000E+00  1.97387E-01
      21    -1     0     0   501   502  0.000000000E+00  0.000000000E+00  6.038198941E+01  6.038198941E+01  0.000000000E+00  0.00000E+00  9.000E+00
       3    -1     0     0   502     0  0.000000000E+00  0.000000000E+00 -5.618781018E+02  5.618781018E+02  0.000000000E+00  0.00000E+00  9.000E+00
      25     1     1     2     0     0 -6.999676036E+01 -2.020122745E+01 -1.013742229E+02  1.766614898E+02  1.249996514E+02  0.00000E+00  9.000E+00
       5     1     1     2   501     0 -4.611794635E-01 -7.301053115E-01  1.348565616E+01  1.432379707E+01  4.750000000E+00  0.00000E+00  9.000E+00
      -5     1     1     2     0   503  6.236852082E+01  2.131895097E+01 -1.155829735E+02  1.331402130E+02  4.750000000E+00  0.00000E+00  9.000E+00
       3     1     1     2   503     0  8.089418995E+00 -3.876182112E-01 -2.980245722E+02  2.981345914E+02  5.394796609E-06  0.00000E+00  9.000E+00
#rwgt            1           9   7.2239225477875298E-004           6     2021227           0
</event>
<event>
      6   9999  3.45752E-01  1.17335E+01 -1.00000E+00  1.80165E-01
      21    -1     0     0   501   502  0.000000000E+00  0.000000000E+00  7.605843524E+01  7.605843524E+01  0.000000000E+00  0.00000E+00  9.000E+00
      21    -1     0     0   502   511  0.000000000E+00  0.000000000E+00 -1.556676281E+02  1.556676281E+02  0.000000000E+00  0.00000E+00  9.000E+00
      25     1     1     2     0     0 -3.154919662E+01  4.450305402E+00 -9.632799370E+01  1.609948698E+02  1.250004348E+02  0.00000E+00  9.000E+00
       5     1     1     2   501     0  7.835521308E-01  1.279336133E+00  1.411205500E+01  1.496540180E+01  4.750000000E+00  0.00000E+00  9.000E+00
      -5     1     1     2     0   503  2.861595955E+01  5.805254589E+00  1.932903130E+01  3.533762970E+01  4.750000000E+00  0.00000E+00  9.000E+00
      21     1     1     2   503   511  2.149684936E+00 -1.153489612E+01 -1.672228547E+01  2.042816207E+01  4.129530925E-07  0.00000E+00  9.000E+00
#rwgt            1           9   1.3109788983101860E-003           6     2024339           0
</event>
<event>
      6   9999  3.45752E-01  2.56750E+01 -1.00000E+00  1.52349E-01
      21    -1     0     0   512   502  0.000000000E+00  0.000000000E+00  7.612069617E+02  7.612069617E+02  0.000000000E+00  0.00000E+00  9.000E+00
      21    -1     0     0   502   503  0.000000000E+00  0.000000000E+00 -2.919947278E+03  2.919947278E+03  0.000000000E+00  0.00000E+00  9.000E+00
      25     1     1     2     0     0  1.352117534E+01 -9.642505356E+00 -2.706760614E+03  2.709696200E+03  1.249987093E+02  0.00000E+00  9.000E+00
       5     1     1     2   501     0 -2.762027606E+01  1.532581276E+01  4.881104473E+01  5.833387330E+01  4.750000000E+00  0.00000E+00  9.000E+00
      -5     1     1     2     0   503 -1.089974843E+01  1.702798275E-01 -2.065530286E+02  2.068950209E+02  4.750000000E+00  0.00000E+00  9.000E+00
      21     1     1     2   512   501  2.499884915E+01 -5.853587236E+00  7.057622817E+02  7.062291450E+02  1.868812365E-05  0.00000E+00  9.000E+00
#rwgt            1           9   1.0963096594730069E-004           6     2026801           0
</event>
<event>
      6   9999  3.45752E-01  9.13832E+00 -1.00000E+00  1.91412E-01
      21    -1     0     0   501   502  0.000000000E+00  0.000000000E+00  4.043158870E+01  4.043158870E+01  0.000000000E+00  0.00000E+00  9.000E+00
      21    -1     0     0   502   511  0.000000000E+00  0.000000000E+00 -2.978778147E+02  2.978778147E+02  0.000000000E+00  0.00000E+00  9.000E+00
      25     1     1     2     0     0  7.900376857E+00 -1.648536188E+00 -2.232729033E+02  2.560092301E+02  1.249992118E+02  0.00000E+00  9.000E+00
       5     1     1     2   501     0 -4.955884995E-01 -8.246961871E-01  2.288412787E+01  2.339169810E+01  4.750000000E+00  0.00000E+00  9.000E+00
      -5     1     1     2     0   503  1.280291301E+00 -3.690040213E-01 -1.280789646E+01  1.372516016E+01  4.750000000E+00  0.00000E+00  9.000E+00
      21     1     1     2   503   511 -8.685079658E+00  2.842236396E+00 -4.424955411E+01  4.518331501E+01  4.768371582E-07  0.00000E+00  9.000E+00
#rwgt            1           9  0.41495613337351173                6     2029694           0
</event>
<event>
      6   9999  3.45752E-01  4.34206E+00 -1.00000E+00  2.40698E-01
      21    -1     0     0   501   502  0.000000000E+00  0.000000000E+00  1.286059008E+02  1.286059008E+02  0.000000000E+00  0.00000E+00  9.000E+00
      21    -1     0     0   512   503  0.000000000E+00  0.000000000E+00 -1.750486271E+02  1.750486271E+02  0.000000000E+00  0.00000E+00  9.000E+00
      25     1     1     2     0     0  3.231475289E+00  5.018376265E-01  7.533370658E+01  1.459831853E+02  1.250009151E+02  0.00000E+00  9.000E+00
       5     1     1     2   501     0  1.944140547E-01  2.709428367E-01  1.466807426E+01  1.542161176E+01  4.750000000E+00  0.00000E+00  9.000E+00
      -5     1     1     2     0   503  5.332759683E-01 -2.555621602E+00  3.074400898E-01  5.428867694E+00  4.750000000E+00  0.00000E+00  9.000E+00
      21     1     1     2   512   502 -3.959165312E+00  1.782841139E+00 -1.367519472E+02  1.368208631E+02  0.000000000E+00  0.00000E+00  9.000E+00
#rwgt            1           9   2.9885852100775826E-002           6     2032721           0
</event>
<event>
      6   9999  3.45752E-01  1.55647E+01 -1.00000E+00  1.68992E-01
       2    -1     0     0   501     0  0.000000000E+00  0.000000000E+00  3.174053026E+03  3.174053026E+03  0.000000000E+00  0.00000E+00  9.000E+00
      21    -1     0     0   511   502  0.000000000E+00  0.000000000E+00 -2.098424487E+01  2.098424487E+01  0.000000000E+00  0.00000E+00  9.000E+00
      25     1     1     2     0     0 -5.720450528E+01 -1.013032279E+02  5.256438661E+02  5.526859839E+02  1.250024934E+02  0.00000E+00  9.000E+00
       5     1     1     2   501     0 -1.536621473E+00  6.269710161E+01  1.881294139E+03  1.882345209E+03  4.750000000E+00  0.00000E+00  9.000E+00
      -5     1     1     2     0   502  5.513708354E+01  5.374778676E+01  7.387728144E+02  7.427898467E+02  4.750000000E+00  0.00000E+00  9.000E+00
       2     1     1     2   511     0  3.604043213E+00 -1.514166045E+01  7.357961820E+00  1.721623103E+01  6.019774043E-07  0.00000E+00  9.000E+00
#rwgt            1           4   4.5855544269624184E-004           6     2036455           0
</event>
<event>
      6   9999  3.45752E-01  3.34440E+01 -1.00000E+00  1.44848E-01
      21    -1     0     0   501   502  0.000000000E+00  0.000000000E+00  8.121080831E+00  8.121080831E+00  0.000000000E+00  0.00000E+00  9.000E+00
      21    -1     0     0   512   503  0.000000000E+00  0.000000000E+00 -1.226171397E+03  1.226171397E+03  0.000000000E+00  0.00000E+00  9.000E+00
      25     1     1     2     0     0 -1.672894262E+01 -1.495917024E+01 -5.890500237E+02  6.025855896E+02  1.250033122E+02  0.00000E+00  9.000E+00
       5     1     1     2   501     0 -8.148926994E-01 -6.799903739E-01 -2.075856534E+01  2.132151430E+01  4.750000000E+00  0.00000E+00  9.000E+00
      -5     1     1     2     0   503 -7.923527722E+00 -6.038329901E+00 -5.297820053E+01  5.411557956E+01  4.750000000E+00  0.00000E+00  9.000E+00
      21     1     1     2   512   502  2.546736304E+01  2.167749052E+01 -5.552635261E+02  5.562697939E+02  7.629394531E-06  0.00000E+00  9.000E+00
#rwgt            1           9   1.6707291362429302E-004           6     2036867           0
</event>
<event>
      6   9999  3.45752E-01  1.33231E+01 -1.00000E+00  1.74958E-01
      21    -1     0     0   511   502  0.000000000E+00  0.000000000E+00  7.008354209E+01  7.008354209E+01  0.000000000E+00  0.00000E+00  9.000E+00
      21    -1     0     0   502   503  0.000000000E+00  0.000000000E+00 -1.144665633E+02  1.144665633E+02  0.000000000E+00  0.00000E+00  9.000E+00
      25     1     1     2     0     0  6.058869884E+00 -2.023399593E+01 -6.783029616E+01  1.437320192E+02  1.249472680E+02  0.00000E+00  9.000E+00
       5     1     1     2   501     0 -1.211834224E-01 -3.675921016E-01  1.146835867E+01  1.241916100E+01  4.750000000E+00  0.00000E+00  9.000E+00
      -5     1     1     2     0   503 -8.523168016E+00  7.531753150E+00  7.005259138E+00  1.417772387E+01  4.750000000E+00  0.00000E+00  9.000E+00
      21     1     1     2   511   501  2.585481554E+00  1.306983489E+01  4.973657187E+00  1.422120124E+01  1.032382731E-07  0.00000E+00  9.000E+00
#rwgt            1           9   2.2003835745839373                6     2037543           0
</event>
<event>
      6   9999  3.45752E-01  6.11336E+00 -1.00000E+00  2.12932E-01
      -1    -1     0     0     0   502  0.000000000E+00  0.000000000E+00  4.795989962E+01  4.795989962E+01  0.000000000E+00  0.00000E+00  9.000E+00
      21    -1     0     0   502   503  0.000000000E+00  0.000000000E+00 -1.823803326E+03  1.823803326E+03  0.000000000E+00  0.00000E+00  9.000E+00
      25     1     1     2     0     0 -5.626605623E+01  3.015631624E+01 -9.228130398E+02  9.334264497E+02  1.250030330E+02  0.00000E+00  9.000E+00
       5     1     1     2   501     0 -1.193888551E+00 -2.170243130E+00  1.982493642E+01  2.053596672E+01  4.750000000E+00  0.00000E+00  9.000E+00
      -5     1     1     2     0   503  5.645809257E+01 -2.195536249E+01 -8.938608633E+02  8.959237465E+02  4.750000000E+00  0.00000E+00  9.000E+00
      -1     1     1     2     0   501  1.001852208E+00 -6.030710620E+00  2.100553989E+01  2.187706298E+01  4.129530925E-07  0.00000E+00  9.000E+00
#rwgt            1           9   1.7121445099188030E-003           6     2039507           0
</event>
<event>
      6   9999  3.45752E-01  1.99863E+01 -1.00000E+00  1.60233E-01
      21    -1     0     0   502   511  0.000000000E+00  0.000000000E+00  1.108799555E+01  1.108799555E+01  0.000000000E+00  0.00000E+00  9.000E+00
      21    -1     0     0   501   502  0.000000000E+00  0.000000000E+00 -9.534786340E+02  9.534786340E+02  0.000000000E+00  0.00000E+00  9.000E+00
      25     1     1     2     0     0  2.172614073E+01 -2.035150469E+01 -7.858637296E+02  7.962996157E+02  1.250002697E+02  0.00000E+00  9.000E+00
       5     1     1     2   501     0  6.070067529E+00  2.018861302E+01 -7.851356800E+01  8.143321605E+01  4.750000000E+00  0.00000E+00  9.000E+00
      -5     1     1     2     0   503 -9.549393341E+00  8.317977668E+00 -1.278349024E+01  1.861074390E+01  4.750000000E+00  0.00000E+00  9.000E+00
      21     1     1     2   503   511 -1.824681492E+01 -8.155085994E+00 -6.522985053E+01  6.822305389E+01  9.536743164E-07  0.00000E+00  9.000E+00
#rwgt            1           9   4560.7099202064910                6     2044475           0
</event>
<event>
      6   9999  3.45752E-01  1.59131E+01 -1.00000E+00  1.68177E-01
      21    -1     0     0   501   502  0.000000000E+00  0.000000000E+00  2.959147870E+01  2.959147870E+01  0.000000000E+00  0.00000E+00  9.000E+00
      21    -1     0     0   512   503  0.000000000E+00  0.000000000E+00 -1.428581292E+03  1.428581292E+03  0.000000000E+00  0.00000E+00  9.000E+00
      25     1     1     2     0     0 -9.033070604E+01 -1.299596125E+01 -2.660834950E+02  3.078216724E+02  1.250008970E+02  0.00000E+00  9.000E+00
       5     1     1     2   501     0 -4.845134379E-01  3.568825837E+00  5.132488173E+00  7.866143017E+00  4.750000000E+00  0.00000E+00  9.000E+00
      -5     1     1     2     0   503  8.161584587E+01  2.241171734E+01 -9.644982348E+02  9.682163181E+02  4.750000000E+00  0.00000E+00  9.000E+00
      21     1     1     2   512   502  9.199373602E+00 -1.298458192E+01 -1.735405715E+02  1.742686369E+02  1.907348633E-06  0.00000E+00  9.000E+00
#rwgt            1           9   5.7341506846429734E-005           6     2045952           0
</event>
<event>
      6   9999  3.45752E-01  7.29014E+00 -1.00000E+00  2.02916E-01
      21    -1     0     0   501   502  0.000000000E+00  0.000000000E+00  1.770391019E+01  1.770391019E+01  0.000000000E+00  0.00000E+00  9.000E+00
      21    -1     0     0   502   511  0.000000000E+00  0.000000000E+00 -1.001025713E+03  1.001025713E+03  0.000000000E+00  0.00000E+00  9.000E+00
      25     1     1     2     0     0 -4.435113762E+00  2.065229192E+00 -8.384885354E+02  8.477682216E+02  1.249959926E+02  0.00000E+00  9.000E+00
       5     1     1     2   501     0 -3.328229097E+00 -2.998084417E+00  1.193106810E+01  1.360068032E+01  4.750000000E+00  0.00000E+00  9.000E+00
      -5     1     1     2     0   503  5.581242625E-01 -1.766576311E-01 -1.021397231E+02  1.022517885E+02  4.750000000E+00  0.00000E+00  9.000E+00
      21     1     1     2   503   511  7.205218597E+00  1.109512856E+00 -5.462461265E+01  5.510893304E+01  6.743495762E-07  0.00000E+00  9.000E+00
#rwgt            1           9   1.6731677670758251E-006           6     2048476           0
</event>
<event>
      6   9999  3.45752E-01  4.60504E+00 -1.00000E+00  2.35833E-01
      21    -1     0     0   501   502  0.000000000E+00  0.000000000E+00  3.543876603E+03  3.543876603E+03  0.000000000E+00  0.00000E+00  9.000E+00
      21    -1     0     0   512   503  0.000000000E+00  0.000000000E+00 -5.066094429E+00  5.066094429E+00  0.000000000E+00  0.00000E+00  9.000E+00
      25     1     1     2     0     0 -6.154139998E+00 -5.493157342E+00  9.343045905E+02  9.426648499E+02  1.249956131E+02  0.00000E+00  9.000E+00
       5     1     1     2   501     0  2.506157638E+00  1.579651504E+00  2.534253867E+03  2.534260050E+03  4.750000000E+00  0.00000E+00  9.000E+00
      -5     1     1     2     0   503 -8.172030847E-01  2.787235097E+00  6.405779886E+01  6.429930478E+01  4.750000000E+00  0.00000E+00  9.000E+00
      21     1     1     2   512   502  4.465185445E+00  1.126270740E+00  6.194251515E+00  7.718491995E+00  5.840038640E-07  0.00000E+00  9.000E+00
#rwgt            1           9   1.2418420953540354E-003           6     2052018           0
</event>
<event>
      6   9999  3.45752E-01  1.50341E+01 -1.00000E+00  1.70286E-01
       2    -1     0     0   501     0  0.000000000E+00  0.000000000E+00  3.141449429E+02  3.141449429E+02  0.000000000E+00  0.00000E+00  9.000E+00
      21    -1     0     0   502   503  0.000000000E+00  0.000000000E+00 -8.767907368E+02  8.767907368E+02  0.000000000E+00  0.00000E+00  9.000E+00
      25     1     1     2     0     0  3.315710789E+01  4.920303153E+01 -4.471484635E+02  4.680678159E+02  1.250015991E+02  0.00000E+00  9.000E+00
       5     1     1     2   501     0 -4.832023361E+01 -5.021364829E+01 -3.769946316E+02  3.834107070E+02  4.750000000E+00  0.00000E+00  9.000E+00
      -5     1     1     2     0   503  1.383415231E-01  4.809969790E-01 -3.864475889E+01  3.893880309E+01  4.750000000E+00  0.00000E+00  9.000E+00
       2     1     1     2   502     0  1.502478420E+01  5.296197828E-01  3.001420602E+02  3.005183537E+02  3.814697266E-06  0.00000E+00  9.000E+00
#rwgt            1           9  0.15369753163306149                6     2056950           0
</event>
<event>
      6   9999  3.45752E-01  6.00081E+00 -1.00000E+00  2.14050E-01
      21    -1     0     0   501   502  0.000000000E+00  0.000000000E+00  1.711347272E+00  1.711347272E+00  0.000000000E+00  0.00000E+00  9.000E+00
       1    -1     0     0   502     0  0.000000000E+00  0.000000000E+00 -3.624169415E+03  3.624169415E+03  0.000000000E+00  0.00000E+00  9.000E+00
      25     1     1     2     0     0 -4.770708762E-01 -9.842252333E+00 -3.134516701E+03  3.137023045E+03  1.249861621E+02  0.00000E+00  9.000E+00
       5     1     1     2   501     0  8.150185919E-01 -5.388294893E-01 -1.614262531E+01  1.685530909E+01  4.750000000E+00  0.00000E+00  9.000E+00
      -5     1     1     2     0   503  2.667117932E+00  5.186927236E+00 -2.093953187E+02  2.095303790E+02  4.750000000E+00  0.00000E+00  9.000E+00
       1     1     1     2   503     0 -3.005065648E+00  5.194154586E+00 -2.624034234E+02  2.624720295E+02  3.814697266E-06  0.00000E+00  9.000E+00
#rwgt            1           9   1.5078237189133474E-003           6     2059055           0
</event>
<event>
      6   9999  3.45752E-01  1.12088E+01 -1.00000E+00  1.82120E-01
      21    -1     0     0   501   511  0.000000000E+00  0.000000000E+00  9.118865356E+00  9.118865356E+00  0.000000000E+00  0.00000E+00  9.000E+00
      21    -1     0     0   502   503  0.000000000E+00  0.000000000E+00 -7.291545934E+02  7.291545934E+02  0.000000000E+00  0.00000E+00  9.000E+00
      25     1     1     2     0     0  7.674678003E+00 -1.256003621E+01 -5.691568136E+02  5.829016050E+02  1.249725866E+02  0.00000E+00  9.000E+00
       5     1     1     2   501     0 -4.968408221E+00  7.660494537E+00 -4.965055186E+01  5.070609487E+01  4.750000000E+00  0.00000E+00  9.000E+00
      -5     1     1     2     0   503 -1.200156411E+01 -1.364308648E+00 -7.541628112E+01  7.652500793E+01  4.750000000E+00  0.00000E+00  9.000E+00
      21     1     1     2   502   511  9.295294332E+00  6.263850324E+00 -2.581208141E+01  2.814075096E+01  0.000000000E+00  0.00000E+00  9.000E+00
#rwgt            1           9   2.6172472468983886E-004           6     2062230           0
</event>
<event>
      6   9999  3.45752E-01  2.15483E+01 -1.00000E+00  1.57777E-01
      21    -1     0     0   501   502  0.000000000E+00  0.000000000E+00  1.398725476E+01  1.398725476E+01  0.000000000E+00  0.00000E+00  9.000E+00
      21    -1     0     0   512   503  0.000000000E+00  0.000000000E+00 -1.298694821E+03  1.298694821E+03  0.000000000E+00  0.00000E+00  9.000E+00
      25     1     1     2     0     0 -6.572552075E+01  7.193879522E+00 -6.527911565E+02  6.679311201E+02  1.249963649E+02  0.00000E+00  9.000E+00
       5     1     1     2   501     0  4.369363588E+01 -2.624440355E+01 -1.104200961E+02  1.217089259E+02  4.750000000E+00  0.00000E+00  9.000E+00
      -5     1     1     2     0   503  2.457558194E+00  1.004077129E+01 -6.163222466E+01  6.267336194E+01  4.750000000E+00  0.00000E+00  9.000E+00
      21     1     1     2   512   502  1.957432668E+01  9.009752740E+00 -4.598640889E+02  4.603686676E+02  0.000000000E+00  0.00000E+00  9.000E+00
#rwgt            1           9   8.1416968969907147E-002           6     2064062           0
</event>
<event>
      6   9999  3.45752E-01  3.74279E+01 -1.00000E+00  1.41881E-01
      21    -1     0     0   501   502  0.000000000E+00  0.000000000E+00  1.802006827E+01  1.802006827E+01  0.000000000E+00  0.00000E+00  9.000E+00
      21    -1     0     0   511   503  0.000000000E+00  0.000000000E+00 -1.253494653E+03  1.253494653E+03  0.000000000E+00  0.00000E+00  9.000E+00
      25     1     1     2     0     0 -3.765282555E+00 -1.247520367E+01 -8.743949904E+02  8.833809721E+02  1.250021382E+02  0.00000E+00  9.000E+00
       5     1     1     2   501     0  2.816875832E+01  1.924484891E+01 -1.823397716E+01  3.897285694E+01  4.750000000E+00  0.00000E+00  9.000E+00
      -5     1     1     2     0   503  1.293988410E+01 -9.284408110E+00 -3.188874123E+01  3.595963225E+01  4.750000000E+00  0.00000E+00  9.000E+00
      21     1     1     2   511   502 -3.734335987E+01  2.514762867E+00 -3.109568762E+02  3.132012602E+02  5.394796609E-06  0.00000E+00  9.000E+00
#rwgt            1           9   1.1825638366968911E-004           6     2065261           0
</event>
<event>
      6   9999  3.45752E-01  2.37152E+01 -1.00000E+00  1.54760E-01
      21    -1     0     0   501   502  0.000000000E+00  0.000000000E+00  8.126087199E+01  8.126087199E+01  0.000000000E+00  0.00000E+00  9.000E+00
       3    -1     0     0   502     0  0.000000000E+00  0.000000000E+00 -1.892787823E+03  1.892787823E+03  0.000000000E+00  0.00000E+00  9.000E+00
      25     1     1     2     0     0 -2.173818189E+02 -1.728371073E+02 -4.111871951E+02  5.116909256E+02  1.250006925E+02  0.00000E+00  9.000E+00
       5     1     1     2   501     0 -3.108044917E+01 -4.481875060E+01 -1.098297683E+02  1.227186018E+02  4.750000000E+00  0.00000E+00  9.000E+00
      -5     1     1     2     0   503  2.271002134E+02  2.073567095E+02 -9.552606501E+02  1.003552083E+03  4.750000000E+00  0.00000E+00  9.000E+00
       3     1     1     2   503     0  2.136205461E+01  1.029914842E+01 -3.352493375E+02  3.360870841E+02  5.394796609E-06  0.00000E+00  9.000E+00
#rwgt            1           9   1.3365740985869358E-002           6     2066144           0
</event>
<event>
      6   9999  3.45752E-01  3.05809E+00 -1.00000E+00  2.74751E-01
      21    -1     0     0   501   511  0.000000000E+00  0.000000000E+00  1.865840286E+01  1.865840286E+01  0.000000000E+00  0.00000E+00  9.000E+00
      21    -1     0     0   502   503  0.000000000E+00  0.000000000E+00 -7.162160099E+02  7.162160099E+02  0.000000000E+00  0.00000E+00  9.000E+00
      25     1     1     2     0     0  2.917221820E+00  1.056112289E+01 -6.409877976E+02  6.531573459E+02  1.250164563E+02  0.00000E+00  9.000E+00
       5     1     1     2   501     0 -1.100721604E+00 -2.823980483E-01 -7.385768635E-04  4.884039031E+00  4.750000000E+00  0.00000E+00  9.000E+00
      -5     1     1     2     0   503 -4.787639410E+00 -1.100278236E+01 -6.582855401E+01  6.708161994E+01  4.750000000E+00  0.00000E+00  9.000E+00
      21     1     1     2   502   511  2.971139194E+00  7.240575096E-01  9.259483146E+00  9.751407874E+00  6.529361695E-07  0.00000E+00  9.000E+00
#rwgt            1           9   9.6196027085620375E-002           6     2068846           0
</event>
<event>
      6   9999  3.45752E-01  6.42011E+00 -1.00000E+00  2.10044E-01
      21    -1     0     0   512   502  0.000000000E+00  0.000000000E+00  4.323615404E+01  4.323615404E+01  0.000000000E+00  0.00000E+00  9.000E+00
      21    -1     0     0   502   503  0.000000000E+00  0.000000000E+00 -1.233509853E+03  1.233509853E+03  0.000000000E+00  0.00000E+00  9.000E+00
      25     1     1     2     0     0 -1.250644531E+01  3.287541658E+01 -4.527333901E+02  4.709896604E+02  1.250061336E+02  0.00000E+00  9.000E+00
       5     1     1     2   501     0  7.919724089E+00  1.885165736E-01  2.909291641E+01  3.052405369E+01  4.750000000E+00  0.00000E+00  9.000E+00
      -5     1     1     2     0   503  4.047756708E+00 -3.946138057E+01 -7.676873416E+02  7.687262203E+02  4.750000000E+00  0.00000E+00  9.000E+00
      21     1     1     2   512   501  5.389645084E-01  6.397447415E+00  1.054116616E+00  6.506072395E+00  1.666000469E-07  0.00000E+00  9.000E+00
#rwgt            1           9   4.1392334897814863E-005           6     2074135           0
</event>
<event>
      6   9999 -3.45752E-01  4.95914E+00 -1.00000E+00  2.29991E-01
      21    -1     0     0   501   511  0.000000000E+00  0.000000000E+00  1.083001837E+01  1.083001837E+01  0.000000000E+00  0.00000E+00  9.000E+00
      21    -1     0     0   502   503  0.000000000E+00  0.000000000E+00 -7.579346365E+02  7.579346365E+02  0.000000000E+00  0.00000E+00  9.000E+00
      25     1     1     2     0     0  3.884331861E+00 -9.072619301E+00 -5.119229223E+02  5.270590050E+02  1.250148630E+02  0.00000E+00  9.000E+00
       5     1     1     2   501     0 -1.577582334E-02 -3.936766217E-02 -3.986242181E+00  6.201163231E+00  4.750000000E+00  0.00000E+00  9.000E+00
      -5     1     1     2     0   503 -1.809722552E+00  4.600421148E+00 -2.303761385E+02  2.304781263E+02  4.750000000E+00  0.00000E+00  9.000E+00
      21     1     1     2   502   511 -2.058833485E+00  4.511565816E+00 -8.193151455E-01  5.026360387E+00  1.772549339E-07  0.00000E+00  9.000E+00
#rwgt            1           9  -1.0641581378309922E-003           6     2078603           0
</event>
<event>
      6   9999  3.45752E-01  6.53997E+00 -1.00000E+00  2.08974E-01
      21    -1     0     0   512   502  0.000000000E+00  0.000000000E+00  3.412550755E+01  3.412550755E+01  0.000000000E+00  0.00000E+00  9.000E+00
      21    -1     0     0   502   503  0.000000000E+00  0.000000000E+00 -2.958429932E+02  2.958429932E+02  0.000000000E+00  0.00000E+00  9.000E+00
      25     1     1     2     0     0 -4.419308263E+00  2.841725918E+00 -2.681070848E+02  2.958609459E+02  1.249987390E+02  0.00000E+00  9.000E+00
       5     1     1     2   501     0  6.317395558E-01  1.149569208E-01  1.057300352E+01  1.160875589E+01  4.750000000E+00  0.00000E+00  9.000E+00
      -5     1     1     2     0   503 -1.674127859E+00  6.406836772E-01 -1.156889230E+01  1.263388098E+01  4.750000000E+00  0.00000E+00  9.000E+00
      21     1     1     2   512   501  5.461696566E+00 -3.597366516E+00  7.385487866E+00  9.864917954E+00  3.153981341E-07  0.00000E+00  9.000E+00
#rwgt            1           9   8.1545150626664929E-003           6     2082771           0
</event>
<event>
      6   9999 -3.45752E-01  1.36288E+01 -1.00000E+00  1.74060E-01
      21    -1     0     0   501   511  0.000000000E+00  0.000000000E+00  4.031680999E+01  4.031680999E+01  0.000000000E+00  0.00000E+00  9.000E+00
      21    -1     0     0   502   503  0.000000000E+00  0.000000000E+00 -1.026692924E+03  1.026692924E+03  0.000000000E+00  0.00000E+00  9.000E+00
      25     1     1     2     0     0  6.686179719E+01 -2.615488468E+01 -2.342667903E+02  2.750681565E+02  1.250079349E+02  0.00000E+00  9.000E+00
       5     1     1     2   501     0 -1.689513834E+01 -3.579014523E+00 -1.875223236E+02  1.883757931E+02  4.750000000E+00  0.00000E+00  9.000E+00
      -5     1     1     2     0   503 -4.338877897E+01  4.167027331E+01 -5.799199922E+02  5.830512479E+02  4.750000000E+00  0.00000E+00  9.000E+00
      21     1     1     2   502   511 -6.577879871E+00 -1.193637411E+01  1.533299254E+01  2.051453608E+01  1.039242493E-06  0.00000E+00  9.000E+00
#rwgt            1           9  -1.4878847728997125E-002           6     2086553           0
</event>
<event>
      6   9999 -3.45752E-01  3.98067E+00 -1.00000E+00  2.48286E-01
      21    -1     0     0   512   502  0.000000000E+00  0.000000000E+00  2.327890867E+02  2.327890867E+02  0.000000000E+00  0.00000E+00  9.000E+00
      21    -1     0     0   502   503  0.000000000E+00  0.000000000E+00 -1.840363204E+02  1.840363204E+02  0.000000000E+00  0.00000E+00  9.000E+00
      25     1     1     2     0     0  8.146864925E+00  8.123638647E+00 -1.593135345E+02  2.028260319E+02  1.250009282E+02  0.00000E+00  9.000E+00
       5     1     1     2   501     0 -4.022981902E+00  1.548417749E+00  4.117640417E+01  4.167302175E+01  4.750000000E+00  0.00000E+00  9.000E+00
      -5     1     1     2     0   503 -7.916819312E+00 -8.463998085E+00  1.187254315E+01  1.725789884E+01  4.750000000E+00  0.00000E+00  9.000E+00
      21     1     1     2   512   501  3.792936289E+00 -1.208058311E+00  1.550173534E+02  1.550684546E+02  1.907348633E-06  0.00000E+00  9.000E+00
#rwgt            1           9  -1.6934555651505695E-003           6     2089346           0
</event>
<event>
      6   9999  3.45752E-01  1.57072E+01 -1.00000E+00  1.68656E-01
      21    -1     0     0   501   502  0.000000000E+00  0.000000000E+00  6.596466918E+01  6.596466918E+01  0.000000000E+00  0.00000E+00  9.000E+00
      21    -1     0     0   511   503  0.000000000E+00  0.000000000E+00 -1.404643430E+03  1.404643430E+03  0.000000000E+00  0.00000E+00  9.000E+00
      25     1     1     2     0     0  8.437510402E+00 -1.378297110E+01 -1.395541024E+02  1.880483732E+02  1.250027251E+02  0.00000E+00  9.000E+00
       5     1     1     2   501     0  2.356301055E+00  8.120670081E+00  4.026839453E+01  4.141984470E+01  4.750000000E+00  0.00000E+00  9.000E+00
      -5     1     1     2     0   503 -1.499098097E+01  2.079829992E+01 -2.080887839E+02  2.097160063E+02  4.750000000E+00  0.00000E+00  9.000E+00
      21     1     1     2   511   502  4.197169509E+00 -1.513599890E+01 -1.031304269E+03  1.031423875E+03  0.000000000E+00  0.00000E+00  9.000E+00
#rwgt            1           9   3.0807318580159478E-005           6     2094930           0
</event>
<event>
      6   9999  3.45752E-01  4.21647E+00 -1.00000E+00  2.43206E-01
       1    -1     0     0   501     0  0.000000000E+00  0.000000000E+00  3.735955465E+02  3.735955465E+02  0.000000000E+00  0.00000E+00  9.000E+00
      21    -1     0     0   502   503  0.000000000E+00  0.000000000E+00 -1.121824999E+02  1.121824999E+02  0.000000000E+00  0.00000E+00  9.000E+00
      25     1     1     2     0     0  1.123753934E+01  3.540479619E+00 -5.917130846E+01  1.387962402E+02  1.249973410E+02  0.00000E+00  9.000E+00
       5     1     1     2   501     0 -3.166530346E+00 -1.737947659E+00 -1.493012061E+00  6.151338189E+00  4.750000000E+00  0.00000E+00  9.000E+00
      -5     1     1     2     0   503 -5.890346070E+00 -5.411319259E+00 -7.052339191E+00  1.167375437E+01  4.750000000E+00  0.00000E+00  9.000E+00
       1     1     1     2   502     0 -2.180662924E+00  3.608787300E+00  3.291297063E+02  3.291567137E+02  0.000000000E+00  0.00000E+00  9.000E+00
#rwgt            1           9  0.17815678707225965                6     2098222           0
</event>
<event>
      6   9999  3.45752E-01  4.88522E+01 -1.00000E+00  1.35329E-01
      21    -1     0     0   501   502  0.000000000E+00  0.000000000E+00  6.930778078E+02  6.930778078E+02  0.000000000E+00  0.00000E+00  9.000E+00
      21    -1     0     0   511   503  0.000000000E+00  0.000000000E+00 -3.457882208E+02  3.457882208E+02  0.000000000E+00  0.00000E+00  9.000E+00
      25     1     1     2     0     0 -4.423465945E+01 -4.630831384E+01  3.386428457E+02  3.666161186E+02  1.250089455E+02  0.00000E+00  9.000E+00
       5     1     1     2   501     0 -3.348985994E+00 -1.166383005E-01  3.312140497E+02  3.312650578E+02  4.750000000E+00  0.00000E+00  9.000E+00
      -5     1     1     2     0   503  7.768501529E-01  6.041282184E+01 -1.544886287E+02  1.659506295E+02  4.750000000E+00  0.00000E+00  9.000E+00
      21     1     1     2   511   502  4.680679529E+01 -1.398786969E+01 -1.680786796E+02  1.750342227E+02  5.046370146E-06  0.00000E+00  9.000E+00
#rwgt            1           9   5.2857766954990664E-004           6     2102146           0
</event>
<event>
      6   9999  3.45752E-01  9.20169E+00 -1.00000E+00  1.91082E-01
      21    -1     0     0   501   502  0.000000000E+00  0.000000000E+00  2.269693484E+01  2.269693484E+01  0.000000000E+00  0.00000E+00  9.000E+00
      21    -1     0     0   512   503  0.000000000E+00  0.000000000E+00 -1.115652457E+03  1.115652457E+03  0.000000000E+00  0.00000E+00  9.000E+00
      25     1     1     2     0     0 -3.986002990E+01  1.649609770E+01 -3.415903087E+02  3.662894127E+02  1.249922062E+02  0.00000E+00  9.000E+00
       5     1     1     2   501     0  1.522034666E+00 -2.825387133E+00  8.248836294E+00  1.004515815E+01  4.750000000E+00  0.00000E+00  9.000E+00
      -5     1     1     2     0   503  4.747467012E+01 -1.476264700E+01 -6.882985416E+02  6.901081256E+02  4.750000000E+00  0.00000E+00  9.000E+00
      21     1     1     2   512   502 -9.136674890E+00  1.091936436E+00 -7.131550777E+01  7.190669511E+01  9.536743164E-07  0.00000E+00  9.000E+00
#rwgt            1           9   1.6136796508594987E-002           6     2103715           0
</event>
<event>
      6   9999 -3.45752E-01  6.89252E+00 -1.00000E+00  2.05999E-01
      21    -1     0     0   501   502  0.000000000E+00  0.000000000E+00  9.908491827E+00  9.908491827E+00  0.000000000E+00  0.00000E+00  9.000E+00
      21    -1     0     0   511   503  0.000000000E+00  0.000000000E+00 -2.872890709E+03  2.872890709E+03  0.000000000E+00  0.00000E+00  9.000E+00
      25     1     1     2     0     0  6.196161992E+01 -9.443996241E+00 -2.168364870E+03  2.172868486E+03  1.249912644E+02  0.00000E+00  9.000E+00
       5     1     1     2   501     0  1.280598143E-01  2.185396215E+00  4.908582225E+00  7.172798296E+00  4.750000000E+00  0.00000E+00  9.000E+00
      -5     1     1     2     0   503 -5.885100101E+01  1.174375313E+00 -5.705673026E+02  5.736152271E+02  4.750000000E+00  0.00000E+00  9.000E+00
      21     1     1     2   511   502 -3.238678725E+00  6.084224713E+00 -1.289586265E+02  1.291426892E+02  1.907348633E-06  0.00000E+00  9.000E+00
#rwgt            1           9  -1.6759175730509426E-004           6     2107367           0
</event>
<event>
      6   9999 -3.45752E-01  2.37958E+01 -1.00000E+00  1.54656E-01
      21    -1     0     0   501   502  0.000000000E+00  0.000000000E+00  1.421332083E+01  1.421332083E+01  0.000000000E+00  0.00000E+00  9.000E+00
      21    -1     0     0   512   503  0.000000000E+00  0.000000000E+00 -9.705563251E+02  9.705563251E+02  0.000000000E+00  0.00000E+00  9.000E+00
      25     1     1     2     0     0 -1.432216654E+01 -2.503927511E+01 -4.123658722E+02  4.318323544E+02  1.249058843E+02  0.00000E+00  9.000E+00
       5     1     1     2   501     0  2.942423296E+01  7.557218943E+00 -1.073088270E+02  1.116272543E+02  4.750000000E+00  0.00000E+00  9.000E+00
      -5     1     1     2     0   503 -3.615516854E+01  6.391211297E+00 -3.270466474E+02  3.291354066E+02  4.750000000E+00  0.00000E+00  9.000E+00
      21     1     1     2   512   502  2.105310212E+01  1.109084487E+01 -1.096216576E+02  1.121746307E+02  0.000000000E+00  0.00000E+00  9.000E+00
#rwgt            1           9 -0.10260705487448607                6     2111679           0
</event>
<event>
      6   9999  3.45752E-01  6.97221E+00 -1.00000E+00  2.05359E-01
      21    -1     0     0   501   502  0.000000000E+00  0.000000000E+00  6.293063500E+01  6.293063500E+01  0.000000000E+00  0.00000E+00  9.000E+00
      21    -1     0     0   502   511  0.000000000E+00  0.000000000E+00 -1.482213495E+03  1.482213495E+03  0.000000000E+00  0.00000E+00  9.000E+00
      25     1     1     2     0     0 -8.938984381E+01  1.836364388E+02 -5.274132913E+02  5.792256949E+02  1.249989598E+02  0.00000E+00  9.000E+00
       5     1     1     2   501     0 -1.548296455E-01 -3.157146067E+00  2.552840932E+01  2.615824394E+01  4.750000000E+00  0.00000E+00  9.000E+00
      -5     1     1     2     0   503  9.108560413E+01 -1.736794921E+02 -8.693376951E+02  8.911968042E+02  4.750000000E+00  0.00000E+00  9.000E+00
      21     1     1     2   503   511 -1.540930671E+00 -6.799800647E+00 -4.806028280E+01  4.856338681E+01  0.000000000E+00  0.00000E+00  9.000E+00
#rwgt            1           9   1.3133097871713981E-004           6     2112846           0
</event>
<event>
      6   9999  3.45752E-01  7.89441E+00 -1.00000E+00  1.98701E-01
      21    -1     0     0   502   512  0.000000000E+00  0.000000000E+00  9.117947935E+01  9.117947935E+01  0.000000000E+00  0.00000E+00  9.000E+00
      21    -1     0     0   501   502  0.000000000E+00  0.000000000E+00 -7.218365242E+02  7.218365242E+02  0.000000000E+00  0.00000E+00  9.000E+00
      25     1     1     2     0     0  3.717090010E+00 -2.450112322E+00 -4.927098935E+02  5.083394899E+02  1.250047121E+02  0.00000E+00  9.000E+00
       5     1     1     2   501     0 -1.104464754E+00  9.457830097E+00 -1.977247951E+02  1.980109277E+02  4.750000000E+00  0.00000E+00  9.000E+00
      -5     1     1     2     0   503  7.569602423E-01  1.314408725E-01 -2.300730531E+01  2.350508164E+01  4.750000000E+00  0.00000E+00  9.000E+00
      21     1     1     2   503   512 -3.369585498E+00 -7.139158647E+00  8.278494903E+01  8.316050432E+01  2.132480600E-06  0.00000E+00  9.000E+00
#rwgt            1           9   5.0036774012225740E-002           6     2117969           0
</event>
<event>
      6   9999  3.45752E-01  6.71697E+00 -1.00000E+00  2.07450E-01
       1    -1     0     0   501     0  0.000000000E+00  0.000000000E+00  1.446993183E+03  1.446993183E+03  0.000000000E+00  0.00000E+00  9.000E+00
      21    -1     0     0   502   503  0.000000000E+00  0.000000000E+00 -7.529657565E+02  7.529657565E+02  0.000000000E+00  0.00000E+00  9.000E+00
      25     1     1     2     0     0 -6.295467082E+00  1.539804053E+01 -7.101446516E+02  7.212554673E+02  1.250091614E+02  0.00000E+00  9.000E+00
       5     1     1     2   501     0 -2.773912841E+00 -9.662948973E+00 -8.091837460E+00  1.375163659E+01  4.750000000E+00  0.00000E+00  9.000E+00
      -5     1     1     2     0   503  3.537341431E+00 -1.925335800E+00 -2.596797096E+01  2.670426405E+01  4.750000000E+00  0.00000E+00  9.000E+00
       1     1     1     2   502     0  5.532038491E+00 -3.809755760E+00  1.438231886E+03  1.438247572E+03  2.157918644E-05  0.00000E+00  9.000E+00
#rwgt            1           9   3.0852102928296827E-004           6     2120533           0
</event>
<event>
      6   9999  3.45752E-01  2.36578E+00 -1.00000E+00  3.07002E-01
      21    -1     0     0   501   502  0.000000000E+00  0.000000000E+00  1.885717680E+01  1.885717680E+01  0.000000000E+00  0.00000E+00  9.000E+00
      21    -1     0     0   502   511  0.000000000E+00  0.000000000E+00 -9.544355963E+02  9.544355963E+02  0.000000000E+00  0.00000E+00  9.000E+00
      25     1     1     2     0     0  2.189036545E+00  7.069527947E+00 -8.728609256E+02  8.817994918E+02  1.250175115E+02  0.00000E+00  9.000E+00
       5     1     1     2   501     0  1.191100387E+00 -4.367850585E+00  1.342245629E+01  1.494060480E+01  4.750000000E+00  0.00000E+00  9.000E+00
      -5     1     1     2     0   503 -2.319388767E+00 -5.870313321E-01 -6.069632360E+01  6.092889601E+01  4.750000000E+00  0.00000E+00  9.000E+00
      21     1     1     2   503   511 -1.060748165E+00 -2.114646030E+00 -1.544362666E+01  1.562378056E+01  1.685873940E-07  0.00000E+00  9.000E+00
#rwgt            1           9   7.0534192187937780E-004           6     2123309           0
</event>
<event>
      6   9999  3.45752E-01  5.56096E+00 -1.00000E+00  2.18760E-01
      21    -1     0     0   501   502  0.000000000E+00  0.000000000E+00  1.491952145E+03  1.491952145E+03  0.000000000E+00  0.00000E+00  9.000E+00
      21    -1     0     0   512   503  0.000000000E+00  0.000000000E+00 -1.033161714E+02  1.033161714E+02  0.000000000E+00  0.00000E+00  9.000E+00
      25     1     1     2     0     0 -1.192740694E+00  3.421004646E+00  4.785661214E+02  4.946352412E+02  1.250014537E+02  0.00000E+00  9.000E+00
       5     1     1     2   501     0  2.511974398E+00 -5.111672682E-01  8.896886773E+02  8.897050502E+02  4.750000000E+00  0.00000E+00  9.000E+00
      -5     1     1     2     0   503 -2.162429225E+00 -8.406504566E+00  1.153614853E+02  1.157850604E+02  4.750000000E+00  0.00000E+00  9.000E+00
      21     1     1     2   512   502  8.431955216E-01  5.496667188E+00 -9.498031049E+01  9.514296458E+01  5.394796609E-06  0.00000E+00  9.000E+00
#rwgt            1           9   4.1119642461126468E-003           6     2132513           0
</event>
<event>
      6   9999  3.45752E-01  7.68880E+00 -1.00000E+00  2.00077E-01
      21    -1     0     0   501   502  0.000000000E+00  0.000000000E+00  3.536159243E+02  3.536159243E+02  0.000000000E+00  0.00000E+00  9.000E+00
      21    -1     0     0   511   503  0.000000000E+00  0.000000000E+00 -9.447075833E+01  9.447075833E+01  0.000000000E+00  0.00000E+00  9.000E+00
      25     1     1     2     0     0 -2.457598094E+01  3.124014454E+01 -3.594100204E+01  1.360027808E+02  1.250003011E+02  0.00000E+00  9.000E+00
       5     1     1     2   501     0 -2.289678947E+00  9.349449605E-01  2.429790004E+02  2.430380091E+02  4.750000000E+00  0.00000E+00  9.000E+00
      -5     1     1     2     0   503  2.295077002E+01 -2.555759033E+01  5.038786145E+01  6.116720812E+01  4.750000000E+00  0.00000E+00  9.000E+00
      21     1     1     2   511   502  3.914889870E+00 -6.617499172E+00  1.719306200E+00  7.878684648E+00  1.154238983E-07  0.00000E+00  9.000E+00
#rwgt            1           9   6.8669778660365626E-005           6     2136465           0
</event>
<event>
      6   9999  3.45752E-01  4.67280E+01 -1.00000E+00  1.36379E-01
      21    -1     0     0   501   512  0.000000000E+00  0.000000000E+00  1.585640449E+02  1.585640449E+02  0.000000000E+00  0.00000E+00  9.000E+00
      21    -1     0     0   502   503  0.000000000E+00  0.000000000E+00 -1.191730310E+03  1.191730310E+03  0.000000000E+00  0.00000E+00  9.000E+00
      25     1     1     2     0     0  2.471734836E+01 -2.070107619E+01 -1.119583521E+03  1.127000927E+03  1.249973888E+02  0.00000E+00  9.000E+00
       5     1     1     2   501     0  1.189949167E+01 -1.152773229E+01  3.635016386E+01  4.022913653E+01  4.750000000E+00  0.00000E+00  9.000E+00
      -5     1     1     2     0   503  5.829714833E+00  1.268918103E+01 -6.089956764E+01  6.266036010E+01  4.750000000E+00  0.00000E+00  9.000E+00
      21     1     1     2   502   512 -4.244655486E+01  1.953962745E+01  1.109666597E+02  1.204039311E+02  4.046097457E-06  0.00000E+00  9.000E+00
#rwgt            1           9   3.5867437878781432E-003           6     2140607           0
</event>
<event>
      6   9999  3.45752E-01  1.45450E+01 -1.00000E+00  1.71539E-01
      21    -1     0     0   501   511  0.000000000E+00  0.000000000E+00  5.345166100E+01  5.345166100E+01  0.000000000E+00  0.00000E+00  9.000E+00
      21    -1     0     0   502   503  0.000000000E+00  0.000000000E+00 -1.288467186E+03  1.288467186E+03  0.000000000E+00  0.00000E+00  9.000E+00
      25     1     1     2     0     0  7.124180575E+01  8.021941460E+01 -2.245750507E+02  2.785095133E+02  1.249921848E+02  0.00000E+00  9.000E+00
       5     1     1     2   501     0  5.344593344E+00  1.850127599E+00  1.442042902E+01  1.620181852E+01  4.750000000E+00  0.00000E+00  9.000E+00
      -5     1     1     2     0   503 -6.414473583E+01 -7.453542752E+01 -1.027685728E+03  1.032390718E+03  4.750000000E+00  0.00000E+00  9.000E+00
      21     1     1     2   502   511 -1.244166327E+01 -7.534114676E+00  2.824823732E+00  1.481679783E+01  5.908080221E-07  0.00000E+00  9.000E+00
#rwgt            1           9   8.2735814969086916E-003           6     2141834           0
</event>
<event>
      6   9999 -3.45752E-01  1.50774E+01 -1.00000E+00  1.70178E-01
      21    -1     0     0   501   502  0.000000000E+00  0.000000000E+00  3.285872863E+00  3.285872863E+00  0.000000000E+00  0.00000E+00  9.000E+00
      21    -1     0     0   502   512  0.000000000E+00  0.000000000E+00 -2.718315615E+03  2.718315615E+03  0.000000000E+00  0.00000E+00  9.000E+00
      25     1     1     2     0     0  9.092192752E+00 -1.450680651E+01 -1.722238485E+03  1.726853597E+03  1.249993201E+02  0.00000E+00  9.000E+00
       5     1     1     2   501     0 -8.235394150E-01  3.634753455E-01 -1.945858825E+01  2.005017427E+01  4.750000000E+00  0.00000E+00  9.000E+00
      -5     1     1     2     0   503 -1.982603729E+01  2.382600519E+01 -4.239194998E+02  4.250777048E+02  4.750000000E+00  0.00000E+00  9.000E+00
      21     1     1     2   503   512  1.155738395E+01 -9.682674032E+00 -5.494131688E+02  5.496200118E+02  7.629394531E-06  0.00000E+00  9.000E+00
#rwgt            1           9 -0.10252389709926402                6     2144705           0
</event>
<event>
      6   9999  3.45752E-01  4.12908E+00 -1.00000E+00  2.45029E-01
      21    -1     0     0   501   502  0.000000000E+00  0.000000000E+00  2.743030557E+03  2.743030557E+03  0.000000000E+00  0.00000E+00  9.000E+00
      21    -1     0     0   511   503  0.000000000E+00  0.000000000E+00 -1.901039342E+01  1.901039342E+01  0.000000000E+00  0.00000E+00  9.000E+00
      25     1     1     2     0     0 -1.782835718E+01 -2.971794585E+01  4.623200795E+02  4.801726428E+02  1.249996175E+02  0.00000E+00  9.000E+00
       5     1     1     2   501     0  4.326192496E+00 -2.405438560E+00  2.112630786E+03  2.112641925E+03  4.750000000E+00  0.00000E+00  9.000E+00
      -5     1     1     2     0   503  1.486019797E+01  2.822402226E+01  1.570039304E+02  1.602816820E+02  4.750000000E+00  0.00000E+00  9.000E+00
      21     1     1     2   511   502 -1.358033283E+00  3.899362152E+00 -7.934632405E+00  8.944700721E+00  1.585976445E-06  0.00000E+00  9.000E+00
#rwgt            1           9   9.6923268446270160E-006           6     2146626           0
</event>
<event>
      6   9999  3.45752E-01  5.54046E+01 -1.00000E+00  1.32445E-01
      -3    -1     0     0     0   502  0.000000000E+00  0.000000000E+00  9.456955240E+02  9.456955240E+02  0.000000000E+00  0.00000E+00  9.000E+00
      21    -1     0     0   502   503  0.000000000E+00  0.000000000E+00 -8.049392291E+02  8.049392291E+02  0.000000000E+00  0.00000E+00  9.000E+00
      25     1     1     2     0     0  4.498891947E+01 -4.057179998E+01 -4.906112067E+02  5.098963884E+02  1.249995880E+02  0.00000E+00  9.000E+00
       5     1     1     2   501     0 -7.615587841E+00  6.270959269E+00 -2.130946109E+02  2.133757198E+02  4.750000000E+00  0.00000E+00  9.000E+00
      -5     1     1     2     0   503 -6.462543982E+00 -1.167955821E+01 -9.007607894E+01  9.118354595E+01  4.750000000E+00  0.00000E+00  9.000E+00
      -3     1     1     2     0   501 -3.091078765E+01  4.598039892E+01  9.345381915E+02  9.361790989E+02  1.078959322E-05  0.00000E+00  9.000E+00
#rwgt            1           9   1.3857390261113291E-004           6     2152435           0
</event>
<event>
      6   9999  3.45752E-01  8.26863E+00 -1.00000E+00  1.96332E-01
      21    -1     0     0   501   502  0.000000000E+00  0.000000000E+00  6.388782727E+00  6.388782727E+00  0.000000000E+00  0.00000E+00  9.000E+00
      21    -1     0     0   511   503  0.000000000E+00  0.000000000E+00 -2.028454950E+03  2.028454950E+03  0.000000000E+00  0.00000E+00  9.000E+00
      25     1     1     2     0     0 -9.107267116E+00  5.517479346E+00 -1.731536172E+03  1.736074811E+03  1.249994104E+02  0.00000E+00  9.000E+00
       5     1     1     2   501     0  2.713105545E+00 -3.027620899E+00  8.103136608E-01  6.304485565E+00  4.750000000E+00  0.00000E+00  9.000E+00
      -5     1     1     2     0   503  1.464557927E+01 -1.956616561E+00 -1.319232713E+02  1.328331034E+02  4.750000000E+00  0.00000E+00  9.000E+00
      21     1     1     2   511   502 -8.251417703E+00 -5.332418854E-01 -1.594170384E+02  1.596313327E+02  1.907348633E-06  0.00000E+00  9.000E+00
#rwgt            1           9   2.8024813889524923E-005           6     2153324           0
</event>
<event>
      6   9999 -3.45752E-01  5.47841E+01 -1.00000E+00  1.32698E-01
      21    -1     0     0   501   512  0.000000000E+00  0.000000000E+00  6.905962158E+01  6.905962158E+01  0.000000000E+00  0.00000E+00  9.000E+00
      21    -1     0     0   502   503  0.000000000E+00  0.000000000E+00 -8.323745286E+02  8.323745286E+02  0.000000000E+00  0.00000E+00  9.000E+00
      25     1     1     2     0     0  2.243065111E+01  2.044093993E+01 -5.510723743E+02  5.658869188E+02  1.250051081E+02  0.00000E+00  9.000E+00
       5     1     1     2   501     0  1.717966469E+01 -3.711227038E+01 -1.475547131E+02  1.531907875E+02  4.750000000E+00  0.00000E+00  9.000E+00
      -5     1     1     2     0   503  5.405629310E+00 -1.455143446E+01 -1.100430941E+02  1.112340332E+02  4.750000000E+00  0.00000E+00  9.000E+00
      21     1     1     2   502   512 -4.501594511E+01  3.122276491E+01  4.535527461E+01  7.112241066E+01  1.784161275E-06  0.00000E+00  9.000E+00
#rwgt            1           9  -1.9941126374878652E-003           6     2156576           0
</event>
<event>
      6   9999  3.45752E-01  9.21006E+00 -1.00000E+00  1.91038E-01
      21    -1     0     0   501   502  0.000000000E+00  0.000000000E+00  1.033114348E+03  1.033114348E+03  0.000000000E+00  0.00000E+00  9.000E+00
      21    -1     0     0   502   511  0.000000000E+00  0.000000000E+00 -2.000814966E+01  2.000814966E+01  0.000000000E+00  0.00000E+00  9.000E+00
      25     1     1     2     0     0 -1.386575109E+00 -1.507862584E+01  6.117101780E+02  6.245352216E+02  1.250024542E+02  0.00000E+00  9.000E+00
       5     1     1     2   501     0 -1.003847323E+00 -2.484876551E+00  3.842844905E+02  3.843231901E+02  4.750000000E+00  0.00000E+00  9.000E+00
      -5     1     1     2     0   503  9.005086047E-01  8.474755580E+00  2.820546965E+01  2.984532486E+01  4.750000000E+00  0.00000E+00  9.000E+00
      21     1     1     2   503   511  1.489913827E+00  9.088746811E+00 -1.109394001E+01  1.441876093E+01  1.186117455E-06  0.00000E+00  9.000E+00
#rwgt            1           9   43.949473568479945                6     2157594           0
</event>
<event>
      6   9999 -3.45752E-01  1.33732E+01 -1.00000E+00  1.74808E-01
      21    -1     0     0   501   502  0.000000000E+00  0.000000000E+00  2.033153046E+01  2.033153046E+01  0.000000000E+00  0.00000E+00  9.000E+00
      21    -1     0     0   512   503  0.000000000E+00  0.000000000E+00 -8.014515124E+02  8.014515124E+02  0.000000000E+00  0.00000E+00  9.000E+00
      25     1     1     2     0     0 -2.487709367E+00 -2.593395751E+01 -5.998883841E+02  6.133293292E+02  1.250121347E+02  0.00000E+00  9.000E+00
       5     1     1     2   501     0  4.316557669E-01 -2.180303896E-01  1.095005942E+01  1.194571744E+01  4.750000000E+00  0.00000E+00  9.000E+00
      -5     1     1     2     0   503 -7.788223213E+00  1.710026003E+01 -4.885824041E+01  5.256201546E+01  4.750000000E+00  0.00000E+00  9.000E+00
      21     1     1     2   512   502  9.844276813E+00  9.051727875E+00 -1.433234168E+02  1.439459808E+02  0.000000000E+00  0.00000E+00  9.000E+00
#rwgt            1           9  -2.2234526630738761E-003           6     2160381           0
</event>
<event>
      6   9999  3.45752E-01  7.76578E+00 -1.00000E+00  1.99555E-01
      21    -1     0     0   501   511  0.000000000E+00  0.000000000E+00  1.712424833E+02  1.712424833E+02  0.000000000E+00  0.00000E+00  9.000E+00
      21    -1     0     0   502   503  0.000000000E+00  0.000000000E+00 -3.568689736E+03  3.568689736E+03  0.000000000E+00  0.00000E+00  9.000E+00
      25     1     1     2     0     0 -1.484911756E+00  9.843424905E+00 -2.857537261E+03  2.860287280E+03  1.250001160E+02  0.00000E+00  9.000E+00
       5     1     1     2   501     0  7.152553376E+00  9.948633618E+00 -1.840594333E+02  1.845279703E+02  4.750000000E+00  0.00000E+00  9.000E+00
      -5     1     1     2     0   503 -9.491656961E+00 -1.303304725E+01 -5.252603849E+02  5.255292440E+02  4.750000000E+00  0.00000E+00  9.000E+00
      21     1     1     2   502   511  3.824015340E+00 -6.759011278E+00  1.694098261E+02  1.695877251E+02  8.529922400E-06  0.00000E+00  9.000E+00
#rwgt            1           9   22.892700545183200                6     2162806           0
</event>
<event>
      6   9999  3.45752E-01  4.84092E+00 -1.00000E+00  2.31860E-01
      21    -1     0     0   512   502  0.000000000E+00  0.000000000E+00  7.879195923E+01  7.879195923E+01  0.000000000E+00  0.00000E+00  9.000E+00
      21    -1     0     0   502   503  0.000000000E+00  0.000000000E+00 -8.392722250E+01  8.392722250E+01  0.000000000E+00  0.00000E+00  9.000E+00
      25     1     1     2     0     0  1.348052087E+00 -6.971237628E+00 -2.967941958E+01  1.286736783E+02  1.250025285E+02  0.00000E+00  9.000E+00
       5     1     1     2   501     0  1.235230555E-01 -2.673860121E-01  1.736389718E+00  5.065994717E+00  4.750000000E+00  0.00000E+00  9.000E+00
      -5     1     1     2     0   503 -6.174403939E-02  2.607543705E+00 -2.444201802E-01  5.424512671E+00  4.750000000E+00  0.00000E+00  9.000E+00
      21     1     1     2   512   501 -1.409831103E+00  4.631079936E+00  2.305218676E+01  2.355499607E+01  0.000000000E+00  0.00000E+00  9.000E+00
#rwgt            1           9   1.9974515248505098E-003           6     2165631           0
</event>
<event>
      6   9999  3.45752E-01  6.85985E+00 -1.00000E+00  2.06264E-01
      21    -1     0     0   501   511  0.000000000E+00  0.000000000E+00  1.122382669E+01  1.122382669E+01  0.000000000E+00  0.00000E+00  9.000E+00
      21    -1     0     0   502   503  0.000000000E+00  0.000000000E+00 -8.014395963E+02  8.014395963E+02  0.000000000E+00  0.00000E+00  9.000E+00
      25     1     1     2     0     0 -1.760093992E+00  3.917803295E+00 -6.537537546E+02  6.656105199E+02  1.249997814E+02  0.00000E+00  9.000E+00
       5     1     1     2   501     0  2.286290640E+00 -1.410643924E+00  2.201936233E+00  5.884561525E+00  4.750000000E+00  0.00000E+00  9.000E+00
      -5     1     1     2     0   503  5.763176912E+00 -5.246003478E+00 -1.289711007E+02  1.292936274E+02  4.750000000E+00  0.00000E+00  9.000E+00
      21     1     1     2   502   511 -6.289373561E+00  2.738844106E+00 -9.692850503E+00  1.187471422E+01  1.192092896E-07  0.00000E+00  9.000E+00
#rwgt            1           9   1.6571513278357897E-003           6     2169165           0
</event>
<event>
      6   9999  3.45752E-01  1.46806E+01 -1.00000E+00  1.71186E-01
      21    -1     0     0   501   502  0.000000000E+00  0.000000000E+00  8.603403493E+00  8.603403493E+00  0.000000000E+00  0.00000E+00  9.000E+00
      21    -1     0     0   512   503  0.000000000E+00  0.000000000E+00 -8.829560276E+02  8.829560276E+02  0.000000000E+00  0.00000E+00  9.000E+00
      25     1     1     2     0     0 -5.269424959E+00  1.294566525E+01 -5.748896532E+02  5.884879780E+02  1.249985190E+02  0.00000E+00  9.000E+00
       5     1     1     2   501     0 -9.830066942E+00 -7.532654256E+00 -3.075521687E+01  3.349353610E+01  4.750000000E+00  0.00000E+00  9.000E+00
      -5     1     1     2     0   503  1.642044583E+00  4.535640051E-01 -3.019270585E+01  3.061150139E+01  4.750000000E+00  0.00000E+00  9.000E+00
      21     1     1     2   512   502  1.345744732E+01 -5.866575004E+00 -2.385150481E+02  2.389664156E+02  0.000000000E+00  0.00000E+00  9.000E+00
#rwgt            1           9   1.1129028144683707E-002           6     2172404           0
</event>
<event>
      6   9999  3.45752E-01  7.70538E+00 -1.00000E+00  1.99964E-01
      21    -1     0     0   501   502  0.000000000E+00  0.000000000E+00  3.203223191E+01  3.203223191E+01  0.000000000E+00  0.00000E+00  9.000E+00
      21    -1     0     0   502   511  0.000000000E+00  0.000000000E+00 -1.216510254E+03  1.216510254E+03  0.000000000E+00  0.00000E+00  9.000E+00
      25     1     1     2     0     0 -7.270012945E+01 -1.141002962E+01 -5.628557323E+02  5.812453206E+02  1.249961989E+02  0.00000E+00  9.000E+00
       5     1     1     2   501     0 -1.286854851E+00 -3.140476318E+00  2.015059937E+01  2.097922167E+01  4.750000000E+00  0.00000E+00  9.000E+00
      -5     1     1     2     0   503  6.794400903E+01  9.769782726E+00 -5.757288151E+02  5.798258946E+02  4.750000000E+00  0.00000E+00  9.000E+00
      21     1     1     2   503   511  6.042975267E+00  4.780723210E+00 -6.604407365E+01  6.649204861E+01  1.348699152E-06  0.00000E+00  9.000E+00
#rwgt            1           9   1.1426698856985499E-005           6     2173914           0
</event>
<event>
      6   9999  3.45752E-01  9.21553E+00 -1.00000E+00  1.91010E-01
      21    -1     0     0   512   502  0.000000000E+00  0.000000000E+00  3.230168685E+01  3.230168685E+01  0.000000000E+00  0.00000E+00  9.000E+00
      21    -1     0     0   502   503  0.000000000E+00  0.000000000E+00 -1.904669529E+03  1.904669529E+03  0.000000000E+00  0.00000E+00  9.000E+00
      25     1     1     2     0     0 -4.328309819E+00 -1.508411867E+01 -5.299414368E+02  5.447106331E+02  1.250019302E+02  0.00000E+00  9.000E+00
       5     1     1     2   501     0  1.010148237E+01 -4.152506244E+00  1.875936080E+01  2.222069692E+01  4.750000000E+00  0.00000E+00  9.000E+00
      -5     1     1     2     0   503 -1.585540995E+00  1.102750441E+01 -1.360760664E+03  1.360814560E+03  4.750000000E+00  0.00000E+00  9.000E+00
      21     1     1     2   512   501 -4.187631553E+00  8.209120505E+00 -4.251019035E-01  9.225325421E+00  5.590418423E-07  0.00000E+00  9.000E+00
#rwgt            1           9   4.1097179477704620E-004           6     2177779           0
</event>
<event>
      6   9999  3.45752E-01  5.32167E+00 -1.00000E+00  2.21583E-01
      21    -1     0     0   501   511  0.000000000E+00  0.000000000E+00  4.971299486E+00  4.971299486E+00  0.000000000E+00  0.00000E+00  9.000E+00
      21    -1     0     0   502   503  0.000000000E+00  0.000000000E+00 -2.055170599E+03  2.055170599E+03  0.000000000E+00  0.00000E+00  9.000E+00
      25     1     1     2     0     0  4.692219717E-01  7.871890537E-01 -1.997139900E+03  2.001048221E+03  1.250014528E+02  0.00000E+00  9.000E+00
       5     1     1     2   501     0  4.936005438E-01  9.714821241E-02 -9.054167445E+00  1.023687098E+01  4.750000000E+00  0.00000E+00  9.000E+00
      -5     1     1     2     0   503  2.483074349E+00 -4.939700209E+00 -4.277921306E+01  4.339573558E+01  4.750000000E+00  0.00000E+00  9.000E+00
      21     1     1     2   502   511 -3.445896865E+00  4.055362943E+00 -1.226019235E+00  5.461071045E+00  4.259230473E-07  0.00000E+00  9.000E+00
#rwgt            1           9   3.0235572591640076E-003           6     2181763           0
</event>
<event>
      6   9999  3.45752E-01  1.06742E+01 -1.00000E+00  1.84258E-01
      21    -1     0     0   501   502  0.000000000E+00  0.000000000E+00  2.102107521E+01  2.102107521E+01  0.000000000E+00  0.00000E+00  9.000E+00
      21    -1     0     0   512   503  0.000000000E+00  0.000000000E+00 -3.754357668E+02  3.754357668E+02  0.000000000E+00  0.00000E+00  9.000E+00
      25     1     1     2     0     0 -1.146281663E+01  1.117434578E+01 -3.288998731E+02  3.522164481E+02  1.250001504E+02  0.00000E+00  9.000E+00
       5     1     1     2   501     0 -9.861870196E-01 -9.840285680E-02  3.889572158E+00  6.218803706E+00  4.750000000E+00  0.00000E+00  9.000E+00
      -5     1     1     2     0   503  5.935081724E+00 -2.619755250E+00 -1.545467129E+00  8.187751907E+00  4.750000000E+00  0.00000E+00  9.000E+00
      21     1     1     2   512   502  6.513921928E+00 -8.456187677E+00 -2.785892349E+01  2.983383829E+01  0.000000000E+00  0.00000E+00  9.000E+00
#rwgt            1           9   1.2437896980782872E-003           6     2185116           0
</event>
<event>
      6   9999  3.45752E-01  2.32844E+01 -1.00000E+00  1.55328E-01
      21    -1     0     0   501   502  0.000000000E+00  0.000000000E+00  2.394855251E+02  2.394855251E+02  0.000000000E+00  0.00000E+00  9.000E+00
      21    -1     0     0   511   503  0.000000000E+00  0.000000000E+00 -3.572598491E+01  3.572598491E+01  0.000000000E+00  0.00000E+00  9.000E+00
      25     1     1     2     0     0  2.866542140E+00  8.213315669E+00  1.581602539E+02  2.017718243E+02  1.249861094E+02  0.00000E+00  9.000E+00
       5     1     1     2   501     0  1.134766810E+00  1.768926869E+00  3.332392391E+01  3.372629838E+01  4.750000000E+00  0.00000E+00  9.000E+00
      -5     1     1     2     0   503  2.873306611E+00  1.226420583E+01  1.544372672E-01  1.346302293E+01  4.750000000E+00  0.00000E+00  9.000E+00
      21     1     1     2   511   502 -6.874615561E+00 -2.224644837E+01  1.212092508E+01  2.625036435E+01  2.384185791E-07  0.00000E+00  9.000E+00
#rwgt            1           9   4.2894760991472998                6     2187201           0
</event>
<event>
      6   9999 -3.45752E-01  5.28541E+00 -1.00000E+00  2.22028E-01
      21    -1     0     0   501   512  0.000000000E+00  0.000000000E+00  2.677849634E+01  2.677849634E+01  0.000000000E+00  0.00000E+00  9.000E+00
      21    -1     0     0   502   503  0.000000000E+00  0.000000000E+00 -7.481162821E+02  7.481162821E+02  0.000000000E+00  0.00000E+00  9.000E+00
      25     1     1     2     0     0  7.925526950E+00 -5.383127688E+00 -6.227419141E+02  6.352350750E+02  1.249972680E+02  0.00000E+00  9.000E+00
       5     1     1     2   501     0 -7.914444330E-02  1.483636615E-01 -4.169648091E+00  6.322716253E+00  4.750000000E+00  0.00000E+00  9.000E+00
      -5     1     1     2     0   503 -9.505067127E+00  1.025315874E+01 -1.130333537E+02  1.139937504E+02  4.750000000E+00  0.00000E+00  9.000E+00
      21     1     1     2   502   512  1.658684621E+00 -5.018394709E+00  1.860713009E+01  1.934323681E+01  1.168007728E-06  0.00000E+00  9.000E+00
#rwgt            1           9  -1.5439267513133526E-003           6     2188816           0
</event>
<event>
      6   9999  3.45752E-01  2.60704E+01 -1.00000E+00  1.51893E-01
      21    -1     0     0   501   502  0.000000000E+00  0.000000000E+00  8.729047711E+01  8.729047711E+01  0.000000000E+00  0.00000E+00  9.000E+00
      21    -1     0     0   502   511  0.000000000E+00  0.000000000E+00 -1.641844942E+03  1.641844942E+03  0.000000000E+00  0.00000E+00  9.000E+00
      25     1     1     2     0     0  1.668552135E+02 -2.656380481E+02 -5.244598081E+02  6.237683817E+02  1.249986757E+02  0.00000E+00  9.000E+00
       5     1     1     2   501     0  3.250165753E+01  1.851856919E+01 -5.669367979E+01  6.808840558E+01  4.750000000E+00  0.00000E+00  9.000E+00
      -5     1     1     2     0   503 -1.905397811E+02  2.716536741E+02 -9.151642176E+02  9.734727703E+02  4.750000000E+00  0.00000E+00  9.000E+00
      21     1     1     2   503   511 -8.817089856E+00 -2.453419521E+01 -5.823675932E+01  6.380586136E+01  1.168007728E-06  0.00000E+00  9.000E+00
#rwgt            1           9   1.9848198409902788E-004           6     2192552           0
</event>
<event>
      6   9999  3.45752E-01  5.74050E+00 -1.00000E+00  2.16768E-01
      21    -1     0     0   501   512  0.000000000E+00  0.000000000E+00  1.337649219E+01  1.337649219E+01  0.000000000E+00  0.00000E+00  9.000E+00
      21    -1     0     0   502   503  0.000000000E+00  0.000000000E+00 -8.434500576E+02  8.434500576E+02  0.000000000E+00  0.00000E+00  9.000E+00
      25     1     1     2     0     0  5.559614878E+00  1.783840448E+01 -7.245012994E+02  7.354437477E+02  1.250050211E+02  0.00000E+00  9.000E+00
       5     1     1     2   501     0  1.170271584E+00  2.843661910E+00  4.498993606E+00  7.229065784E+00  4.750000000E+00  0.00000E+00  9.000E+00
      -5     1     1     2     0   503 -4.048552479E+00 -1.560625814E+01 -1.054586120E+02  1.067896410E+02  4.750000000E+00  0.00000E+00  9.000E+00
      21     1     1     2   502   512 -2.681333984E+00 -5.075808248E+00 -4.612647639E+00  7.364095297E+00  2.858538343E-07  0.00000E+00  9.000E+00
#rwgt            1           9   1.0516195735248155E-003           6     2195318           0
</event>
<event>
      6   9999  3.45752E-01  9.68092E+00 -1.00000E+00  1.88689E-01
      21    -1     0     0   501   511  0.000000000E+00  0.000000000E+00  2.835481034E+01  2.835481034E+01  0.000000000E+00  0.00000E+00  9.000E+00
      21    -1     0     0   502   503  0.000000000E+00  0.000000000E+00 -1.124847352E+03  1.124847352E+03  0.000000000E+00  0.00000E+00  9.000E+00
      25     1     1     2     0     0 -3.118898012E+01  1.852013429E+01 -8.977887499E+02  9.071743705E+02  1.249998044E+02  0.00000E+00  9.000E+00
       5     1     1     2   501     0 -7.236686833E-01 -1.375670465E+00  2.043963613E+01  2.104180104E+01  4.750000000E+00  0.00000E+00  9.000E+00
      -5     1     1     2     0   503  3.060533910E+01 -7.552214698E+00 -2.070747914E+02  2.095143300E+02  4.750000000E+00  0.00000E+00  9.000E+00
      21     1     1     2   502   511  1.307309706E+00 -9.592249123E+00 -1.206863624E+01  1.547166062E+01  1.685873940E-07  0.00000E+00  9.000E+00
#rwgt            1           9   6.9981965036366797E-005           6     2199624           0
</event>
<event>
      6   9999 -3.45752E-01  1.16047E+01 -1.00000E+00  1.80633E-01
      21    -1     0     0   501   512  0.000000000E+00  0.000000000E+00  2.889323971E+01  2.889323971E+01  0.000000000E+00  0.00000E+00  9.000E+00
      21    -1     0     0   502   503  0.000000000E+00  0.000000000E+00 -1.113493096E+03  1.113493096E+03  0.000000000E+00  0.00000E+00  9.000E+00
      25     1     1     2     0     0  1.038650726E+02  2.363153169E+01 -6.344189090E+02  6.553303608E+02  1.249965082E+02  0.00000E+00  9.000E+00
       5     1     1     2   501     0  1.055310953E+00 -3.036798581E-01  1.442762157E+00  5.084286116E+00  4.750000000E+00  0.00000E+00  9.000E+00
      -5     1     1     2     0   503 -9.581731883E+01 -1.613039770E+01 -4.583490538E+02  4.685590314E+02  4.750000000E+00  0.00000E+00  9.000E+00
      21     1     1     2   502   512 -9.103064675E+00 -7.197454129E+00  6.725344089E+00  1.341265766E+01  6.899736466E-07  0.00000E+00  9.000E+00
#rwgt            1           9  -3.3158444028184332E-002           6     2203240           0
</event>
<event>
      6   9999  3.45752E-01  1.17559E+01 -1.00000E+00  1.80085E-01
      21    -1     0     0   501   502  0.000000000E+00  0.000000000E+00  8.673878359E+00  8.673878359E+00  0.000000000E+00  0.00000E+00  9.000E+00
      21    -1     0     0   511   503  0.000000000E+00  0.000000000E+00 -7.112397593E+02  7.112397593E+02  0.000000000E+00  0.00000E+00  9.000E+00
      25     1     1     2     0     0 -2.823032689E+00 -9.355855252E+00 -6.233813704E+02  6.358670669E+02  1.250083690E+02  0.00000E+00  9.000E+00
       5     1     1     2   501     0 -3.473984849E-01 -3.555618883E-01 -2.279826455E+00  5.292184675E+00  4.750000000E+00  0.00000E+00  9.000E+00
      -5     1     1     2     0   503 -1.632578761E+00 -1.018538543E+00 -1.982823803E+01  2.047985004E+01  4.750000000E+00  0.00000E+00  9.000E+00
      21     1     1     2   511   502  4.803009935E+00  1.072995568E+01 -5.707644610E+01  5.827453606E+01  6.743495762E-07  0.00000E+00  9.000E+00
#rwgt            1           9   1.1793722043401920E-003           6     2206212           0
</event>
<event>
      6   9999  3.45752E-01  8.15702E+00 -1.00000E+00  1.97021E-01
      21    -1     0     0   501   502  0.000000000E+00  0.000000000E+00  3.081075647E+01  3.081075647E+01  0.000000000E+00  0.00000E+00  9.000E+00
      21    -1     0     0   512   503  0.000000000E+00  0.000000000E+00 -1.275899080E+03  1.275899080E+03  0.000000000E+00  0.00000E+00  9.000E+00
      25     1     1     2     0     0 -4.561691998E+01  5.225011384E+01 -6.159890420E+02  6.323554649E+02  1.249798235E+02  0.00000E+00  9.000E+00
       5     1     1     2   501     0 -1.954863866E+00  1.603632529E+00  2.010179033E+01  2.080955561E+01  4.750000000E+00  0.00000E+00  9.000E+00
      -5     1     1     2     0   503  4.303368079E+01 -4.707564534E+01 -4.930638242E+02  4.971946413E+02  4.750000000E+00  0.00000E+00  9.000E+00
      21     1     1     2   512   502  4.538103063E+00 -6.778101035E+00 -1.561372476E+02  1.563501746E+02  1.907348633E-06  0.00000E+00  9.000E+00
#rwgt            1           9   1.7554974596324276E-002           6     2208173           0
</event>
<event>
      6   9999  3.45752E-01  1.46875E+01 -1.00000E+00  1.71168E-01
      21    -1     0     0   501   502  0.000000000E+00  0.000000000E+00  5.459247202E+00  5.459247202E+00  0.000000000E+00  0.00000E+00  9.000E+00
      21    -1     0     0   511   503  0.000000000E+00  0.000000000E+00 -1.619955811E+03  1.619955811E+03  0.000000000E+00  0.00000E+00  9.000E+00
      25     1     1     2     0     0 -6.451895302E+00  1.772785235E+01 -1.080896495E+03  1.088263903E+03  1.250007372E+02  0.00000E+00  9.000E+00
       5     1     1     2   501     0 -1.148490404E+00  9.414925050E-01 -7.074679855E+00  8.649799616E+00  4.750000000E+00  0.00000E+00  9.000E+00
      -5     1     1     2     0   503 -2.379601768E+00 -7.893339838E+00 -2.482324786E+01  2.658427077E+01  4.750000000E+00  0.00000E+00  9.000E+00
      21     1     1     2   511   502  9.979987474E+00 -1.077600501E+01 -5.017021405E+02  5.019170850E+02  5.394796609E-06  0.00000E+00  9.000E+00
#rwgt            1           9   2.9708579464397328E-005           6     2212085           0
</event>
<event>
      6   9999  3.45752E-01  2.15280E+01 -1.00000E+00  1.57808E-01
      21    -1     0     0   512   502  0.000000000E+00  0.000000000E+00  3.030906498E+01  3.030906498E+01  0.000000000E+00  0.00000E+00  9.000E+00
      21    -1     0     0   502   503  0.000000000E+00  0.000000000E+00 -1.155390809E+03  1.155390809E+03  0.000000000E+00  0.00000E+00  9.000E+00
      25     1     1     2     0     0  1.240714893E+01  1.473641025E+00 -1.046708534E+03  1.054219555E+03  1.249960227E+02  0.00000E+00  9.000E+00
       5     1     1     2   501     0  3.768688229E+00  4.310301097E-01  2.368804981E+01  2.445557200E+01  4.750000000E+00  0.00000E+00  9.000E+00
      -5     1     1     2     0   503  5.351816628E+00 -2.034747147E+00 -5.201921366E+01  5.254848454E+01  4.750000000E+00  0.00000E+00  9.000E+00
      21     1     1     2   512   501 -2.152765378E+01  1.300760130E-01 -5.004204547E+01  5.447626192E+01  9.536743164E-07  0.00000E+00  9.000E+00
#rwgt            1           9   2.1781871297716623E-004           6     2213662           0
</event>
<event>
      6   9999  3.45752E-01  1.01195E+01 -1.00000E+00  1.86652E-01
      21    -1     0     0   511   502  0.000000000E+00  0.000000000E+00  7.046696751E+02  7.046696751E+02  0.000000000E+00  0.00000E+00  9.000E+00
      21    -1     0     0   502   503  0.000000000E+00  0.000000000E+00 -5.077396797E+01  5.077396797E+01  0.000000000E+00  0.00000E+00  9.000E+00
      25     1     1     2     0     0  8.020485897E+00 -3.367332133E+00  5.598191109E+01  1.372415466E+02  1.250024025E+02  0.00000E+00  9.000E+00
       5     1     1     2   501     0  9.371168642E-01 -9.609864316E-01  1.797742366E+01  1.864274509E+01  4.750000000E+00  0.00000E+00  9.000E+00
      -5     1     1     2     0   503 -2.471211750E-01 -8.226376204E-01 -9.171694565E+00  1.036437566E+01  4.750000000E+00  0.00000E+00  9.000E+00
      21     1     1     2   511   501 -8.710481586E+00  5.150956185E+00  5.891080670E+02  5.891949757E+02  1.078959322E-05  0.00000E+00  9.000E+00
#rwgt            1           9   15.059427919015629                6     2215740           0
</event>
<event>
      6   9999  3.45752E-01  1.45446E+01 -1.00000E+00  1.71540E-01
      21    -1     0     0   501   512  0.000000000E+00  0.000000000E+00  5.853838119E+01  5.853838119E+01  0.000000000E+00  0.00000E+00  9.000E+00
      21    -1     0     0   502   503  0.000000000E+00  0.000000000E+00 -6.009606799E+02  6.009606799E+02  0.000000000E+00  0.00000E+00  9.000E+00
      25     1     1     2     0     0 -2.225304646E+01  7.012199525E+01 -4.328533385E+02  4.565041504E+02  1.249869367E+02  0.00000E+00  9.000E+00
       5     1     1     2   501     0 -1.378298638E+01 -3.563110110E+01  1.870167934E+01  4.280024988E+01  4.750000000E+00  0.00000E+00  9.000E+00
      -5     1     1     2     0   503  5.011904278E+01 -3.812615743E+01 -1.309713243E+02  1.454014189E+02  4.750000000E+00  0.00000E+00  9.000E+00
      21     1     1     2   502   512 -1.408300994E+01  3.635263288E+00  2.700684793E+00  1.479324192E+01  4.339283639E-07  0.00000E+00  9.000E+00
#rwgt            1           9   1.5847253493424202E-003           6     2218199           0
</event>
<event>
      6   9999  3.45752E-01  3.54627E+01 -1.00000E+00  1.43287E-01
      21    -1     0     0   511   502  0.000000000E+00  0.000000000E+00  3.326418746E+01  3.326418746E+01  0.000000000E+00  0.00000E+00  9.000E+00
      21    -1     0     0   502   503  0.000000000E+00  0.000000000E+00 -7.967012113E+02  7.967012113E+02  0.000000000E+00  0.00000E+00  9.000E+00
      25     1     1     2     0     0 -1.374893600E+01 -2.964953196E+01 -4.160156264E+02  4.356179275E+02  1.250033974E+02  0.00000E+00  9.000E+00
       5     1     1     2   501     0 -2.328155003E+00 -1.530416398E+01 -2.881799085E+01  3.305566271E+01  4.750000000E+00  0.00000E+00  9.000E+00
      -5     1     1     2     0   503  3.070358252E+01  1.264784654E+01 -3.237275296E+02  3.254608331E+02  4.750000000E+00  0.00000E+00  9.000E+00
      21     1     1     2   511   501 -1.462649151E+01  3.230584939E+01  5.124123036E+00  3.583097537E+01  8.960542904E-07  0.00000E+00  9.000E+00
#rwgt            1           9   3.7922373352420329E-003           6     2220701           0
</event>
<event>
      6   9999 -3.45752E-01  3.27451E+00 -1.00000E+00  2.67331E-01
       2    -1     0     0   501     0  0.000000000E+00  0.000000000E+00  4.501322635E+02  4.501322635E+02  0.000000000E+00  0.00000E+00  9.000E+00
      21    -1     0     0   502   503  0.000000000E+00  0.000000000E+00 -1.089788967E+03  1.089788967E+03  0.000000000E+00  0.00000E+00  9.000E+00
      25     1     1     2     0     0  3.142965920E+00  7.259913167E-03 -1.025024447E+03  1.032621494E+03  1.249886196E+02  0.00000E+00  9.000E+00
       5     1     1     2   501     0  6.206377923E-01 -7.861501886E-01  2.297716390E+01  2.348437320E+01  4.750000000E+00  0.00000E+00  9.000E+00
      -5     1     1     2     0   503 -2.554259305E+00 -2.264113404E+00 -6.056515888E+01  6.084695079E+01  4.750000000E+00  0.00000E+00  9.000E+00
       2     1     1     2   502     0 -1.209344407E+00  3.043003679E+00  4.229557377E+02  4.229684130E+02  7.629394531E-06  0.00000E+00  9.000E+00
#rwgt            1           9  -2.9371829209119980E-002           6     2221959           0
</event>
<event>
      6   9999  3.45752E-01  8.87754E+00 -1.00000E+00  1.92810E-01
      21    -1     0     0   511   502  0.000000000E+00  0.000000000E+00  1.333780719E+03  1.333780719E+03  0.000000000E+00  0.00000E+00  9.000E+00
      21    -1     0     0   502   503  0.000000000E+00  0.000000000E+00 -5.256926703E+00  5.256926703E+00  0.000000000E+00  0.00000E+00  9.000E+00
      25     1     1     2     0     0  2.540004563E+00 -4.746812764E-01  8.356958926E+02  8.449923287E+02  1.249709312E+02  0.00000E+00  9.000E+00
       5     1     1     2   501     0 -3.547216868E-01  1.186847184E+00  2.379261965E+02  2.379768307E+02  4.750000000E+00  0.00000E+00  9.000E+00
      -5     1     1     2     0   503 -7.500426746E+00  6.398381126E+00  6.170291230E+01  6.266584053E+01  4.750000000E+00  0.00000E+00  9.000E+00
      21     1     1     2   511   501  5.315143870E+00 -7.110547034E+00  1.931987909E+02  1.934026459E+02  3.814697266E-06  0.00000E+00  9.000E+00
#rwgt            1           9   2.8955917367927211E-002           6     2228901           0
</event>
<event>
      6   9999  3.45752E-01  1.99945E+01 -1.00000E+00  1.60219E-01
       3    -1     0     0   501     0  0.000000000E+00  0.000000000E+00  9.300730693E+01  9.300730693E+01  0.000000000E+00  0.00000E+00  9.000E+00
      21    -1     0     0   502   503  0.000000000E+00  0.000000000E+00 -1.203390447E+02  1.203390447E+02  0.000000000E+00  0.00000E+00  9.000E+00
      25     1     1     2     0     0  1.018858998E+01  6.948152057E+00 -5.413976308E+01  1.367852750E+02  1.250080531E+02  0.00000E+00  9.000E+00
       5     1     1     2   501     0 -1.933172753E+01  9.234588266E+00 -1.218089999E+01  2.509840900E+01  4.750000000E+00  0.00000E+00  9.000E+00
      -5     1     1     2     0   503 -3.304301851E-01  1.424993200E+00 -2.383462069E+00  5.512094081E+00  4.750000000E+00  0.00000E+00  9.000E+00
       3     1     1     2   502     0  9.473567741E+00 -1.760773352E+01  4.137238739E+01  4.595057348E+01  4.768371582E-07  0.00000E+00  9.000E+00
#rwgt            1           9   1.9654974243960472E-002           6     2231206           0
</event>
<event>
      6   9999  3.45752E-01  3.20876E+01 -1.00000E+00  1.45973E-01
      21    -1     0     0   501   502  0.000000000E+00  0.000000000E+00  7.685181186E+02  7.685181186E+02  0.000000000E+00  0.00000E+00  9.000E+00
      21    -1     0     0   511   503  0.000000000E+00  0.000000000E+00 -6.701892526E+01  6.701892526E+01  0.000000000E+00  0.00000E+00  9.000E+00
      25     1     1     2     0     0  4.182606830E+00 -1.232369012E+02  5.086989421E+02  5.381488258E+02  1.249988680E+02  0.00000E+00  9.000E+00
       5     1     1     2   501     0 -6.614392534E-01 -1.255253683E+00  8.267663765E+01  8.282512950E+01  4.750000000E+00  0.00000E+00  9.000E+00
      -5     1     1     2     0   503 -4.430449223E+00  9.241745028E+01  1.418595777E+02  1.694323354E+02  4.750000000E+00  0.00000E+00  9.000E+00
      21     1     1     2   511   502  9.092816462E-01  3.207470463E+01 -3.173596405E+01  4.513075320E+01  1.118282261E-06  0.00000E+00  9.000E+00
#rwgt            1           9   2.2164858562673792E-002           6     2232354           0
</event>
<event>
      6   9999  3.45752E-01  3.37392E+01 -1.00000E+00  1.44612E-01
      21    -1     0     0   501   502  0.000000000E+00  0.000000000E+00  1.549644785E+02  1.549644785E+02  0.000000000E+00  0.00000E+00  9.000E+00
      21    -1     0     0   512   503  0.000000000E+00  0.000000000E+00 -1.029635314E+03  1.029635314E+03  0.000000000E+00  0.00000E+00  9.000E+00
      25     1     1     2     0     0  1.392452307E+02 -2.181106223E+01 -8.279840385E+02  8.491450750E+02  1.249993343E+02  0.00000E+00  9.000E+00
       5     1     1     2   501     0 -1.168380028E+00  3.276146218E+00  1.181313622E+02  1.182779754E+02  4.750000000E+00  0.00000E+00  9.000E+00
      -5     1     1     2     0   503 -1.058630065E+02  8.504707656E+00 -1.113239472E+02  1.539314455E+02  4.750000000E+00  0.00000E+00  9.000E+00
      21     1     1     2   512   502 -3.221384424E+01  1.003020836E+01 -5.349421228E+01  6.324529696E+01  6.743495762E-07  0.00000E+00  9.000E+00
#rwgt            1           9   1.2125521465874149E-003           6     2233955           0
</event>
<event>
      6   9999  3.45752E-01  5.46289E+01 -1.00000E+00  1.32762E-01
      21    -1     0     0   511   502  0.000000000E+00  0.000000000E+00  3.039532628E+01  3.039532628E+01  0.000000000E+00  0.00000E+00  9.000E+00
      21    -1     0     0   502   503  0.000000000E+00  0.000000000E+00 -1.118094021E+03  1.118094021E+03  0.000000000E+00  0.00000E+00  9.000E+00
      25     1     1     2     0     0  1.269468593E+02  3.171870387E+01 -7.517659662E+02  7.732390882E+02  1.250001533E+02  0.00000E+00  9.000E+00
       5     1     1     2   501     0  5.980555201E+00 -3.322201716E-01  3.328616017E+00  8.337841168E+00  4.750000000E+00  0.00000E+00  9.000E+00
      -5     1     1     2     0   503 -7.831021756E+01 -3.251512062E+01 -2.155247559E+02  2.316532023E+02  4.750000000E+00  0.00000E+00  9.000E+00
      21     1     1     2   511   501 -5.461719697E+01  1.128636925E+00 -1.237365884E+02  1.352592153E+02  1.348699152E-06  0.00000E+00  9.000E+00
#rwgt            1           9   3.0981262405553448E-003           6     2235818           0
</event>
<event>
      6   9999 -3.45752E-01  1.20365E+01 -1.00000E+00  1.79095E-01
      21    -1     0     0   512   502  0.000000000E+00  0.000000000E+00  1.560253382E+01  1.560253382E+01  0.000000000E+00  0.00000E+00  9.000E+00
      21    -1     0     0   502   503  0.000000000E+00  0.000000000E+00 -6.961009109E+02  6.961009109E+02  0.000000000E+00  0.00000E+00  9.000E+00
      25     1     1     2     0     0 -1.005539508E-01  2.536501312E+01 -6.427493962E+02  6.552819278E+02  1.249968981E+02  0.00000E+00  9.000E+00
       5     1     1     2   501     0  1.142671057E+00  1.188634449E+00  3.797372871E+00  6.300880075E+00  4.750000000E+00  0.00000E+00  9.000E+00
      -5     1     1     2     0   503  2.106505934E+00 -1.493631688E+01 -2.070976060E+01  2.605739076E+01  4.750000000E+00  0.00000E+00  9.000E+00
      21     1     1     2   512   501 -3.148623040E+00 -1.161733069E+01 -2.083659311E+01  2.406324608E+01  4.768371582E-07  0.00000E+00  9.000E+00
#rwgt            1           9  -1.3037846927001275E-004           6     2237033           0
</event>
<event>
      6   9999 -3.45752E-01  1.34218E+01 -1.00000E+00  1.74665E-01
      21    -1     0     0   511   502  0.000000000E+00  0.000000000E+00  2.974627034E+02  2.974627034E+02  0.000000000E+00  0.00000E+00  9.000E+00
      21    -1     0     0   502   503  0.000000000E+00  0.000000000E+00 -9.590328181E+02  9.590328181E+02  0.000000000E+00  0.00000E+00  9.000E+00
      25     1     1     2     0     0 -1.281775401E+01 -5.427866082E+00 -9.193524381E+02  9.279164800E+02  1.250053270E+02  0.00000E+00  9.000E+00
       5     1     1     2   501     0  2.689681415E+00 -5.660098576E+00  1.260055397E+01  1.485286377E+01  4.750000000E+00  0.00000E+00  9.000E+00
      -5     1     1     2     0   503  4.339054306E+00 -1.021194835E+00 -3.379987579E+01  3.442185838E+01  4.750000000E+00  0.00000E+00  9.000E+00
      21     1     1     2   511   501  5.789018286E+00  1.210915949E+01  2.789816452E+02  2.793043194E+02  5.394796609E-06  0.00000E+00  9.000E+00
#rwgt            1           9  -1.7369326562931549E-004           6     2239048           0
</event>
<event>
      6   9999  3.45752E-01  8.23411E+00 -1.00000E+00  1.96544E-01
      21    -1     0     0   501   512  0.000000000E+00  0.000000000E+00  8.898166974E+01  8.898166974E+01  0.000000000E+00  0.00000E+00  9.000E+00
      21    -1     0     0   502   503  0.000000000E+00  0.000000000E+00 -2.010009122E+02  2.010009122E+02  0.000000000E+00  0.00000E+00  9.000E+00
      25     1     1     2     0     0  2.598207224E+00 -2.661557159E+01 -1.629946450E+02  2.071417618E+02  1.250012634E+02  0.00000E+00  9.000E+00
       5     1     1     2   501     0  1.118152738E+00  9.131105082E-01  4.460557657E+01  4.488099817E+01  4.750000000E+00  0.00000E+00  9.000E+00
      -5     1     1     2     0   503 -1.191514140E+01  2.494055946E+01  8.766614879E+00  2.938397756E+01  4.750000000E+00  0.00000E+00  9.000E+00
      21     1     1     2   502   512  8.198781437E+00  7.619016200E-01 -2.396788943E+00  8.575844469E+00  2.980232239E-08  0.00000E+00  9.000E+00
#rwgt            1           9   4.8485880200366061E-003           6     2241352           0
</event>
<event>
      6   9999  3.45752E-01  2.78518E+01 -1.00000E+00  1.49956E-01
      21    -1     0     0   501   502  0.000000000E+00  0.000000000E+00  3.416352839E+02  3.416352839E+02  0.000000000E+00  0.00000E+00  9.000E+00
      21    -1     0     0   502   511  0.000000000E+00  0.000000000E+00 -4.153924847E+02  4.153924847E+02  0.000000000E+00  0.00000E+00  9.000E+00
      25     1     1     2     0     0  8.957108724E+01  3.342711385E+01 -1.299387794E+02  2.040735910E+02  1.249863695E+02  0.00000E+00  9.000E+00
       5     1     1     2   501     0 -2.834547012E+00  2.204340903E+00  2.941990900E+02  2.942593428E+02  4.750000000E+00  0.00000E+00  9.000E+00
      -5     1     1     2     0   503 -5.970002224E+01 -4.232099561E+01 -1.788179983E+02  1.932707902E+02  4.750000000E+00  0.00000E+00  9.000E+00
      21     1     1     2   503   511 -2.703651799E+01  6.689540864E+00 -5.919951311E+01  6.542404462E+01  1.168007728E-06  0.00000E+00  9.000E+00
#rwgt            1           9  0.20625397816415550                6     2244732           0
</event>
<event>
      6   9999  3.45752E-01  1.03929E+01 -1.00000E+00  1.85448E-01
      21    -1     0     0   512   502  0.000000000E+00  0.000000000E+00  8.912679466E+02  8.912679466E+02  0.000000000E+00  0.00000E+00  9.000E+00
      21    -1     0     0   502   503  0.000000000E+00  0.000000000E+00 -1.057851164E+01  1.057851164E+01  0.000000000E+00  0.00000E+00  9.000E+00
      25     1     1     2     0     0  7.570568603E+00  6.231294981E+00  3.755628816E+02  3.959396505E+02  1.249983449E+02  0.00000E+00  9.000E+00
       5     1     1     2   501     0 -2.055388335E-01  1.936582283E+00  2.439049842E+02  2.439590056E+02  4.750000000E+00  0.00000E+00  9.000E+00
      -5     1     1     2     0   503 -2.042028522E+00  7.583789874E-01  2.730978282E+01  2.780524693E+01  4.750000000E+00  0.00000E+00  9.000E+00
      21     1     1     2   512   501 -5.323001247E+00 -8.926256251E+00  2.339117864E+02  2.341425553E+02  3.814697266E-06  0.00000E+00  9.000E+00
#rwgt            1           9   4.3579717678849419E-004           6     2248521           0
</event>
<event>
      6   9999  3.45752E-01  1.08139E+01 -1.00000E+00  1.83684E-01
      21    -1     0     0   501   511  0.000000000E+00  0.000000000E+00  2.884611430E+02  2.884611430E+02  0.000000000E+00  0.00000E+00  9.000E+00
      21    -1     0     0   502   503  0.000000000E+00  0.000000000E+00 -3.018757627E+03  3.018757627E+03  0.000000000E+00  0.00000E+00  9.000E+00
      25     1     1     2     0     0  4.153243407E+01  6.251712211E+00 -2.532614676E+03  2.536045595E+03  1.250045504E+02  0.00000E+00  9.000E+00
       5     1     1     2   501     0  1.513470891E+00 -2.713845860E+00  1.575985846E-01  5.678282382E+00  4.750000000E+00  0.00000E+00  9.000E+00
      -5     1     1     2     0   503 -5.048110070E+01 -1.139012829E+01 -4.801616201E+02  4.829656515E+02  4.750000000E+00  0.00000E+00  9.000E+00
      21     1     1     2   502   511  7.435195741E+00  7.852261936E+00  2.823222131E+02  2.825292412E+02  1.265191952E-05  0.00000E+00  9.000E+00
#rwgt            1           9   8.0409967161313529E-004           6     2250701           0
</event>
<event>
      6   9999  3.45752E-01  9.43088E+00 -1.00000E+00  1.89915E-01
      21    -1     0     0   501   502  0.000000000E+00  0.000000000E+00  2.033572108E+02  2.033572108E+02  0.000000000E+00  0.00000E+00  9.000E+00
      21    -1     0     0   512   503  0.000000000E+00  0.000000000E+00 -1.424585133E+02  1.424585133E+02  0.000000000E+00  0.00000E+00  9.000E+00
      25     1     1     2     0     0 -1.786173775E+01  2.497395630E+01  2.681397967E+01  1.314713508E+02  1.249919454E+02  0.00000E+00  9.000E+00
       5     1     1     2   501     0  6.798416771E-01 -4.342615249E-02  6.884678875E+01  6.901381667E+01  4.750000000E+00  0.00000E+00  9.000E+00
      -5     1     1     2     0   503  2.418574419E+01 -1.861487068E+01  5.069029663E+01  5.935934893E+01  4.750000000E+00  0.00000E+00  9.000E+00
      21     1     1     2   512   502 -7.003848123E+00 -6.315659468E+00 -8.545236751E+01  8.597120771E+01  0.000000000E+00  0.00000E+00  9.000E+00
#rwgt            1           9   3.3176847762866062E-003           6     2253141           0
</event>
<event>
      6   9999  3.45752E-01  8.42577E+01 -1.00000E+00  1.23683E-01
      21    -1     0     0   511   502  0.000000000E+00  0.000000000E+00  6.777761711E+01  6.777761711E+01  0.000000000E+00  0.00000E+00  9.000E+00
      21    -1     0     0   502   503  0.000000000E+00  0.000000000E+00 -1.198677033E+03  1.198677033E+03  0.000000000E+00  0.00000E+00  9.000E+00
      25     1     1     2     0     0 -6.641234298E+01  2.331693649E+01 -7.781993487E+02  7.913112533E+02  1.249999780E+02  0.00000E+00  9.000E+00
       5     1     1     2   501     0 -2.901850920E+01  7.774462905E+00  1.358551498E+01  3.331133241E+01  4.750000000E+00  0.00000E+00  9.000E+00
      -5     1     1     2     0   503  1.813397095E+01  2.442960303E+00 -3.565080926E+02  3.570089517E+02  4.750000000E+00  0.00000E+00  9.000E+00
      21     1     1     2   511   501  7.729688124E+01 -3.353435970E+01 -9.777489408E+00  8.482311258E+01  1.215700987E-06  0.00000E+00  9.000E+00
#rwgt            1           9   1.3096544663282706E-002           6     2255920           0
</event>
<event>
      6   9999 -3.45752E-01  1.10502E+01 -1.00000E+00  1.82738E-01
      21    -1     0     0   501   512  0.000000000E+00  0.000000000E+00  1.094691499E+02  1.094691499E+02  0.000000000E+00  0.00000E+00  9.000E+00
      21    -1     0     0   502   503  0.000000000E+00  0.000000000E+00 -1.373345467E+03  1.373345467E+03  0.000000000E+00  0.00000E+00  9.000E+00
      25     1     1     2     0     0 -5.798010242E+00  6.502388891E-01 -1.279177494E+03  1.285282847E+03  1.249915813E+02  0.00000E+00  9.000E+00
       5     1     1     2   501     0 -5.248395163E+00 -3.286176080E+00  2.343630289E+00  8.148601595E+00  4.750000000E+00  0.00000E+00  9.000E+00
      -5     1     1     2     0   503  3.617272428E-02  1.696618458E+00 -8.783850469E+01  8.798320993E+01  4.750000000E+00  0.00000E+00  9.000E+00
      21     1     1     2   502   512  1.101023268E+01  9.393187328E-01  1.007960515E+02  1.013999583E+02  3.303624740E-06  0.00000E+00  9.000E+00
#rwgt            1           9  -4.6331464656053312E-002           6     2256527           0
</event>
<event>
      6   9999  3.45752E-01  3.18358E+01 -1.00000E+00  1.46189E-01
      21    -1     0     0   501   502  0.000000000E+00  0.000000000E+00  2.140683072E+03  2.140683072E+03  0.000000000E+00  0.00000E+00  9.000E+00
       2    -1     0     0   502     0  0.000000000E+00  0.000000000E+00 -5.078992783E+02  5.078992783E+02  0.000000000E+00  0.00000E+00  9.000E+00
      25     1     1     2     0     0 -2.629322496E+01 -3.661213089E+01  3.143907767E+01  1.365542190E+02  1.250074291E+02  0.00000E+00  9.000E+00
       5     1     1     2   501     0 -2.922772477E+00  4.311786300E+00  2.037649882E+03  2.037662076E+03  4.750000000E+00  0.00000E+00  9.000E+00
      -5     1     1     2     0   503 -2.471764581E+00  3.536692092E+01  1.116507269E+00  3.578739728E+01  4.750000000E+00  0.00000E+00  9.000E+00
       2     1     1     2   503     0  3.168776202E+01 -3.066576331E+00 -4.374216735E+02  4.385786573E+02  1.078959322E-05  0.00000E+00  9.000E+00
#rwgt            1           9   11.526232174709515                6     2259946           0
</event>
<event>
      6   9999  3.45752E-01  1.14257E+01 -1.00000E+00  1.81296E-01
      21    -1     0     0   501   502  0.000000000E+00  0.000000000E+00  8.028927444E+00  8.028927444E+00  0.000000000E+00  0.00000E+00  9.000E+00
      21    -1     0     0   511   503  0.000000000E+00  0.000000000E+00 -7.425452842E+02  7.425452842E+02  0.000000000E+00  0.00000E+00  9.000E+00
      25     1     1     2     0     0 -1.604901504E+01  2.168343418E+00 -6.017440485E+02  6.148030414E+02  1.249984284E+02  0.00000E+00  9.000E+00
       5     1     1     2   501     0 -4.534456923E-01 -6.098211417E-01 -2.113300723E+01  2.167357814E+01  4.750000000E+00  0.00000E+00  9.000E+00
      -5     1     1     2     0   503  7.346605041E+00 -8.393471104E+00 -5.603921221E+01  5.733566750E+01  4.750000000E+00  0.00000E+00  9.000E+00
      21     1     1     2   511   502  9.155855696E+00  6.834948828E+00 -5.560008877E+01  5.676192466E+01  9.536743164E-07  0.00000E+00  9.000E+00
#rwgt            1           9   3.2115311132745347E-005           6     2262109           0
</event>
<event>
      6   9999  3.45752E-01  5.60499E+00 -1.00000E+00  2.18262E-01
      21    -1     0     0   512   502  0.000000000E+00  0.000000000E+00  1.352224504E+01  1.352224504E+01  0.000000000E+00  0.00000E+00  9.000E+00
      21    -1     0     0   502   503  0.000000000E+00  0.000000000E+00 -9.197823040E+02  9.197823040E+02  0.000000000E+00  0.00000E+00  9.000E+00
      25     1     1     2     0     0 -3.805031593E+01 -2.849521098E+01 -5.202440433E+02  5.371564137E+02  1.249933783E+02  0.00000E+00  9.000E+00
       5     1     1     2   501     0  6.787237921E-01 -1.536662039E+00  1.606548728E+00  5.288241203E+00  4.750000000E+00  0.00000E+00  9.000E+00
      -5     1     1     2     0   503  3.396224395E+01  2.558302138E+01 -3.671324663E+02  3.696170117E+02  4.750000000E+00  0.00000E+00  9.000E+00
      21     1     1     2   512   501  3.409348191E+00  4.448851643E+00 -2.049009816E+01  2.124288254E+01  5.331201500E-07  0.00000E+00  9.000E+00
#rwgt            1           9   1.7878429035739034E-004           6     2264122           0
</event>
<event>
      6   9999  3.45752E-01  4.40687E+01 -1.00000E+00  1.37789E-01
      21    -1     0     0   511   502  0.000000000E+00  0.000000000E+00  1.236375588E+01  1.236375588E+01  0.000000000E+00  0.00000E+00  9.000E+00
      21    -1     0     0   502   503  0.000000000E+00  0.000000000E+00 -8.716859485E+02  8.716859485E+02  0.000000000E+00  0.00000E+00  9.000E+00
      25     1     1     2     0     0 -4.173460881E+01 -2.194322966E+00 -5.689111333E+02  5.839794600E+02  1.250021580E+02  0.00000E+00  9.000E+00
       5     1     1     2   501     0  4.444797184E+00 -2.355534566E+00 -8.349736886E+01  8.378351790E+01  4.750000000E+00  0.00000E+00  9.000E+00
      -5     1     1     2     0   503 -5.059615197E+00  1.673922877E+01 -7.694685380E+01  7.905176972E+01  4.750000000E+00  0.00000E+00  9.000E+00
      21     1     1     2   511   501  4.234942683E+01 -1.218937124E+01 -1.299668367E+02  1.372349568E+02  1.907348633E-06  0.00000E+00  9.000E+00
#rwgt            1           9   1.5815434890736530E-003           6     2268415           0
</event>
<event>
      6   9999  3.45752E-01  1.20109E+01 -1.00000E+00  1.79184E-01
      21    -1     0     0   501   502  0.000000000E+00  0.000000000E+00  1.783279527E+02  1.783279527E+02  0.000000000E+00  0.00000E+00  9.000E+00
      21    -1     0     0   512   503  0.000000000E+00  0.000000000E+00 -3.823884654E+01  3.823884654E+01  0.000000000E+00  0.00000E+00  9.000E+00
      25     1     1     2     0     0 -1.342487418E+01  7.321426615E+00  1.010054010E+02  1.614438562E+02  1.250127880E+02  0.00000E+00  9.000E+00
       5     1     1     2   501     0 -1.133346810E+00  3.068269594E-01  3.210702100E+01  3.247771413E+01  4.750000000E+00  0.00000E+00  9.000E+00
      -5     1     1     2     0   503  3.125810706E+00 -3.945633477E+00  8.014819372E+00  1.058954889E+01  4.750000000E+00  0.00000E+00  9.000E+00
      21     1     1     2   512   502  1.143241029E+01 -3.682620098E+00 -1.038135171E+00  1.205568000E+01  1.105099691E-07  0.00000E+00  9.000E+00
#rwgt            1           9   2.2243180935575262E-004           6     2269363           0
</event>
<event>
      6   9999 -3.45752E-01  1.55583E+01 -1.00000E+00  1.69007E-01
      21    -1     0     0   502   503  0.000000000E+00  0.000000000E+00  8.967138569E+00  8.967138569E+00  0.000000000E+00  0.00000E+00  9.000E+00
      21    -1     0     0   511   502  0.000000000E+00  0.000000000E+00 -8.324177766E+02  8.324177766E+02  0.000000000E+00  0.00000E+00  9.000E+00
      25     1     1     2     0     0  4.794068173E+00  1.012411956E+01 -4.839057635E+02  4.999150598E+02  1.249991930E+02  0.00000E+00  9.000E+00
       5     1     1     2   501     0  2.907178724E+00  4.108585265E+00 -2.253364287E+02  2.254426773E+02  4.750000000E+00  0.00000E+00  9.000E+00
      -5     1     1     2     0   503  5.206517347E-01 -1.024359118E+00 -2.528824659E+01  2.575613142E+01  4.750000000E+00  0.00000E+00  9.000E+00
      21     1     1     2   511   501 -8.221898632E+00 -1.320834571E+01 -8.892019928E+01  9.027104660E+01  1.907348633E-06  0.00000E+00  9.000E+00
#rwgt            1           9  -1.6019992192719680E-003           6     2271470           0
</event>
<event>
      6   9999  3.45752E-01  2.51479E+00 -1.00000E+00  2.98617E-01
      21    -1     0     0   501   512  0.000000000E+00  0.000000000E+00  1.035197518E+01  1.035197518E+01  0.000000000E+00  0.00000E+00  9.000E+00
      21    -1     0     0   502   503  0.000000000E+00  0.000000000E+00 -8.156076001E+02  8.156076001E+02  0.000000000E+00  0.00000E+00  9.000E+00
      25     1     1     2     0     0 -5.084903135E+00  5.233436604E+00 -7.840616259E+02  7.939944778E+02  1.249854089E+02  0.00000E+00  9.000E+00
       5     1     1     2   501     0  6.950420543E-01  9.584581032E-01  3.144127575E+00  5.818054967E+00  4.750000000E+00  0.00000E+00  9.000E+00
      -5     1     1     2     0   503  3.352467866E+00 -3.901046217E+00 -1.680158091E+01  1.820200053E+01  4.750000000E+00  0.00000E+00  9.000E+00
      21     1     1     2   502   512  1.037393215E+00 -2.290848491E+00 -7.536545671E+00  7.945041985E+00  8.429369702E-08  0.00000E+00  9.000E+00
#rwgt            1           9   8.2206090478223511E-005           6     2273151           0
</event>
<event>
      6   9999  3.45752E-01  1.03172E+01 -1.00000E+00  1.85776E-01
      21    -1     0     0   511   502  0.000000000E+00  0.000000000E+00  1.724215111E+01  1.724215111E+01  0.000000000E+00  0.00000E+00  9.000E+00
      21    -1     0     0   502   503  0.000000000E+00  0.000000000E+00 -9.206052271E+02  9.206052271E+02  0.000000000E+00  0.00000E+00  9.000E+00
      25     1     1     2     0     0  1.261171041E+01  1.030825601E+01 -8.692714557E+02  8.783645964E+02  1.250047403E+02  0.00000E+00  9.000E+00
       5     1     1     2   501     0 -3.800081706E+00  3.129311766E+00  7.933213288E+00  1.047528454E+01  4.750000000E+00  0.00000E+00  9.000E+00
      -5     1     1     2     0   503 -1.294590777E+01 -3.984905054E+00 -2.928752297E+01  3.261590866E+01  4.750000000E+00  0.00000E+00  9.000E+00
      21     1     1     2   511   501  4.134279067E+00 -9.452662719E+00 -1.273731055E+01  1.639158857E+01  2.920019320E-07  0.00000E+00  9.000E+00
#rwgt            1           9   1.0617458918757344E-004           6     2279608           0
</event>
<event>
      6   9999  3.45752E-01  3.55577E+00 -1.00000E+00  2.58930E-01
      21    -1     0     0   512   502  0.000000000E+00  0.000000000E+00  2.497044749E+01  2.497044749E+01  0.000000000E+00  0.00000E+00  9.000E+00
      21    -1     0     0   502   503  0.000000000E+00  0.000000000E+00 -7.321239394E+02  7.321239394E+02  0.000000000E+00  0.00000E+00  9.000E+00
      25     1     1     2     0     0  1.421155364E+00 -9.852607186E+00 -6.847748822E+02  6.961568805E+02  1.249746754E+02  0.00000E+00  9.000E+00
       5     1     1     2   501     0  3.890349635E+00  4.324649089E+00 -4.417490459E+00  8.712871626E+00  4.750000000E+00  0.00000E+00  9.000E+00
      -5     1     1     2     0   503 -3.896971123E+00  8.790258552E+00 -3.407512100E+01  3.572298141E+01  4.750000000E+00  0.00000E+00  9.000E+00
      21     1     1     2   512   501 -1.414533876E+00 -3.262300454E+00  1.611400173E+01  1.650165332E+01  7.152557373E-07  0.00000E+00  9.000E+00
#rwgt            1           9   1.4459033654402485E-003           6     2282376           0
</event>
<event>
      6   9999  3.45752E-01  3.75836E+00 -1.00000E+00  2.53588E-01
      21    -1     0     0   501   502  0.000000000E+00  0.000000000E+00  7.586615717E+00  7.586615717E+00  0.000000000E+00  0.00000E+00  9.000E+00
      21    -1     0     0   511   503  0.000000000E+00  0.000000000E+00 -8.498735317E+02  8.498735317E+02  0.000000000E+00  0.00000E+00  9.000E+00
      25     1     1     2     0     0 -1.786314448E+00 -1.278634191E+01 -7.030631234E+02  7.142431458E+02  1.252151527E+02  0.00000E+00  9.000E+00
       5     1     1     2   501     0  4.747171625E-01  4.279262141E-01 -4.053868877E+00  6.277326669E+00  4.750000000E+00  0.00000E+00  9.000E+00
      -5     1     1     2     0   503  1.104480236E+00  1.611106395E+01 -8.635667227E+01  8.798195045E+01  4.750000000E+00  0.00000E+00  9.000E+00
      21     1     1     2   511   502  2.071170495E-01 -3.752648260E+00 -4.881325146E+01  4.895772446E+01  1.168007728E-06  0.00000E+00  9.000E+00
#rwgt            1           9  0.12787773235918753                6     2286942           0
</event>
<event>
      6   9999 -3.45752E-01  2.82802E+01 -1.00000E+00  1.49516E-01
      21    -1     0     0   501   502  0.000000000E+00  0.000000000E+00  1.067964687E+01  1.067964687E+01  0.000000000E+00  0.00000E+00  9.000E+00
      21    -1     0     0   512   503  0.000000000E+00  0.000000000E+00 -1.431602797E+03  1.431602797E+03  0.000000000E+00  0.00000E+00  9.000E+00
      25     1     1     2     0     0  4.574924112E+01 -2.273648377E+01 -1.052127295E+03  1.060757650E+03  1.250000215E+02  0.00000E+00  9.000E+00
       5     1     1     2   501     0  2.449379727E+00 -1.357294347E+00 -1.137221006E+00  5.630051563E+00  4.750000000E+00  0.00000E+00  9.000E+00
      -5     1     1     2     0   503 -2.667032974E+01  5.755156062E+00 -5.150410977E+01  5.847789440E+01  4.750000000E+00  0.00000E+00  9.000E+00
      21     1     1     2   512   502 -2.152829110E+01  1.833862205E+01 -3.161545240E+02  3.174168480E+02  0.000000000E+00  0.00000E+00  9.000E+00
#rwgt            1           9  -1.3164798642759291E-004           6     2292119           0
</event>
<event>
      6   9999  3.45752E-01  7.70301E+00 -1.00000E+00  1.99981E-01
      21    -1     0     0   511   502  0.000000000E+00  0.000000000E+00  2.121149821E+02  2.121149821E+02  0.000000000E+00  0.00000E+00  9.000E+00
      21    -1     0     0   502   503  0.000000000E+00  0.000000000E+00 -1.006648961E+03  1.006648961E+03  0.000000000E+00  0.00000E+00  9.000E+00
      25     1     1     2     0     0 -6.837458979E+01 -5.385377646E+00 -7.846114014E+02  7.974607778E+02  1.249982169E+02  0.00000E+00  9.000E+00
       5     1     1     2   501     0  3.743801646E+00  1.263699111E+00  7.692394296E+00  9.866530100E+00  4.750000000E+00  0.00000E+00  9.000E+00
      -5     1     1     2     0   503  7.150541864E+01  7.596708386E+00 -2.083938202E+02  2.205023393E+02  4.750000000E+00  0.00000E+00  9.000E+00
      21     1     1     2   511   501 -6.874630497E+00 -3.475029851E+00  1.907788483E+02  1.909342959E+02  2.697398305E-06  0.00000E+00  9.000E+00
#rwgt            1           9   7.7886767630654821E-005           6     2293314           0
</event>
<event>
      6   9999  3.45752E-01  3.50376E+01 -1.00000E+00  1.43606E-01
      21    -1     0     0   502   503  0.000000000E+00  0.000000000E+00  1.632034980E+01  1.632034980E+01  0.000000000E+00  0.00000E+00  9.000E+00
      21    -1     0     0   501   512  0.000000000E+00  0.000000000E+00 -1.130075494E+03  1.130075494E+03  0.000000000E+00  0.00000E+00  9.000E+00
      25     1     1     2     0     0 -5.364836347E+01  1.525845737E+01 -4.041404550E+02  4.266927400E+02  1.250048784E+02  0.00000E+00  9.000E+00
       5     1     1     2   501     0  6.948535645E+01 -6.370027487E-01 -4.085636108E+02  4.144579679E+02  4.750000000E+00  0.00000E+00  9.000E+00
      -5     1     1     2     0   503  5.085354256E+00  1.348353821E+01 -7.852314048E+01  7.997570082E+01  4.750000000E+00  0.00000E+00  9.000E+00
      21     1     1     2   502   512 -2.092234723E+01 -2.810499282E+01 -2.225279379E+02  2.252694351E+02  0.000000000E+00  0.00000E+00  9.000E+00
#rwgt            1           9   2.2844319378475500E-003           6     2297050           0
</event>
<event>
      6   9999 -3.45752E-01  1.85753E+01 -1.00000E+00  1.62699E-01
      21    -1     0     0   501   502  0.000000000E+00  0.000000000E+00  2.725363628E+01  2.725363628E+01  0.000000000E+00  0.00000E+00  9.000E+00
      21    -1     0     0   511   503  0.000000000E+00  0.000000000E+00 -1.656895963E+03  1.656895963E+03  0.000000000E+00  0.00000E+00  9.000E+00
      25     1     1     2     0     0  5.898277819E+01  5.314530228E+01 -2.572635956E+02  2.977796594E+02  1.272194035E+02  0.00000E+00  9.000E+00
       5     1     1     2   501     0 -1.329233007E+00 -1.593773728E-01  3.397671191E+00  5.991571668E+00  4.750000000E+00  0.00000E+00  9.000E+00
      -5     1     1     2     0   503 -6.962606844E+01 -3.878382783E+01 -7.333310598E+02  7.376645447E+02  4.750000000E+00  0.00000E+00  9.000E+00
      21     1     1     2   511   502  1.197252326E+01 -1.420209708E+01 -6.424453428E+02  6.427138238E+02  7.629394531E-06  0.00000E+00  9.000E+00
#rwgt            1           9  -1.2225027373006245E-004           6     2298087           0
</event>
<event>
      6   9999  3.45752E-01  9.82878E+00 -1.00000E+00  1.87987E-01
      21    -1     0     0   501   512  0.000000000E+00  0.000000000E+00  3.699728742E+01  3.699728742E+01  0.000000000E+00  0.00000E+00  9.000E+00
      21    -1     0     0   502   503  0.000000000E+00  0.000000000E+00 -1.143051485E+03  1.143051485E+03  0.000000000E+00  0.00000E+00  9.000E+00
      25     1     1     2     0     0 -4.799796001E+01  8.310558451E+01 -3.526169182E+02  3.862294944E+02  1.249967560E+02  0.00000E+00  9.000E+00
       5     1     1     2   501     0  7.443088541E-01 -1.129650431E-02  1.067692129E+01  1.170953763E+01  4.750000000E+00  0.00000E+00  9.000E+00
      -5     1     1     2     0   503  3.851597595E+01 -8.759516461E+01 -7.661125137E+02  7.720798789E+02  4.750000000E+00  0.00000E+00  9.000E+00
      21     1     1     2   502   512  8.737675204E+00  4.500876596E+00  1.998313363E+00  1.002986114E+01  4.390156228E-07  0.00000E+00  9.000E+00
#rwgt            1           9   1.1718195638027134E-003           6     2300204           0
</event>
<event>
      6   9999  3.45752E-01  3.67441E+01 -1.00000E+00  1.42358E-01
      21    -1     0     0   501   502  0.000000000E+00  0.000000000E+00  9.778433856E+01  9.778433856E+01  0.000000000E+00  0.00000E+00  9.000E+00
      21    -1     0     0   511   503  0.000000000E+00  0.000000000E+00 -1.845268321E+03  1.845268321E+03  0.000000000E+00  0.00000E+00  9.000E+00
      25     1     1     2     0     0 -9.557955597E+01  1.876018174E+02 -9.642636802E+02  9.948680202E+02  1.250121561E+02  0.00000E+00  9.000E+00
       5     1     1     2   501     0 -2.317710939E+00  3.358351808E+00  6.902715572E+01  6.931061273E+01  4.750000000E+00  0.00000E+00  9.000E+00
      -5     1     1     2     0   503  8.252080265E+01 -1.575881344E+02 -7.057054054E+02  7.277955652E+02  4.750000000E+00  0.00000E+00  9.000E+00
      21     1     1     2   511   502  1.537646426E+01 -3.337203480E+01 -1.465420520E+02  1.510784610E+02  1.907348633E-06  0.00000E+00  9.000E+00
#rwgt            1           9   2.2361460928897167E-002           6     2303467           0
</event>
<event>
      6   9999  3.45752E-01  8.45232E+00 -1.00000E+00  1.95229E-01
      21    -1     0     0   501   502  0.000000000E+00  0.000000000E+00  3.312032133E+02  3.312032133E+02  0.000000000E+00  0.00000E+00  9.000E+00
      21    -1     0     0   512   503  0.000000000E+00  0.000000000E+00 -2.301231107E+02  2.301231107E+02  0.000000000E+00  0.00000E+00  9.000E+00
      25     1     1     2     0     0 -2.169298745E+02  8.056093764E+01  3.441514845E+01  2.652516315E+02  1.250015616E+02  0.00000E+00  9.000E+00
       5     1     1     2   501     0  4.632198892E-01  2.657702501E+00  6.252887201E+01  6.276703187E+01  4.750000000E+00  0.00000E+00  9.000E+00
      -5     1     1     2     0   503  2.086031723E+02 -8.011907637E+01  8.743025422E+00  2.236813646E+02  4.750000000E+00  0.00000E+00  9.000E+00
      21     1     1     2   512   502  7.863482336E+00 -3.099563772E+00 -4.606943207E+00  9.626296055E+00  0.000000000E+00  0.00000E+00  9.000E+00
#rwgt            1           9   1.9338804720753808E-002           6     2305635           0
</event>
<event>
      6   9999  3.45752E-01  5.24525E+00 -1.00000E+00  2.22527E-01
      21    -1     0     0   501   502  0.000000000E+00  0.000000000E+00  1.951943513E+01  1.951943513E+01  0.000000000E+00  0.00000E+00  9.000E+00
      21    -1     0     0   502   511  0.000000000E+00  0.000000000E+00 -1.222740136E+03  1.222740136E+03  0.000000000E+00  0.00000E+00  9.000E+00
      25     1     1     2     0     0  1.717186291E+01 -2.156163538E+01 -8.819592987E+02  8.911995883E+02  1.249988985E+02  0.00000E+00  9.000E+00
       5     1     1     2   501     0 -1.811876758E+00 -4.905068412E+00  9.786512223E+00  1.206983492E+01  4.750000000E+00  0.00000E+00  9.000E+00
      -5     1     1     2     0   503 -1.659656861E+01  2.136929871E+01 -4.385008832E+01  5.174442736E+01  4.750000000E+00  0.00000E+00  9.000E+00
      21     1     1     2   503   511  1.236582457E+00  5.097405076E+00 -2.871978262E+02  2.872457207E+02  3.814697266E-06  0.00000E+00  9.000E+00
#rwgt            1           9   7.0681225314460523E-004           6     2310425           0
</event>
<event>
      6   9999  3.45752E-01  3.48866E+00 -1.00000E+00  2.60823E-01
      21    -1     0     0   501   502  0.000000000E+00  0.000000000E+00  1.511567464E+01  1.511567464E+01  0.000000000E+00  0.00000E+00  9.000E+00
       3    -1     0     0   502     0  0.000000000E+00  0.000000000E+00 -1.205730420E+03  1.205730420E+03  0.000000000E+00  0.00000E+00  9.000E+00
      25     1     1     2     0     0  5.196813334E+00 -2.872232905E+00 -7.589731706E+02  7.692205532E+02  1.249989168E+02  0.00000E+00  9.000E+00
       5     1     1     2   501     0 -1.634207576E+00 -1.727818301E+00  9.104084998E+00  1.054053386E+01  4.750000000E+00  0.00000E+00  9.000E+00
      -5     1     1     2     0   503 -1.002457590E+00  2.230158164E+00 -4.388081829E+01  4.420483278E+01  4.750000000E+00  0.00000E+00  9.000E+00
       3     1     1     2   503     0 -2.560148168E+00  2.369893042E+00 -3.968648417E+02  3.968801751E+02  0.000000000E+00  0.00000E+00  9.000E+00
#rwgt            1           9   1.1394166228790898E-003           6     2315158           0
</event>
<event>
      6   9999  3.45752E-01  4.67248E+01 -1.00000E+00  1.36381E-01
      21    -1     0     0   501   511  0.000000000E+00  0.000000000E+00  2.902851417E+03  2.902851417E+03  0.000000000E+00  0.00000E+00  9.000E+00
      21    -1     0     0   502   503  0.000000000E+00  0.000000000E+00 -3.199203294E+01  3.199203294E+01  0.000000000E+00  0.00000E+00  9.000E+00
      25     1     1     2     0     0  7.838982665E+01  3.383036536E+01  5.229774869E+02  5.444439823E+02  1.249973583E+02  0.00000E+00  9.000E+00
       5     1     1     2   501     0  1.092030581E+01 -1.137307714E+01  2.063342055E+03  2.063407763E+03  4.750000000E+00  0.00000E+00  9.000E+00
      -5     1     1     2     0   503 -5.502426484E+01 -5.420135915E+01  6.076023209E+01  9.838610348E+01  4.750000000E+00  0.00000E+00  9.000E+00
      21     1     1     2   502   511 -3.428586762E+01  3.174407093E+01  2.237796106E+02  2.286056011E+02  0.000000000E+00  0.00000E+00  9.000E+00
#rwgt            1           9   145.69301102984426                6     2321030           0
</event>
<event>
      6   9999  3.45752E-01  2.07118E+01 -1.00000E+00  1.59060E-01
      21    -1     0     0   502   503  0.000000000E+00  0.000000000E+00  5.920169827E+00  5.920169827E+00  0.000000000E+00  0.00000E+00  9.000E+00
      21    -1     0     0   501   512  0.000000000E+00  0.000000000E+00 -4.724612027E+03  4.724612027E+03  0.000000000E+00  0.00000E+00  9.000E+00
      25     1     1     2     0     0  3.207660635E+01  4.017874785E+01 -8.513188730E+02  8.619813702E+02  1.249992742E+02  0.00000E+00  9.000E+00
       5     1     1     2   501     0 -2.681184002E+01 -1.300473852E+01 -3.093900709E+03  3.094047860E+03  4.750000000E+00  0.00000E+00  9.000E+00
      -5     1     1     2     0   503  1.088518765E+01 -1.420645884E+01 -4.386927258E+02  4.390833417E+02  4.750000000E+00  0.00000E+00  9.000E+00
      21     1     1     2   502   512 -1.614995399E+01 -1.296755048E+01 -3.347795490E+02  3.354196250E+02  5.394796609E-06  0.00000E+00  9.000E+00
#rwgt            1           9   1.0483824542162584E-006           6     2322262           0
</event>
<event>
      6   9999  3.45752E-01  1.79958E+01 -1.00000E+00  1.63791E-01
      21    -1     0     0   511   502  0.000000000E+00  0.000000000E+00  2.341441965E+03  2.341441965E+03  0.000000000E+00  0.00000E+00  9.000E+00
      21    -1     0     0   502   503  0.000000000E+00  0.000000000E+00 -5.176208034E+00  5.176208034E+00  0.000000000E+00  0.00000E+00  9.000E+00
      25     1     1     2     0     0 -6.735691247E+01  2.738042588E+00  1.356631822E+03  1.364045106E+03  1.249987974E+02  0.00000E+00  9.000E+00
       5     1     1     2   501     0 -7.655059130E-01  3.175207805E-01  1.190706484E+02  1.191682367E+02  4.750000000E+00  0.00000E+00  9.000E+00
      -5     1     1     2     0   503  5.139801169E+01  3.588514884E+00  6.691487604E+02  6.711462278E+02  4.750000000E+00  0.00000E+00  9.000E+00
      21     1     1     2   511   501  1.672440669E+01 -6.644078253E+00  1.914145261E+02  1.922586028E+02  2.697398305E-06  0.00000E+00  9.000E+00
#rwgt            1           9   9.8698723103608993E-004           6     2324145           0
</event>
<event>
      6   9999  3.45752E-01  1.48268E+01 -1.00000E+00  1.70810E-01
      21    -1     0     0   512   502  0.000000000E+00  0.000000000E+00  3.387357229E+01  3.387357229E+01  0.000000000E+00  0.00000E+00  9.000E+00
      21    -1     0     0   502   503  0.000000000E+00  0.000000000E+00 -9.139864531E+02  9.139864531E+02  0.000000000E+00  0.00000E+00  9.000E+00
      25     1     1     2     0     0  8.144509927E-01 -1.293746366E+01 -8.235478354E+02  8.330808677E+02  1.249986143E+02  0.00000E+00  9.000E+00
       5     1     1     2   501     0  1.547654442E+00 -1.606096908E+00  1.011756238E+01  1.139747121E+01  4.750000000E+00  0.00000E+00  9.000E+00
      -5     1     1     2     0   503  2.938096500E+00  6.964463169E-01 -8.192464395E+01  8.211776443E+01  4.750000000E+00  0.00000E+00  9.000E+00
      21     1     1     2   512   501 -5.300201934E+00  1.384711425E+01  1.524203620E+01  2.126392205E+01  1.283923342E-06  0.00000E+00  9.000E+00
#rwgt            1           9   1.5861409123233422E-004           6     2325937           0
</event>
<event>
      6   9999  3.45752E-01  1.98659E+01 -1.00000E+00  1.60434E-01
      21    -1     0     0   501   502  0.000000000E+00  0.000000000E+00  1.818684126E+01  1.818684126E+01  0.000000000E+00  0.00000E+00  9.000E+00
      21    -1     0     0   511   503  0.000000000E+00  0.000000000E+00 -1.035094278E+03  1.035094278E+03  0.000000000E+00  0.00000E+00  9.000E+00
      25     1     1     2     0     0  5.563119969E+00  8.987087958E+00 -8.741425366E+02  8.831010014E+02  1.250219514E+02  0.00000E+00  9.000E+00
       5     1     1     2   501     0  1.007102938E+01  3.580635249E+00  1.002146504E+01  1.540255963E+01  4.750000000E+00  0.00000E+00  9.000E+00
      -5     1     1     2     0   503 -7.461806707E-01  5.852499270E-01 -2.670618981E+01  2.714189340E+01  4.750000000E+00  0.00000E+00  9.000E+00
      21     1     1     2   511   502 -1.488796868E+01 -1.315297313E+01 -1.260801756E+02  1.276356651E+02  1.348699152E-06  0.00000E+00  9.000E+00
#rwgt            1           9   1.3505237483949631E-004           6     2328046           0
</event>
<event>
      6   9999  3.45752E-01  1.07901E+01 -1.00000E+00  1.83781E-01
      21    -1     0     0   501   502  0.000000000E+00  0.000000000E+00  1.202397363E+01  1.202397363E+01  0.000000000E+00  0.00000E+00  9.000E+00
      21    -1     0     0   502   512  0.000000000E+00  0.000000000E+00 -1.434400361E+03  1.434400361E+03  0.000000000E+00  0.00000E+00  9.000E+00
      25     1     1     2     0     0  6.924600009E+00 -8.636900277E+00 -6.651929211E+02  6.769265911E+02  1.250017651E+02  0.00000E+00  9.000E+00
       5     1     1     2   501     0  1.280280000E+00  3.901966932E-01  5.037137362E+00  7.051710653E+00  4.750000000E+00  0.00000E+00  9.000E+00
      -5     1     1     2     0   503  1.899034857E+00  4.460224421E+00 -1.847274469E+02  1.848520817E+02  4.750000000E+00  0.00000E+00  9.000E+00
      21     1     1     2   503   512 -1.010391487E+01  3.786479163E+00 -5.774931569E+02  5.775939515E+02  7.629394531E-06  0.00000E+00  9.000E+00
#rwgt            1           9   5.0430905519776581E-002           6     2329584           0
</event>
<event>
      6   9999  3.45752E-01  8.39864E+00 -1.00000E+00  1.95547E-01
      -2    -1     0     0     0   503  0.000000000E+00  0.000000000E+00  7.069970394E+01  7.069970394E+01  0.000000000E+00  0.00000E+00  9.000E+00
      21    -1     0     0   501   502  0.000000000E+00  0.000000000E+00 -1.064022485E+03  1.064022485E+03  0.000000000E+00  0.00000E+00  9.000E+00
      25     1     1     2     0     0  3.500603046E+00 -2.553133375E+00 -1.011699002E+03  1.019401486E+03  1.250029891E+02  0.00000E+00  9.000E+00
       5     1     1     2   501     0  1.401049915E-01  5.966118580E-01 -1.053484774E+01  1.157242810E+01  4.750000000E+00  0.00000E+00  9.000E+00
      -5     1     1     2     0   503 -4.243043269E+00  1.033353689E+01 -3.615710142E+01  3.814031835E+01  4.750000000E+00  0.00000E+00  9.000E+00
      -2     1     1     2     0   502  6.023352311E-01 -8.377015373E+00  6.506816986E+01  6.560795625E+01  3.015782986E-06  0.00000E+00  9.000E+00
#rwgt            1           9   6.8117550869930169E-005           6     2332097           0
</event>
<event>
      6   9999  3.45752E-01  8.67179E+01 -1.00000E+00  1.23125E-01
      21    -1     0     0   501   502  0.000000000E+00  0.000000000E+00  2.472989965E+02  2.472989965E+02  0.000000000E+00  0.00000E+00  9.000E+00
      21    -1     0     0   502   511  0.000000000E+00  0.000000000E+00 -5.564206368E+02  5.564206368E+02  0.000000000E+00  0.00000E+00  9.000E+00
      25     1     1     2     0     0 -3.330670521E+01  3.346259968E+00 -5.325832117E+01  1.386302625E+02  1.235369048E+02  0.00000E+00  9.000E+00
       5     1     1     2   501     0  1.251694489E+01  7.390085950E+00  6.733179941E+01  6.904651325E+01  4.750000000E+00  0.00000E+00  9.000E+00
      -5     1     1     2     0   503  9.863879855E+01  2.746730652E+01  1.122721106E+02  1.520251783E+02  4.750000000E+00  0.00000E+00  9.000E+00
      21     1     1     2   503   511 -7.784903823E+01 -3.820365244E+01 -4.354672292E+02  4.440176793E+02  0.000000000E+00  0.00000E+00  9.000E+00
#rwgt            1           9   3.1981848683309620E-003           6     2334668           0
</event>
<event>
      6   9999  3.45752E-01  1.51153E+02 -1.00000E+00  1.13274E-01
       2    -1     0     0   501     0  0.000000000E+00  0.000000000E+00  1.134744665E+02  1.134744665E+02  0.000000000E+00  0.00000E+00  9.000E+00
      21    -1     0     0   512   502  0.000000000E+00  0.000000000E+00 -4.756873454E+02  4.756873454E+02  0.000000000E+00  0.00000E+00  9.000E+00
      25     1     1     2     0     0 -3.485407848E+01  1.298745240E+01 -2.174701819E+02  2.535777437E+02  1.249996455E+02  0.00000E+00  9.000E+00
       5     1     1     2   501     0 -5.637245815E+00 -7.925117249E+00  5.048755287E+00  1.194313417E+01  4.750000000E+00  0.00000E+00  9.000E+00
      -5     1     1     2     0   502 -5.361739173E+01 -1.233452654E+02 -5.608470022E+01  1.457975833E+02  4.750000000E+00  0.00000E+00  9.000E+00
       2     1     1     2   512     0  9.410871602E+01  1.182829303E+02 -9.370675203E+01  1.778433507E+02  3.015782986E-06  0.00000E+00  9.000E+00
#rwgt            1           4   3.7049866266113866E-004           6     2335189           0
</event>
<event>
      6   9999 -3.45752E-01  5.49476E+00 -1.00000E+00  2.19521E-01
      21    -1     0     0   511   503  0.000000000E+00  0.000000000E+00  1.677728636E+01  1.677728636E+01  0.000000000E+00  0.00000E+00  9.000E+00
      21    -1     0     0   501   502  0.000000000E+00  0.000000000E+00 -3.789966750E+03  3.789966750E+03  0.000000000E+00  0.00000E+00  9.000E+00
      25     1     1     2     0     0 -1.128739304E+02 -1.103076432E+02 -8.669464074E+02  8.900161824E+02  1.249977253E+02  0.00000E+00  9.000E+00
       5     1     1     2   501     0  1.246550288E+02  1.089230008E+02 -2.827883467E+03  2.832728466E+03  4.750000000E+00  0.00000E+00  9.000E+00
      -5     1     1     2     0   503 -6.324591574E+00  7.373881294E-01 -7.809527664E+01  7.849827344E+01  4.750000000E+00  0.00000E+00  9.000E+00
      21     1     1     2   511   502 -5.456506819E+00  6.472542650E-01 -2.643130306E-01  5.501114990E+00  2.906681478E-07  0.00000E+00  9.000E+00
#rwgt            1           9  -5.5332162694406335E-003           6     2335702           0
</event>
<event>
      6   9999  3.45752E-01  1.36871E+01 -1.00000E+00  1.73893E-01
      21    -1     0     0   501   512  0.000000000E+00  0.000000000E+00  1.692522818E+01  1.692522818E+01  0.000000000E+00  0.00000E+00  9.000E+00
      21    -1     0     0   502   503  0.000000000E+00  0.000000000E+00 -8.248307586E+02  8.248307586E+02  0.000000000E+00  0.00000E+00  9.000E+00
      25     1     1     2     0     0  2.002598989E+01 -2.045153393E+01 -4.727520517E+02  4.898362264E+02  1.250028829E+02  0.00000E+00  9.000E+00
       5     1     1     2   501     0  4.329411078E-02 -1.396093430E+00 -1.603167474E-01  4.953700910E+00  4.750000000E+00  0.00000E+00  9.000E+00
      -5     1     1     2     0   503 -1.051838088E+01  1.204372353E+01 -3.326643101E+02  3.330822621E+02  4.750000000E+00  0.00000E+00  9.000E+00
      21     1     1     2   502   512 -9.550903127E+00  9.803903838E+00 -2.328851926E+00  1.388379747E+01  3.384893147E-07  0.00000E+00  9.000E+00
#rwgt            1           9   1.4849923998021304E-004           6     2340881           0
</event>
<event>
      6   9999 -3.45752E-01  3.53716E+01 -1.00000E+00  1.43355E-01
      21    -1     0     0   511   502  0.000000000E+00  0.000000000E+00  3.859867861E+01  3.859867861E+01  0.000000000E+00  0.00000E+00  9.000E+00
      21    -1     0     0   502   503  0.000000000E+00  0.000000000E+00 -7.295044418E+02  7.295044418E+02  0.000000000E+00  0.00000E+00  9.000E+00
      25     1     1     2     0     0  2.567081492E+00 -4.795049265E+01 -6.182246581E+02  6.325598732E+02  1.249977024E+02  0.00000E+00  9.000E+00
       5     1     1     2   501     0  8.501665461E+00  1.761613333E+01 -4.510803625E+01  4.939538343E+01  4.750000000E+00  0.00000E+00  9.000E+00
      -5     1     1     2     0   503 -3.514189399E+00 -4.221054160E+00 -4.578908420E+01  4.636129374E+01  4.750000000E+00  0.00000E+00  9.000E+00
      21     1     1     2   511   501 -7.554557554E+00  3.455541348E+01  1.821601539E+01  3.978657006E+01  2.384185791E-07  0.00000E+00  9.000E+00
#rwgt            1           9  -8.7007460981795206E-003           6     2342745           0
</event>
<event>
      6   9999 -3.45752E-01  1.68713E+01 -1.00000E+00  1.66062E-01
      21    -1     0     0   501   502  0.000000000E+00  0.000000000E+00  1.732800710E+01  1.732800710E+01  0.000000000E+00  0.00000E+00  9.000E+00
      21    -1     0     0   512   503  0.000000000E+00  0.000000000E+00 -1.095142971E+03  1.095142971E+03  0.000000000E+00  0.00000E+00  9.000E+00
      25     1     1     2     0     0 -6.639571898E+01 -1.161942360E+01 -8.074662419E+02  8.198601185E+02  1.250019185E+02  0.00000E+00  9.000E+00
       5     1     1     2   501     0  3.107569541E-01  8.845766917E-01 -4.062435249E+00  6.320199835E+00  4.750000000E+00  0.00000E+00  9.000E+00
      -5     1     1     2     0   503  6.661258559E+01  2.759791076E+01 -1.280731211E+02  1.470515831E+02  4.750000000E+00  0.00000E+00  9.000E+00
      21     1     1     2   512   502 -5.276235636E-01 -1.686306386E+01 -1.382131651E+02  1.392390761E+02  0.000000000E+00  0.00000E+00  9.000E+00
#rwgt            1           9  -6.9117529673693370E-005           6     2343478           0
</event>
<event>
      6   9999  3.45752E-01  3.72048E+00 -1.00000E+00  2.54547E-01
      21    -1     0     0   511   502  0.000000000E+00  0.000000000E+00  2.104432038E+01  2.104432038E+01  0.000000000E+00  0.00000E+00  9.000E+00
      21    -1     0     0   502   503  0.000000000E+00  0.000000000E+00 -9.779954785E+02  9.779954785E+02  0.000000000E+00  0.00000E+00  9.000E+00
      25     1     1     2     0     0  3.206006232E+01  3.331427861E+01 -4.961886914E+02  5.137808814E+02  1.250195500E+02  0.00000E+00  9.000E+00
       5     1     1     2   501     0  7.830331397E-01 -2.709862697E+00  8.915740100E+00  1.048853747E+01  4.750000000E+00  0.00000E+00  9.000E+00
      -5     1     1     2     0   503 -3.122230158E+01 -2.725553776E+01 -4.691634748E+02  4.710144638E+02  4.750000000E+00  0.00000E+00  9.000E+00
      21     1     1     2   511   501 -1.620793876E+00 -3.348878153E+00 -5.147319688E-01  3.755916223E+00  1.257802771E-07  0.00000E+00  9.000E+00
#rwgt            1           9   5.2134892344844102E-003           6     2345566           0
</event>
<event>
      6   9999  3.45752E-01  1.64062E+01 -1.00000E+00  1.67066E-01
      21    -1     0     0   501   502  0.000000000E+00  0.000000000E+00  1.321659934E+01  1.321659934E+01  0.000000000E+00  0.00000E+00  9.000E+00
      21    -1     0     0   512   503  0.000000000E+00  0.000000000E+00 -9.041043820E+02  9.041043820E+02  0.000000000E+00  0.00000E+00  9.000E+00
      25     1     1     2     0     0  1.005708546E+01  2.627194437E+01 -3.599374568E+02  3.820631170E+02  1.250035701E+02  0.00000E+00  9.000E+00
       5     1     1     2   501     0  5.791679646E-01 -8.810557414E-02 -6.703598190E+00  8.236742488E+00  4.750000000E+00  0.00000E+00  9.000E+00
      -5     1     1     2     0   503  4.238584827E+00 -3.310490540E+01 -4.330690587E+02  4.343791805E+02  4.750000000E+00  0.00000E+00  9.000E+00
      21     1     1     2   512   502 -1.487483825E+01  6.921066603E+00 -9.117766905E+01  9.264194141E+01  0.000000000E+00  0.00000E+00  9.000E+00
#rwgt            1           9   6.4734272356957315E-004           6     2351462           0
</event>
<event>
      6   9999  3.45752E-01  7.40268E+00 -1.00000E+00  2.02091E-01
       2    -1     0     0   501     0  0.000000000E+00  0.000000000E+00  6.962533760E+02  6.962533760E+02  0.000000000E+00  0.00000E+00  9.000E+00
      21    -1     0     0   502   503  0.000000000E+00  0.000000000E+00 -9.861621226E+02  9.861621226E+02  0.000000000E+00  0.00000E+00  9.000E+00
      25     1     1     2     0     0  1.341322690E+01 -3.928540481E+00 -9.320446983E+02  9.404932077E+02  1.249992241E+02  0.00000E+00  9.000E+00
       5     1     1     2   501     0 -2.758334685E+00  4.843732051E+00  1.595911547E+01  1.755921459E+01  4.750000000E+00  0.00000E+00  9.000E+00
      -5     1     1     2     0   503 -1.707015142E+01  2.778601534E+00 -4.743402708E+01  5.071153834E+01  4.750000000E+00  0.00000E+00  9.000E+00
       2     1     1     2   502     0  6.415259208E+00 -3.693793104E+00  6.736108632E+02  6.736515381E+02  7.629394531E-06  0.00000E+00  9.000E+00
#rwgt            1           9   1.1292874621718200E-004           6     2353527           0
</event>
<event>
      6   9999  3.45752E-01  3.41829E+00 -1.00000E+00  2.62879E-01
      21    -1     0     0   501   511  0.000000000E+00  0.000000000E+00  6.940615284E+02  6.940615284E+02  0.000000000E+00  0.00000E+00  9.000E+00
      21    -1     0     0   502   503  0.000000000E+00  0.000000000E+00 -4.807293918E+02  4.807293918E+02  0.000000000E+00  0.00000E+00  9.000E+00
      25     1     1     2     0     0  2.166771792E+01 -4.567472052E+01 -1.112127185E+02  1.747813841E+02  1.249983736E+02  0.00000E+00  9.000E+00
       5     1     1     2   501     0  1.265890132E+01  1.445669499E+01  3.282787010E+02  3.288749182E+02  4.750000000E+00  0.00000E+00  9.000E+00
      -5     1     1     2     0   503 -3.744657861E+01  3.261464263E+01 -3.355816712E+02  3.392691876E+02  4.750000000E+00  0.00000E+00  9.000E+00
      21     1     1     2   502   511  3.119959376E+00 -1.396617093E+00  3.318478252E+02  3.318654302E+02  6.607249480E-06  0.00000E+00  9.000E+00
#rwgt            1           9   2.2941103111587782E-003           6     2357373           0
</event>
<event>
      6   9999  3.45752E-01  9.45211E+00 -1.00000E+00  1.89809E-01
      21    -1     0     0   501   512  0.000000000E+00  0.000000000E+00  1.620715551E+02  1.620715551E+02  0.000000000E+00  0.00000E+00  9.000E+00
      21    -1     0     0   502   503  0.000000000E+00  0.000000000E+00 -5.914880264E+02  5.914880264E+02  0.000000000E+00  0.00000E+00  9.000E+00
      25     1     1     2     0     0  9.980226066E+00  2.006341040E+01 -5.204667446E+02  5.357327434E+02  1.249871782E+02  0.00000E+00  9.000E+00
       5     1     1     2   501     0 -2.064468000E+00 -1.408839757E+01  1.488981024E+02  1.496527727E+02  4.750000000E+00  0.00000E+00  9.000E+00
      -5     1     1     2     0   503  1.439968798E+00 -7.321387224E+00 -5.804977361E+01  5.871980021E+01  4.750000000E+00  0.00000E+00  9.000E+00
      21     1     1     2   502   512 -9.355726864E+00  1.346374395E+00  2.019445642E-01  9.454265216E+00  2.312532277E-07  0.00000E+00  9.000E+00
#rwgt            1           9  0.18866386250452205                6     2366957           0
</event>
<event>
      6   9999  3.45752E-01  3.34518E+01 -1.00000E+00  1.44842E-01
      21    -1     0     0   501   502  0.000000000E+00  0.000000000E+00  3.139630023E+01  3.139630023E+01  0.000000000E+00  0.00000E+00  9.000E+00
      21    -1     0     0   511   503  0.000000000E+00  0.000000000E+00 -2.807704263E+03  2.807704263E+03  0.000000000E+00  0.00000E+00  9.000E+00
      25     1     1     2     0     0  3.734281102E+01 -1.099780865E+01 -3.379663629E+02  3.624374687E+02  1.249968759E+02  0.00000E+00  9.000E+00
       5     1     1     2   501     0  5.739764616E+00  1.168449551E+01  1.443472313E+01  2.000989918E+01  4.750000000E+00  0.00000E+00  9.000E+00
      -5     1     1     2     0   503 -2.778305057E+01  2.906134739E+01 -2.242077740E+02  2.278335977E+02  4.750000000E+00  0.00000E+00  9.000E+00
      21     1     1     2   511   502 -1.529952507E+01 -2.974803425E+01 -2.228568549E+03  2.228819598E+03  3.051757812E-05  0.00000E+00  9.000E+00
#rwgt            1           9  0.96192323254839862                6     2372371           0
</event>
<event>
      6   9999  3.45752E-01  1.99557E+02 -1.00000E+00  1.08927E-01
      21    -1     0     0   512   502  0.000000000E+00  0.000000000E+00  2.090636217E+01  2.090636217E+01  0.000000000E+00  0.00000E+00  9.000E+00
       2    -1     0     0   501     0  0.000000000E+00  0.000000000E+00 -3.501481187E+03  3.501481187E+03  0.000000000E+00  0.00000E+00  9.000E+00
      25     1     1     2     0     0  9.033082963E+01  1.543976014E+01 -5.484226737E+02  5.699034033E+02  1.249976602E+02  0.00000E+00  9.000E+00
       5     1     1     2   501     0  8.775510975E+01  1.391485351E+01 -4.111961285E+02  4.207129675E+02  4.750000000E+00  0.00000E+00  9.000E+00
      -5     1     1     2     0   502  1.529770990E+01  1.989637360E+01 -1.289552199E+02  1.314606285E+02  4.750000000E+00  0.00000E+00  9.000E+00
       2     1     1     2   512     0 -1.933836493E+02 -4.925098725E+01 -2.392000802E+03  2.400310550E+03  3.051757812E-05  0.00000E+00  9.000E+00
#rwgt            1           3   2.6430984840016391E-002           6     2373663           0
</event>
<event>
      6   9999  3.45752E-01  8.10996E+00 -1.00000E+00  1.97316E-01
      21    -1     0     0   501   502  0.000000000E+00  0.000000000E+00  8.390900112E+01  8.390900112E+01  0.000000000E+00  0.00000E+00  9.000E+00
      21    -1     0     0   511   503  0.000000000E+00  0.000000000E+00 -4.772338559E+02  4.772338559E+02  0.000000000E+00  0.00000E+00  9.000E+00
      25     1     1     2     0     0 -7.307045831E+00 -1.360708328E+01 -4.060542965E+02  4.251405954E+02  1.250035542E+02  0.00000E+00  9.000E+00
       5     1     1     2   501     0 -7.164213431E-01  5.957004409E+00  7.316040727E+01  7.355954631E+01  4.750000000E+00  0.00000E+00  9.000E+00
      -5     1     1     2     0   503  3.388964798E+00  9.947867143E-01 -4.041517281E+01  4.084633859E+01  4.750000000E+00  0.00000E+00  9.000E+00
      21     1     1     2   511   502  4.634502376E+00  6.655292152E+00 -2.001579280E+01  2.159637672E+01  0.000000000E+00  0.00000E+00  9.000E+00
#rwgt            1           9  0.55729606662801634                6     2374148           0
</event>
<event>
      6   9999 -3.45752E-01  9.04111E+00 -1.00000E+00  1.91926E-01
      21    -1     0     0   501   502  0.000000000E+00  0.000000000E+00  4.476157208E+01  4.476157208E+01  0.000000000E+00  0.00000E+00  9.000E+00
      21    -1     0     0   502   512  0.000000000E+00  0.000000000E+00 -1.224108988E+03  1.224108988E+03  0.000000000E+00  0.00000E+00  9.000E+00
      25     1     1     2     0     0 -1.439107330E+02  6.193457609E+01 -5.189188621E+02  5.562816340E+02  1.250051205E+02  0.00000E+00  9.000E+00
       5     1     1     2   501     0  9.984763717E-03  2.314362149E-01  1.666220187E+01  1.732758303E+01  4.750000000E+00  0.00000E+00  9.000E+00
      -5     1     1     2     0   503  1.379911334E+02 -5.532363256E+01 -6.443210382E+02  6.612672834E+02  4.750000000E+00  0.00000E+00  9.000E+00
      21     1     1     2   503   512  5.909614863E+00 -6.842379739E+00 -3.276971753E+01  3.399405970E+01  0.000000000E+00  0.00000E+00  9.000E+00
#rwgt            1           9 -0.61078994207284720                6     2378088           0
</event>
<event>
      6   9999 -3.45752E-01  4.00313E+01 -1.00000E+00  1.40166E-01
      21    -1     0     0   501   511  0.000000000E+00  0.000000000E+00  5.528328452E+02  5.528328452E+02  0.000000000E+00  0.00000E+00  9.000E+00
      21    -1     0     0   502   503  0.000000000E+00  0.000000000E+00 -2.489496557E+02  2.489496557E+02  0.000000000E+00  0.00000E+00  9.000E+00
      25     1     1     2     0     0  4.736982534E+01  1.334459201E+01 -2.000981444E+02  2.410091638E+02  1.249966845E+02  0.00000E+00  9.000E+00
       5     1     1     2   501     0 -6.940233721E+00  2.685188663E+01  4.580325338E+02  4.588960178E+02  4.750000000E+00  0.00000E+00  9.000E+00
      -5     1     1     2     0   503 -4.878284729E+01 -1.046447673E+00  1.497039132E+01  5.125950018E+01  4.750000000E+00  0.00000E+00  9.000E+00
      21     1     1     2   502   511  8.353255674E+00 -3.915003097E+01  3.097840885E+01  5.061781919E+01  7.539457465E-07  0.00000E+00  9.000E+00
#rwgt            1           9  -1.0652453068075673E-004           6     2382698           0
</event>
<event>
      6   9999  3.45752E-01  1.04831E+01 -1.00000E+00  1.85061E-01
      21    -1     0     0   512   502  0.000000000E+00  0.000000000E+00  1.151095287E+02  1.151095287E+02  0.000000000E+00  0.00000E+00  9.000E+00
      21    -1     0     0   502   503  0.000000000E+00  0.000000000E+00 -1.152313524E+03  1.152313524E+03  0.000000000E+00  0.00000E+00  9.000E+00
      25     1     1     2     0     0  1.111198941E+01 -2.224967536E+00 -1.062191775E+03  1.069582605E+03  1.250086151E+02  0.00000E+00  9.000E+00
       5     1     1     2   501     0 -1.126020582E+01  7.805060304E+00  2.938370528E+01  3.276699311E+01  4.750000000E+00  0.00000E+00  9.000E+00
      -5     1     1     2     0   503 -9.414419298E+00 -1.284466648E+00 -8.405699634E+01  8.472557040E+01  4.750000000E+00  0.00000E+00  9.000E+00
      21     1     1     2   512   501  9.562635708E+00 -4.295626120E+00  7.966107072E+01  8.034788481E+01  1.651812370E-06  0.00000E+00  9.000E+00
#rwgt            1           9   2.0901200431391663E-003           6     2384451           0
</event>
<event>
      6   9999  3.45752E-01  1.16027E+01 -1.00000E+00  1.80640E-01
      21    -1     0     0   511   502  0.000000000E+00  0.000000000E+00  3.435181109E+01  3.435181109E+01  0.000000000E+00  0.00000E+00  9.000E+00
      21    -1     0     0   502   503  0.000000000E+00  0.000000000E+00 -5.515580874E+02  5.515580874E+02  0.000000000E+00  0.00000E+00  9.000E+00
      25     1     1     2     0     0  8.010000557E+00  6.951374626E+00 -3.436907512E+02  3.658696055E+02  1.249990162E+02  0.00000E+00  9.000E+00
       5     1     1     2   501     0 -7.121434577E+00  2.379527220E+00  1.970352996E+01  2.161408275E+01  4.750000000E+00  0.00000E+00  9.000E+00
      -5     1     1     2     0   503 -1.242899845E+01 -1.053170678E+01 -1.801595938E+02  1.809570075E+02  4.750000000E+00  0.00000E+00  9.000E+00
      21     1     1     2   511   501  1.154043247E+01  1.200804938E+00 -1.305946132E+01  1.746920273E+01  1.685873940E-07  0.00000E+00  9.000E+00
#rwgt            1           9   5.9263265328435212E-004           6     2387720           0
</event>
<event>
      6   9999  3.45752E-01  3.67473E+00 -1.00000E+00  2.55729E-01
      21    -1     0     0   501   512  0.000000000E+00  0.000000000E+00  1.173794708E+03  1.173794708E+03  0.000000000E+00  0.00000E+00  9.000E+00
      21    -1     0     0   502   503  0.000000000E+00  0.000000000E+00 -5.724310807E+00  5.724310807E+00  0.000000000E+00  0.00000E+00  9.000E+00
      25     1     1     2     0     0  2.956168942E+00  2.975416982E+00  7.646854598E+02  7.748462820E+02  1.250012651E+02  0.00000E+00  9.000E+00
       5     1     1     2   501     0  4.732610888E-01 -8.889180117E-01  2.283770431E+02  2.284286551E+02  4.750000000E+00  0.00000E+00  9.000E+00
      -5     1     1     2     0   503  2.365726923E-01 -2.339598223E+00  1.115670200E+01  1.235168757E+01  4.750000000E+00  0.00000E+00  9.000E+00
      21     1     1     2   502   512 -3.666002723E+00  2.530992529E-01  1.638511925E+02  1.638923944E+02  1.907348633E-06  0.00000E+00  9.000E+00
#rwgt            1           9  0.25971680119414620                6     2390477           0
</event>
<event>
      6   9999 -3.45752E-01  4.15440E+00 -1.00000E+00  2.44494E-01
      21    -1     0     0   511   502  0.000000000E+00  0.000000000E+00  1.210153783E+02  1.210153783E+02  0.000000000E+00  0.00000E+00  9.000E+00
      21    -1     0     0   502   503  0.000000000E+00  0.000000000E+00 -3.053460539E+02  3.053460539E+02  0.000000000E+00  0.00000E+00  9.000E+00
      25     1     1     2     0     0 -7.645179504E+00 -4.755766072E+00 -2.829298220E+02  3.094872325E+02  1.251079407E+02  0.00000E+00  9.000E+00
       5     1     1     2   501     0  3.644314236E+00  7.339271272E+00  1.051482891E+02  1.055740078E+02  4.750000000E+00  0.00000E+00  9.000E+00
      -5     1     1     2     0   503  8.096515808E-01  7.641969874E-02 -4.770770135E+00  6.781159439E+00  4.750000000E+00  0.00000E+00  9.000E+00
      21     1     1     2   511   501  3.191213687E+00 -2.659924899E+00 -1.778372587E+00  4.519032454E+00  0.000000000E+00  0.00000E+00  9.000E+00
#rwgt            1           9  -5.4152425318906978                6     2395263           0
</event>
<event>
      6   9999  3.45752E-01  1.35924E+01 -1.00000E+00  1.74165E-01
      21    -1     0     0   501   502  0.000000000E+00  0.000000000E+00  2.650418741E+01  2.650418741E+01  0.000000000E+00  0.00000E+00  9.000E+00
      21    -1     0     0   512   503  0.000000000E+00  0.000000000E+00 -1.053034142E+03  1.053034142E+03  0.000000000E+00  0.00000E+00  9.000E+00
      25     1     1     2     0     0  2.940615945E+01 -2.518752379E+01 -7.883489087E+02  7.991354095E+02  1.249970691E+02  0.00000E+00  9.000E+00
       5     1     1     2   501     0  6.775368762E+00  3.452668736E+00  1.829601137E+01  2.037481473E+01  4.750000000E+00  0.00000E+00  9.000E+00
      -5     1     1     2     0   503 -2.392420495E+01  1.586011460E+01 -1.843010176E+02  1.865833283E+02  4.750000000E+00  0.00000E+00  9.000E+00
      21     1     1     2   512   502 -1.225732326E+01  5.874740445E+00 -7.217603935E+01  7.344477657E+01  1.348699152E-06  0.00000E+00  9.000E+00
#rwgt            1           9   1.2346430367208515E-003           6     2401251           0
</event>
<event>
      6   9999 -3.45752E-01  2.28858E+01 -1.00000E+00  1.55867E-01
      21    -1     0     0   501   502  0.000000000E+00  0.000000000E+00  6.728401791E+01  6.728401791E+01  0.000000000E+00  0.00000E+00  9.000E+00
      21    -1     0     0   502   511  0.000000000E+00  0.000000000E+00 -1.628723337E+03  1.628723337E+03  0.000000000E+00  0.00000E+00  9.000E+00
      25     1     1     2     0     0 -5.226827350E+01 -3.256654067E+01 -1.173755769E+02  1.821968697E+02  1.250044850E+02  0.00000E+00  9.000E+00
       5     1     1     2   501     0 -1.205164541E+00 -3.645369501E+00  3.321538676E+01  3.377226018E+01  4.750000000E+00  0.00000E+00  9.000E+00
      -5     1     1     2     0   503  3.076210236E+01  3.903215031E+01 -1.334757681E+03  1.335690999E+03  4.750000000E+00  0.00000E+00  9.000E+00
      21     1     1     2   503   511  2.271133567E+01 -2.820240136E+00 -1.425214483E+02  1.443472263E+02  1.907348633E-06  0.00000E+00  9.000E+00
#rwgt            1           9  -3.0216258170136516E-004           6     2404369           0
</event>
<event>
      6   9999  3.45752E-01  1.19806E+01 -1.00000E+00  1.79289E-01
      21    -1     0     0   501   502  0.000000000E+00  0.000000000E+00  1.253035404E+03  1.253035404E+03  0.000000000E+00  0.00000E+00  9.000E+00
      21    -1     0     0   502   512  0.000000000E+00  0.000000000E+00 -3.315623048E+02  3.315623048E+02  0.000000000E+00  0.00000E+00  9.000E+00
      25     1     1     2     0     0  2.565667632E+00  9.897597894E+00  7.866501188E+02  7.965864356E+02  1.250079795E+02  0.00000E+00  9.000E+00
       5     1     1     2   501     0  9.540019895E-01  7.976219986E-01  4.213806525E+02  4.214092584E+02  4.750000000E+00  0.00000E+00  9.000E+00
      -5     1     1     2     0   503  2.133818490E+00 -1.323963155E-01  3.974228120E+01  4.008219211E+01  4.750000000E+00  0.00000E+00  9.000E+00
      21     1     1     2   503   512 -5.653488111E+00 -1.056282358E+01 -3.262999531E+02  3.265198227E+02  6.607249480E-06  0.00000E+00  9.000E+00
#rwgt            1           9   6.9074018008804583E-002           6     2406979           0
</event>
<event>
      6   9999  3.45752E-01  9.18959E+00 -1.00000E+00  1.91145E-01
      21    -1     0     0   501   502  0.000000000E+00  0.000000000E+00  8.757759088E+00  8.757759088E+00  0.000000000E+00  0.00000E+00  9.000E+00
      21    -1     0     0   502   511  0.000000000E+00  0.000000000E+00 -2.346098449E+03  2.346098449E+03  0.000000000E+00  0.00000E+00  9.000E+00
      25     1     1     2     0     0 -8.608247544E+00  6.809486358E+00 -8.026956153E+02  8.124442502E+02  1.249997514E+02  0.00000E+00  9.000E+00
       5     1     1     2   501     0 -1.120877913E-01  7.196444449E-01  2.085218463E+00  5.238424175E+00  4.750000000E+00  0.00000E+00  9.000E+00
      -5     1     1     2     0   503  1.463191191E-01 -4.222356694E+00 -4.849736566E+01  4.891223448E+01  4.750000000E+00  0.00000E+00  9.000E+00
      21     1     1     2   503   511  8.574016216E+00 -3.306774108E+00 -1.488232928E+03  1.488261300E+03  3.051757812E-05  0.00000E+00  9.000E+00
#rwgt            1           9  0.96597445638170687                6     2409068           0
</event>
<event>
      6   9999  3.45752E-01  3.71080E+01 -1.00000E+00  1.42103E-01
      21    -1     0     0   501   512  0.000000000E+00  0.000000000E+00  1.155563928E+02  1.155563928E+02  0.000000000E+00  0.00000E+00  9.000E+00
      21    -1     0     0   502   503  0.000000000E+00  0.000000000E+00 -7.689907592E+02  7.689907592E+02  0.000000000E+00  0.00000E+00  9.000E+00
      25     1     1     2     0     0  4.172977056E+01  2.161621976E+00 -6.131201819E+02  6.271257719E+02  1.249973197E+02  0.00000E+00  9.000E+00
       5     1     1     2   501     0  8.701398971E-01 -1.246930546E+00 -9.915789230E+00  1.109943040E+01  4.750000000E+00  0.00000E+00  9.000E+00
      -5     1     1     2     0   503 -1.848367615E+01 -2.911775908E+01 -1.328610678E+02  1.373467000E+02  4.750000000E+00  0.00000E+00  9.000E+00
      21     1     1     2   502   512 -2.411623431E+01  2.820306765E+01  1.024626726E+02  1.089752497E+02  1.348699152E-06  0.00000E+00  9.000E+00
#rwgt            1           9   1.1170005631781234E-004           6     2412233           0
</event>
<event>
      6   9999  3.45752E-01  5.90490E+00 -1.00000E+00  2.15029E-01
      21    -1     0     0   501   502  0.000000000E+00  0.000000000E+00  4.749202541E+02  4.749202541E+02  0.000000000E+00  0.00000E+00  9.000E+00
      21    -1     0     0   502   511  0.000000000E+00  0.000000000E+00 -2.656171772E+02  2.656171772E+02  0.000000000E+00  0.00000E+00  9.000E+00
      25     1     1     2     0     0  9.473825805E-01 -2.621715268E+01  3.013755421E+02  3.273235784E+02  1.250010837E+02  0.00000E+00  9.000E+00
       5     1     1     2   501     0  7.766979965E-01 -1.817966697E-01  5.993851749E+01  6.013172781E+01  4.750000000E+00  0.00000E+00  9.000E+00
      -5     1     1     2     0   503  2.428227390E+00  2.220059647E+01  9.920405907E+01  1.017976945E+02  4.750000000E+00  0.00000E+00  9.000E+00
      21     1     1     2   503   511 -4.152307967E+00  4.198352885E+00 -2.512150418E+02  2.512844306E+02  3.814697266E-06  0.00000E+00  9.000E+00
#rwgt            1           9   1.5371500498821060E-004           6     2413114           0
</event>
<event>
      6   9999  3.45752E-01  7.26506E+00 -1.00000E+00  2.03103E-01
      21    -1     0     0   501   502  0.000000000E+00  0.000000000E+00  1.626100469E+02  1.626100469E+02  0.000000000E+00  0.00000E+00  9.000E+00
      21    -1     0     0   512   503  0.000000000E+00  0.000000000E+00 -1.052422771E+02  1.052422771E+02  0.000000000E+00  0.00000E+00  9.000E+00
      25     1     1     2     0     0  2.124150480E+00 -6.880491457E+00 -5.973804751E+01  1.387275128E+02  1.249993412E+02  0.00000E+00  9.000E+00
       5     1     1     2   501     0 -4.235542149E+00  5.523679429E-01  1.165003403E+02  1.166753475E+02  4.750000000E+00  0.00000E+00  9.000E+00
      -5     1     1     2     0   503 -2.010564767E+00  3.456027617E-01  2.251888774E-01  5.174458617E+00  4.750000000E+00  0.00000E+00  9.000E+00
      21     1     1     2   512   502  4.121956437E+00  5.982520753E+00  3.802880930E-01  7.275005049E+00  4.080851059E-08  0.00000E+00  9.000E+00
#rwgt            1           9   3.7980988843185168E-004           6     2416249           0
</event>
<event>
      6   9999 -3.45752E-01  5.35176E+00 -1.00000E+00  2.21216E-01
      21    -1     0     0   501   502  0.000000000E+00  0.000000000E+00  1.535143556E+01  1.535143556E+01  0.000000000E+00  0.00000E+00  9.000E+00
      21    -1     0     0   511   503  0.000000000E+00  0.000000000E+00 -9.318561450E+02  9.318561450E+02  0.000000000E+00  0.00000E+00  9.000E+00
      25     1     1     2     0     0 -2.454773468E+01  3.365788166E+01 -4.786257458E+02  4.964303235E+02  1.250000692E+02  0.00000E+00  9.000E+00
       5     1     1     2   501     0 -5.343088027E-01  2.694633792E+00  3.845896523E+00  6.700743036E+00  4.750000000E+00  0.00000E+00  9.000E+00
      -5     1     1     2     0   503  2.102183779E+01 -3.286595842E+01 -4.122957329E+02  4.141647290E+02  4.750000000E+00  0.00000E+00  9.000E+00
      21     1     1     2   511   502  4.060205695E+00 -3.486557028E+00 -2.942912725E+01  2.991178499E+01  0.000000000E+00  0.00000E+00  9.000E+00
#rwgt            1           9  -8.1499277100667948E-003           6     2420288           0
</event>
<event>
      6   9999  3.45752E-01  1.80908E+01 -1.00000E+00  1.63609E-01
      21    -1     0     0   501   512  0.000000000E+00  0.000000000E+00  7.948933614E+01  7.948933614E+01  0.000000000E+00  0.00000E+00  9.000E+00
      21    -1     0     0   502   503  0.000000000E+00  0.000000000E+00 -1.430736256E+03  1.430736256E+03  0.000000000E+00  0.00000E+00  9.000E+00
      25     1     1     2     0     0 -3.201545223E+01 -4.545540097E+01 -8.386798615E+02  8.497645107E+02  1.249985237E+02  0.00000E+00  9.000E+00
       5     1     1     2   501     0 -9.786721817E+00  1.345680089E+00  4.408660622E+01  4.542886887E+01  4.750000000E+00  0.00000E+00  9.000E+00
      -5     1     1     2     0   503  4.326842487E+01  6.214096169E+01 -5.803115631E+02  5.852501418E+02  4.750000000E+00  0.00000E+00  9.000E+00
      21     1     1     2   502   512 -1.466250822E+00 -1.803124081E+01  2.365789889E+01  2.978207039E+01  1.581489940E-06  0.00000E+00  9.000E+00
#rwgt            1           9   1.0305492339183001E-003           6     2424799           0
</event>
<event>
      6   9999  3.45752E-01  6.17623E+00 -1.00000E+00  2.12322E-01
      21    -1     0     0   501   502  0.000000000E+00  0.000000000E+00  1.081963542E+01  1.081963542E+01  0.000000000E+00  0.00000E+00  9.000E+00
      -2    -1     0     0     0   503  0.000000000E+00  0.000000000E+00 -1.319136482E+03  1.319136482E+03  0.000000000E+00  0.00000E+00  9.000E+00
      25     1     1     2     0     0  3.648285189E+00 -3.606706129E+01 -5.624143765E+02  5.772797477E+02  1.250113329E+02  0.00000E+00  9.000E+00
       5     1     1     2   501     0 -2.387872802E-01  5.494687056E-01 -1.396190553E+00  4.987061588E+00  4.750000000E+00  0.00000E+00  9.000E+00
      -5     1     1     2     0   503  2.268168881E+00  3.794861399E+01 -2.317203503E+02  2.348661856E+02  4.750000000E+00  0.00000E+00  9.000E+00
      -2     1     1     2     0   502 -5.677666790E+00 -2.431021398E+00 -5.127859296E+02  5.128231229E+02  0.000000000E+00  0.00000E+00  9.000E+00
#rwgt            1           9   1.4987988181141929E-005           6     2427768           0
</event>
<event>
      6   9999  3.45752E-01  9.88361E+01 -1.00000E+00  1.20652E-01
      21    -1     0     0   501   502  0.000000000E+00  0.000000000E+00  3.203101908E+02  3.203101908E+02  0.000000000E+00  0.00000E+00  9.000E+00
      21    -1     0     0   502   511  0.000000000E+00  0.000000000E+00 -8.721684751E+01  8.721684751E+01  0.000000000E+00  0.00000E+00  9.000E+00
      25     1     1     2     0     0  1.090657594E+02  6.003015152E+01  2.080515964E+02  2.727813237E+02  1.250008995E+02  0.00000E+00  9.000E+00
       5     1     1     2   501     0  1.172697520E+00 -6.568302282E+00 -4.625461948E-01  8.203308072E+00  4.750000000E+00  0.00000E+00  9.000E+00
      -5     1     1     2     0   503 -2.057251485E+01 -1.188551575E+01  1.114164237E+01  2.666819354E+01  4.750000000E+00  0.00000E+00  9.000E+00
      21     1     1     2   503   511 -8.966594208E+01 -4.157633349E+01  1.436265072E+01  9.987421294E+01  1.079486029E-06  0.00000E+00  9.000E+00
#rwgt            1           9   2.2160330912546797E-003           6     2430973           0
</event>
<event>
      6   9999  3.45752E-01  7.94030E+00 -1.00000E+00  1.98401E-01
      21    -1     0     0   501   502  0.000000000E+00  0.000000000E+00  1.236291599E+01  1.236291599E+01  0.000000000E+00  0.00000E+00  9.000E+00
       1    -1     0     0   502     0  0.000000000E+00  0.000000000E+00 -1.314766155E+03  1.314766155E+03  0.000000000E+00  0.00000E+00  9.000E+00
      25     1     1     2     0     0  6.480450258E+00 -1.275229160E+01 -5.576482771E+02  5.716652576E+02  1.249997942E+02  0.00000E+00  9.000E+00
       5     1     1     2   501     0  2.494339417E-01  2.096297883E-01 -1.974905035E+00  5.154504034E+00  4.750000000E+00  0.00000E+00  9.000E+00
      -5     1     1     2     0   503 -1.561558058E+00  1.857065424E+01 -2.096271921E+01  2.844829976E+01  4.750000000E+00  0.00000E+00  9.000E+00
       1     1     1     2   503     0 -5.168326141E+00 -6.027992431E+00 -7.218173372E+02  7.218610092E+02  1.705984480E-05  0.00000E+00  9.000E+00
#rwgt            1           9   1.1393380979052474E-004           6     2431256           0
</event>
<event>
      6   9999  3.45752E-01  1.79268E+00 -1.00000E+00  3.52429E-01
      21    -1     0     0   501   502  0.000000000E+00  0.000000000E+00  4.872273987E+02  4.872273987E+02  0.000000000E+00  0.00000E+00  9.000E+00
      21    -1     0     0   511   503  0.000000000E+00  0.000000000E+00 -8.420980385E+01  8.420980385E+01  0.000000000E+00  0.00000E+00  9.000E+00
      25     1     1     2     0     0 -2.095841469E-01  1.114366391E+00  1.859210593E+02  2.238159694E+02  1.246020149E+02  0.00000E+00  9.000E+00
       5     1     1     2   501     0  1.510334691E+00 -1.478146891E+00  2.748754276E+02  2.749245883E+02  4.750000000E+00  0.00000E+00  9.000E+00
      -5     1     1     2     0   503  4.872031079E-01  2.337242165E-01  6.679115971E+00  8.213713169E+00  4.750000000E+00  0.00000E+00  9.000E+00
      21     1     1     2   511   502 -1.787953652E+00  1.300562836E-01 -6.445800803E+01  6.448293178E+01  2.132480600E-06  0.00000E+00  9.000E+00
#rwgt            1           9   3.4794355940030773E-004           6     2434214           0
</event>
<event>
      6   9999  3.45752E-01  1.88931E+01 -1.00000E+00  1.62121E-01
      21    -1     0     0   501   502  0.000000000E+00  0.000000000E+00  2.935792160E+02  2.935792160E+02  0.000000000E+00  0.00000E+00  9.000E+00
       1    -1     0     0   502     0  0.000000000E+00  0.000000000E+00 -5.164005791E+02  5.164005791E+02  0.000000000E+00  0.00000E+00  9.000E+00
      25     1     1     2     0     0  1.512262994E+01  3.168396805E+01  3.462726838E+01  1.343703638E+02  1.249951166E+02  0.00000E+00  9.000E+00
       5     1     1     2   501     0  1.576541842E+00  3.309057638E-01  1.972583088E+02  1.973220663E+02  4.750000000E+00  0.00000E+00  9.000E+00
      -5     1     1     2     0   503  1.201854953E+00 -2.597312278E+01 -3.473409948E+00  2.665848156E+01  4.750000000E+00  0.00000E+00  9.000E+00
       1     1     1     2   503     0 -1.790102674E+01 -6.041751028E+00 -4.512335303E+02  4.516288834E+02  0.000000000E+00  0.00000E+00  9.000E+00
#rwgt            1           9   3.5139904220431104                6     2443051           0
</event>
<event>
      6   9999  3.45752E-01  1.16565E+01 -1.00000E+00  1.80444E-01
      21    -1     0     0   502   511  0.000000000E+00  0.000000000E+00  1.206962066E+02  1.206962066E+02  0.000000000E+00  0.00000E+00  9.000E+00
      21    -1     0     0   501   502  0.000000000E+00  0.000000000E+00 -1.646246986E+03  1.646246986E+03  0.000000000E+00  0.00000E+00  9.000E+00
      25     1     1     2     0     0  2.931850596E+02  1.791879401E+02 -3.122628535E+02  4.808312663E+02  1.249992794E+02  0.00000E+00  9.000E+00
       5     1     1     2   501     0  8.093112365E-01  1.368112723E+00 -3.442091347E+02  3.442455775E+02  4.750000000E+00  0.00000E+00  9.000E+00
      -5     1     1     2     0   503 -2.842677994E+02 -1.741320234E+02 -8.683891459E+02  9.301894509E+02  4.750000000E+00  0.00000E+00  9.000E+00
      21     1     1     2   503   511 -9.726571419E+00 -6.424029415E+00 -6.896457895E-01  1.167689842E+01  1.139719676E-07  0.00000E+00  9.000E+00
#rwgt            1           9   3.9876604604062395E-004           6     2445638           0
</event>
<event>
      6   9999  3.45752E-01  9.66215E+00 -1.00000E+00  1.88780E-01
      21    -1     0     0   501   502  0.000000000E+00  0.000000000E+00  7.218031317E+00  7.218031317E+00  0.000000000E+00  0.00000E+00  9.000E+00
      21    -1     0     0   512   503  0.000000000E+00  0.000000000E+00 -9.053448800E+02  9.053448800E+02  0.000000000E+00  0.00000E+00  9.000E+00
      25     1     1     2     0     0  1.070292397E+01  1.235898377E+01 -6.055829765E+02  6.185654882E+02  1.250008988E+02  0.00000E+00  9.000E+00
       5     1     1     2   501     0 -2.343663020E-01  6.315530683E-01 -3.163017922E+01  3.199194468E+01  4.750000000E+00  0.00000E+00  9.000E+00
      -5     1     1     2     0   503 -1.634961602E+00 -9.075868619E+00 -6.236560532E+01  6.322243049E+01  4.750000000E+00  0.00000E+00  9.000E+00
      21     1     1     2   512   502 -8.833596069E+00 -3.914668221E+00 -1.985480876E+02  1.987830479E+02  0.000000000E+00  0.00000E+00  9.000E+00
#rwgt            1           9   2.8078766980300343E-003           6     2450150           0
</event>
<event>
      6   9999  3.45752E-01  9.34882E+00 -1.00000E+00  1.90328E-01
      21    -1     0     0   511   502  0.000000000E+00  0.000000000E+00  7.003660089E+02  7.003660089E+02  0.000000000E+00  0.00000E+00  9.000E+00
      21    -1     0     0   502   503  0.000000000E+00  0.000000000E+00 -1.386512052E+02  1.386512052E+02  0.000000000E+00  0.00000E+00  9.000E+00
      25     1     1     2     0     0 -1.904049307E+01 -3.925620084E-01 -5.914989010E+01  1.395892331E+02  1.249949999E+02  0.00000E+00  9.000E+00
       5     1     1     2   501     0  5.825844450E-01 -1.111758337E+00  9.237807026E+00  1.046302967E+01  4.750000000E+00  0.00000E+00  9.000E+00
      -5     1     1     2     0   503  2.449289389E+01 -5.635659001E+00 -3.440186508E+01  4.286855869E+01  4.750000000E+00  0.00000E+00  9.000E+00
      21     1     1     2   511   501 -6.034985270E+00  7.139979346E+00  6.460287518E+02  6.460963926E+02  1.078959322E-05  0.00000E+00  9.000E+00
#rwgt            1           9   6.1180720424844413E-004           6     2454128           0
</event>
<event>
      6   9999  3.45752E-01  3.05750E+00 -1.00000E+00  2.74773E-01
      21    -1     0     0   501   512  0.000000000E+00  0.000000000E+00  2.085538215E+01  2.085538215E+01  0.000000000E+00  0.00000E+00  9.000E+00
      21    -1     0     0   502   503  0.000000000E+00  0.000000000E+00 -6.783130008E+02  6.783130008E+02  0.000000000E+00  0.00000E+00  9.000E+00
      25     1     1     2     0     0  1.843734586E+01 -1.633702626E+00 -6.456163238E+02  6.578665554E+02  1.250014499E+02  0.00000E+00  9.000E+00
       5     1     1     2   501     0 -6.008736590E-01  2.261296865E+00  5.756650121E+00  7.821510933E+00  4.750000000E+00  0.00000E+00  9.000E+00
      -5     1     1     2     0   503 -1.521555589E+01  9.469276899E-01 -2.256761550E+01  2.764542606E+01  4.750000000E+00  0.00000E+00  9.000E+00
      21     1     1     2   502   512 -2.620916314E+00 -1.574521928E+00  4.969670556E+00  5.834890493E+00  1.576990671E-07  0.00000E+00  9.000E+00
#rwgt            1           9   1.1680143455713086E-004           6     2456694           0
</event>
<event>
      6   9999  3.45752E-01  3.19088E+01 -1.00000E+00  1.46126E-01
      21    -1     0     0   501   511  0.000000000E+00  0.000000000E+00  6.199551743E+02  6.199551743E+02  0.000000000E+00  0.00000E+00  9.000E+00
      21    -1     0     0   502   503  0.000000000E+00  0.000000000E+00 -3.161202210E+02  3.161202210E+02  0.000000000E+00  0.00000E+00  9.000E+00
      25     1     1     2     0     0 -1.874306298E+01  3.098290073E+01 -2.798795272E+02  3.086569824E+02  1.250013621E+02  0.00000E+00  9.000E+00
       5     1     1     2   501     0 -6.212096444E+00 -8.921145599E+00  5.108295904E+02  5.109673276E+02  4.750000000E+00  0.00000E+00  9.000E+00
      -5     1     1     2     0   503  3.705215331E+00  1.741832261E+00 -1.856431121E+01  1.959486543E+01  4.750000000E+00  0.00000E+00  9.000E+00
      21     1     1     2   502   511  2.124994410E+01 -2.380358739E+01  9.144920125E+01  9.685621976E+01  0.000000000E+00  0.00000E+00  9.000E+00
#rwgt            1           9   4.6287445401167835E-003           6     2463013           0
</event>
<event>
      6   9999  3.45752E-01  2.26311E+01 -1.00000E+00  1.56219E-01
      21    -1     0     0   501   502  0.000000000E+00  0.000000000E+00  4.628091903E+01  4.628091903E+01  0.000000000E+00  0.00000E+00  9.000E+00
      21    -1     0     0   512   503  0.000000000E+00  0.000000000E+00 -1.368207788E+03  1.368207788E+03  0.000000000E+00  0.00000E+00  9.000E+00
      25     1     1     2     0     0 -5.220356811E+01 -4.989547605E+01 -6.340171724E+02  6.502442249E+02  1.250000245E+02  0.00000E+00  9.000E+00
       5     1     1     2   501     0 -3.089799545E+00  7.998274936E+00  3.285308443E+01  3.428420802E+01  4.750000000E+00  0.00000E+00  9.000E+00
      -5     1     1     2     0   503  6.186675249E+01  6.355264579E+01 -6.382367734E+02  6.443874419E+02  4.750000000E+00  0.00000E+00  9.000E+00
      21     1     1     2   512   502 -6.573384841E+00 -2.165544468E+01 -8.252600768E+01  8.557283223E+01  2.132480600E-06  0.00000E+00  9.000E+00
#rwgt            1           9   1.4699736929761148E-004           6     2465134           0
</event>
<event>
      6   9999  3.45752E-01  4.88371E+00 -1.00000E+00  2.31174E-01
      21    -1     0     0   501   502  0.000000000E+00  0.000000000E+00  9.215322005E+01  9.215322005E+01  0.000000000E+00  0.00000E+00  9.000E+00
       1    -1     0     0   502     0  0.000000000E+00  0.000000000E+00 -2.223860664E+03  2.223860664E+03  0.000000000E+00  0.00000E+00  9.000E+00
      25     1     1     2     0     0  2.100742851E+01  8.766625210E+01 -1.115856044E+03  1.126448302E+03  1.249975307E+02  0.00000E+00  9.000E+00
       5     1     1     2   501     0 -2.332215009E+01 -1.295496694E+01  8.157851614E+01  8.596144862E+01  4.750000000E+00  0.00000E+00  9.000E+00
      -5     1     1     2     0   503  6.001061812E+00 -7.791464756E+01 -4.948788461E+02  5.010332722E+02  4.750000000E+00  0.00000E+00  9.000E+00
       1     1     1     2   503     0 -3.686340234E+00  3.203362401E+00 -6.025510696E+02  6.025708606E+02  0.000000000E+00  0.00000E+00  9.000E+00
#rwgt            1           9   5.8367655769578371E-002           6     2467297           0
</event>
<event>
      6   9999  3.45752E-01  3.34201E+01 -1.00000E+00  1.44868E-01
      21    -1     0     0   501   511  0.000000000E+00  0.000000000E+00  1.825948894E+02  1.825948894E+02  0.000000000E+00  0.00000E+00  9.000E+00
      21    -1     0     0   502   503  0.000000000E+00  0.000000000E+00 -3.077353787E+02  3.077353787E+02  0.000000000E+00  0.00000E+00  9.000E+00
      25     1     1     2     0     0 -4.024971209E+01 -2.984970235E+01 -2.451917167E+02  2.797409095E+02  1.249998179E+02  0.00000E+00  9.000E+00
       5     1     1     2   501     0 -1.064161395E+01 -1.870081268E+00  2.668877723E+01  2.918209179E+01  4.750000000E+00  0.00000E+00  9.000E+00
      -5     1     1     2     0   503  1.751326559E+01  3.339598419E+01 -3.322509955E+01  5.048243230E+01  4.750000000E+00  0.00000E+00  9.000E+00
      21     1     1     2   502   511  3.337806046E+01 -1.676200573E+00  1.265875497E+02  1.309248346E+02  2.336015456E-06  0.00000E+00  9.000E+00
#rwgt            1           9   46.677639550141528                6     2474543           0
</event>
<event>
      6   9999  3.45752E-01  1.82537E+01 -1.00000E+00  1.63299E-01
      21    -1     0     0   501   502  0.000000000E+00  0.000000000E+00  3.100307801E+01  3.100307801E+01  0.000000000E+00  0.00000E+00  9.000E+00
       2    -1     0     0   502     0  0.000000000E+00  0.000000000E+00 -2.630712816E+03  2.630712816E+03  0.000000000E+00  0.00000E+00  9.000E+00
      25     1     1     2     0     0  4.254780078E-01 -3.644392972E+01 -9.581883357E+02  9.669943287E+02  1.249992158E+02  0.00000E+00  9.000E+00
       5     1     1     2   501     0 -1.170079663E-01 -2.093393884E-01  1.669450480E+01  1.735875873E+01  4.750000000E+00  0.00000E+00  9.000E+00
      -5     1     1     2     0   503 -1.150678257E+01  5.106833365E+01 -6.302565737E+01  8.206812252E+01  4.750000000E+00  0.00000E+00  9.000E+00
       2     1     1     2   503     0  1.119831252E+01 -1.441506455E+01 -1.595190250E+03  1.595294684E+03  3.051757812E-05  0.00000E+00  9.000E+00
#rwgt            1           9   1.7190511375017130E-005           6     2475914           0
</event>
<event>
      6   9999  3.45752E-01  1.82176E+02 -1.00000E+00  1.10315E-01
      21    -1     0     0   511   502  0.000000000E+00  0.000000000E+00  1.294386141E+02  1.294386141E+02  0.000000000E+00  0.00000E+00  9.000E+00
      21    -1     0     0   502   503  0.000000000E+00  0.000000000E+00 -1.510329129E+03  1.510329129E+03  0.000000000E+00  0.00000E+00  9.000E+00
      25     1     1     2     0     0 -6.868105693E+01 -6.024407896E+01 -2.274810878E+02  2.751702201E+02  1.249982723E+02  0.00000E+00  9.000E+00
       5     1     1     2   501     0  1.328322125E+01 -1.199274661E+01 -4.336778976E+00  1.901683702E+01  4.750000000E+00  0.00000E+00  9.000E+00
      -5     1     1     2     0   503  1.792823052E+02 -6.133270961E+01 -1.147856283E+03  1.163400385E+03  4.750000000E+00  0.00000E+00  9.000E+00
      21     1     1     2   511   501 -1.238844696E+02  1.335695352E+02 -1.216364886E+00  1.821803010E+02  8.967973902E-07  0.00000E+00  9.000E+00
#rwgt            1           9  0.21472611327342278                6     2478322           0
</event>
<event>
      6   9999  3.45752E-01  1.15635E+01 -1.00000E+00  1.80784E-01
      21    -1     0     0   501   502  0.000000000E+00  0.000000000E+00  1.117420386E+01  1.117420386E+01  0.000000000E+00  0.00000E+00  9.000E+00
      21    -1     0     0   502   512  0.000000000E+00  0.000000000E+00 -1.129219801E+03  1.129219801E+03  0.000000000E+00  0.00000E+00  9.000E+00
      25     1     1     2     0     0  1.209525638E+01 -6.464897070E+00 -7.404046060E+02  7.510075126E+02  1.250008528E+02  0.00000E+00  9.000E+00
       5     1     1     2   501     0 -4.551449215E-01 -5.070280892E+00  2.909943641E+00  7.546202834E+00  4.750000000E+00  0.00000E+00  9.000E+00
      -5     1     1     2     0   503 -1.222036155E+01 -1.374573989E-02 -8.002151919E+01  8.108849153E+01  4.750000000E+00  0.00000E+00  9.000E+00
      21     1     1     2   503   512  5.802500889E-01  1.154892370E+01 -3.005294154E+02  3.007517977E+02  5.394796609E-06  0.00000E+00  9.000E+00
#rwgt            1           9   4.2312517510473772E-003           6     2478736           0
</event>
<event>
      6   9999  3.45752E-01  1.14508E+01 -1.00000E+00  1.81202E-01
      21    -1     0     0   501   502  0.000000000E+00  0.000000000E+00  4.134936455E+01  4.134936455E+01  0.000000000E+00  0.00000E+00  9.000E+00
      21    -1     0     0   511   503  0.000000000E+00  0.000000000E+00 -6.741770633E+02  6.741770633E+02  0.000000000E+00  0.00000E+00  9.000E+00
      25     1     1     2     0     0 -1.119398932E+01  2.095863570E+00 -3.814115215E+02  4.015340174E+02  1.250004816E+02  0.00000E+00  9.000E+00
       5     1     1     2   501     0  3.827201466E-01  4.212055371E+00  3.025369256E+01  3.091498502E+01  4.750000000E+00  0.00000E+00  9.000E+00
      -5     1     1     2     0   503  6.037876039E-01 -1.118761261E+00 -9.780195134E+00  1.094673025E+01  4.750000000E+00  0.00000E+00  9.000E+00
      21     1     1     2   511   502  1.020748157E+01 -5.189157680E+00 -2.718896747E+02  2.721306951E+02  3.814697266E-06  0.00000E+00  9.000E+00
#rwgt            1           9   1.0933449383755331E-004           6     2481023           0
</event>
<event>
      6   9999  3.45752E-01  1.93997E+01 -1.00000E+00  1.61227E-01
      21    -1     0     0   501   512  0.000000000E+00  0.000000000E+00  4.019622661E+02  4.019622661E+02  0.000000000E+00  0.00000E+00  9.000E+00
      21    -1     0     0   502   503  0.000000000E+00  0.000000000E+00 -1.286061500E+03  1.286061500E+03  0.000000000E+00  0.00000E+00  9.000E+00
      25     1     1     2     0     0  1.937974901E+01 -1.429011814E+01 -8.245948434E+02  8.343627680E+02  1.249991625E+02  0.00000E+00  9.000E+00
       5     1     1     2   501     0 -2.569079929E+00  7.790818771E+00  3.954316664E+01  4.066351628E+01  4.750000000E+00  0.00000E+00  9.000E+00
      -5     1     1     2     0   503 -2.264387860E-01  1.656457694E+01 -4.555959183E+02  4.559217474E+02  4.750000000E+00  0.00000E+00  9.000E+00
      21     1     1     2   502   512 -1.658423030E+01 -1.006527758E+01  3.565483610E+02  3.570757346E+02  3.814697266E-06  0.00000E+00  9.000E+00
#rwgt            1           9   1.3543381931950538E-002           6     2483796           0
</event>
<event>
      6   9999  3.45752E-01  1.10600E+01 -1.00000E+00  1.82699E-01
      21    -1     0     0   501   511  0.000000000E+00  0.000000000E+00  1.206630397E+02  1.206630397E+02  0.000000000E+00  0.00000E+00  9.000E+00
      21    -1     0     0   502   503  0.000000000E+00  0.000000000E+00 -3.953826825E+02  3.953826825E+02  0.000000000E+00  0.00000E+00  9.000E+00
      25     1     1     2     0     0 -8.137199115E+00 -4.836380012E+00 -3.654993090E+02  3.863966607E+02  1.249921197E+02  0.00000E+00  9.000E+00
       5     1     1     2   501     0 -5.538805365E-01 -1.764458779E+00  2.867332449E+00  5.848435159E+00  4.750000000E+00  0.00000E+00  9.000E+00
      -5     1     1     2     0   503 -4.125629880E-01  3.200615405E-01 -1.733100488E+01  1.797773283E+01  4.750000000E+00  0.00000E+00  9.000E+00
      21     1     1     2   502   511  9.103642639E+00  6.280777250E+00  1.052433386E+02  1.058228935E+02  1.907348633E-06  0.00000E+00  9.000E+00
#rwgt            1           9   2.5145959996679887E-003           6     2486623           0
</event>
<event>
      6   9999  3.45752E-01  4.42621E+01 -1.00000E+00  1.37682E-01
      21    -1     0     0   501   502  0.000000000E+00  0.000000000E+00  2.769575759E+01  2.769575759E+01  0.000000000E+00  0.00000E+00  9.000E+00
      -2    -1     0     0     0   503  0.000000000E+00  0.000000000E+00 -2.080309347E+03  2.080309347E+03  0.000000000E+00  0.00000E+00  9.000E+00
      25     1     1     2     0     0 -5.685092531E+01 -9.534173817E-01 -4.220846976E+02  4.438634932E+02  1.250054875E+02  0.00000E+00  9.000E+00
       5     1     1     2   501     0  1.549128041E+01 -1.378652938E+01  6.744012501E+00  2.231798301E+01  4.750000000E+00  0.00000E+00  9.000E+00
      -5     1     1     2     0   503  3.682418533E+01  5.876909536E+01 -6.839211580E+02  6.874449360E+02  4.750000000E+00  0.00000E+00  9.000E+00
      -2     1     1     2     0   502  4.535459578E+00 -4.402914860E+01 -9.533517463E+02  9.543786924E+02  1.078959322E-05  0.00000E+00  9.000E+00
#rwgt            1           9   1.7058079341210348E-002           6     2488539           0
</event>
<event>
      6   9999  3.45752E-01  7.27017E+00 -1.00000E+00  2.03065E-01
      21    -1     0     0   501   511  0.000000000E+00  0.000000000E+00  2.763864783E+01  2.763864783E+01  0.000000000E+00  0.00000E+00  9.000E+00
      21    -1     0     0   502   503  0.000000000E+00  0.000000000E+00 -9.333910940E+02  9.333910940E+02  0.000000000E+00  0.00000E+00  9.000E+00
      25     1     1     2     0     0  5.241896129E+01 -8.534523165E+00 -3.709504615E+02  3.950324590E+02  1.250032525E+02  0.00000E+00  9.000E+00
       5     1     1     2   501     0 -3.468871501E+00 -4.104362563E+00  1.095077822E+01  1.309048911E+01  4.750000000E+00  0.00000E+00  9.000E+00
      -5     1     1     2     0   503 -5.504062756E+01  8.668913427E+00 -5.417088867E+02  5.445876433E+02  4.750000000E+00  0.00000E+00  9.000E+00
      21     1     1     2   502   511  6.090537773E+00  3.969972302E+00 -4.043876081E+00  8.319150449E+00  1.788139343E-07  0.00000E+00  9.000E+00
#rwgt            1           9  0.22455564300318617                6     2489707           0
</event>
<event>
      6   9999  3.45752E-01  2.83983E+01 -1.00000E+00  1.49396E-01
      21    -1     0     0   501   512  0.000000000E+00  0.000000000E+00  1.907075556E+01  1.907075556E+01  0.000000000E+00  0.00000E+00  9.000E+00
      21    -1     0     0   502   503  0.000000000E+00  0.000000000E+00 -8.981217057E+02  8.981217057E+02  0.000000000E+00  0.00000E+00  9.000E+00
      25     1     1     2     0     0 -6.015184518E+00  1.859986523E+01 -7.220959434E+02  7.330956583E+02  1.249982214E+02  0.00000E+00  9.000E+00
       5     1     1     2   501     0 -4.804123020E+00  4.421149624E+00  4.984740669E+00  9.488746046E+00  4.750000000E+00  0.00000E+00  9.000E+00
      -5     1     1     2     0   503 -1.188273076E+01 -5.959929648E+00 -1.340959394E+02  1.348369516E+02  4.750000000E+00  0.00000E+00  9.000E+00
      21     1     1     2   502   512  2.270203829E+01 -1.706108521E+01 -2.784380800E+01  3.977110528E+01  0.000000000E+00  0.00000E+00  9.000E+00
#rwgt            1           9   2.7736836050857223E-003           6     2493636           0
</event>
<event>
      6   9999  3.45752E-01  1.04718E+01 -1.00000E+00  1.85109E-01
      21    -1     0     0   501   502  0.000000000E+00  0.000000000E+00  4.888319970E+02  4.888319970E+02  0.000000000E+00  0.00000E+00  9.000E+00
      21    -1     0     0   511   503  0.000000000E+00  0.000000000E+00 -1.445411776E+02  1.445411776E+02  0.000000000E+00  0.00000E+00  9.000E+00
      25     1     1     2     0     0 -1.196521884E+01  2.799285291E+01  1.308522861E+02  1.835008428E+02  1.249938888E+02  0.00000E+00  9.000E+00
       5     1     1     2   501     0 -4.280229539E+00 -2.031028037E+00  3.285158892E+02  3.285843840E+02  4.750000000E+00  0.00000E+00  9.000E+00
      -5     1     1     2     0   503  2.115100709E+01 -1.671012051E+01 -7.409156366E+01  7.898554003E+01  4.750000000E+00  0.00000E+00  9.000E+00
      21     1     1     2   511   502 -4.905558708E+00 -9.251704367E+00 -4.098579223E+01  4.230240779E+01  4.768371582E-07  0.00000E+00  9.000E+00
#rwgt            1           9   6.5091053446295869E-004           6     2494719           0
</event>
<event>
      6   9999  3.45752E-01  2.91935E+00 -1.00000E+00  2.80044E-01
      21    -1     0     0   501   512  0.000000000E+00  0.000000000E+00  2.225795720E+01  2.225795720E+01  0.000000000E+00  0.00000E+00  9.000E+00
      21    -1     0     0   502   503  0.000000000E+00  0.000000000E+00 -8.028218082E+02  8.028218082E+02  0.000000000E+00  0.00000E+00  9.000E+00
      25     1     1     2     0     0 -4.853319432E+00  2.894681889E+00 -7.696915004E+02  7.797937613E+02  1.249854813E+02  0.00000E+00  9.000E+00
       5     1     1     2   501     0  2.020035883E+00 -2.988354119E-01  3.548770006E+00  6.271053829E+00  4.750000000E+00  0.00000E+00  9.000E+00
      -5     1     1     2     0   503  5.174337880E+00 -4.340003504E+00 -2.589294186E+01  2.717749696E+01  4.750000000E+00  0.00000E+00  9.000E+00
      21     1     1     2   502   512 -2.341054332E+00  1.744157027E+00  1.147182121E+01  1.183745331E+01  5.840038640E-07  0.00000E+00  9.000E+00
#rwgt            1           9   5.7448781408119031E-004           6     2498586           0
</event>
<event>
      6   9999  3.45752E-01  6.92984E+00 -1.00000E+00  2.05698E-01
      21    -1     0     0   501   502  0.000000000E+00  0.000000000E+00  1.157476642E+03  1.157476642E+03  0.000000000E+00  0.00000E+00  9.000E+00
      21    -1     0     0   511   503  0.000000000E+00  0.000000000E+00 -4.261353703E+01  4.261353703E+01  0.000000000E+00  0.00000E+00  9.000E+00
      25     1     1     2     0     0 -2.776493802E+00  1.700402050E+00  1.137791623E+02  1.690651928E+02  1.250069652E+02  0.00000E+00  9.000E+00
       5     1     1     2   501     0  5.456339904E+00 -4.303893243E+00  9.967555153E+02  9.967910588E+02  4.750000000E+00  0.00000E+00  9.000E+00
      -5     1     1     2     0   503  4.239493921E+00  2.222090635E+00  1.782736768E+01  1.906012943E+01  4.750000000E+00  0.00000E+00  9.000E+00
      21     1     1     2   511   502 -6.919340023E+00  3.814005573E-01 -1.349894074E+01  1.517379761E+01  1.025477084E-06  0.00000E+00  9.000E+00
#rwgt            1           9   2.5726169677984628E-004           6     2504331           0
</event>
<event>
      6   9999  3.45752E-01  2.09507E+01 -1.00000E+00  1.58686E-01
      21    -1     0     0   501   512  0.000000000E+00  0.000000000E+00  5.819428768E+01  5.819428768E+01  0.000000000E+00  0.00000E+00  9.000E+00
      21    -1     0     0   502   503  0.000000000E+00  0.000000000E+00 -9.188578689E+02  9.188578689E+02  0.000000000E+00  0.00000E+00  9.000E+00
      25     1     1     2     0     0  6.757180229E+00  2.463399056E+01 -8.861221701E+02  8.952600577E+02  1.250023098E+02  0.00000E+00  9.000E+00
       5     1     1     2   501     0  4.166335577E+00  2.049920950E+00  2.428328918E+01  2.517540787E+01  4.750000000E+00  0.00000E+00  9.000E+00
      -5     1     1     2     0   503 -6.089497575E+00 -6.298544630E+00 -2.273675546E+01  2.482491076E+01  4.750000000E+00  0.00000E+00  9.000E+00
      21     1     1     2   502   512 -4.834018231E+00 -2.038536688E+01  2.391205515E+01  3.179178033E+01  9.536743164E-07  0.00000E+00  9.000E+00
#rwgt            1           9   1.1574537808093309E-003           6     2508671           0
</event>
<event>
      6   9999  3.45752E-01  2.57781E+01 -1.00000E+00  1.52229E-01
      21    -1     0     0   502   511  0.000000000E+00  0.000000000E+00  5.980521719E+02  5.980521719E+02  0.000000000E+00  0.00000E+00  9.000E+00
      21    -1     0     0   501   502  0.000000000E+00  0.000000000E+00 -1.227555703E+02  1.227555703E+02  0.000000000E+00  0.00000E+00  9.000E+00
      25     1     1     2     0     0 -2.070850222E+02 -6.576160921E+01  2.147062312E+02  3.300499495E+02  1.250016312E+02  0.00000E+00  9.000E+00
       5     1     1     2   501     0  2.412170615E+02  4.673391687E+01  2.019421520E+02  3.180769168E+02  4.750000000E+00  0.00000E+00  9.000E+00
      -5     1     1     2     0   503 -1.218223287E+01  5.510494413E+00  9.182558483E+00  1.690130843E+01  4.750000000E+00  0.00000E+00  9.000E+00
      21     1     1     2   503   511 -2.194980640E+01  1.351719792E+01  4.946565983E+01  5.577956743E+01  9.536743164E-07  0.00000E+00  9.000E+00
#rwgt            1           9   1.5984885041369860E-003           6     2510638           0
</event>
<event>
      6   9999  3.45752E-01  2.59994E+00 -1.00000E+00  2.94248E-01
      21    -1     0     0   501   512  0.000000000E+00  0.000000000E+00  1.499878748E+01  1.499878748E+01  0.000000000E+00  0.00000E+00  9.000E+00
      21    -1     0     0   502   503  0.000000000E+00  0.000000000E+00 -8.223732985E+02  8.223732985E+02  0.000000000E+00  0.00000E+00  9.000E+00
      25     1     1     2     0     0  2.095112834E+01 -2.919537029E+00 -7.763687150E+02  7.866518533E+02  1.250011328E+02  0.00000E+00  9.000E+00
       5     1     1     2   501     0  1.928694276E+00  4.209093737E-02  3.917168836E+00  6.452003173E+00  4.750000000E+00  0.00000E+00  9.000E+00
      -5     1     1     2     0   503 -2.279963310E+01  2.787443199E-01 -2.569011538E+01  3.467629588E+01  4.750000000E+00  0.00000E+00  9.000E+00
      21     1     1     2   502   512 -8.018952192E-02  2.598701771E+00 -9.232849484E+00  9.591933634E+00  2.064765462E-07  0.00000E+00  9.000E+00
#rwgt            1           9   6.0141484585184537E-004           6     2513458           0
</event>
<event>
      6   9999 -3.45752E-01  1.24245E+01 -1.00000E+00  1.77781E-01
      21    -1     0     0   511   502  0.000000000E+00  0.000000000E+00  5.714290659E+01  5.714290659E+01  0.000000000E+00  0.00000E+00  9.000E+00
      21    -1     0     0   502   503  0.000000000E+00  0.000000000E+00 -4.292781794E+03  4.292781794E+03  0.000000000E+00  0.00000E+00  9.000E+00
      25     1     1     2     0     0 -1.609313200E+01 -1.632470741E+01 -3.728629625E+03  3.730794547E+03  1.249943608E+02  0.00000E+00  9.000E+00
       5     1     1     2   501     0  1.759441220E+01  7.678992334E+00 -3.065521933E+02  3.071894204E+02  4.750000000E+00  0.00000E+00  9.000E+00
      -5     1     1     2     0   503  1.091522160E+01  9.092224470E+00 -2.552842851E+02  2.557233649E+02  4.750000000E+00  0.00000E+00  9.000E+00
      21     1     1     2   511   501 -1.241650180E+01 -4.465093925E-01  5.482721577E+01  5.621736811E+01  6.361801178E-06  0.00000E+00  9.000E+00
#rwgt            1           9 -0.12185201885826076                6     2520770           0
</event>
<event>
      6   9999  3.45752E-01  7.23670E+00 -1.00000E+00  2.03315E-01
      21    -1     0     0   512   502  0.000000000E+00  0.000000000E+00  1.695905572E+03  1.695905572E+03  0.000000000E+00  0.00000E+00  9.000E+00
      21    -1     0     0   502   503  0.000000000E+00  0.000000000E+00 -1.553455382E+02  1.553455382E+02  0.000000000E+00  0.00000E+00  9.000E+00
      25     1     1     2     0     0 -2.407674902E+01  2.835746792E+01 -7.133079337E+01  1.486569185E+02  1.250078458E+02  0.00000E+00  9.000E+00
       5     1     1     2   501     0  1.084754426E+01 -6.564007542E+00 -1.413580662E+01  1.957393523E+01  4.750000000E+00  0.00000E+00  9.000E+00
      -5     1     1     2     0   503  5.993549434E+00 -2.167047981E+01 -2.385465640E+01  3.312309560E+01  4.750000000E+00  0.00000E+00  9.000E+00
      21     1     1     2   512   501  7.235655323E+00 -1.229805657E-01  1.649881290E+03  1.649897161E+03  2.157918644E-05  0.00000E+00  9.000E+00
#rwgt            1           9  0.22964978904352770                6     2522913           0
</event>
<event>
      6   9999 -3.45752E-01  9.84653E+00 -1.00000E+00  1.87904E-01
      21    -1     0     0   501   502  0.000000000E+00  0.000000000E+00  5.202518915E+01  5.202518915E+01  0.000000000E+00  0.00000E+00  9.000E+00
      21    -1     0     0   502   511  0.000000000E+00  0.000000000E+00 -3.199811592E+02  3.199811592E+02  0.000000000E+00  0.00000E+00  9.000E+00
      25     1     1     2     0     0  5.442659584E+00 -5.376633475E+00 -1.554768833E+02  1.996459040E+02  1.250075798E+02  0.00000E+00  9.000E+00
       5     1     1     2   501     0 -5.662550032E-01 -3.783673445E+00  2.473745277E+01  2.547824364E+01  4.750000000E+00  0.00000E+00  9.000E+00
      -5     1     1     2     0   503 -7.903203324E+00 -2.094642765E-01  8.944437900E-02  9.223610917E+00  4.750000000E+00  0.00000E+00  9.000E+00
      21     1     1     2   503   511  3.026798743E+00  9.369771196E+00 -1.373059839E+02  1.376585897E+02  0.000000000E+00  0.00000E+00  9.000E+00
#rwgt            1           9  -1.5378289143972055E-003           6     2525616           0
</event>
<event>
      6   9999  3.45752E-01  2.45702E+01 -1.00000E+00  1.53675E-01
      21    -1     0     0   501   502  0.000000000E+00  0.000000000E+00  9.503228064E+01  9.503228064E+01  0.000000000E+00  0.00000E+00  9.000E+00
      21    -1     0     0   512   503  0.000000000E+00  0.000000000E+00 -1.379507589E+03  1.379507589E+03  0.000000000E+00  0.00000E+00  9.000E+00
      25     1     1     2     0     0 -1.015039859E+00 -8.545758877E+00 -1.231765675E+03  1.238121992E+03  1.250013160E+02  0.00000E+00  9.000E+00
       5     1     1     2   501     0  1.849140524E+01 -1.032848665E+01  8.841167518E+01  9.103733581E+01  4.750000000E+00  0.00000E+00  9.000E+00
      -5     1     1     2     0   503 -7.871532731E+00 -3.740827875E+00 -3.094714924E+01  3.249989795E+01  4.750000000E+00  0.00000E+00  9.000E+00
      21     1     1     2   512   502 -9.604832652E+00  2.261507340E+01 -1.101741592E+02  1.128806437E+02  1.348699152E-06  0.00000E+00  9.000E+00
#rwgt            1           9   5.3250013905227376E-003           6     2528174           0
</event>
<event>
      6   9999  3.45752E-01  7.95643E+01 -1.00000E+00  1.24811E-01
      21    -1     0     0   501   502  0.000000000E+00  0.000000000E+00  1.018792622E+02  1.018792622E+02  0.000000000E+00  0.00000E+00  9.000E+00
       2    -1     0     0   502     0  0.000000000E+00  0.000000000E+00 -2.746013887E+03  2.746013887E+03  0.000000000E+00  0.00000E+00  9.000E+00
      25     1     1     2     0     0  2.112950110E+02 -3.466453301E+01 -1.013534377E+03  1.043419439E+03  1.249999213E+02  0.00000E+00  9.000E+00
       5     1     1     2   501     0  1.428419008E+01  5.191009675E-01  7.648298576E+01  7.795201834E+01  4.750000000E+00  0.00000E+00  9.000E+00
      -5     1     1     2     0   503 -1.464919787E+02  2.544546010E+01 -6.664401281E+02  6.828414004E+02  4.750000000E+00  0.00000E+00  9.000E+00
       2     1     1     2   503     0 -7.908722236E+01  8.699971937E+00 -1.040643105E+03  1.043680291E+03  1.525878906E-05  0.00000E+00  9.000E+00
#rwgt            1           9   3.1360965055366813E-004           6     2530531           0
</event>
<event>
      6   9999  3.45752E-01  2.48571E+01 -1.00000E+00  1.53323E-01
      21    -1     0     0   501   502  0.000000000E+00  0.000000000E+00  1.332769803E+01  1.332769803E+01  0.000000000E+00  0.00000E+00  9.000E+00
      21    -1     0     0   502   511  0.000000000E+00  0.000000000E+00 -1.372073165E+03  1.372073165E+03  0.000000000E+00  0.00000E+00  9.000E+00
      25     1     1     2     0     0  1.703755554E+01  2.276052266E+01 -3.950719888E+02  4.153516611E+02  1.250072253E+02  0.00000E+00  9.000E+00
       5     1     1     2   501     0 -2.624804134E+00  1.174491420E+00 -1.127018602E+00  5.665836016E+00  4.750000000E+00  0.00000E+00  9.000E+00
      -5     1     1     2     0   503 -3.238901567E+01 -6.767260684E+00 -4.534614939E+02  4.546919101E+02  4.750000000E+00  0.00000E+00  9.000E+00
      21     1     1     2   503   511  1.797626426E+01 -1.716775340E+01 -5.090849659E+02  5.096914560E+02  0.000000000E+00  0.00000E+00  9.000E+00
#rwgt            1           9   1.6562739577423947E-003           6     2532394           0
</event>
<event>
      6   9999  3.45752E-01  8.16993E+00 -1.00000E+00  1.96941E-01
      21    -1     0     0   501   502  0.000000000E+00  0.000000000E+00  1.950115112E+01  1.950115112E+01  0.000000000E+00  0.00000E+00  9.000E+00
      21    -1     0     0   502   512  0.000000000E+00  0.000000000E+00 -1.753271178E+03  1.753271178E+03  0.000000000E+00  0.00000E+00  9.000E+00
      25     1     1     2     0     0  1.958489376E+00 -8.796233003E+00 -6.645342180E+02  6.762483680E+02  1.249996756E+02  0.00000E+00  9.000E+00
       5     1     1     2   501     0  1.378330061E+00  1.546328526E+00  1.278402194E+01  1.379436996E+01  4.750000000E+00  0.00000E+00  9.000E+00
      -5     1     1     2     0   503  3.525427306E-01 -3.956804992E-02 -1.638168640E+01  1.706012899E+01  4.750000000E+00  0.00000E+00  9.000E+00
      21     1     1     2   503   512 -3.689362167E+00  7.289472527E+00 -1.065638145E+03  1.065669463E+03  0.000000000E+00  0.00000E+00  9.000E+00
#rwgt            1           9   1.4321813535542221E-002           6     2533733           0
</event>
<event>
      6   9999  3.45752E-01  1.45337E+01 -1.00000E+00  1.71569E-01
      21    -1     0     0   501   502  0.000000000E+00  0.000000000E+00  1.685861022E+01  1.685861022E+01  0.000000000E+00  0.00000E+00  9.000E+00
      21    -1     0     0   511   503  0.000000000E+00  0.000000000E+00 -1.229664191E+03  1.229664191E+03  0.000000000E+00  0.00000E+00  9.000E+00
      25     1     1     2     0     0 -3.847190911E+01 -7.175994135E+01 -4.781268399E+02  5.008593569E+02  1.250009734E+02  0.00000E+00  9.000E+00
       5     1     1     2   501     0 -2.455336200E+00 -8.225706944E-02 -4.371186404E+00  6.906896022E+00  4.750000000E+00  0.00000E+00  9.000E+00
      -5     1     1     2     0   503  5.042567963E+01  6.084181786E+01 -3.805409742E+02  3.886881417E+02  4.750000000E+00  0.00000E+00  9.000E+00
      21     1     1     2   511   502 -9.498434320E+00  1.100038056E+01 -3.497665801E+02  3.500684064E+02  3.814697266E-06  0.00000E+00  9.000E+00
#rwgt            1           9   30.854717324318926                6     2536893           0
</event>
<event>
      6   9999  3.45752E-01  2.08203E+01 -1.00000E+00  1.58889E-01
      21    -1     0     0   501   502  0.000000000E+00  0.000000000E+00  1.993777290E+01  1.993777290E+01  0.000000000E+00  0.00000E+00  9.000E+00
      21    -1     0     0   512   503  0.000000000E+00  0.000000000E+00 -8.101349397E+02  8.101349397E+02  0.000000000E+00  0.00000E+00  9.000E+00
      25     1     1     2     0     0 -3.374133450E+00 -3.530353131E+01 -6.303507936E+02  6.436026274E+02  1.249979797E+02  0.00000E+00  9.000E+00
       5     1     1     2   501     0  2.499104266E-01 -3.636192209E+00  9.522862912E+00  1.124863401E+01  4.750000000E+00  0.00000E+00  9.000E+00
      -5     1     1     2     0   503 -6.462946012E+00  2.045809351E+01 -6.021341511E+01  6.409774661E+01  4.750000000E+00  0.00000E+00  9.000E+00
      21     1     1     2   512   502  9.587169035E+00  1.848163001E+01 -1.091558210E+02  1.111237046E+02  1.907348633E-06  0.00000E+00  9.000E+00
#rwgt            1           9   7.3124143154919502E-004           6     2539025           0
</event>
<event>
      6   9999  3.45752E-01  7.52628E+00 -1.00000E+00  2.01206E-01
      -4    -1     0     0     0   503  0.000000000E+00  0.000000000E+00  1.988427990E+02  1.988427990E+02  0.000000000E+00  0.00000E+00  9.000E+00
      21    -1     0     0   501   502  0.000000000E+00  0.000000000E+00 -1.972615163E+02  1.972615163E+02  0.000000000E+00  0.00000E+00  9.000E+00
      25     1     1     2     0     0 -5.587347188E+00 -9.072805823E+00 -1.153233940E+02  1.704049146E+02  1.249992619E+02  0.00000E+00  9.000E+00
       5     1     1     2   501     0  5.108509185E+00  5.641035672E-01 -5.052695103E+01  5.100931640E+01  4.750000000E+00  0.00000E+00  9.000E+00
      -5     1     1     2     0   503 -4.190485864E+00  2.605963218E+00 -2.361914336E-01  6.853429978E+00  4.750000000E+00  0.00000E+00  9.000E+00
      -4     1     1     2     0   502  4.669323867E+00  5.902739037E+00  1.676678192E+02  1.678366542E+02  2.697398305E-06  0.00000E+00  9.000E+00
#rwgt            1           9   4.8269809080070534                6     2540428           0
</event>
<event>
      6   9999  3.45752E-01  2.29745E+01 -1.00000E+00  1.55746E-01
      21    -1     0     0   501   502  0.000000000E+00  0.000000000E+00  4.682672138E+02  4.682672138E+02  0.000000000E+00  0.00000E+00  9.000E+00
      21    -1     0     0   511   503  0.000000000E+00  0.000000000E+00 -4.540778276E+02  4.540778276E+02  0.000000000E+00  0.00000E+00  9.000E+00
      25     1     1     2     0     0  1.382898238E+01  1.211434022E+01 -5.715815350E+01  1.386745744E+02  1.250023403E+02  0.00000E+00  9.000E+00
       5     1     1     2   501     0 -5.410787515E+00  6.311233189E+00  4.246502743E+02  4.247581974E+02  4.750000000E+00  0.00000E+00  9.000E+00
      -5     1     1     2     0   503 -6.843736669E+00  4.494913340E+00 -6.815632307E+00  1.166431829E+01  4.750000000E+00  0.00000E+00  9.000E+00
      21     1     1     2   511   502 -1.574458200E+00 -2.292048675E+01 -3.464871023E+02  3.472479513E+02  3.814697266E-06  0.00000E+00  9.000E+00
#rwgt            1           9  0.34234687093214738                6     2543345           0
</event>
<event>
      6   9999 -3.45752E-01  1.29030E+01 -1.00000E+00  1.76241E-01
      -2    -1     0     0     0   503  0.000000000E+00  0.000000000E+00  1.229184947E+01  1.229184947E+01  0.000000000E+00  0.00000E+00  9.000E+00
      21    -1     0     0   501   502  0.000000000E+00  0.000000000E+00 -7.796139403E+02  7.796139403E+02  0.000000000E+00  0.00000E+00  9.000E+00
      25     1     1     2     0     0 -1.679625469E+01 -3.602608110E-01 -6.724099988E+02  6.841367172E+02  1.250023895E+02  0.00000E+00  9.000E+00
       5     1     1     2   501     0  1.403140632E+01 -1.373608367E+01 -7.923718913E+01  8.177196952E+01  4.750000000E+00  0.00000E+00  9.000E+00
      -5     1     1     2     0   503  5.250937083E+00  1.435089662E+00 -8.770553360E+00  1.136296303E+01  4.750000000E+00  0.00000E+00  9.000E+00
      -2     1     1     2     0   502 -2.486088710E+00  1.266125482E+01 -6.904349494E+00  1.463413997E+01  4.915124924E-07  0.00000E+00  9.000E+00
#rwgt            1           9  -132.43332355828034                6     2545510           0
</event>
<event>
      6   9999  3.45752E-01  1.22347E+01 -1.00000E+00  1.78416E-01
      21    -1     0     0   501   502  0.000000000E+00  0.000000000E+00  5.801281347E+02  5.801281347E+02  0.000000000E+00  0.00000E+00  9.000E+00
      21    -1     0     0   511   503  0.000000000E+00  0.000000000E+00 -1.747330543E+01  1.747330543E+01  0.000000000E+00  0.00000E+00  9.000E+00
      25     1     1     2     0     0 -6.314025619E-01 -8.552636956E+00  3.090942469E+02  3.335241352E+02  1.250021961E+02  0.00000E+00  9.000E+00
       5     1     1     2   501     0 -2.405504424E+00 -2.488098270E+00  2.369702374E+02  2.370431036E+02  4.750000000E+00  0.00000E+00  9.000E+00
      -5     1     1     2     0   503 -2.285824607E-01 -7.501593331E-01  1.361750653E+01  1.444347511E+01  4.750000000E+00  0.00000E+00  9.000E+00
      21     1     1     2   511   502  3.265489446E+00  1.179089456E+01  2.972838386E+00  1.259072611E+01  3.674277069E-07  0.00000E+00  9.000E+00
#rwgt            1           9   1.6161146816563745E-004           6     2547444           0
</event>
<event>
      6   9999  3.45752E-01  1.19978E+01 -1.00000E+00  1.79229E-01
      21    -1     0     0   501   502  0.000000000E+00  0.000000000E+00  1.748919894E+01  1.748919894E+01  0.000000000E+00  0.00000E+00  9.000E+00
      -1    -1     0     0     0   503  0.000000000E+00  0.000000000E+00 -1.672379472E+03  1.672379472E+03  0.000000000E+00  0.00000E+00  9.000E+00
      25     1     1     2     0     0 -1.762320354E+01  2.272169972E+01 -7.004051707E+02  7.120529943E+02  1.250008425E+02  0.00000E+00  9.000E+00
       5     1     1     2   501     0  9.659389037E-01 -1.280295695E+00  9.753310703E+00  1.096639251E+01  4.750000000E+00  0.00000E+00  9.000E+00
      -5     1     1     2     0   503  2.865502212E+01 -2.145771096E+01 -2.586441811E+02  2.611530558E+02  4.750000000E+00  0.00000E+00  9.000E+00
      -1     1     1     2     0   502 -1.199775748E+01  1.630694044E-02 -7.055942321E+02  7.056962284E+02  1.078959322E-05  0.00000E+00  9.000E+00
#rwgt            1           9   2.0344178591632605E-002           6     2549591           0
</event>
<event>
      6   9999  3.45752E-01  4.18571E+01 -1.00000E+00  1.39052E-01
      21    -1     0     0   501   511  0.000000000E+00  0.000000000E+00  1.890560451E+02  1.890560451E+02  0.000000000E+00  0.00000E+00  9.000E+00
      21    -1     0     0   502   503  0.000000000E+00  0.000000000E+00 -5.541734258E+02  5.541734258E+02  0.000000000E+00  0.00000E+00  9.000E+00
      25     1     1     2     0     0  1.253266130E+02 -2.559168683E+02 -2.585591642E+02  4.045709019E+02  1.249982794E+02  0.00000E+00  9.000E+00
       5     1     1     2   501     0 -7.251689630E-01 -1.056708959E+00  1.241499279E+01  1.335428957E+01  4.750000000E+00  0.00000E+00  9.000E+00
      -5     1     1     2     0   503 -1.418986179E+02  2.188576953E+02 -1.042028537E+02  2.809176139E+02  4.750000000E+00  0.00000E+00  9.000E+00
      21     1     1     2   502   511  1.729717385E+01  3.811588193E+01 -1.477035561E+01  4.438666560E+01  7.539457465E-07  0.00000E+00  9.000E+00
#rwgt            1           9  0.15554225621206694                6     2552080           0
</event>
<event>
      6   9999  3.45752E-01  6.81060E+00 -1.00000E+00  2.06669E-01
      21    -1     0     0   512   502  0.000000000E+00  0.000000000E+00  9.596617853E+02  9.596617853E+02  0.000000000E+00  0.00000E+00  9.000E+00
      21    -1     0     0   502   503  0.000000000E+00  0.000000000E+00 -7.918881237E+02  7.918881237E+02  0.000000000E+00  0.00000E+00  9.000E+00
      25     1     1     2     0     0  4.994522929E-02  3.927122204E+00 -7.555312684E+02  7.658134199E+02  1.250090868E+02  0.00000E+00  9.000E+00
       5     1     1     2   501     0 -4.532317932E+00  1.097845487E+00  5.563329007E+00  8.675269460E+00  4.750000000E+00  0.00000E+00  9.000E+00
      -5     1     1     2     0   503 -1.115396912E+00 -1.145632704E+00 -2.943575270E+01  2.985938079E+01  4.750000000E+00  0.00000E+00  9.000E+00
      21     1     1     2   512   501  5.597769615E+00 -3.879334987E+00  9.471773537E+02  9.472018389E+02  1.078959322E-05  0.00000E+00  9.000E+00
#rwgt            1           9   2.6656209748666628E-004           6     2553579           0
</event>
<event>
      6   9999  3.45752E-01  1.08781E+01 -1.00000E+00  1.83424E-01
      21    -1     0     0   501   502  0.000000000E+00  0.000000000E+00  3.546788945E+01  3.546788945E+01  0.000000000E+00  0.00000E+00  9.000E+00
      21    -1     0     0   502   511  0.000000000E+00  0.000000000E+00 -1.271258823E+03  1.271258823E+03  0.000000000E+00  0.00000E+00  9.000E+00
      25     1     1     2     0     0 -4.995078686E+01  9.134894821E+00 -1.036572021E+03  1.045315718E+03  1.249994677E+02  0.00000E+00  9.000E+00
       5     1     1     2   501     0 -4.895187824E-01 -5.224663279E+00  2.735606757E+01  2.825692248E+01  4.750000000E+00  0.00000E+00  9.000E+00
      -5     1     1     2     0   503  4.086010222E+01  1.242641258E+00 -1.407718784E+02  1.466641618E+02  4.750000000E+00  0.00000E+00  9.000E+00
      21     1     1     2   503   511  9.580203425E+00 -5.152872800E+00 -8.580310192E+01  8.648991094E+01  0.000000000E+00  0.00000E+00  9.000E+00
#rwgt            1           9   2.5269563982799028E-004           6     2557480           0
</event>
<event>
      6   9999  3.45752E-01  2.59336E+01 -1.00000E+00  1.52050E-01
      21    -1     0     0   501   502  0.000000000E+00  0.000000000E+00  2.536429679E+01  2.536429679E+01  0.000000000E+00  0.00000E+00  9.000E+00
      21    -1     0     0   502   512  0.000000000E+00  0.000000000E+00 -1.242364983E+03  1.242364983E+03  0.000000000E+00  0.00000E+00  9.000E+00
      25     1     1     2     0     0 -4.596128817E+01  5.754284434E+01 -8.709719803E+02  8.829726706E+02  1.249997101E+02  0.00000E+00  9.000E+00
       5     1     1     2   501     0 -3.745616718E+00 -1.379195572E+00  1.368378475E+01  1.502465607E+01  4.750000000E+00  0.00000E+00  9.000E+00
      -5     1     1     2     0   503  2.451851012E+01 -4.999157145E+01 -1.899385095E+02  1.979886725E+02  4.750000000E+00  0.00000E+00  9.000E+00
      21     1     1     2   503   512  2.518839477E+01 -6.172077317E+00 -1.697739816E+02  1.717432811E+02  1.907348633E-06  0.00000E+00  9.000E+00
#rwgt            1           9   2.7574882251925722E-004           6     2561533           0
</event>
<event>
      6   9999  3.45752E-01  1.18451E+01 -1.00000E+00  1.79766E-01
      21    -1     0     0   501   502  0.000000000E+00  0.000000000E+00  1.983294944E+01  1.983294944E+01  0.000000000E+00  0.00000E+00  9.000E+00
      21    -1     0     0   511   503  0.000000000E+00  0.000000000E+00 -1.051945246E+03  1.051945246E+03  0.000000000E+00  0.00000E+00  9.000E+00
      25     1     1     2     0     0 -7.044398045E+01 -1.578655048E+01 -3.707577491E+02  3.978681131E+02  1.250046293E+02  0.00000E+00  9.000E+00
       5     1     1     2   501     0  7.103892472E-01  7.953408655E-01  2.167787433E+00  5.329073309E+00  4.750000000E+00  0.00000E+00  9.000E+00
      -5     1     1     2     0   503  6.277380842E+01  2.457600077E+01 -6.117202140E+02  6.154418848E+02  4.750000000E+00  0.00000E+00  9.000E+00
      21     1     1     2   511   502  6.959782778E+00 -9.584791152E+00 -5.180212133E+01  5.313912468E+01  9.536743164E-07  0.00000E+00  9.000E+00
#rwgt            1           9   1.4219229237666500E-004           6     2563139           0
</event>
<event>
      6   9999  3.45752E-01  7.34637E+00 -1.00000E+00  2.02501E-01
      21    -1     0     0   502   503  0.000000000E+00  0.000000000E+00  2.840444763E+02  2.840444763E+02  0.000000000E+00  0.00000E+00  9.000E+00
      21    -1     0     0   501   512  0.000000000E+00  0.000000000E+00 -8.116485901E+01  8.116485901E+01  0.000000000E+00  0.00000E+00  9.000E+00
      25     1     1     2     0     0  2.770808239E+01  6.178965129E+01  2.320222817E+02  2.721159403E+02  1.250081873E+02  0.00000E+00  9.000E+00
       5     1     1     2   501     0 -3.475963919E+01 -2.319596760E+01 -2.293607309E+01  4.790523331E+01  4.750000000E+00  0.00000E+00  9.000E+00
      -5     1     1     2     0   503  1.300063321E+01 -3.428350358E+01 -2.764342132E+00  3.707531752E+01  4.750000000E+00  0.00000E+00  9.000E+00
      21     1     1     2   502   512 -5.949076415E+00 -4.310180107E+00 -3.442249167E+00  8.112844265E+00  1.632340424E-07  0.00000E+00  9.000E+00
#rwgt            1           9   7.3332480427784532E-004           6     2565861           0
</event>
<event>
      6   9999  3.45752E-01  1.18309E+01 -1.00000E+00  1.79817E-01
      21    -1     0     0   511   502  0.000000000E+00  0.000000000E+00  2.633956447E+01  2.633956447E+01  0.000000000E+00  0.00000E+00  9.000E+00
      21    -1     0     0   502   503  0.000000000E+00  0.000000000E+00 -8.960548907E+02  8.960548907E+02  0.000000000E+00  0.00000E+00  9.000E+00
      25     1     1     2     0     0 -3.779315149E+00  9.405445874E+00 -8.385231053E+02  8.478505557E+02  1.250072834E+02  0.00000E+00  9.000E+00
       5     1     1     2   501     0  4.767487077E+00  4.431961666E+00  1.216934659E+01  1.459543468E+01  4.750000000E+00  0.00000E+00  9.000E+00
      -5     1     1     2     0   503  1.084224397E+01 -1.394402784E+01 -4.445142905E+01  4.806747560E+01  4.750000000E+00  0.00000E+00  9.000E+00
      21     1     1     2   511   501 -1.183041589E+01  1.066202984E-01  1.089861524E+00  1.188098928E+01  2.747638362E-07  0.00000E+00  9.000E+00
#rwgt            1           9   2.7575941238583762E-003           6     2569731           0
</event>
<event>
      6   9999  3.45752E-01  1.53836E+01 -1.00000E+00  1.69426E-01
      -2    -1     0     0     0   502  0.000000000E+00  0.000000000E+00  9.659827742E+01  9.659827742E+01  0.000000000E+00  0.00000E+00  9.000E+00
      21    -1     0     0   502   503  0.000000000E+00  0.000000000E+00 -9.888863072E+02  9.888863072E+02  0.000000000E+00  0.00000E+00  9.000E+00
      25     1     1     2     0     0  1.006855109E+01  1.733888354E+01 -7.610688302E+02  7.715262369E+02  1.249998293E+02  0.00000E+00  9.000E+00
       5     1     1     2   501     0 -4.172289675E+00  7.297854061E+00  1.311837517E+01  1.628867527E+01  4.750000000E+00  0.00000E+00  9.000E+00
      -5     1     1     2     0   503 -8.045891551E+00 -9.404075702E+00 -2.200304124E+02  2.204293943E+02  4.750000000E+00  0.00000E+00  9.000E+00
      -2     1     1     2     0   501  2.149630132E+00 -1.523266190E+01  7.569283762E+01  7.724027813E+01  0.000000000E+00  0.00000E+00  9.000E+00
#rwgt            1           9   6.1271691637846201E-005           6     2572137           0
</event>
<event>
      6   9999  3.45752E-01  5.81381E+00 -1.00000E+00  2.15983E-01
      21    -1     0     0   511   502  0.000000000E+00  0.000000000E+00  3.458714538E+01  3.458714538E+01  0.000000000E+00  0.00000E+00  9.000E+00
      21    -1     0     0   502   503  0.000000000E+00  0.000000000E+00 -1.167248440E+03  1.167248440E+03  0.000000000E+00  0.00000E+00  9.000E+00
      25     1     1     2     0     0  2.628778995E+01 -3.733809805E+00 -1.842394512E+02  2.242198433E+02  1.250014942E+02  0.00000E+00  9.000E+00
       5     1     1     2   501     0 -1.004325294E+00  1.917486038E+00  1.217052532E+01  1.324271908E+01  4.750000000E+00  0.00000E+00  9.000E+00
      -5     1     1     2     0   503 -2.968130910E+01 -1.986218184E+00 -9.571348426E+02  9.576087899E+02  4.750000000E+00  0.00000E+00  9.000E+00
      21     1     1     2   511   501  4.397844445E+00  3.802541950E+00 -3.457526179E+00  6.764233018E+00  1.976862425E-07  0.00000E+00  9.000E+00
#rwgt            1           9   3.1113712147536559E-004           6     2574670           0
</event>
<event>
      6   9999  3.45752E-01  9.70619E+00 -1.00000E+00  1.88568E-01
      21    -1     0     0   501   502  0.000000000E+00  0.000000000E+00  2.455771425E+01  2.455771425E+01  0.000000000E+00  0.00000E+00  9.000E+00
      21    -1     0     0   512   503  0.000000000E+00  0.000000000E+00 -4.786691818E+02  4.786691818E+02  0.000000000E+00  0.00000E+00  9.000E+00
      25     1     1     2     0     0  1.568208633E+01  3.329846799E+01 -3.315518184E+02  3.562387389E+02  1.249988600E+02  0.00000E+00  9.000E+00
       5     1     1     2   501     0 -1.622168174E+00  6.398057325E-01  5.880956463E+00  7.758152479E+00  4.750000000E+00  0.00000E+00  9.000E+00
      -5     1     1     2     0   503 -1.674983084E+01 -2.461225948E+01 -3.914604072E+01  4.940946422E+01  4.750000000E+00  0.00000E+00  9.000E+00
      21     1     1     2   512   502  2.689912679E+00 -9.326014237E+00 -8.929456489E+01  8.982054048E+01  9.536743164E-07  0.00000E+00  9.000E+00
#rwgt            1           9   1.2226622155579235E-003           6     2579923           0
</event>
<event>
      6   9999 -3.45752E-01  4.52633E+00 -1.00000E+00  2.37238E-01
      21    -1     0     0   511   502  0.000000000E+00  0.000000000E+00  2.900538369E+01  2.900538369E+01  0.000000000E+00  0.00000E+00  9.000E+00
      21    -1     0     0   502   503  0.000000000E+00  0.000000000E+00 -7.818424292E+02  7.818424292E+02  0.000000000E+00  0.00000E+00  9.000E+00
      25     1     1     2     0     0 -9.538123128E-01 -1.241196113E+00 -7.364197763E+02  7.469538519E+02  1.249940781E+02  0.00000E+00  9.000E+00
       5     1     1     2   501     0 -1.889114802E+00 -1.771287660E+00  1.491551387E+00  5.611901661E+00  4.750000000E+00  0.00000E+00  9.000E+00
      -5     1     1     2     0   503 -8.963911263E-01  4.619567305E-01 -3.768395333E+01  3.799552289E+01  4.750000000E+00  0.00000E+00  9.000E+00
      21     1     1     2   511   501  3.739318242E+00  2.550527042E+00  1.977513271E+01  2.028653649E+01  9.536743164E-07  0.00000E+00  9.000E+00
#rwgt            1           9  -2.2464614637603716E-005           6     2582723           0
</event>
<event>
      6   9999  3.45752E-01  3.60286E+00 -1.00000E+00  2.57640E-01
      21    -1     0     0   501   502  0.000000000E+00  0.000000000E+00  9.454068731E+00  9.454068731E+00  0.000000000E+00  0.00000E+00  9.000E+00
      21    -1     0     0   502   512  0.000000000E+00  0.000000000E+00 -9.075941085E+02  9.075941085E+02  0.000000000E+00  0.00000E+00  9.000E+00
      25     1     1     2     0     0  3.943610868E+01  1.415214656E+01 -6.167996478E+02  6.307318560E+02  1.250015149E+02  0.00000E+00  9.000E+00
       5     1     1     2   501     0 -1.668845514E-01  1.169874096E-01 -7.182108797E+00  8.613171499E+00  4.750000000E+00  0.00000E+00  9.000E+00
      -5     1     1     2     0   503 -3.598812488E+01 -1.278084001E+01 -2.137009728E+02  2.171385808E+02  4.750000000E+00  0.00000E+00  9.000E+00
      21     1     1     2   503   512 -3.281099243E+00 -1.488293958E+00 -6.045731032E+01  6.056456887E+01  6.743495762E-07  0.00000E+00  9.000E+00
#rwgt            1           9   2.0568734976857272E-004           6     2586761           0
</event>
<event>
      6   9999  3.45752E-01  2.72948E+00 -1.00000E+00  2.88105E-01
      21    -1     0     0   502   511  0.000000000E+00  0.000000000E+00  1.656499374E+03  1.656499374E+03  0.000000000E+00  0.00000E+00  9.000E+00
      21    -1     0     0   501   502  0.000000000E+00  0.000000000E+00 -3.661126821E+00  3.661126821E+00  0.000000000E+00  0.00000E+00  9.000E+00
      25     1     1     2     0     0 -2.815998990E+00 -7.268697064E+00  1.564397560E+03  1.569403092E+03  1.250023004E+02  0.00000E+00  9.000E+00
       5     1     1     2   501     0  8.599474490E-01  4.571268363E+00  1.048768975E+01  1.241733225E+01  4.750000000E+00  0.00000E+00  9.000E+00
      -5     1     1     2     0   503 -4.791401559E-01  1.464578668E+00  4.580028412E+01  4.607171683E+01  4.750000000E+00  0.00000E+00  9.000E+00
      21     1     1     2   503   511  2.435191697E+00  1.232850033E+00  3.215271358E+01  3.226836017E+01  4.768371582E-07  0.00000E+00  9.000E+00
#rwgt            1           9   2.2580380966809605E-002           6     2591658           0
</event>
<event>
      6   9999 -3.45752E-01  1.79097E+01 -1.00000E+00  1.63958E-01
      21    -1     0     0   501   502  0.000000000E+00  0.000000000E+00  2.108728364E+03  2.108728364E+03  0.000000000E+00  0.00000E+00  9.000E+00
      21    -1     0     0   512   503  0.000000000E+00  0.000000000E+00 -3.508789198E+01  3.508789198E+01  0.000000000E+00  0.00000E+00  9.000E+00
      25     1     1     2     0     0 -2.903917257E+01  7.676856462E+01  4.126496631E+02  4.389097897E+02  1.250014917E+02  0.00000E+00  9.000E+00
       5     1     1     2   501     0  9.369098775E+00  7.125043891E+00  1.597287402E+03  1.597337833E+03  4.750000000E+00  0.00000E+00  9.000E+00
      -5     1     1     2     0   503  1.801028310E+01 -6.606096460E+01  4.807154064E+01  8.379652058E+01  4.750000000E+00  0.00000E+00  9.000E+00
      21     1     1     2   512   502  1.659790688E+00 -1.783264391E+01  1.563186635E+01  2.377211264E+01  0.000000000E+00  0.00000E+00  9.000E+00
#rwgt            1           9  -1.0698919305997510E-003           6     2597134           0
</event>
<event>
      6   9999  3.45752E-01  1.39969E+01 -1.00000E+00  1.73018E-01
      21    -1     0     0   501   502  0.000000000E+00  0.000000000E+00  3.645605136E+01  3.645605136E+01  0.000000000E+00  0.00000E+00  9.000E+00
      21    -1     0     0   511   503  0.000000000E+00  0.000000000E+00 -6.703772241E+02  6.703772241E+02  0.000000000E+00  0.00000E+00  9.000E+00
      25     1     1     2     0     0 -4.002488543E+01  3.005614216E+01 -4.077144923E+02  4.293726695E+02  1.249976759E+02  0.00000E+00  9.000E+00
       5     1     1     2   501     0 -1.521000937E+00  4.722627205E-01  2.209498732E+01  2.265584782E+01  4.750000000E+00  0.00000E+00  9.000E+00
      -5     1     1     2     0   503  3.956331053E+01 -1.667261406E+01 -1.857507083E+02  1.907068948E+02  4.750000000E+00  0.00000E+00  9.000E+00
      21     1     1     2   511   502  1.982575840E+00 -1.385579081E+01 -6.255095944E+01  6.409786324E+01  1.168007728E-06  0.00000E+00  9.000E+00
#rwgt            1           9   1.2460281353678450E-002           6     2599671           0
</event>
<event>
      6   9999  3.45752E-01  4.05632E+00 -1.00000E+00  2.46600E-01
      21    -1     0     0   501   502  0.000000000E+00  0.000000000E+00  3.408333995E+01  3.408333995E+01  0.000000000E+00  0.00000E+00  9.000E+00
       1    -1     0     0   502     0  0.000000000E+00  0.000000000E+00 -1.637488643E+03  1.637488643E+03  0.000000000E+00  0.00000E+00  9.000E+00
      25     1     1     2     0     0 -3.109528591E+00  6.809420547E+00 -1.090128321E+03  1.097296813E+03  1.249980017E+02  0.00000E+00  9.000E+00
       5     1     1     2   501     0 -8.945988970E-01 -1.351987428E+00  3.018381959E+01  3.059826208E+01  4.750000000E+00  0.00000E+00  9.000E+00
      -5     1     1     2     0   503  2.668637412E+00 -1.627267401E+00 -8.142336935E+01  8.162167115E+01  4.750000000E+00  0.00000E+00  9.000E+00
       1     1     1     2   503     0  1.335490076E+00 -3.830165718E+00 -4.620374322E+02  4.620552375E+02  0.000000000E+00  0.00000E+00  9.000E+00
#rwgt            1           9   8.4693390464017065E-003           6     2601938           0
</event>
<event>
      6   9999 -3.45752E-01  1.13197E+01 -1.00000E+00  1.81696E-01
      21    -1     0     0   501   502  0.000000000E+00  0.000000000E+00  1.168212941E+01  1.168212941E+01  0.000000000E+00  0.00000E+00  9.000E+00
      21    -1     0     0   511   503  0.000000000E+00  0.000000000E+00 -1.980604420E+03  1.980604420E+03  0.000000000E+00  0.00000E+00  9.000E+00
      25     1     1     2     0     0 -2.182316423E+00 -1.912495434E-02 -1.814811296E+03  1.819112739E+03  1.250054157E+02  0.00000E+00  9.000E+00
       5     1     1     2   501     0 -2.036425189E+00 -7.654884098E+00  5.111631967E+00  1.055630425E+01  4.750000000E+00  0.00000E+00  9.000E+00
      -5     1     1     2     0   503 -4.123896534E+00  2.314024221E-02 -5.150249682E+00  8.129860385E+00  4.750000000E+00  0.00000E+00  9.000E+00
      21     1     1     2   511   502  8.342638146E+00  7.650868810E+00 -1.540723770E+02  1.544876460E+02  1.907348633E-06  0.00000E+00  9.000E+00
#rwgt            1           9  -1.7301749704069985E-002           6     2608482           0
</event>
<event>
      6   9999 -3.45752E-01  6.40527E+00 -1.00000E+00  2.10179E-01
      21    -1     0     0   501   502  0.000000000E+00  0.000000000E+00  3.396949499E+01  3.396949499E+01  0.000000000E+00  0.00000E+00  9.000E+00
      21    -1     0     0   502   512  0.000000000E+00  0.000000000E+00 -1.397417041E+03  1.397417041E+03  0.000000000E+00  0.00000E+00  9.000E+00
      25     1     1     2     0     0  1.104794946E+00  2.866441205E-01 -1.125044486E+03  1.131967989E+03  1.250005218E+02  0.00000E+00  9.000E+00
       5     1     1     2   501     0 -5.565132873E+00 -2.139557684E+00  2.971288241E+01  3.067517387E+01  4.750000000E+00  0.00000E+00  9.000E+00
      -5     1     1     2     0   503  2.270122195E-01  6.659827791E+00 -6.323285380E+01  6.376018460E+01  4.750000000E+00  0.00000E+00  9.000E+00
      21     1     1     2   503   512  4.233325708E+00 -4.806914228E+00 -2.048830885E+02  2.049831881E+02  2.697398305E-06  0.00000E+00  9.000E+00
#rwgt            1           9  -2.8162769829850206E-003           6     2611177           0
</event>
<event>
      6   9999  3.45752E-01  4.13985E+01 -1.00000E+00  1.39326E-01
      21    -1     0     0   501   511  0.000000000E+00  0.000000000E+00  1.303211039E+02  1.303211039E+02  0.000000000E+00  0.00000E+00  9.000E+00
      21    -1     0     0   502   503  0.000000000E+00  0.000000000E+00 -2.212771781E+03  2.212771781E+03  0.000000000E+00  0.00000E+00  9.000E+00
      25     1     1     2     0     0  2.763439728E+01 -2.686056993E+01 -1.342737116E+03  1.349093653E+03  1.250022820E+02  0.00000E+00  9.000E+00
       5     1     1     2   501     0 -5.339840558E+01  1.277986309E+01 -4.839715028E+02  4.870992636E+02  4.750000000E+00  0.00000E+00  9.000E+00
      -5     1     1     2     0   503  1.466238453E+01 -2.580146809E+01 -3.772952689E+02  3.784904011E+02  4.750000000E+00  0.00000E+00  9.000E+00
      21     1     1     2   502   511  1.110162377E+01  3.988217493E+01  1.215532109E+02  1.284095674E+02  6.325959759E-06  0.00000E+00  9.000E+00
#rwgt            1           9   3.5217956284868831E-003           6     2615957           0
</event>
<event>
      6   9999 -3.45752E-01  2.01852E+01 -1.00000E+00  1.59905E-01
      21    -1     0     0   512   503  0.000000000E+00  0.000000000E+00  4.052070403E+02  4.052070403E+02  0.000000000E+00  0.00000E+00  9.000E+00
      21    -1     0     0   501   502  0.000000000E+00  0.000000000E+00 -8.750598765E+02  8.750598765E+02  0.000000000E+00  0.00000E+00  9.000E+00
      25     1     1     2     0     0 -1.583189625E-01  1.566024904E+01 -7.142959037E+02  7.253199783E+02  1.250006580E+02  0.00000E+00  9.000E+00
       5     1     1     2   501     0 -1.956319887E+00  2.533095204E+00 -1.490241132E+02  1.491341429E+02  4.750000000E+00  0.00000E+00  9.000E+00
      -5     1     1     2     0   503  1.200381911E+01 -5.965312790E-01  1.147388057E+00  1.297407115E+01  4.750000000E+00  0.00000E+00  9.000E+00
      21     1     1     2   512   502 -9.889180264E+00 -1.759681296E+01  3.923197926E+02  3.928387244E+02  5.394796609E-06  0.00000E+00  9.000E+00
#rwgt            1           9 -0.10702491698024896                6     2616767           0
</event>
<event>
      6   9999  3.45752E-01  3.96315E+00 -1.00000E+00  2.48685E-01
      21    -1     0     0   501   502  0.000000000E+00  0.000000000E+00  2.657566574E+01  2.657566574E+01  0.000000000E+00  0.00000E+00  9.000E+00
      21    -1     0     0   511   503  0.000000000E+00  0.000000000E+00 -1.124485657E+03  1.124485657E+03  0.000000000E+00  0.00000E+00  9.000E+00
      25     1     1     2     0     0 -4.073362474E+01  1.877890545E+01 -3.227813005E+02  3.490331016E+02  1.249978504E+02  0.00000E+00  9.000E+00
       5     1     1     2   501     0  8.337524531E-01  3.549665332E+00  1.170578486E+01  1.314850434E+01  4.750000000E+00  0.00000E+00  9.000E+00
      -5     1     1     2     0   503  4.328184709E+01 -2.439467184E+01 -7.686369426E+02  7.702556266E+02  4.750000000E+00  0.00000E+00  9.000E+00
      21     1     1     2   511   502 -3.381974804E+00  2.066101057E+00 -1.819753328E+01  1.862409044E+01  2.384185791E-07  0.00000E+00  9.000E+00
#rwgt            1           9   1.1662837335638819E-002           6     2618217           0
</event>
<event>
      6   9999 -3.45752E-01  1.02231E+01 -1.00000E+00  1.86190E-01
      21    -1     0     0   501   512  0.000000000E+00  0.000000000E+00  6.124212389E+00  6.124212389E+00  0.000000000E+00  0.00000E+00  9.000E+00
      21    -1     0     0   502   503  0.000000000E+00  0.000000000E+00 -2.365552635E+03  2.365552635E+03  0.000000000E+00  0.00000E+00  9.000E+00
      25     1     1     2     0     0 -5.554025568E+00 -8.254804831E+00 -2.298239318E+03  2.301657613E+03  1.249992553E+02  0.00000E+00  9.000E+00
       5     1     1     2   501     0  5.313586080E-01 -5.561761271E-01  8.554778693E-01  4.887332221E+00  4.750000000E+00  0.00000E+00  9.000E+00
      -5     1     1     2     0   503  1.678214108E-01 -1.858159194E-01 -4.062055537E+00  6.255036912E+00  4.750000000E+00  0.00000E+00  9.000E+00
      21     1     1     2   502   512  4.854845549E+00  8.996796878E+00 -5.798252705E+01  5.887686576E+01  9.536743164E-07  0.00000E+00  9.000E+00
#rwgt            1           9  -1.0238122071687537E-005           6     2624909           0
</event>
<event>
      6   9999  3.45752E-01  1.58436E+01 -1.00000E+00  1.68337E-01
      21    -1     0     0   501   502  0.000000000E+00  0.000000000E+00  2.480210585E+01  2.480210585E+01  0.000000000E+00  0.00000E+00  9.000E+00
       2    -1     0     0   502     0  0.000000000E+00  0.000000000E+00 -2.888668981E+03  2.888668981E+03  0.000000000E+00  0.00000E+00  9.000E+00
      25     1     1     2     0     0  1.529496085E+01 -8.251383962E+00 -1.729591282E+02  2.141032530E+02  1.249932868E+02  0.00000E+00  9.000E+00
       5     1     1     2   501     0 -1.852026946E-01 -1.382212542E+00  9.402902698E-01  5.038993683E+00  4.750000000E+00  0.00000E+00  9.000E+00
      -5     1     1     2     0   503 -1.382971126E+01 -6.158212081E+00 -5.051320063E+01  5.294648645E+01  4.750000000E+00  0.00000E+00  9.000E+00
       2     1     1     2   503     0 -1.280046900E+00  1.579180858E+01 -2.641334837E+03  2.641382354E+03  3.051757812E-05  0.00000E+00  9.000E+00
#rwgt            1           9  0.66621108501320014                6     2627186           0
</event>
<event>
      6   9999  3.45752E-01  7.65965E+00 -1.00000E+00  2.00277E-01
      21    -1     0     0   501   502  0.000000000E+00  0.000000000E+00  4.960575383E+02  4.960575383E+02  0.000000000E+00  0.00000E+00  9.000E+00
      21    -1     0     0   511   503  0.000000000E+00  0.000000000E+00 -2.969635614E+01  2.969635614E+01  0.000000000E+00  0.00000E+00  9.000E+00
      25     1     1     2     0     0  2.186000281E+00  4.102276297E+01  3.576342737E+02  3.810691422E+02  1.249950869E+02  0.00000E+00  9.000E+00
       5     1     1     2   501     0 -6.393484375E-01 -6.580476042E-01  6.568118931E+01  6.585911420E+01  4.750000000E+00  0.00000E+00  9.000E+00
      -5     1     1     2     0   503 -9.105872937E-01 -4.799790964E+01  4.927102969E+01  6.895524176E+01  4.750000000E+00  0.00000E+00  9.000E+00
      21     1     1     2   511   502 -6.360645497E-01  7.633194273E+00 -6.225310490E+00  9.870396325E+00  2.665600750E-07  0.00000E+00  9.000E+00
#rwgt            1           9   6.3420090534000082E-005           6     2628878           0
</event>
<event>
      6   9999 -3.45752E-01  7.34431E+01 -1.00000E+00  1.26421E-01
      21    -1     0     0   501   512  0.000000000E+00  0.000000000E+00  8.867833680E+01  8.867833680E+01  0.000000000E+00  0.00000E+00  9.000E+00
      21    -1     0     0   502   503  0.000000000E+00  0.000000000E+00 -1.554372358E+03  1.554372358E+03  0.000000000E+00  0.00000E+00  9.000E+00
      25     1     1     2     0     0 -1.956124802E+02 -4.271238400E+01 -1.674551466E+02  2.894042443E+02  1.250000015E+02  0.00000E+00  9.000E+00
       5     1     1     2   501     0  1.176744838E+01  2.384349253E+00 -3.975144875E+01  4.179591057E+01  4.750000000E+00  0.00000E+00  9.000E+00
      -5     1     1     2     0   503  1.861689129E+02 -3.307833956E+01 -1.208022779E+03  1.222740626E+03  4.750000000E+00  0.00000E+00  9.000E+00
      21     1     1     2   502   512 -2.323881126E+00  7.340637430E+01 -5.046464675E+01  8.910991406E+01  1.507891493E-06  0.00000E+00  9.000E+00
#rwgt            1           9  -8.1265043082050109E-005           6     2632205           0
</event>
<event>
      6   9999  3.45752E-01  7.57328E+00 -1.00000E+00  2.00876E-01
      21    -1     0     0   501   502  0.000000000E+00  0.000000000E+00  7.630374120E+00  7.630374120E+00  0.000000000E+00  0.00000E+00  9.000E+00
      21    -1     0     0   511   503  0.000000000E+00  0.000000000E+00 -1.265402486E+03  1.265402486E+03  0.000000000E+00  0.00000E+00  9.000E+00
      25     1     1     2     0     0 -5.253641011E+00  2.341620547E+00 -6.338743104E+02  6.461070067E+02  1.249981549E+02  0.00000E+00  9.000E+00
       5     1     1     2   501     0  7.486456733E-01 -5.740731062E-01 -5.426623459E+00  7.273291720E+00  4.750000000E+00  0.00000E+00  9.000E+00
      -5     1     1     2     0   503  8.928296382E+00 -7.914818408E+00 -7.248313052E+01  7.361199315E+01  4.750000000E+00  0.00000E+00  9.000E+00
      21     1     1     2   511   502 -4.423301044E+00  6.147270967E+00 -5.459880472E+02  5.460405683E+02  7.629394531E-06  0.00000E+00  9.000E+00
#rwgt            1           9   1.3258281939946320E-004           6     2633342           0
</event>
<event>
      6   9999  3.45752E-01  3.04987E+00 -1.00000E+00  2.75052E-01
      21    -1     0     0   501   512  0.000000000E+00  0.000000000E+00  8.804523511E+00  8.804523511E+00  0.000000000E+00  0.00000E+00  9.000E+00
      21    -1     0     0   502   503  0.000000000E+00  0.000000000E+00 -6.556179914E+02  6.556179914E+02  0.000000000E+00  0.00000E+00  9.000E+00
      25     1     1     2     0     0 -5.275710678E+00 -1.087337820E+01 -5.883581393E+02  6.016126500E+02  1.250056682E+02  0.00000E+00  9.000E+00
       5     1     1     2   501     0  2.830199930E+00  3.642061016E+00 -1.764508244E+01  1.884638094E+01  4.750000000E+00  0.00000E+00  9.000E+00
      -5     1     1     2     0   503  4.838440617E+00  5.340390326E+00 -3.983824953E+01  4.076246928E+01  4.750000000E+00  0.00000E+00  9.000E+00
      21     1     1     2   502   512 -2.392929869E+00  1.890926861E+00 -9.719966425E-01  3.201014718E+00  1.928534971E-07  0.00000E+00  9.000E+00
#rwgt            1           9   9.6848381031997509E-004           6     2636006           0
</event>
<event>
      6   9999 -3.45752E-01  2.22657E+00 -1.00000E+00  3.15840E-01
      21    -1     0     0   501   511  0.000000000E+00  0.000000000E+00  8.788534297E+00  8.788534297E+00  0.000000000E+00  0.00000E+00  9.000E+00
      21    -1     0     0   502   503  0.000000000E+00  0.000000000E+00 -6.829725306E+02  6.829725306E+02  0.000000000E+00  0.00000E+00  9.000E+00
      25     1     1     2     0     0 -8.445918814E-01 -1.228184514E+00 -6.377745933E+02  6.498889022E+02  1.248876759E+02  0.00000E+00  9.000E+00
       5     1     1     2   501     0  6.380926577E-01  7.206773322E-01 -1.371127691E-01  4.848488215E+00  4.750000000E+00  0.00000E+00  9.000E+00
      -5     1     1     2     0   503  1.613433455E+00 -1.218224546E+00 -2.686258572E+01  2.735412675E+01  4.750000000E+00  0.00000E+00  9.000E+00
      21     1     1     2   502   511 -1.406934231E+00  1.725731728E+00 -9.409704506E+00  9.669547704E+00  1.192092896E-07  0.00000E+00  9.000E+00
#rwgt            1           9  -2.1393585290761132E-004           6     2641461           0
</event>
<event>
      6   9999  3.45752E-01  2.72129E+01 -1.00000E+00  1.50630E-01
      21    -1     0     0   512   503  0.000000000E+00  0.000000000E+00  9.622559466E+00  9.622559466E+00  0.000000000E+00  0.00000E+00  9.000E+00
      21    -1     0     0   501   502  0.000000000E+00  0.000000000E+00 -4.671113706E+03  4.671113706E+03  0.000000000E+00  0.00000E+00  9.000E+00
      25     1     1     2     0     0  2.006949102E+01  5.869905770E+01 -6.429238323E+02  6.580319778E+02  1.257245633E+02  0.00000E+00  9.000E+00
       5     1     1     2   501     0 -8.094039009E+00 -8.057076755E+01 -3.824232994E+03  3.825093165E+03  4.750000000E+00  0.00000E+00  9.000E+00
      -5     1     1     2     0   503 -4.439466044E+00 -4.276950900E+00 -6.361680385E+01  6.409103993E+01  4.750000000E+00  0.00000E+00  9.000E+00
      21     1     1     2   512   502 -7.535985968E+00  2.614866075E+01 -1.307175164E+02  1.335200833E+02  1.907348633E-06  0.00000E+00  9.000E+00
#rwgt            1           9   4.8830057992238617E-003           6     2647782           0
</event>
<event>
      6   9999  3.45752E-01  1.68806E+01 -1.00000E+00  1.66043E-01
       2    -1     0     0   501     0  0.000000000E+00  0.000000000E+00  3.793870270E+03  3.793870270E+03  0.000000000E+00  0.00000E+00  9.000E+00
      21    -1     0     0   502   503  0.000000000E+00  0.000000000E+00 -1.420521574E+01  1.420521574E+01  0.000000000E+00  0.00000E+00  9.000E+00
      25     1     1     2     0     0  1.673505508E-01 -4.882112287E+00  2.758643228E+02  3.029017685E+02  1.249979750E+02  0.00000E+00  9.000E+00
       5     1     1     2   501     0  1.111741379E+01 -5.170782473E+00  2.352577078E+03  2.352613824E+03  4.750000000E+00  0.00000E+00  9.000E+00
      -5     1     1     2     0   503  4.492499164E+00  4.050150030E+00  2.383936772E+01  2.504923587E+01  4.750000000E+00  0.00000E+00  9.000E+00
       2     1     1     2   502     0 -1.577726351E+01  6.002744730E+00  1.127384286E+03  1.127510657E+03  0.000000000E+00  0.00000E+00  9.000E+00
#rwgt            1           9   3.1753240559128551E-005           6     2649821           0
</event>
<event>
      6   9999 -3.45752E-01  9.47096E+00 -1.00000E+00  1.89715E-01
      21    -1     0     0   501   511  0.000000000E+00  0.000000000E+00  6.776767290E+00  6.776767290E+00  0.000000000E+00  0.00000E+00  9.000E+00
      21    -1     0     0   502   503  0.000000000E+00  0.000000000E+00 -4.040879140E+03  4.040879140E+03  0.000000000E+00  0.00000E+00  9.000E+00
      25     1     1     2     0     0  4.842764770E+01  2.292841059E+01 -2.755202324E+03  2.758556935E+03  1.250022849E+02  0.00000E+00  9.000E+00
       5     1     1     2   501     0  6.681223753E-01  2.167382703E+00 -3.703323668E+00  6.435918076E+00  4.750000000E+00  0.00000E+00  9.000E+00
      -5     1     1     2     0   503 -4.173675331E+01 -1.913392459E+01 -1.271745462E+03  1.272582864E+03  4.750000000E+00  0.00000E+00  9.000E+00
      21     1     1     2   502   511 -7.359016764E+00 -5.961868705E+00 -3.451263236E+00  1.008018969E+01  6.063875541E-07  0.00000E+00  9.000E+00
#rwgt            1           9  -1.6235770466635612E-003           6     2652114           0
</event>
<event>
      6   9999 -3.45752E-01  6.00835E+00 -1.00000E+00  2.13974E-01
      21    -1     0     0   502   512  0.000000000E+00  0.000000000E+00  7.351877564E+01  7.351877564E+01  0.000000000E+00  0.00000E+00  9.000E+00
      21    -1     0     0   501   502  0.000000000E+00  0.000000000E+00 -1.576880741E+03  1.576880741E+03  0.000000000E+00  0.00000E+00  9.000E+00
      25     1     1     2     0     0 -1.190689462E+01 -4.120482772E+01 -1.545228500E+03  1.550869537E+03  1.250023635E+02  0.00000E+00  9.000E+00
       5     1     1     2   501     0 -2.459259570E+00  7.981930332E-01  3.695847787E+00  6.550332863E+00  4.750000000E+00  0.00000E+00  9.000E+00
      -5     1     1     2     0   503  9.579231830E+00  3.677542305E+01 -1.376556054E+01  4.069700947E+01  4.750000000E+00  0.00000E+00  9.000E+00
      21     1     1     2   503   512  4.786922362E+00  3.631211642E+00  5.193624774E+01  5.228263720E+01  6.743495762E-07  0.00000E+00  9.000E+00
#rwgt            1           9  -5.8786793192828471E-004           6     2654728           0
</event>
<event>
      6   9999  3.45752E-01  1.85620E+01 -1.00000E+00  1.62724E-01
      21    -1     0     0   501   502  0.000000000E+00  0.000000000E+00  1.590338043E+01  1.590338043E+01  0.000000000E+00  0.00000E+00  9.000E+00
      21    -1     0     0   502   511  0.000000000E+00  0.000000000E+00 -1.753695211E+03  1.753695211E+03  0.000000000E+00  0.00000E+00  9.000E+00
      25     1     1     2     0     0 -2.517973884E+00  2.457859970E+01 -7.471105527E+02  7.578990094E+02  1.250051305E+02  0.00000E+00  9.000E+00
       5     1     1     2   501     0 -2.668982259E+00  1.618538167E+00  7.972994953E+00  9.791541279E+00  4.750000000E+00  0.00000E+00  9.000E+00
      -5     1     1     2     0   503 -1.325322410E+01 -2.832042605E+01 -1.625740944E+02  1.656218378E+02  4.750000000E+00  0.00000E+00  9.000E+00
      21     1     1     2   503   511  1.844018024E+01  2.123288177E+00 -8.360801783E+02  8.362862029E+02  1.868812365E-05  0.00000E+00  9.000E+00
#rwgt            1           9   9.4008398678572245E-004           6     2659526           0
</event>
<event>
      6   9999  3.45752E-01  3.93014E+01 -1.00000E+00  1.40631E-01
      21    -1     0     0   501   502  0.000000000E+00  0.000000000E+00  1.054016316E+01  1.054016316E+01  0.000000000E+00  0.00000E+00  9.000E+00
      21    -1     0     0   502   512  0.000000000E+00  0.000000000E+00 -1.877755095E+03  1.877755095E+03  0.000000000E+00  0.00000E+00  9.000E+00
      25     1     1     2     0     0  3.154850886E+01 -7.916578539E+00 -5.280156890E+02  5.435837746E+02  1.249990861E+02  0.00000E+00  9.000E+00
       5     1     1     2   501     0  4.154596441E+00  1.235138798E+00 -2.652843115E+00  6.956027317E+00  4.750000000E+00  0.00000E+00  9.000E+00
      -5     1     1     2     0   503  2.739386664E+00  1.485296236E+01 -2.517639831E+02  2.522613335E+02  4.750000000E+00  0.00000E+00  9.000E+00
      21     1     1     2   503   512 -3.844249196E+01 -8.171522617E+00 -1.084782417E+03  1.085494123E+03  2.157918644E-05  0.00000E+00  9.000E+00
#rwgt            1           9   1.7416511356459516                6     2661330           0
</event>
<event>
      6   9999  3.45752E-01  4.29224E+01 -1.00000E+00  1.38433E-01
      21    -1     0     0   501   511  0.000000000E+00  0.000000000E+00  6.160275126E+01  6.160275126E+01  0.000000000E+00  0.00000E+00  9.000E+00
      21    -1     0     0   502   503  0.000000000E+00  0.000000000E+00 -9.100890703E+02  9.100890703E+02  0.000000000E+00  0.00000E+00  9.000E+00
      25     1     1     2     0     0  1.735115968E+01  2.203016761E+01 -4.987500209E+02  5.149395751E+02  1.249991665E+02  0.00000E+00  9.000E+00
       5     1     1     2   501     0  1.532007996E+01 -2.872707173E+01 -3.109011298E+02  3.126372091E+02  4.750000000E+00  0.00000E+00  9.000E+00
      -5     1     1     2     0   503  9.251316132E+00 -2.513306750E+00 -8.232134741E+01  8.301367538E+01  4.750000000E+00  0.00000E+00  9.000E+00
      21     1     1     2   502   511 -4.192255578E+01  9.210210868E+00  4.348617907E+01  6.110136199E+01  1.907348633E-06  0.00000E+00  9.000E+00
#rwgt            1           9   5.8155186359379217E-003           6     2661977           0
</event>
<event>
      6   9999 -3.45752E-01  8.68946E+01 -1.00000E+00  1.23086E-01
      21    -1     0     0   502   512  0.000000000E+00  0.000000000E+00  1.073923422E+02  1.073923422E+02  0.000000000E+00  0.00000E+00  9.000E+00
      21    -1     0     0   501   502  0.000000000E+00  0.000000000E+00 -1.635561059E+03  1.635561059E+03  0.000000000E+00  0.00000E+00  9.000E+00
      25     1     1     2     0     0  2.410193075E+01  4.531743287E+01 -1.536590004E+03  1.542520065E+03  1.249989568E+02  0.00000E+00  9.000E+00
       5     1     1     2   501     0  3.896361875E+00  1.608532460E+00  1.379014451E+01  1.518221321E+01  4.750000000E+00  0.00000E+00  9.000E+00
      -5     1     1     2     0   503  4.735591393E+01 -3.654636998E+00  5.988624126E+01  7.658239581E+01  4.750000000E+00  0.00000E+00  9.000E+00
      21     1     1     2   503   512 -7.535420655E+01 -4.327132833E+01 -6.525509871E+01  1.086687269E+02  1.907348633E-06  0.00000E+00  9.000E+00
#rwgt            1           9  -1.6023882286877820E-003           6     2662785           0
</event>
<event>
      6   9999  3.45752E-01  8.67969E+00 -1.00000E+00  1.93913E-01
      21    -1     0     0   501   502  0.000000000E+00  0.000000000E+00  5.596502217E+01  5.596502217E+01  0.000000000E+00  0.00000E+00  9.000E+00
      21    -1     0     0   502   511  0.000000000E+00  0.000000000E+00 -1.517503162E+03  1.517503162E+03  0.000000000E+00  0.00000E+00  9.000E+00
      25     1     1     2     0     0 -6.449636224E+01  6.298585216E+01 -1.140904454E+02  1.917471102E+02  1.249933046E+02  0.00000E+00  9.000E+00
       5     1     1     2   501     0  2.498765091E+00 -1.137628900E+00  1.524793477E+01  1.620493879E+01  4.750000000E+00  0.00000E+00  9.000E+00
      -5     1     1     2     0   503  5.603090430E+01 -5.554460979E+01 -1.225301484E+03  1.227848099E+03  4.750000000E+00  0.00000E+00  9.000E+00
      21     1     1     2   503   511  5.966692848E+00 -6.303613474E+00 -1.373941454E+02  1.376680360E+02  0.000000000E+00  0.00000E+00  9.000E+00
#rwgt            1           9   3.8933674099805437E-004           6     2663715           0
</event>
<event>
      6   9999 -3.45752E-01  1.11188E+01 -1.00000E+00  1.82469E-01
      21    -1     0     0   501   502  0.000000000E+00  0.000000000E+00  5.765991193E+00  5.765991193E+00  0.000000000E+00  0.00000E+00  9.000E+00
      21    -1     0     0   502   512  0.000000000E+00  0.000000000E+00 -1.552354833E+03  1.552354833E+03  0.000000000E+00  0.00000E+00  9.000E+00
      25     1     1     2     0     0 -6.720230420E+00  7.015019292E+00 -8.019304587E+02  8.116709994E+02  1.249919146E+02  0.00000E+00  9.000E+00
       5     1     1     2   501     0 -6.984978981E-01  3.068458278E-01 -9.454846682E+00  1.060842493E+01  4.750000000E+00  0.00000E+00  9.000E+00
      -5     1     1     2     0   503  4.316706713E-01  1.327390501E+00 -2.195834049E+01  2.250954292E+01  4.750000000E+00  0.00000E+00  9.000E+00
      21     1     1     2   503   512  6.987057647E+00 -8.649255621E+00 -7.132451962E+02  7.133318572E+02  1.078959322E-05  0.00000E+00  9.000E+00
#rwgt            1           9  -2.7450360770700849E-003           6     2668215           0
</event>
<event>
      6   9999 -3.45752E-01  5.52991E+00 -1.00000E+00  2.19115E-01
      21    -1     0     0   502   503  0.000000000E+00  0.000000000E+00  8.757116763E+00  8.757116763E+00  0.000000000E+00  0.00000E+00  9.000E+00
       2    -1     0     0   501     0  0.000000000E+00  0.000000000E+00 -1.165940949E+03  1.165940949E+03  0.000000000E+00  0.00000E+00  9.000E+00
      25     1     1     2     0     0  6.643703517E+00  3.361328589E+00 -4.542104703E+02  4.711568131E+02  1.250046153E+02  0.00000E+00  9.000E+00
       5     1     1     2   501     0 -3.684725460E+00  5.127267868E+00 -2.088098986E+02  2.089593317E+02  4.750000000E+00  0.00000E+00  9.000E+00
      -5     1     1     2     0   503 -5.504542541E+00 -3.579417707E+00 -8.599698318E+01  8.637798236E+01  4.750000000E+00  0.00000E+00  9.000E+00
       2     1     1     2   502     0  2.545564484E+00 -4.909178751E+00 -4.081664797E+02  4.082039381E+02  5.394796609E-06  0.00000E+00  9.000E+00
#rwgt            1           9  -2.7567624877449334E-002           6     2670320           0
</event>
<event>
      6   9999  3.45752E-01  2.10687E+01 -1.00000E+00  1.58504E-01
      21    -1     0     0   511   502  0.000000000E+00  0.000000000E+00  2.220968596E+01  2.220968596E+01  0.000000000E+00  0.00000E+00  9.000E+00
      21    -1     0     0   502   503  0.000000000E+00  0.000000000E+00 -1.052828575E+03  1.052828575E+03  0.000000000E+00  0.00000E+00  9.000E+00
      25     1     1     2     0     0 -8.399082010E+00 -1.887369617E+01 -9.104313348E+02  9.192040922E+02  1.249967468E+02  0.00000E+00  9.000E+00
       5     1     1     2   501     0 -7.991735124E+00  4.875051961E+00  1.347740014E+01  1.708323086E+01  4.750000000E+00  0.00000E+00  9.000E+00
      -5     1     1     2     0   503 -4.598682383E+00  1.217398811E+01 -7.823285665E+01  7.944996052E+01  4.750000000E+00  0.00000E+00  9.000E+00
      21     1     1     2   511   501  2.098949952E+01  1.824656098E+00 -5.543209740E+01  5.930097707E+01  6.743495762E-07  0.00000E+00  9.000E+00
#rwgt            1           9   1.2706462782890199E-004           6     2673990           0
</event>
<event>
      6   9999  3.45752E-01  2.79086E+01 -1.00000E+00  1.49897E-01
      21    -1     0     0   502   503  0.000000000E+00  0.000000000E+00  1.048550522E+02  1.048550522E+02  0.000000000E+00  0.00000E+00  9.000E+00
      21    -1     0     0   501   512  0.000000000E+00  0.000000000E+00 -2.761681916E+03  2.761681916E+03  0.000000000E+00  0.00000E+00  9.000E+00
      25     1     1     2     0     0  1.171038625E+02  9.998396505E+01 -2.895065875E+00  1.983518041E+02  1.249997957E+02  0.00000E+00  9.000E+00
       5     1     1     2   501     0 -7.964701612E+01 -1.148991041E+02 -1.524273148E+03  1.530678492E+03  4.750000000E+00  0.00000E+00  9.000E+00
      -5     1     1     2     0   503 -9.768613791E+00  1.141470732E+01 -1.280393881E+01  2.030331765E+01  4.750000000E+00  0.00000E+00  9.000E+00
      21     1     1     2   502   512 -2.768823254E+01  3.500431731E+00 -1.116854711E+03  1.117203355E+03  1.525878906E-05  0.00000E+00  9.000E+00
#rwgt            1           9   9.1064608000055014E-005           6     2675812           0
</event>
<event>
      6   9999  3.45752E-01  1.41672E+01 -1.00000E+00  1.72550E-01
      21    -1     0     0   511   502  0.000000000E+00  0.000000000E+00  1.989547035E+02  1.989547035E+02  0.000000000E+00  0.00000E+00  9.000E+00
      21    -1     0     0   502   503  0.000000000E+00  0.000000000E+00 -7.718034979E+02  7.718034979E+02  0.000000000E+00  0.00000E+00  9.000E+00
      25     1     1     2     0     0 -1.112167478E+01  3.196997987E+00 -7.387248388E+02  7.493151429E+02  1.249995341E+02  0.00000E+00  9.000E+00
       5     1     1     2   501     0 -2.472775823E+00 -2.981669446E+00  1.572526551E+00  6.327741517E+00  4.750000000E+00  0.00000E+00  9.000E+00
      -5     1     1     2     0   503  3.620217280E+00 -1.027628792E+01 -2.373456170E+01  2.654430233E+01  4.750000000E+00  0.00000E+00  9.000E+00
      21     1     1     2   511   501  9.974233320E+00  1.006095938E+01  1.880380795E+02  1.885710147E+02  4.672030912E-06  0.00000E+00  9.000E+00
#rwgt            1           9   2.8774555746484583E-004           6     2678626           0
</event>
<event>
      6   9999  3.45752E-01  2.35339E+01 -1.00000E+00  1.54998E-01
      21    -1     0     0   501   512  0.000000000E+00  0.000000000E+00  3.450539328E+01  3.450539328E+01  0.000000000E+00  0.00000E+00  9.000E+00
      21    -1     0     0   502   503  0.000000000E+00  0.000000000E+00 -8.190062205E+02  8.190062205E+02  0.000000000E+00  0.00000E+00  9.000E+00
      25     1     1     2     0     0 -5.873222159E-01  1.855663935E+01 -6.736852814E+02  6.854346942E+02  1.249966710E+02  0.00000E+00  9.000E+00
       5     1     1     2   501     0 -2.326261749E+00  5.266098615E+00  2.230728485E+00  7.789861226E+00  4.750000000E+00  0.00000E+00  9.000E+00
      -5     1     1     2     0   503 -7.192990690E-03 -4.707642672E-01 -1.307503453E+02  1.308374448E+02  4.750000000E+00  0.00000E+00  9.000E+00
      21     1     1     2   502   512  2.920776955E+00 -2.335197370E+01  1.770407097E+01  2.944961362E+01  1.238859277E-06  0.00000E+00  9.000E+00
#rwgt            1           9   1.3254595064668688E-003           6     2681194           0
</event>
<event>
      6   9999  3.45752E-01  3.06195E+01 -1.00000E+00  1.47266E-01
      21    -1     0     0   501   502  0.000000000E+00  0.000000000E+00  3.130732441E+01  3.130732441E+01  0.000000000E+00  0.00000E+00  9.000E+00
      21    -1     0     0   511   503  0.000000000E+00  0.000000000E+00 -1.834320019E+03  1.834320019E+03  0.000000000E+00  0.00000E+00  9.000E+00
      25     1     1     2     0     0 -3.981546480E+01  1.366726259E-01 -3.952817728E+02  4.164879183E+02  1.250168640E+02  0.00000E+00  9.000E+00
       5     1     1     2   501     0 -9.207774017E-01  3.450237356E+00  1.943944609E+01  2.032748222E+01  4.750000000E+00  0.00000E+00  9.000E+00
      -5     1     1     2     0   503  2.834942476E+01  2.441523516E+01 -7.423499831E+02  7.433073749E+02  4.750000000E+00  0.00000E+00  9.000E+00
      21     1     1     2   511   502  1.238681744E+01 -2.800214514E+01 -6.848203850E+02  6.855045683E+02  7.629394531E-06  0.00000E+00  9.000E+00
#rwgt            1           9   4.2685562106170707E-004           6     2682310           0
</event>
<event>
      6   9999  3.45752E-01  2.33581E+01 -1.00000E+00  1.55230E-01
      21    -1     0     0   502   512  0.000000000E+00  0.000000000E+00  2.309043756E+01  2.309043756E+01  0.000000000E+00  0.00000E+00  9.000E+00
      21    -1     0     0   501   502  0.000000000E+00  0.000000000E+00 -7.472739781E+02  7.472739781E+02  0.000000000E+00  0.00000E+00  9.000E+00
      25     1     1     2     0     0 -2.971714266E+01  2.034660070E+01 -6.389592967E+02  6.520651904E+02  1.249917479E+02  0.00000E+00  9.000E+00
       5     1     1     2   501     0 -7.952771250E-01  3.026200857E-01 -3.049829376E+01  3.087770178E+01  4.750000000E+00  0.00000E+00  9.000E+00
      -5     1     1     2     0   503  1.678449406E+01 -1.750942553E+00 -6.080785177E+01  6.328461407E+01  4.750000000E+00  0.00000E+00  9.000E+00
      21     1     1     2   503   512  1.372792573E+01 -1.889827823E+01  6.081901702E+00  2.413690936E+01  9.348623241E-07  0.00000E+00  9.000E+00
#rwgt            1           9   9.7443630106478591E-004           6     2683626           0
</event>
<event>
      6   9999  3.45752E-01  1.92804E+01 -1.00000E+00  1.61435E-01
      21    -1     0     0   501   511  0.000000000E+00  0.000000000E+00  2.665407050E+03  2.665407050E+03  0.000000000E+00  0.00000E+00  9.000E+00
      21    -1     0     0   502   503  0.000000000E+00  0.000000000E+00 -7.244604435E+02  7.244604435E+02  0.000000000E+00  0.00000E+00  9.000E+00
      25     1     1     2     0     0 -1.160859488E+01 -1.646817145E+01 -6.779874282E+02  6.897088642E+02  1.250016177E+02  0.00000E+00  9.000E+00
       5     1     1     2   501     0 -1.854815947E+01  1.393576139E+01  1.395096959E+02  1.415053264E+02  4.750000000E+00  0.00000E+00  9.000E+00
      -5     1     1     2     0   503  1.096030447E+01  4.330078668E+00 -3.855780283E+01  4.059734615E+01  4.750000000E+00  0.00000E+00  9.000E+00
      21     1     1     2   502   511  1.919644987E+01 -1.797668613E+00  2.517982142E+03  2.518055957E+03  0.000000000E+00  0.00000E+00  9.000E+00
#rwgt            1           9   5.3612304910151995E-002           6     2684946           0
</event>
<event>
      6   9999  3.45752E-01  1.14302E+01 -1.00000E+00  1.81279E-01
      21    -1     0     0   501   502  0.000000000E+00  0.000000000E+00  9.421166824E+00  9.421166824E+00  0.000000000E+00  0.00000E+00  9.000E+00
      21    -1     0     0   502   512  0.000000000E+00  0.000000000E+00 -8.404522097E+02  8.404522097E+02  0.000000000E+00  0.00000E+00  9.000E+00
      25     1     1     2     0     0 -3.926419424E+00 -1.075107617E+00 -6.639498775E+02  6.756287805E+02  1.250129460E+02  0.00000E+00  9.000E+00
       5     1     1     2   501     0 -2.444400005E+00 -2.336672410E+00  2.530612536E-01  5.836237601E+00  4.750000000E+00  0.00000E+00  9.000E+00
      -5     1     1     2     0   503 -2.614194639E+00 -3.653574625E+00 -8.960598037E+01  8.984418088E+01  4.750000000E+00  0.00000E+00  9.000E+00
      21     1     1     2   503   512  8.985014067E+00  7.065354651E+00 -7.772824632E+01  7.856417753E+01  0.000000000E+00  0.00000E+00  9.000E+00
#rwgt            1           9   4.9418810205469203E-005           6     2688418           0
</event>
<event>
      6   9999  3.45752E-01  3.28150E+00 -1.00000E+00  2.67106E-01
      21    -1     0     0   501   502  0.000000000E+00  0.000000000E+00  7.778675391E+00  7.778675391E+00  0.000000000E+00  0.00000E+00  9.000E+00
      21    -1     0     0   502   511  0.000000000E+00  0.000000000E+00 -1.315541089E+03  1.315541089E+03  0.000000000E+00  0.00000E+00  9.000E+00
      25     1     1     2     0     0  8.471674590E+00  2.353836774E+00 -6.419957760E+02  6.541115011E+02  1.250038788E+02  0.00000E+00  9.000E+00
       5     1     1     2   501     0 -3.206663304E-01  6.641209360E-02 -7.864422549E+00  9.193415007E+00  4.750000000E+00  0.00000E+00  9.000E+00
      -5     1     1     2     0   503 -1.140182060E+01 -1.972503562E+00 -3.612879285E+01  3.823276679E+01  4.750000000E+00  0.00000E+00  9.000E+00
      21     1     1     2   503   511  3.250812339E+00 -4.477453058E-01 -6.217734218E+02  6.217820810E+02  1.705984480E-05  0.00000E+00  9.000E+00
#rwgt            1           9   2.9296575321593512E-005           6     2690492           0
</event>
<event>
      6   9999 -3.45752E-01  1.85133E+01 -1.00000E+00  1.62814E-01
      21    -1     0     0   501   502  0.000000000E+00  0.000000000E+00  1.547727030E+01  1.547727030E+01  0.000000000E+00  0.00000E+00  9.000E+00
      21    -1     0     0   502   512  0.000000000E+00  0.000000000E+00 -9.900638931E+02  9.900638931E+02  0.000000000E+00  0.00000E+00  9.000E+00
      25     1     1     2     0     0  6.219250683E+01  9.554111362E+00 -4.206198976E+02  4.432879996E+02  1.249958536E+02  0.00000E+00  9.000E+00
       5     1     1     2   501     0  2.427926172E-01 -9.600992385E-01 -1.285448730E+00  5.019523607E+00  4.750000000E+00  0.00000E+00  9.000E+00
      -5     1     1     2     0   503 -4.819320099E+01 -2.042213343E+01 -4.040636675E+02  4.074673705E+02  4.750000000E+00  0.00000E+00  9.000E+00
      21     1     1     2   503   512 -1.424209846E+01  1.182812131E+01 -1.486176090E+02  1.497662696E+02  1.907348633E-06  0.00000E+00  9.000E+00
#rwgt            1           9  -7.3992551384222836E-003           6     2694982           0
</event>
<event>
      6   9999 -3.45752E-01  1.92459E+01 -1.00000E+00  1.61495E-01
      21    -1     0     0   501   502  0.000000000E+00  0.000000000E+00  2.456285844E+03  2.456285844E+03  0.000000000E+00  0.00000E+00  9.000E+00
      21    -1     0     0   511   503  0.000000000E+00  0.000000000E+00 -2.463276936E+01  2.463276936E+01  0.000000000E+00  0.00000E+00  9.000E+00
      25     1     1     2     0     0 -8.432763444E+01  4.668762985E+00  4.760278843E+02  4.993604440E+02  1.250014365E+02  0.00000E+00  9.000E+00
       5     1     1     2   501     0  2.844201060E+00  9.396302067E-01  1.594416024E+03  1.594425913E+03  4.750000000E+00  0.00000E+00  9.000E+00
      -5     1     1     2     0   503  8.429124871E+01  1.343161403E+01  3.574402471E+02  3.675207690E+02  4.750000000E+00  0.00000E+00  9.000E+00
      21     1     1     2   511   502 -2.807815331E+00 -1.904000722E+01  3.768919903E+00  1.961148794E+01  2.149076030E-07  0.00000E+00  9.000E+00
#rwgt            1           9  -1.7268429906771093E-003           6     2696574           0
</event>
<event>
      6   9999 -3.45752E-01  1.67213E+01 -1.00000E+00  1.66382E-01
      21    -1     0     0   501   512  0.000000000E+00  0.000000000E+00  9.374152314E+01  9.374152314E+01  0.000000000E+00  0.00000E+00  9.000E+00
      21    -1     0     0   502   503  0.000000000E+00  0.000000000E+00 -7.146465859E+02  7.146465859E+02  0.000000000E+00  0.00000E+00  9.000E+00
      25     1     1     2     0     0  2.118212155E+01 -8.287081242E+00 -6.310399855E+02  6.437043245E+02  1.250057442E+02  0.00000E+00  9.000E+00
       5     1     1     2   501     0 -4.675650716E-01  5.458567044E+00  7.770227096E+01  7.803986151E+01  4.750000000E+00  0.00000E+00  9.000E+00
      -5     1     1     2     0   503 -5.782321433E+00 -4.696745395E+00 -6.927459748E+01  6.983571446E+01  4.750000000E+00  0.00000E+00  9.000E+00
      21     1     1     2   502   512 -1.493223505E+01  7.525259593E+00  1.707249250E+00  1.680820858E+01  3.686343693E-07  0.00000E+00  9.000E+00
#rwgt            1           9  -6.0733828530938182E-004           6     2698562           0
</event>
<event>
      6   9999  3.45752E-01  7.23776E+00 -1.00000E+00  2.03307E-01
      21    -1     0     0   501   511  0.000000000E+00  0.000000000E+00  9.474673013E+00  9.474673013E+00  0.000000000E+00  0.00000E+00  9.000E+00
      21    -1     0     0   502   503  0.000000000E+00  0.000000000E+00 -7.688008258E+02  7.688008258E+02  0.000000000E+00  0.00000E+00  9.000E+00
      25     1     1     2     0     0  5.184616714E+00  1.176928419E+01 -6.703642090E+02  6.820397914E+02  1.249988321E+02  0.00000E+00  9.000E+00
       5     1     1     2   501     0 -6.199850695E-01 -8.537619059E-02 -1.685244519E+00  5.078801007E+00  4.750000000E+00  0.00000E+00  9.000E+00
      -5     1     1     2     0   503 -1.067615943E+01 -7.806477488E+00 -7.865242025E+01  7.989797983E+01  4.750000000E+00  0.00000E+00  9.000E+00
      21     1     1     2   502   511  6.111527783E+00 -3.877430514E+00 -8.624279010E+00  1.125892658E+01  2.384185791E-07  0.00000E+00  9.000E+00
#rwgt            1           9   2.8019408953320705E-005           6     2701465           0
</event>
<event>
      6   9999  3.45752E-01  1.81761E+01 -1.00000E+00  1.63446E-01
      21    -1     0     0   512   502  0.000000000E+00  0.000000000E+00  1.126624750E+01  1.126624750E+01  0.000000000E+00  0.00000E+00  9.000E+00
      21    -1     0     0   502   503  0.000000000E+00  0.000000000E+00 -7.480473958E+02  7.480473958E+02  0.000000000E+00  0.00000E+00  9.000E+00
      25     1     1     2     0     0 -7.005285034E+00 -1.218913766E+01 -6.746675559E+02  6.862933131E+02  1.249982060E+02  0.00000E+00  9.000E+00
       5     1     1     2   501     0 -1.711382252E+00 -1.714086334E+00 -2.639000882E+00  5.949264394E+00  4.750000000E+00  0.00000E+00  9.000E+00
      -5     1     1     2     0   503  2.225530448E-01 -2.165972198E+00 -4.035026832E+01  4.068719232E+01  4.750000000E+00  0.00000E+00  9.000E+00
      21     1     1     2   512   501  8.494114242E+00  1.606919619E+01 -1.912432313E+01  2.638387345E+01  8.596304120E-07  0.00000E+00  9.000E+00
#rwgt            1           9   5.8552120898443701E-003           6     2704146           0
</event>
<event>
      6   9999  3.45752E-01  2.02977E+01 -1.00000E+00  1.59722E-01
      21    -1     0     0   502   503  0.000000000E+00  0.000000000E+00  1.126445455E+02  1.126445455E+02  0.000000000E+00  0.00000E+00  9.000E+00
      21    -1     0     0   501   511  0.000000000E+00  0.000000000E+00 -3.339851663E+02  3.339851663E+02  0.000000000E+00  0.00000E+00  9.000E+00
      25     1     1     2     0     0 -6.259768547E+01 -5.863762756E+01 -4.300614166E-01  1.515730037E+02  1.249693919E+02  0.00000E+00  9.000E+00
       5     1     1     2   501     0  5.164415371E+01  2.443050766E+01 -2.566835791E+01  6.281238266E+01  4.750000000E+00  0.00000E+00  9.000E+00
      -5     1     1     2     0   503  1.753369965E+01  1.500556992E+01  1.029107612E+01  2.571121350E+01  4.750000000E+00  0.00000E+00  9.000E+00
      21     1     1     2   502   511 -6.580167897E+00  1.920154998E+01 -2.055332776E+02  2.065331119E+02  2.697398305E-06  0.00000E+00  9.000E+00
#rwgt            1           9  0.72812600417541806                6     2705368           0
</event>
<event>
      6   9999  3.45752E-01  3.34951E+01 -1.00000E+00  1.44807E-01
      21    -1     0     0   501   502  0.000000000E+00  0.000000000E+00  1.158932866E+02  1.158932866E+02  0.000000000E+00  0.00000E+00  9.000E+00
      21    -1     0     0   512   503  0.000000000E+00  0.000000000E+00 -1.883447276E+03  1.883447276E+03  0.000000000E+00  0.00000E+00  9.000E+00
      25     1     1     2     0     0 -2.958775829E+02 -4.885708295E+01 -5.236475795E+02  6.162486814E+02  1.250003649E+02  0.00000E+00  9.000E+00
       5     1     1     2   501     0  2.070423828E+00 -2.089526326E+00  4.783590809E+01  4.816107742E+01  4.750000000E+00  0.00000E+00  9.000E+00
      -5     1     1     2     0   503  2.885296606E+02  8.402328714E+01 -1.101780453E+03  1.142038532E+03  4.750000000E+00  0.00000E+00  9.000E+00
      21     1     1     2   512   502  5.277498442E+00 -3.307667787E+01 -1.899618648E+02  1.928922722E+02  2.697398305E-06  0.00000E+00  9.000E+00
#rwgt            1           9   4.0804664869319912E-002           6     2706876           0
</event>
<event>
      6   9999  3.45752E-01  3.49194E+00 -1.00000E+00  2.60729E-01
      21    -1     0     0   501   511  0.000000000E+00  0.000000000E+00  2.840074059E+02  2.840074059E+02  0.000000000E+00  0.00000E+00  9.000E+00
      21    -1     0     0   502   503  0.000000000E+00  0.000000000E+00 -2.166666705E+03  2.166666705E+03  0.000000000E+00  0.00000E+00  9.000E+00
      25     1     1     2     0     0 -1.680042810E+01  1.006111792E+01 -1.511203670E+03  1.516492313E+03  1.250156906E+02  0.00000E+00  9.000E+00
       5     1     1     2   501     0 -1.259615875E+00 -2.019556926E+00 -4.975228336E-01  5.336222569E+00  4.750000000E+00  0.00000E+00  9.000E+00
      -5     1     1     2     0   503  1.518450938E+01 -6.060405288E+00 -6.497794049E+02  6.500024118E+02  4.750000000E+00  0.00000E+00  9.000E+00
      21     1     1     2   502   511  2.875534593E+00 -1.981155706E+00  2.788212982E+02  2.788431638E+02  7.629394531E-06  0.00000E+00  9.000E+00
#rwgt            1           9   1.6643950059821407E-003           6     2709271           0
</event>
<event>
      6   9999  3.45752E-01  7.82367E+00 -1.00000E+00  1.99168E-01
      21    -1     0     0   512   502  0.000000000E+00  0.000000000E+00  3.333756617E+01  3.333756617E+01  0.000000000E+00  0.00000E+00  9.000E+00
      21    -1     0     0   502   503  0.000000000E+00  0.000000000E+00 -1.090137743E+03  1.090137743E+03  0.000000000E+00  0.00000E+00  9.000E+00
      25     1     1     2     0     0 -4.799553184E+00  3.678336468E+01 -3.113270433E+02  3.375314307E+02  1.250075486E+02  0.00000E+00  9.000E+00
       5     1     1     2   501     0  4.278171248E-01  2.348101352E+00  1.311539452E+01  1.415177306E+01  4.750000000E+00  0.00000E+00  9.000E+00
      -5     1     1     2     0   503  3.739111671E+00 -3.133341090E+01 -7.624151920E+02  7.630827289E+02  4.750000000E+00  0.00000E+00  9.000E+00
      21     1     1     2   512   501  6.326243884E-01 -7.798055127E+00  3.826664154E+00  8.709376322E+00  4.768371582E-07  0.00000E+00  9.000E+00
#rwgt            1           9   5.2265043629643911E-002           6     2714402           0
</event>
<event>
      6   9999  3.45752E-01  1.06964E+01 -1.00000E+00  1.84166E-01
      21    -1     0     0   501   502  0.000000000E+00  0.000000000E+00  1.360292591E+01  1.360292591E+01  0.000000000E+00  0.00000E+00  9.000E+00
      21    -1     0     0   511   503  0.000000000E+00  0.000000000E+00 -1.176212082E+03  1.176212082E+03  0.000000000E+00  0.00000E+00  9.000E+00
      25     1     1     2     0     0 -1.238649051E+01 -2.007709098E+01 -3.788060084E+02  3.995877113E+02  1.249793274E+02  0.00000E+00  9.000E+00
       5     1     1     2   501     0  4.948265685E-02 -1.080630744E-01  4.074427908E-01  4.768923966E+00  4.750000000E+00  0.00000E+00  9.000E+00
      -5     1     1     2     0   503  1.188136513E+01  3.087182734E+01 -6.196792935E+02  6.205797498E+02  4.750000000E+00  0.00000E+00  9.000E+00
      21     1     1     2   511   502  4.556427269E-01 -1.068667329E+01 -1.645312972E+02  1.648786231E+02  0.000000000E+00  0.00000E+00  9.000E+00
#rwgt            1           9   9.9433494909843642E-002           6     2718355           0
</event>
<event>
      6   9999  3.45752E-01  7.48624E+00 -1.00000E+00  2.01490E-01
      21    -1     0     0   502   503  0.000000000E+00  0.000000000E+00  2.371093063E+02  2.371093063E+02  0.000000000E+00  0.00000E+00  9.000E+00
       1    -1     0     0   501     0  0.000000000E+00  0.000000000E+00 -2.324641115E+02  2.324641115E+02  0.000000000E+00  0.00000E+00  9.000E+00
      25     1     1     2     0     0  2.960175710E+00  1.387682912E+00  2.137959136E+02  2.476789747E+02  1.250019743E+02  0.00000E+00  9.000E+00
       5     1     1     2   501     0 -3.436396281E+00 -3.796663341E+00 -6.219368565E+00  9.352353568E+00  4.750000000E+00  0.00000E+00  9.000E+00
      -5     1     1     2     0   503  5.654639345E+00 -2.997295089E+00  1.384291244E+00  8.089343992E+00  4.750000000E+00  0.00000E+00  9.000E+00
       1     1     1     2   502     0 -5.178418774E+00  5.406275517E+00 -2.043156414E+02  2.044527456E+02  0.000000000E+00  0.00000E+00  9.000E+00
#rwgt            1           9  0.23640883359836951                6     2721172           0
</event>
<event>
      6   9999  3.45752E-01  5.94187E+00 -1.00000E+00  2.14649E-01
      21    -1     0     0   501   502  0.000000000E+00  0.000000000E+00  9.191852967E+01  9.191852967E+01  0.000000000E+00  0.00000E+00  9.000E+00
      21    -1     0     0   502   511  0.000000000E+00  0.000000000E+00 -9.861666892E+01  9.861666892E+01  0.000000000E+00  0.00000E+00  9.000E+00
      25     1     1     2     0     0  8.727932420E+00  2.342205241E+00  5.704592903E+00  1.254550262E+02  1.249990340E+02  0.00000E+00  9.000E+00
       5     1     1     2   501     0 -4.798628558E-01  1.305055303E-01  2.268627330E+01  2.318354581E+01  4.750000000E+00  0.00000E+00  9.000E+00
      -5     1     1     2     0   503 -4.512833910E+00 -7.093734519E+00 -3.461405277E+01  3.593580232E+01  4.750000000E+00  0.00000E+00  9.000E+00
      21     1     1     2   503   511 -3.735235654E+00  4.621023748E+00 -4.749526820E-01  5.960824265E+00  1.306509816E-07  0.00000E+00  9.000E+00
#rwgt            1           9   3.6780570123642398E-004           6     2723907           0
</event>
<event>
      6   9999 -3.45752E-01  1.26123E+01 -1.00000E+00  1.77166E-01
      21    -1     0     0   512   502  0.000000000E+00  0.000000000E+00  1.742044584E+01  1.742044584E+01  0.000000000E+00  0.00000E+00  9.000E+00
      21    -1     0     0   502   503  0.000000000E+00  0.000000000E+00 -9.425781194E+02  9.425781194E+02  0.000000000E+00  0.00000E+00  9.000E+00
      25     1     1     2     0     0 -1.752430674E+01  5.637557451E+01 -5.291932469E+02  5.469513475E+02  1.249999087E+02  0.00000E+00  9.000E+00
       5     1     1     2   501     0 -4.737968766E-01 -4.567251043E-01  2.413337605E+00  5.368405694E+00  4.750000000E+00  0.00000E+00  9.000E+00
      -5     1     1     2     0   503  1.279675040E+01 -6.740872655E+01 -3.735769813E+02  3.798552575E+02  4.750000000E+00  0.00000E+00  9.000E+00
      21     1     1     2   512   501  5.201353216E+00  1.148987714E+01 -2.480078291E+01  2.782355450E+01  0.000000000E+00  0.00000E+00  9.000E+00
#rwgt            1           9  -1.6602968945648753E-004           6     2727968           0
</event>
<event>
      6   9999  3.45752E-01  3.60252E+01 -1.00000E+00  1.42874E-01
      21    -1     0     0   511   502  0.000000000E+00  0.000000000E+00  7.144615232E+02  7.144615232E+02  0.000000000E+00  0.00000E+00  9.000E+00
      21    -1     0     0   502   503  0.000000000E+00  0.000000000E+00 -4.903158978E+01  4.903158978E+01  0.000000000E+00  0.00000E+00  9.000E+00
      25     1     1     2     0     0  5.266674581E+01  1.483941776E+02  2.891500100E+02  3.521757912E+02  1.250017663E+02  0.00000E+00  9.000E+00
       5     1     1     2   501     0  5.699981079E-01  4.411428233E-01  2.601678506E+01  2.645666475E+01  4.750000000E+00  0.00000E+00  9.000E+00
      -5     1     1     2     0   503 -3.548027516E+01 -1.174900716E+02  2.844185655E+02  3.098051803E+02  4.750000000E+00  0.00000E+00  9.000E+00
      21     1     1     2   511   501 -1.775646877E+01 -3.134524887E+01  6.584457284E+01  7.505547670E+01  9.536743164E-07  0.00000E+00  9.000E+00
#rwgt            1           9   4.8888779198199041E-003           6     2730828           0
</event>
<event>
      6   9999  3.45752E-01  2.39453E+01 -1.00000E+00  1.54463E-01
      21    -1     0     0   512   502  0.000000000E+00  0.000000000E+00  4.799880061E+01  4.799880061E+01  0.000000000E+00  0.00000E+00  9.000E+00
      21    -1     0     0   502   503  0.000000000E+00  0.000000000E+00 -8.673491790E+02  8.673491790E+02  0.000000000E+00  0.00000E+00  9.000E+00
      25     1     1     2     0     0 -8.595611733E-01 -9.983812050E+00 -7.629421485E+02  7.731795935E+02  1.250021856E+02  0.00000E+00  9.000E+00
       5     1     1     2   501     0  2.026364779E+00 -9.929417008E+00  3.754043695E+00  1.180486427E+01  4.750000000E+00  0.00000E+00  9.000E+00
      -5     1     1     2     0   503 -4.996288105E-01 -4.022735678E+00 -9.105968786E+01  9.127355195E+01  4.750000000E+00  0.00000E+00  9.000E+00
      21     1     1     2   512   501 -6.671747951E-01  2.393596474E+01  3.089741436E+01  3.908996987E+01  1.066240300E-06  0.00000E+00  9.000E+00
#rwgt            1           9   7.9551504916778822E-004           6     2731986           0
</event>
<event>
      6   9999  3.45752E-01  8.88706E+00 -1.00000E+00  1.92758E-01
      21    -1     0     0   502   503  0.000000000E+00  0.000000000E+00  2.529527332E+00  2.529527332E+00  0.000000000E+00  0.00000E+00  9.000E+00
      21    -1     0     0   511   502  0.000000000E+00  0.000000000E+00 -2.434704938E+03  2.434704938E+03  0.000000000E+00  0.00000E+00  9.000E+00
      25     1     1     2     0     0 -1.013928220E+01  3.023761233E+00 -1.630948707E+03  1.635766268E+03  1.250026026E+02  0.00000E+00  9.000E+00
       5     1     1     2   501     0  1.260061722E+00 -5.466598237E-01 -1.970904223E+02  1.971524376E+02  4.750000000E+00  0.00000E+00  9.000E+00
      -5     1     1     2     0   503  6.374341002E-01  8.474600144E-01 -1.211441689E+02  1.212418932E+02  4.750000000E+00  0.00000E+00  9.000E+00
      21     1     1     2   511   501  8.241786376E+00 -3.324561424E+00 -4.829921122E+02  4.830738662E+02  7.629394531E-06  0.00000E+00  9.000E+00
#rwgt            1           9   2.7406389539038371E-003           6     2733223           0
</event>
<event>
      6   9999  3.45752E-01  1.25342E+01 -1.00000E+00  1.77420E-01
      21    -1     0     0   501   502  0.000000000E+00  0.000000000E+00  2.872042871E+01  2.872042871E+01  0.000000000E+00  0.00000E+00  9.000E+00
      21    -1     0     0   502   512  0.000000000E+00  0.000000000E+00 -1.302794755E+03  1.302794755E+03  0.000000000E+00  0.00000E+00  9.000E+00
      25     1     1     2     0     0  1.701755847E+01 -2.164592719E+01 -1.033342269E+03  1.041239219E+03  1.249988907E+02  0.00000E+00  9.000E+00
       5     1     1     2   501     0  9.448792508E-01  2.295025742E+00  1.911907948E+01  1.985602277E+01  4.750000000E+00  0.00000E+00  9.000E+00
      -5     1     1     2     0   503 -2.985032006E+01  2.332371321E+01 -6.663196718E+01  7.679465317E+01  4.750000000E+00  0.00000E+00  9.000E+00
      21     1     1     2   503   512  1.188788234E+01 -3.972811765E+00 -1.932191696E+02  1.936252889E+02  2.697398305E-06  0.00000E+00  9.000E+00
#rwgt            1           9   1.2438801555737075E-003           6     2735757           0
</event>
<event>
      6   9999  3.45752E-01  8.75696E+00 -1.00000E+00  1.93478E-01
      21    -1     0     0   501   502  0.000000000E+00  0.000000000E+00  8.100050786E+01  8.100050786E+01  0.000000000E+00  0.00000E+00  9.000E+00
      21    -1     0     0   502   511  0.000000000E+00  0.000000000E+00 -2.783298510E+03  2.783298510E+03  0.000000000E+00  0.00000E+00  9.000E+00
      25     1     1     2     0     0  9.094280798E+00  9.285100789E+00  1.164002057E+01  1.262166053E+02  1.250048893E+02  0.00000E+00  9.000E+00
       5     1     1     2   501     0  2.647565832E-03 -6.432212221E-02  1.114103736E+01  1.211153821E+01  4.750000000E+00  0.00000E+00  9.000E+00
      -5     1     1     2     0   503 -9.455266777E+00 -4.711489686E-01 -6.349192241E+01  6.436933091E+01  4.750000000E+00  0.00000E+00  9.000E+00
      21     1     1     2   503   511  3.583384126E-01 -8.749629698E+00 -2.661587137E+03  2.661601543E+03  3.051757812E-05  0.00000E+00  9.000E+00
#rwgt            1           9  0.26198599852314791                6     2738731           0
</event>
<event>
      6   9999  3.45752E-01  1.07254E+01 -1.00000E+00  1.84046E-01
      21    -1     0     0   502   503  0.000000000E+00  0.000000000E+00  8.522042841E+01  8.522042841E+01  0.000000000E+00  0.00000E+00  9.000E+00
      21    -1     0     0   501   512  0.000000000E+00  0.000000000E+00 -1.871992012E+02  1.871992012E+02  0.000000000E+00  0.00000E+00  9.000E+00
      25     1     1     2     0     0  1.698660783E+01  1.033192135E+01 -1.367307383E+02  1.863170513E+02  1.249938213E+02  0.00000E+00  9.000E+00
       5     1     1     2   501     0 -4.539281977E+00 -2.826652428E+01  3.202902650E+01  4.322062603E+01  4.750000000E+00  0.00000E+00  9.000E+00
      -5     1     1     2     0   503 -1.554673919E+01  7.666746959E+00  1.719155195E+01  2.487151115E+01  4.750000000E+00  0.00000E+00  9.000E+00
      21     1     1     2   502   512  3.099413333E+00  1.026785597E+01 -1.446861293E+01  1.801044112E+01  1.685873940E-07  0.00000E+00  9.000E+00
#rwgt            1           9   2.9179719325818500E-003           6     2741816           0
</event>
<event>
      6   9999  3.45752E-01  1.79567E+01 -1.00000E+00  1.63867E-01
      21    -1     0     0   511   502  0.000000000E+00  0.000000000E+00  1.439740226E+02  1.439740226E+02  0.000000000E+00  0.00000E+00  9.000E+00
      21    -1     0     0   502   503  0.000000000E+00  0.000000000E+00 -8.359371861E+02  8.359371861E+02  0.000000000E+00  0.00000E+00  9.000E+00
      25     1     1     2     0     0  4.509416217E+00  2.641786765E+01 -6.900353699E+02  7.017776712E+02  1.249993985E+02  0.00000E+00  9.000E+00
       5     1     1     2   501     0  2.690389279E+00  2.793358535E+00  3.012365616E+00  6.832122144E+00  4.750000000E+00  0.00000E+00  9.000E+00
      -5     1     1     2     0   503  9.631370419E+00 -2.295373253E+01 -1.363426076E+02  1.386777065E+02  4.750000000E+00  0.00000E+00  9.000E+00
      21     1     1     2   511   501 -1.683117592E+01 -6.257493656E+00  1.314024484E+02  1.326237089E+02  2.697398305E-06  0.00000E+00  9.000E+00
#rwgt            1           9   9.9388470537889375E-004           6     2744502           0
</event>
<event>
      6   9999  3.45752E-01  2.47121E+01 -1.00000E+00  1.53500E-01
      21    -1     0     0   501   502  0.000000000E+00  0.000000000E+00  1.844503000E+03  1.844503000E+03  0.000000000E+00  0.00000E+00  9.000E+00
      21    -1     0     0   512   503  0.000000000E+00  0.000000000E+00 -2.753367769E+01  2.753367769E+01  0.000000000E+00  0.00000E+00  9.000E+00
      25     1     1     2     0     0 -6.426767822E+00 -7.827661082E+01  2.326012348E+02  2.754901533E+02  1.249918357E+02  0.00000E+00  9.000E+00
       5     1     1     2   501     0  2.099704348E+01  4.064324762E+01  1.471132943E+03  1.471851707E+03  4.750000000E+00  0.00000E+00  9.000E+00
      -5     1     1     2     0   503 -1.305011978E+01  1.296805740E+01  8.533179904E+01  8.742170535E+01  4.750000000E+00  0.00000E+00  9.000E+00
      21     1     1     2   512   502 -1.520155885E+00  2.466530580E+01  2.790334558E+01  3.727311201E+01  6.743495762E-07  0.00000E+00  9.000E+00
#rwgt            1           9   39.287393314631984                6     2746445           0
</event>
<event>
      6   9999  3.45752E-01  3.13656E+01 -1.00000E+00  1.46598E-01
      21    -1     0     0   501   502  0.000000000E+00  0.000000000E+00  1.406884143E+03  1.406884143E+03  0.000000000E+00  0.00000E+00  9.000E+00
       1    -1     0     0   502     0  0.000000000E+00  0.000000000E+00 -2.831993983E+02  2.831993983E+02  0.000000000E+00  0.00000E+00  9.000E+00
      25     1     1     2     0     0  1.626346177E+01 -1.360885029E+01  4.856244527E+02  5.019022625E+02  1.250002845E+02  0.00000E+00  9.000E+00
       5     1     1     2   501     0 -3.011747405E+00 -6.519927771E+00  8.092771641E+02  8.093229707E+02  4.750000000E+00  0.00000E+00  9.000E+00
      -5     1     1     2     0   503 -1.608122904E+01 -1.110898021E+01  1.019405489E+02  1.039059833E+02  4.750000000E+00  0.00000E+00  9.000E+00
       1     1     1     2   503     0  2.829514678E+00  3.123775827E+01 -2.731574215E+02  2.749523242E+02  0.000000000E+00  0.00000E+00  9.000E+00
#rwgt            1           9   6.1791022088716365E-004           6     2748163           0
</event>
<event>
      6   9999  3.45752E-01  7.53148E+00 -1.00000E+00  2.01170E-01
      21    -1     0     0   501   502  0.000000000E+00  0.000000000E+00  2.920970461E+02  2.920970461E+02  0.000000000E+00  0.00000E+00  9.000E+00
      21    -1     0     0   511   503  0.000000000E+00  0.000000000E+00 -3.754320277E+01  3.754320277E+01  0.000000000E+00  0.00000E+00  9.000E+00
      25     1     1     2     0     0 -1.250634267E+01 -1.914338531E+01  2.092866131E+02  2.448463432E+02  1.250038701E+02  0.00000E+00  9.000E+00
       5     1     1     2   501     0 -5.846562647E-01 -6.845470819E-01  4.129143675E+01  4.157349729E+01  4.750000000E+00  0.00000E+00  9.000E+00
      -5     1     1     2     0   503  1.271081738E+01  1.230605527E+01  1.901339278E+01  2.640218703E+01  4.750000000E+00  0.00000E+00  9.000E+00
      21     1     1     2   511   502  3.801815535E-01  7.521877119E+00 -1.503759936E+01  1.681822131E+01  3.371747881E-07  0.00000E+00  9.000E+00
#rwgt            1           9   1.0427677549371825                6     2749033           0
</event>
<event>
      6   9999  3.45752E-01  1.06861E+01 -1.00000E+00  1.84208E-01
      21    -1     0     0   501   512  0.000000000E+00  0.000000000E+00  2.177488855E+01  2.177488855E+01  0.000000000E+00  0.00000E+00  9.000E+00
      21    -1     0     0   502   503  0.000000000E+00  0.000000000E+00 -1.424027277E+03  1.424027277E+03  0.000000000E+00  0.00000E+00  9.000E+00
      25     1     1     2     0     0 -2.391171554E+01  3.952698447E+01 -1.113125590E+03  1.121073875E+03  1.249956073E+02  0.00000E+00  9.000E+00
       5     1     1     2   501     0  9.811363256E-01 -2.271613769E+00  1.424752619E+01  1.522095136E+01  4.750000000E+00  0.00000E+00  9.000E+00
      -5     1     1     2     0   503  3.269396715E+01 -3.291142962E+01 -2.793229860E+02  2.831888957E+02  4.750000000E+00  0.00000E+00  9.000E+00
      21     1     1     2   502   512 -9.763387937E+00 -4.343941078E+00 -2.405133951E+01  2.631844411E+01  3.371747881E-07  0.00000E+00  9.000E+00
#rwgt            1           9   2.6257929910480416E-004           6     2751605           0
</event>
<event>
      6   9999  3.45752E-01  8.12530E+00 -1.00000E+00  1.97220E-01
      21    -1     0     0   511   502  0.000000000E+00  0.000000000E+00  1.520992357E+01  1.520992357E+01  0.000000000E+00  0.00000E+00  9.000E+00
      21    -1     0     0   502   503  0.000000000E+00  0.000000000E+00 -7.607853668E+02  7.607853668E+02  0.000000000E+00  0.00000E+00  9.000E+00
      25     1     1     2     0     0 -1.902670459E+01 -5.873494412E+00 -5.632139065E+02  5.772630027E+02  1.250046253E+02  0.00000E+00  9.000E+00
       5     1     1     2   501     0 -1.321144834E-01 -2.223327905E-01 -2.982733211E+00  5.614809303E+00  4.750000000E+00  0.00000E+00  9.000E+00
      -5     1     1     2     0   503  1.126453392E+01  8.019584798E+00 -1.834483264E+02  1.840300367E+02  4.750000000E+00  0.00000E+00  9.000E+00
      21     1     1     2   511   501  7.894285149E+00 -1.923757595E+00  4.069522809E+00  9.087441730E+00  2.308477966E-07  0.00000E+00  9.000E+00
#rwgt            1           9   5.3637931914275467E-004           6     2754722           0
</event>
<event>
      6   9999  3.45752E-01  3.27866E+01 -1.00000E+00  1.45385E-01
      21    -1     0     0   501   502  0.000000000E+00  0.000000000E+00  7.794337383E+02  7.794337383E+02  0.000000000E+00  0.00000E+00  9.000E+00
      21    -1     0     0   512   503  0.000000000E+00  0.000000000E+00 -2.081870599E+02  2.081870599E+02  0.000000000E+00  0.00000E+00  9.000E+00
      25     1     1     2     0     0  3.288143125E+01  2.190998523E+02  1.260778899E+00  2.543875696E+02  1.250020488E+02  0.00000E+00  9.000E+00
       5     1     1     2   501     0  9.326615371E-01  9.039045071E-01  3.208374023E+02  3.208751909E+02  4.750000000E+00  0.00000E+00  9.000E+00
      -5     1     1     2     0   503 -4.659682249E+01 -2.501958311E+02  2.718981229E+02  3.724518352E+02  4.750000000E+00  0.00000E+00  9.000E+00
      21     1     1     2   512   502  1.278272971E+01  3.019207432E+01 -2.274962578E+01  3.990620256E+01  8.259061849E-07  0.00000E+00  9.000E+00
#rwgt            1           9   2.8596798661304798E-003           6     2757743           0
</event>
<event>
      6   9999 -3.45752E-01  1.09916E+01 -1.00000E+00  1.82970E-01
      21    -1     0     0   511   502  0.000000000E+00  0.000000000E+00  1.823655182E+01  1.823655182E+01  0.000000000E+00  0.00000E+00  9.000E+00
      21    -1     0     0   502   503  0.000000000E+00  0.000000000E+00 -7.906167566E+02  7.906167566E+02  0.000000000E+00  0.00000E+00  9.000E+00
      25     1     1     2     0     0 -1.966585412E+01 -1.299567873E+01 -4.529968209E+02  4.705188876E+02  1.250050810E+02  0.00000E+00  9.000E+00
       5     1     1     2   501     0 -5.001913273E-01 -2.458952280E-01 -7.496339837E+00  8.892033895E+00  4.750000000E+00  0.00000E+00  9.000E+00
      -5     1     1     2     0   503  1.374375928E+01  4.321435185E+00 -3.169697351E+02  3.173325404E+02  4.750000000E+00  0.00000E+00  9.000E+00
      21     1     1     2   511   501  6.422286170E+00  8.920138769E+00  5.082691090E+00  1.210984657E+01  7.275674114E-07  0.00000E+00  9.000E+00
#rwgt            1           9 -0.24611559817436421                6     2760149           0
</event>
<event>
      6   9999 -3.45752E-01  3.02649E+01 -1.00000E+00  1.47591E-01
      21    -1     0     0   501   502  0.000000000E+00  0.000000000E+00  6.031783325E+01  6.031783325E+01  0.000000000E+00  0.00000E+00  9.000E+00
      21    -1     0     0   512   503  0.000000000E+00  0.000000000E+00 -2.905038433E+03  2.905038433E+03  0.000000000E+00  0.00000E+00  9.000E+00
      25     1     1     2     0     0  1.254077302E+02 -2.480038364E+02 -8.577915295E+02  9.103099339E+02  1.249994644E+02  0.00000E+00  9.000E+00
       5     1     1     2   501     0 -3.234146893E+00 -4.250868314E+00  2.325523919E+01  2.432895882E+01  4.750000000E+00  0.00000E+00  9.000E+00
      -5     1     1     2     0   503 -9.855108976E+01  2.333353226E+02 -1.659027994E+03  1.678259258E+03  4.750000000E+00  0.00000E+00  9.000E+00
      21     1     1     2   512   502 -2.362249352E+01  1.891938215E+01 -3.511563154E+02  3.524581153E+02  5.394796609E-06  0.00000E+00  9.000E+00
#rwgt            1           9  -2.0270785386113040E-002           6     2762325           0
</event>
<event>
      6   9999  3.45752E-01  2.89178E+01 -1.00000E+00  1.48878E-01
      21    -1     0     0   501   502  0.000000000E+00  0.000000000E+00  8.328751470E+01  8.328751470E+01  0.000000000E+00  0.00000E+00  9.000E+00
       2    -1     0     0   502     0  0.000000000E+00  0.000000000E+00 -2.065302112E+03  2.065302112E+03  0.000000000E+00  0.00000E+00  9.000E+00
      25     1     1     2     0     0  6.105489370E+01  8.412081980E+00 -3.921246238E+02  4.161558293E+02  1.250019621E+02  0.00000E+00  9.000E+00
       5     1     1     2   501     0  1.639173065E+00  2.122194159E+00  7.010515534E+01  7.031703849E+01  4.750000000E+00  0.00000E+00  9.000E+00
      -5     1     1     2     0   503 -4.388543029E+01 -3.249958742E+01 -1.142677195E+03  1.143991210E+03  4.750000000E+00  0.00000E+00  9.000E+00
       2     1     1     2   503     0 -1.880863647E+01  2.196531128E+01 -5.173179329E+02  5.181255479E+02  7.629394531E-06  0.00000E+00  9.000E+00
#rwgt            1           9   2.0772609092845578E-003           6     2764625           0
</event>
<event>
      6   9999 -3.45752E-01  1.76836E+01 -1.00000E+00  1.64401E-01
      21    -1     0     0   511   502  0.000000000E+00  0.000000000E+00  2.636327442E+01  2.636327442E+01  0.000000000E+00  0.00000E+00  9.000E+00
      21    -1     0     0   502   503  0.000000000E+00  0.000000000E+00 -8.362182160E+02  8.362182160E+02  0.000000000E+00  0.00000E+00  9.000E+00
      25     1     1     2     0     0 -1.532132919E+01  1.328933850E+01 -8.202715694E+02  8.299851460E+02  1.249741785E+02  0.00000E+00  9.000E+00
       5     1     1     2   501     0 -8.369530323E-01  8.402998546E-01 -2.554772078E+00  5.522314243E+00  4.750000000E+00  0.00000E+00  9.000E+00
      -5     1     1     2     0   503  2.693097746E+00 -2.666710086E+00  3.536585415E+00  7.030935539E+00  4.750000000E+00  0.00000E+00  9.000E+00
      21     1     1     2   511   501  1.346518447E+01 -1.146292827E+01  9.434814535E+00  2.004309464E+01  1.130918620E-06  0.00000E+00  9.000E+00
#rwgt            1           9  -2.2214124472246378E-004           6     2767230           0
</event>
<event>
      6   9999  3.45752E-01  8.82436E+00 -1.00000E+00  1.93103E-01
      21    -1     0     0   501   502  0.000000000E+00  0.000000000E+00  1.510224784E+01  1.510224784E+01  0.000000000E+00  0.00000E+00  9.000E+00
      21    -1     0     0   512   503  0.000000000E+00  0.000000000E+00 -9.314370016E+02  9.314370016E+02  0.000000000E+00  0.00000E+00  9.000E+00
      25     1     1     2     0     0  1.060456010E+01  1.489077741E+00 -8.747178622E+02  8.836689711E+02  1.249993520E+02  0.00000E+00  9.000E+00
       5     1     1     2   501     0 -9.978910037E-02  2.927864913E-01  8.938953171E+00  1.012734247E+01  4.750000000E+00  0.00000E+00  9.000E+00
      -5     1     1     2     0   503 -2.073634872E+00  8.230057109E-01 -1.064601505E+01  1.186918011E+01  4.750000000E+00  0.00000E+00  9.000E+00
      21     1     1     2   512   502 -8.431136123E+00 -2.604869944E+00 -3.990982969E+01  4.087375575E+01  0.000000000E+00  0.00000E+00  9.000E+00
#rwgt            1           9   1.0691968186961596E-004           6     2768869           0
</event>
<event>
      6   9999  3.45752E-01  9.99956E+00 -1.00000E+00  1.87196E-01
      21    -1     0     0   511   502  0.000000000E+00  0.000000000E+00  3.483895609E+02  3.483895609E+02  0.000000000E+00  0.00000E+00  9.000E+00
      21    -1     0     0   502   503  0.000000000E+00  0.000000000E+00 -6.707822590E+02  6.707822590E+02  0.000000000E+00  0.00000E+00  9.000E+00
      25     1     1     2     0     0 -2.559564133E+00 -1.417119068E+01 -6.360331063E+02  6.483598659E+02  1.250001174E+02  0.00000E+00  9.000E+00
       5     1     1     2   501     0  2.087406529E-01 -3.483486914E-01 -1.177007735E+01  1.269890311E+01  4.750000000E+00  0.00000E+00  9.000E+00
      -5     1     1     2     0   503  7.002182313E+00  5.667639769E+00 -1.468490240E+01  1.787068987E+01  4.750000000E+00  0.00000E+00  9.000E+00
      21     1     1     2   511   501 -4.651358832E+00  8.851899607E+00  3.400953880E+02  3.402423610E+02  3.814697266E-06  0.00000E+00  9.000E+00
#rwgt            1           9   9.5795465700028535E-005           6     2771716           0
</event>
<event>
      6   9999  3.45752E-01  4.98381E+00 -1.00000E+00  2.29610E-01
      21    -1     0     0   502   503  0.000000000E+00  0.000000000E+00  2.510563128E+01  2.510563128E+01  0.000000000E+00  0.00000E+00  9.000E+00
      21    -1     0     0   501   512  0.000000000E+00  0.000000000E+00 -2.672547791E+02  2.672547791E+02  0.000000000E+00  0.00000E+00  9.000E+00
      25     1     1     2     0     0  2.376347297E-01  6.223873016E+00 -1.401724078E+02  1.879154748E+02  1.250005148E+02  0.00000E+00  9.000E+00
       5     1     1     2   501     0 -7.577029697E-01 -8.982396550E-01 -8.036275386E+01  8.051158709E+01  4.750000000E+00  0.00000E+00  9.000E+00
      -5     1     1     2     0   503 -4.865051038E-01 -4.445299523E-01 -6.936350968E+00  8.432660247E+00  4.750000000E+00  0.00000E+00  9.000E+00
      21     1     1     2   502   512  1.006573344E+00 -4.881103408E+00 -1.467763525E+01  1.550068827E+01  2.384185791E-07  0.00000E+00  9.000E+00
#rwgt            1           9   1.1679783474035376E-003           6     2774150           0
</event>
<event>
      6   9999  3.45752E-01  1.13977E+01 -1.00000E+00  1.81401E-01
      21    -1     0     0   501   502  0.000000000E+00  0.000000000E+00  2.956877305E+02  2.956877305E+02  0.000000000E+00  0.00000E+00  9.000E+00
      21    -1     0     0   502   511  0.000000000E+00  0.000000000E+00 -7.329684059E+01  7.329684059E+01  0.000000000E+00  0.00000E+00  9.000E+00
      25     1     1     2     0     0 -6.441451603E+01 -2.673961599E+01  3.029373273E+01  1.463118557E+02  1.250008478E+02  0.00000E+00  9.000E+00
       5     1     1     2   501     0 -3.121550587E+00 -2.084889425E-01  9.495169761E+01  9.512189509E+01  4.750000000E+00  0.00000E+00  9.000E+00
      -5     1     1     2     0   503  6.053265952E+01  1.795589112E+01  9.737469852E+01  1.161508128E+02  4.750000000E+00  0.00000E+00  9.000E+00
      21     1     1     2   503   511  7.003407096E+00  8.992213814E+00 -2.292389843E-01  1.140000749E+01  2.044162887E-07  0.00000E+00  9.000E+00
#rwgt            1           9   1.5005707470967613E-003           6     2778659           0
</event>
<event>
      6   9999  3.45752E-01  8.08289E+00 -1.00000E+00  1.97487E-01
      21    -1     0     0   502   503  0.000000000E+00  0.000000000E+00  1.322466543E+01  1.322466543E+01  0.000000000E+00  0.00000E+00  9.000E+00
      21    -1     0     0   512   502  0.000000000E+00  0.000000000E+00 -7.821078272E+02  7.821078272E+02  0.000000000E+00  0.00000E+00  9.000E+00
      25     1     1     2     0     0  1.643645759E+01 -2.963067373E+01 -4.460042765E+02  4.644259942E+02  1.249942218E+02  0.00000E+00  9.000E+00
       5     1     1     2   501     0  1.393862188E+01  5.613750936E+00 -7.792700043E+01  7.950458650E+01  4.750000000E+00  0.00000E+00  9.000E+00
      -5     1     1     2     0   503 -3.688235848E+01  2.881155098E+01 -1.840854348E+02  1.900011149E+02  4.750000000E+00  0.00000E+00  9.000E+00
      21     1     1     2   512   501  6.507279013E+00 -4.794628183E+00 -6.086645009E+01  6.140079712E+01  6.743495762E-07  0.00000E+00  9.000E+00
#rwgt            1           9   19.415453318742156                6     2781397           0
</event>
<event>
      6   9999  3.45752E-01  2.13565E+01 -1.00000E+00  1.58065E-01
      21    -1     0     0   501   502  0.000000000E+00  0.000000000E+00  4.932342853E+01  4.932342853E+01  0.000000000E+00  0.00000E+00  9.000E+00
      21    -1     0     0   511   503  0.000000000E+00  0.000000000E+00 -2.733949170E+02  2.733949170E+02  0.000000000E+00  0.00000E+00  9.000E+00
      25     1     1     2     0     0  2.264127362E+00  2.406011734E+01 -6.025015846E+01  1.408478619E+02  1.249960923E+02  0.00000E+00  9.000E+00
       5     1     1     2   501     0  7.963270195E-01 -3.273365329E+00  4.934405961E+00  7.632818581E+00  4.750000000E+00  0.00000E+00  9.000E+00
      -5     1     1     2     0   503  1.429178571E+00  9.252629537E-02 -9.165167503E-01  5.045157624E+00  4.750000000E+00  0.00000E+00  9.000E+00
      21     1     1     2   511   502 -4.489632953E+00 -2.087927831E+01 -1.678392192E+02  1.691925074E+02  2.697398305E-06  0.00000E+00  9.000E+00
#rwgt            1           9   4.7706365799340169                6     2784074           0
</event>
<event>
      6   9999  3.45752E-01  1.04218E+01 -1.00000E+00  1.85323E-01
      21    -1     0     0   512   502  0.000000000E+00  0.000000000E+00  1.887984107E+02  1.887984107E+02  0.000000000E+00  0.00000E+00  9.000E+00
      21    -1     0     0   502   503  0.000000000E+00  0.000000000E+00 -8.400022359E+02  8.400022359E+02  0.000000000E+00  0.00000E+00  9.000E+00
      25     1     1     2     0     0  9.503041585E-02  4.376880062E+01 -5.659769105E+02  5.812666358E+02  1.250012873E+02  0.00000E+00  9.000E+00
       5     1     1     2   501     0  2.160442675E+00  7.340895149E-01  9.186792156E-01  5.349100062E+00  4.750000000E+00  0.00000E+00  9.000E+00
      -5     1     1     2     0   503  5.280568250E+00 -3.730415201E+01 -2.626460280E+02  2.653770575E+02  4.750000000E+00  0.00000E+00  9.000E+00
      21     1     1     2   512   501 -7.536041341E+00 -7.198738128E+00  1.765004340E+02  1.768078532E+02  4.264961200E-06  0.00000E+00  9.000E+00
#rwgt            1           9   1.4407905432782643E-003           6     2785300           0
</event>
<event>
      6   9999  3.45752E-01  4.70364E+00 -1.00000E+00  2.34131E-01
      21    -1     0     0   501   502  0.000000000E+00  0.000000000E+00  5.181694383E+01  5.181694383E+01  0.000000000E+00  0.00000E+00  9.000E+00
      21    -1     0     0   502   511  0.000000000E+00  0.000000000E+00 -4.141302462E+02  4.141302462E+02  0.000000000E+00  0.00000E+00  9.000E+00
      25     1     1     2     0     0  1.053501340E+01  3.873711181E+00 -7.747371821E+01  1.474908436E+02  1.250015191E+02  0.00000E+00  9.000E+00
       5     1     1     2   501     0 -1.729572518E-01  1.593595096E+00  1.341198004E+01  1.431828091E+01  4.750000000E+00  0.00000E+00  9.000E+00
      -5     1     1     2     0   503 -7.451236161E+00 -1.772533628E+00 -4.019176375E+00  9.868083630E+00  4.750000000E+00  0.00000E+00  9.000E+00
      21     1     1     2   503   511 -2.910819989E+00 -3.694772650E+00 -2.942323879E+02  2.942699820E+02  5.394796609E-06  0.00000E+00  9.000E+00
#rwgt            1           9  0.17493585246883753                6     2788101           0
</event>
<event>
      6   9999  3.45752E-01  4.07862E+00 -1.00000E+00  2.46113E-01
      21    -1     0     0   501   502  0.000000000E+00  0.000000000E+00  8.181503819E+02  8.181503819E+02  0.000000000E+00  0.00000E+00  9.000E+00
      21    -1     0     0   512   503  0.000000000E+00  0.000000000E+00 -9.268422387E+00  9.268422387E+00  0.000000000E+00  0.00000E+00  9.000E+00
      25     1     1     2     0     0 -9.627148605E+00 -6.944878426E+00  5.810647291E+02  5.944772761E+02  1.250043963E+02  0.00000E+00  9.000E+00
       5     1     1     2   501     0  2.526398015E-01 -7.731863380E-01  1.541980426E+02  1.542733304E+02  4.750000000E+00  0.00000E+00  9.000E+00
      -5     1     1     2     0   503  8.695597821E+00  3.696344209E+00  7.383054623E+01  7.458410312E+01  4.750000000E+00  0.00000E+00  9.000E+00
      21     1     1     2   512   502  6.789109822E-01  4.021720555E+00 -2.113584133E-01  4.084094603E+00  2.272274401E-07  0.00000E+00  9.000E+00
#rwgt            1           9   1.5627656462485626E-004           6     2792741           0
</event>
<event>
      6   9999  3.45752E-01  6.22818E+00 -1.00000E+00  2.11825E-01
      21    -1     0     0   511   502  0.000000000E+00  0.000000000E+00  9.508246404E+01  9.508246404E+01  0.000000000E+00  0.00000E+00  9.000E+00
      21    -1     0     0   502   503  0.000000000E+00  0.000000000E+00 -1.691105941E+02  1.691105941E+02  0.000000000E+00  0.00000E+00  9.000E+00
      25     1     1     2     0     0 -9.312920602E+00  9.891270970E-01 -7.553279602E+01  1.463503227E+02  1.250020193E+02  0.00000E+00  9.000E+00
       5     1     1     2   501     0 -1.055845219E+00 -4.703215089E+00  5.686381138E+01  5.726509047E+01  4.750000000E+00  0.00000E+00  9.000E+00
      -5     1     1     2     0   503  4.679836662E+00  1.179082691E+00 -5.370952646E+01  5.413471012E+01  4.750000000E+00  0.00000E+00  9.000E+00
      21     1     1     2   511   501  5.688929159E+00  2.535005301E+00 -1.649619002E+00  6.442934867E+00  1.534168443E-07  0.00000E+00  9.000E+00
#rwgt            1           9   1.5014354521317051E-002           6     2796769           0
</event>
<event>
      6   9999  3.45752E-01  6.43358E+00 -1.00000E+00  2.09922E-01
      21    -1     0     0   501   502  0.000000000E+00  0.000000000E+00  7.483016476E+01  7.483016476E+01  0.000000000E+00  0.00000E+00  9.000E+00
      21    -1     0     0   502   512  0.000000000E+00  0.000000000E+00 -5.582680231E+02  5.582680231E+02  0.000000000E+00  0.00000E+00  9.000E+00
      25     1     1     2     0     0  1.072824262E+01  1.401011595E+01 -5.058545674E+02  5.213685680E+02  1.249998470E+02  0.00000E+00  9.000E+00
       5     1     1     2   501     0  2.960633425E+00 -9.378087266E+00  6.151226227E+01  6.247427295E+01  4.750000000E+00  0.00000E+00  9.000E+00
      -5     1     1     2     0   503 -1.761084680E+01 -9.731942612E+00 -1.872639867E+01  2.789432091E+01  4.750000000E+00  0.00000E+00  9.000E+00
      21     1     1     2   503   512  3.921970759E+00  5.099913929E+00 -2.036915450E+01  2.136102600E+01  2.384185791E-07  0.00000E+00  9.000E+00
#rwgt            1           9   1.4415331833068910E-005           6     2801137           0
</event>
<event>
      6   9999  3.45752E-01  1.54138E+01 -1.00000E+00  1.69354E-01
      21    -1     0     0   501   502  0.000000000E+00  0.000000000E+00  1.207326618E+01  1.207326618E+01  0.000000000E+00  0.00000E+00  9.000E+00
      21    -1     0     0   511   503  0.000000000E+00  0.000000000E+00 -1.032378498E+03  1.032378498E+03  0.000000000E+00  0.00000E+00  9.000E+00
      25     1     1     2     0     0 -9.042646490E+00 -3.933128798E+01 -5.089083845E+02  5.255876006E+02  1.250034499E+02  0.00000E+00  9.000E+00
       5     1     1     2   501     0  6.858779713E-01 -8.580954060E+00 -3.478602053E+01  3.614876106E+01  4.750000000E+00  0.00000E+00  9.000E+00
      -5     1     1     2     0   503 -4.797211266E+00  5.594697744E+01 -2.870680304E+02  2.925469092E+02  4.750000000E+00  0.00000E+00  9.000E+00
      21     1     1     2   511   502  1.315397978E+01 -8.034735397E+00 -1.895427966E+02  1.901684934E+02  0.000000000E+00  0.00000E+00  9.000E+00
#rwgt            1           9   4.0305590813078480E-003           6     2805908           0
</event>
<event>
      6   9999  3.45752E-01  3.16289E+01 -1.00000E+00  1.46368E-01
      21    -1     0     0   501   502  0.000000000E+00  0.000000000E+00  4.387556502E+02  4.387556502E+02  0.000000000E+00  0.00000E+00  9.000E+00
      21    -1     0     0   502   512  0.000000000E+00  0.000000000E+00 -1.069293031E+02  1.069293031E+02  0.000000000E+00  0.00000E+00  9.000E+00
      25     1     1     2     0     0 -3.048320640E+01 -7.915956660E+00  3.441084363E+02  3.674618920E+02  1.250029515E+02  0.00000E+00  9.000E+00
       5     1     1     2   501     0  5.913340447E+00 -3.639359587E+00 -6.427152492E-01  8.437305040E+00  4.750000000E+00  0.00000E+00  9.000E+00
      -5     1     1     2     0   503  4.147308808E+01  3.828855091E+01  6.539176864E+01  8.651402240E+01  4.750000000E+00  0.00000E+00  9.000E+00
      21     1     1     2   503   512 -1.690322213E+01 -2.673323466E+01 -7.703114248E+01  8.327173390E+01  0.000000000E+00  0.00000E+00  9.000E+00
#rwgt            1           9  0.42822274612615557                6     2808371           0
</event>
<event>
      6   9999  3.45752E-01  2.55303E+01 -1.00000E+00  1.52518E-01
      21    -1     0     0   501   511  0.000000000E+00  0.000000000E+00  4.249279817E+02  4.249279817E+02  0.000000000E+00  0.00000E+00  9.000E+00
      21    -1     0     0   502   503  0.000000000E+00  0.000000000E+00 -8.390675422E+02  8.390675422E+02  0.000000000E+00  0.00000E+00  9.000E+00
      25     1     1     2     0     0  8.187034431E+00  1.387771498E+01 -8.004196413E+02  8.102816153E+02  1.250003013E+02  0.00000E+00  9.000E+00
       5     1     1     2   501     0  6.759598023E+00  4.546863116E+00  2.086786290E+00  9.658328357E+00  4.750000000E+00  0.00000E+00  9.000E+00
      -5     1     1     2     0   503  7.722705135E-01  1.692893956E+00 -2.931718532E+01  2.975772416E+01  4.750000000E+00  0.00000E+00  9.000E+00
      21     1     1     2   502   511 -1.571890297E+01 -2.011747205E+01  4.135104798E+02  4.142978561E+02  5.394796609E-06  0.00000E+00  9.000E+00
#rwgt            1           9   2.0468886487027887E-004           6     2809291           0
</event>
<event>
      6   9999  3.45752E-01  3.57522E+01 -1.00000E+00  1.43073E-01
      21    -1     0     0   502   503  0.000000000E+00  0.000000000E+00  2.700043840E+01  2.700043840E+01  0.000000000E+00  0.00000E+00  9.000E+00
      21    -1     0     0   512   502  0.000000000E+00  0.000000000E+00 -1.234592885E+03  1.234592885E+03  0.000000000E+00  0.00000E+00  9.000E+00
      25     1     1     2     0     0  3.851761904E+01 -2.826516588E+00 -1.663396837E+02  2.116258106E+02  1.249999887E+02  0.00000E+00  9.000E+00
       5     1     1     2   501     0 -6.830335772E+01 -1.135363713E+01 -8.574114415E+02  8.602157847E+02  4.750000000E+00  0.00000E+00  9.000E+00
      -5     1     1     2     0   503 -3.409460085E+00  9.022902464E-01 -6.284148282E+00  8.630849633E+00  4.750000000E+00  0.00000E+00  9.000E+00
      21     1     1     2   512   501  3.319519877E+01  1.327786347E+01 -1.775571730E+02  1.811208783E+02  1.907348633E-06  0.00000E+00  9.000E+00
#rwgt            1           9   57.029545521654384                6     2810444           0
</event>
<event>
      6   9999  3.45752E-01  2.13920E+01 -1.00000E+00  1.58012E-01
      21    -1     0     0   501   502  0.000000000E+00  0.000000000E+00  3.147006937E+01  3.147006937E+01  0.000000000E+00  0.00000E+00  9.000E+00
      21    -1     0     0   511   503  0.000000000E+00  0.000000000E+00 -1.356044540E+03  1.356044540E+03  0.000000000E+00  0.00000E+00  9.000E+00
      25     1     1     2     0     0 -5.026816510E+01 -9.995329090E+01 -2.850402291E+02  3.307418586E+02  1.249987840E+02  0.00000E+00  9.000E+00
       5     1     1     2   501     0 -2.744217876E+00 -1.931834957E+00  3.893815264E+00  6.999072464E+00  4.750000000E+00  0.00000E+00  9.000E+00
      -5     1     1     2     0   503  4.080513666E+01  8.431810799E+01 -8.355317557E+02  8.407796856E+02  4.750000000E+00  0.00000E+00  9.000E+00
      21     1     1     2   511   502  1.220724632E+01  1.756701787E+01 -2.078963013E+02  2.089939930E+02  0.000000000E+00  0.00000E+00  9.000E+00
#rwgt            1           9   4.1048581038179424E-003           6     2811587           0
</event>
<event>
      6   9999  3.45752E-01  6.90434E+00 -1.00000E+00  2.05903E-01
       1    -1     0     0   501     0  0.000000000E+00  0.000000000E+00  4.930022917E+01  4.930022917E+01  0.000000000E+00  0.00000E+00  9.000E+00
      21    -1     0     0   502   503  0.000000000E+00  0.000000000E+00 -5.263533134E+02  5.263533134E+02  0.000000000E+00  0.00000E+00  9.000E+00
      25     1     1     2     0     0 -4.521621202E+00 -3.047605166E+00 -5.060318142E+02  5.212620043E+02  1.249645837E+02  0.00000E+00  9.000E+00
       5     1     1     2   501     0 -4.787472111E-01  1.356102164E+00  7.740213627E+00  9.194651650E+00  4.750000000E+00  0.00000E+00  9.000E+00
      -5     1     1     2     0   503 -1.670194548E+00  3.472933146E+00 -1.080597717E+01  1.241702288E+01  4.750000000E+00  0.00000E+00  9.000E+00
       1     1     1     2   502     0  6.670562961E+00 -1.781430143E+00  3.204449351E+01  3.277986375E+01  8.259061849E-07  0.00000E+00  9.000E+00
#rwgt            1           9   4.3179704939301999E-004           6     2813798           0
</event>
<event>
      6   9999  3.45752E-01  1.68213E+01 -1.00000E+00  1.66168E-01
      21    -1     0     0   511   502  0.000000000E+00  0.000000000E+00  2.490023985E+02  2.490023985E+02  0.000000000E+00  0.00000E+00  9.000E+00
      21    -1     0     0   502   503  0.000000000E+00  0.000000000E+00 -9.402033933E+02  9.402033933E+02  0.000000000E+00  0.00000E+00  9.000E+00
      25     1     1     2     0     0 -7.047907810E+01  5.567777950E+01 -6.658600843E+02  6.834189505E+02  1.249979777E+02  0.00000E+00  9.000E+00
       5     1     1     2   501     0  7.926610070E+01 -3.761089569E+01 -2.242583485E+02  2.408569359E+02  4.750000000E+00  0.00000E+00  9.000E+00
      -5     1     1     2     0   503  3.004632049E-01 -3.911524163E+00 -3.241068963E+01  3.299099274E+01  4.750000000E+00  0.00000E+00  9.000E+00
      21     1     1     2   511   501 -9.087485806E+00 -1.415535965E+01  2.313281276E+02  2.319389127E+02  2.697398305E-06  0.00000E+00  9.000E+00
#rwgt            1           9   3.5691442320589630E-003           6     2817293           0
</event>
<event>
      6   9999 -3.45752E-01  1.88250E+01 -1.00000E+00  1.62244E-01
      21    -1     0     0   501   502  0.000000000E+00  0.000000000E+00  2.987117203E+01  2.987117203E+01  0.000000000E+00  0.00000E+00  9.000E+00
       2    -1     0     0   502     0  0.000000000E+00  0.000000000E+00 -2.362871101E+03  2.362871101E+03  0.000000000E+00  0.00000E+00  9.000E+00
      25     1     1     2     0     0  1.194168434E+02  4.142877299E+01 -4.596017937E+02  4.927833274E+02  1.249994930E+02  0.00000E+00  9.000E+00
       5     1     1     2   501     0 -1.206927363E+01  1.794990732E+01 -2.203372005E+01  3.123962000E+01  4.750000000E+00  0.00000E+00  9.000E+00
      -5     1     1     2     0   503 -1.261658081E+02 -5.988203698E+01 -5.584248466E+02  5.756427202E+02  4.750000000E+00  0.00000E+00  9.000E+00
       2     1     1     2   503     0  1.881823837E+01  5.033566631E-01 -1.292939568E+03  1.293076605E+03  2.157918644E-05  0.00000E+00  9.000E+00
#rwgt            1           9  -4.3235810537228537E-004           6     2819429           0
</event>
<event>
      6   9999  3.45752E-01  2.22614E+01 -1.00000E+00  1.56739E-01
      21    -1     0     0   501   502  0.000000000E+00  0.000000000E+00  4.521261853E+01  4.521261853E+01  0.000000000E+00  0.00000E+00  9.000E+00
      21    -1     0     0   511   503  0.000000000E+00  0.000000000E+00 -1.288951578E+03  1.288951578E+03  0.000000000E+00  0.00000E+00  9.000E+00
      25     1     1     2     0     0 -7.269314132E+01 -3.569299077E+01 -3.224271297E+02  3.551645996E+02  1.249974259E+02  0.00000E+00  9.000E+00
       5     1     1     2   501     0  4.656506872E+01 -1.228850975E+02 -1.957422419E+02  2.358106031E+02  4.750000000E+00  0.00000E+00  9.000E+00
      -5     1     1     2     0   503  2.178544769E+01  1.367443370E+02 -6.317607339E+02  6.467749275E+02  4.750000000E+00  0.00000E+00  9.000E+00
      21     1     1     2   511   502  4.342624914E+00  2.183375119E+01 -9.380885362E+01  9.641406588E+01  1.348699152E-06  0.00000E+00  9.000E+00
#rwgt            1           9   2.0382800276637918E-003           6     2821441           0
</event>
<event>
      6   9999  3.45752E-01  7.30330E+00 -1.00000E+00  2.02819E-01
      21    -1     0     0   512   502  0.000000000E+00  0.000000000E+00  3.059203234E+01  3.059203234E+01  0.000000000E+00  0.00000E+00  9.000E+00
      21    -1     0     0   502   503  0.000000000E+00  0.000000000E+00 -1.956862059E+02  1.956862059E+02  0.000000000E+00  0.00000E+00  9.000E+00
      25     1     1     2     0     0  1.569117245E+00 -4.360441956E+00 -1.541011647E+02  1.984779549E+02  1.249994163E+02  0.00000E+00  9.000E+00
       5     1     1     2   501     0 -1.608636781E-01 -1.861190588E-01 -2.762549659E+00  5.500427079E+00  4.750000000E+00  0.00000E+00  9.000E+00
      -5     1     1     2     0   503 -3.330268573E+00 -2.499291115E+00 -1.238122484E+01  1.389943788E+01  4.750000000E+00  0.00000E+00  9.000E+00
      21     1     1     2   512   501  1.922015006E+00  7.045852130E+00  4.150765574E+00  8.400418369E+00  5.960464478E-08  0.00000E+00  9.000E+00
#rwgt            1           9   1.4842925470858590E-004           6     2823863           0
</event>
<event>
      6   9999  3.45752E-01  5.63212E+00 -1.00000E+00  2.17959E-01
      21    -1     0     0   502   503  0.000000000E+00  0.000000000E+00  1.094468040E+02  1.094468040E+02  0.000000000E+00  0.00000E+00  9.000E+00
      21    -1     0     0   501   511  0.000000000E+00  0.000000000E+00 -4.569324573E+01  4.569324573E+01  0.000000000E+00  0.00000E+00  9.000E+00
      25     1     1     2     0     0 -6.083561941E+00 -2.713650639E+00  5.726197358E+01  1.376588134E+02  1.250065664E+02  0.00000E+00  9.000E+00
       5     1     1     2   501     0  9.382591892E-01  4.252854788E-01  3.921482994E+00  6.245136261E+00  4.750000000E+00  0.00000E+00  9.000E+00
      -5     1     1     2     0   503 -4.772338826E-01  1.959982711E+00  2.142825268E+00  5.587797825E+00  4.750000000E+00  0.00000E+00  9.000E+00
      21     1     1     2   502   511  5.622536635E+00  3.283824490E-01  4.272763911E-01  5.648302254E+00  5.188728972E-08  0.00000E+00  9.000E+00
#rwgt            1           9   1.9298481478049836E-003           6     2826665           0
</event>
<event>
      6   9999  3.45752E-01  7.44940E+00 -1.00000E+00  2.01754E-01
      21    -1     0     0   512   502  0.000000000E+00  0.000000000E+00  3.232425074E+00  3.232425074E+00  0.000000000E+00  0.00000E+00  9.000E+00
      21    -1     0     0   502   503  0.000000000E+00  0.000000000E+00 -2.130082974E+03  2.130082974E+03  0.000000000E+00  0.00000E+00  9.000E+00
      25     1     1     2     0     0 -4.438993735E+00  5.496704700E+00 -1.999943526E+03  2.003858618E+03  1.250013505E+02  0.00000E+00  9.000E+00
       5     1     1     2   501     0 -1.368488828E-01  6.336216782E-02 -8.601214277E+00  9.826806675E+00  4.750000000E+00  0.00000E+00  9.000E+00
      -5     1     1     2     0   503  8.739294504E+00  6.172471051E-01 -7.882737079E+01  7.945484975E+01  4.750000000E+00  0.00000E+00  9.000E+00
      21     1     1     2   512   501 -4.163451887E+00 -6.177313973E+00 -3.947843836E+01  4.017512458E+01  1.168007728E-06  0.00000E+00  9.000E+00
#rwgt            1           9   1.1326993146021282E-003           6     2829971           0
</event>
<event>
      6   9999  3.45752E-01  9.80787E+00 -1.00000E+00  1.88086E-01
      21    -1     0     0   501   502  0.000000000E+00  0.000000000E+00  7.516485415E+00  7.516485415E+00  0.000000000E+00  0.00000E+00  9.000E+00
      21    -1     0     0   502   511  0.000000000E+00  0.000000000E+00 -3.276467933E+03  3.276467933E+03  0.000000000E+00  0.00000E+00  9.000E+00
      25     1     1     2     0     0  1.899806323E+01 -6.540273552E+01 -1.251086412E+03  1.259158731E+03  1.250002271E+02  0.00000E+00  9.000E+00
       5     1     1     2   501     0 -1.680746653E+00 -1.830860890E+00 -1.902889723E+00  5.688624632E+00  4.750000000E+00  0.00000E+00  9.000E+00
      -5     1     1     2     0   503 -2.689022187E+01  6.509964109E+01 -7.931180705E+02  7.962536553E+02  4.750000000E+00  0.00000E+00  9.000E+00
      21     1     1     2   503   511  9.572905297E+00  2.133955325E+00 -1.222844076E+03  1.222883408E+03  1.525878906E-05  0.00000E+00  9.000E+00
#rwgt            1           9   5.1538152953625640E-004           6     2832873           0
</event>
<event>
      6   9999  3.45752E-01  1.13933E+01 -1.00000E+00  1.81418E-01
      21    -1     0     0   501   502  0.000000000E+00  0.000000000E+00  1.570281790E+02  1.570281790E+02  0.000000000E+00  0.00000E+00  9.000E+00
      21    -1     0     0   502   512  0.000000000E+00  0.000000000E+00 -7.738229601E+01  7.738229601E+01  0.000000000E+00  0.00000E+00  9.000E+00
      25     1     1     2     0     0  7.374966621E+00 -1.781397772E+01  2.192714652E+01  1.283681532E+02  1.250034203E+02  0.00000E+00  9.000E+00
       5     1     1     2   501     0  2.625578174E+00 -8.137203065E-01  5.597430268E+01  5.624269608E+01  4.750000000E+00  0.00000E+00  9.000E+00
      -5     1     1     2     0   503 -1.173893495E+00  1.142371083E+01  2.273868074E+01  2.591311052E+01  4.750000000E+00  0.00000E+00  9.000E+00
      21     1     1     2   503   512 -8.826651300E+00  7.203987199E+00 -2.099424693E+01  2.388651521E+01  2.384185791E-07  0.00000E+00  9.000E+00
#rwgt            1           9   1.5460802805404071E-005           6     2835505           0
</event>
<event>
      6   9999  3.45752E-01  1.10578E+01 -1.00000E+00  1.82708E-01
      21    -1     0     0   501   502  0.000000000E+00  0.000000000E+00  1.019767083E+03  1.019767083E+03  0.000000000E+00  0.00000E+00  9.000E+00
      21    -1     0     0   502   511  0.000000000E+00  0.000000000E+00 -1.815120609E+02  1.815120609E+02  0.000000000E+00  0.00000E+00  9.000E+00
      25     1     1     2     0     0  1.766732202E+01  6.028803222E+00  9.076760433E+02  9.164333432E+02  1.250031695E+02  0.00000E+00  9.000E+00
       5     1     1     2   501     0 -1.940898125E-01  3.388792330E+00  3.808177343E+01  3.852668623E+01  4.750000000E+00  0.00000E+00  9.000E+00
      -5     1     1     2     0   503 -1.191815356E+01  1.435860081E-01  6.864033870E+01  6.982923169E+01  4.750000000E+00  0.00000E+00  9.000E+00
      21     1     1     2   503   511 -5.555078654E+00 -9.561181559E+00 -1.761431336E+02  1.764898824E+02  6.031565972E-06  0.00000E+00  9.000E+00
#rwgt            1           9   6.8238120821493178E-002           6     2837552           0
</event>
<event>
      6   9999  3.45752E-01  4.90294E+00 -1.00000E+00  2.30870E-01
      21    -1     0     0   501   502  0.000000000E+00  0.000000000E+00  1.986098700E+01  1.986098700E+01  0.000000000E+00  0.00000E+00  9.000E+00
      21    -1     0     0   512   503  0.000000000E+00  0.000000000E+00 -2.016544893E+03  2.016544893E+03  0.000000000E+00  0.00000E+00  9.000E+00
      25     1     1     2     0     0  5.497445902E+01 -3.558808954E+01 -6.324978127E+02  6.480486771E+02  1.249996063E+02  0.00000E+00  9.000E+00
       5     1     1     2   501     0 -3.108795816E+00  8.512294825E-02  1.037513292E+01  1.182699203E+01  4.750000000E+00  0.00000E+00  9.000E+00
      -5     1     1     2     0   503 -5.194523761E+01  4.040526394E+01 -1.339942985E+03  1.341566494E+03  4.750000000E+00  0.00000E+00  9.000E+00
      21     1     1     2   512   502  7.957440947E-02 -4.902297350E+00 -3.461824146E+01  3.496371681E+01  4.768371582E-07  0.00000E+00  9.000E+00
#rwgt            1           9   64.951875423167678                6     2839302           0
</event>
<event>
      6   9999  3.45752E-01  9.75728E+00 -1.00000E+00  1.88325E-01
      21    -1     0     0   501   502  0.000000000E+00  0.000000000E+00  9.042700492E+01  9.042700492E+01  0.000000000E+00  0.00000E+00  9.000E+00
      21    -1     0     0   511   503  0.000000000E+00  0.000000000E+00 -1.660579954E+03  1.660579954E+03  0.000000000E+00  0.00000E+00  9.000E+00
      25     1     1     2     0     0 -1.774626179E+02 -7.244983691E+01 -9.325488699E+02  9.602157568E+02  1.249997809E+02  0.00000E+00  9.000E+00
       5     1     1     2   501     0 -3.317321246E+00 -4.748607911E+00  5.988305344E+01  6.034978448E+01  4.750000000E+00  0.00000E+00  9.000E+00
      -5     1     1     2     0   503  1.903442787E+02  7.912923280E+01 -6.484423705E+02  6.804354858E+02  4.750000000E+00  0.00000E+00  9.000E+00
      21     1     1     2   511   502 -9.564339530E+00 -1.930787983E+00 -4.904476261E+01  5.000593237E+01  0.000000000E+00  0.00000E+00  9.000E+00
#rwgt            1           9   8.6651925171438778E-004           6     2844469           0
</event>
<event>
      6   9999  3.45752E-01  5.55440E+00 -1.00000E+00  2.18835E-01
      21    -1     0     0   501   502  0.000000000E+00  0.000000000E+00  4.673248168E+01  4.673248168E+01  0.000000000E+00  0.00000E+00  9.000E+00
      21    -1     0     0   502   512  0.000000000E+00  0.000000000E+00 -3.584941758E+03  3.584941758E+03  0.000000000E+00  0.00000E+00  9.000E+00
      25     1     1     2     0     0  7.732112851E+00 -2.356487713E+01 -1.579627373E+03  1.584759473E+03  1.249994353E+02  0.00000E+00  9.000E+00
       5     1     1     2   501     0 -9.875163187E+00  1.784351549E+01  4.159720157E+01  4.657037224E+01  4.750000000E+00  0.00000E+00  9.000E+00
      -5     1     1     2     0   503 -5.572245534E-01  8.675155707E-01 -1.903292982E+03  1.903299188E+03  4.750000000E+00  0.00000E+00  9.000E+00
      21     1     1     2   503   512  2.700274889E+00  4.853846070E+00 -9.688612323E+01  9.704520690E+01  0.000000000E+00  0.00000E+00  9.000E+00
#rwgt            1           9   61.230633598582664                6     2849431           0
</event>
<event>
      6   9999 -3.45752E-01  9.13185E+00 -1.00000E+00  1.91446E-01
      21    -1     0     0   501   502  0.000000000E+00  0.000000000E+00  1.120974082E+01  1.120974082E+01  0.000000000E+00  0.00000E+00  9.000E+00
      21    -1     0     0   502   511  0.000000000E+00  0.000000000E+00 -9.736936931E+02  9.736936931E+02  0.000000000E+00  0.00000E+00  9.000E+00
      25     1     1     2     0     0 -1.429470196E+01  1.666030030E+01 -7.825596377E+02  7.927839609E+02  1.249996718E+02  0.00000E+00  9.000E+00
       5     1     1     2   501     0 -9.151022672E-01  6.390571264E-01  1.121554619E+00  5.006614718E+00  4.750000000E+00  0.00000E+00  9.000E+00
      -5     1     1     2     0   503  6.179976873E+00 -1.866055748E+01 -3.244400625E+01  3.823067566E+01  4.750000000E+00  0.00000E+00  9.000E+00
      21     1     1     2   503   511  9.029827352E+00  1.361200052E+00 -1.486018629E+02  1.488821826E+02  2.697398305E-06  0.00000E+00  9.000E+00
#rwgt            1           9  -1.0460079194018735E-003           6     2856443           0
</event>
<event>
      6   9999  3.45752E-01  5.10483E+00 -1.00000E+00  2.24323E-01
      21    -1     0     0   501   502  0.000000000E+00  0.000000000E+00  2.952065022E+02  2.952065022E+02  0.000000000E+00  0.00000E+00  9.000E+00
      21    -1     0     0   502   512  0.000000000E+00  0.000000000E+00 -1.353176387E+02  1.353176387E+02  0.000000000E+00  0.00000E+00  9.000E+00
      25     1     1     2     0     0  6.304387226E+00 -4.295240163E+00 -5.309722659E+01  1.360231893E+02  1.249991927E+02  0.00000E+00  9.000E+00
       5     1     1     2   501     0 -2.738724295E+00  2.117279956E+00  2.521786054E+02  2.522470911E+02  4.750000000E+00  0.00000E+00  9.000E+00
      -5     1     1     2     0   503  1.067878864E+00  4.320298513E+00 -6.620822831E+00  9.284564582E+00  4.750000000E+00  0.00000E+00  9.000E+00
      21     1     1     2   503   512 -4.633541794E+00 -2.142338306E+00 -3.257169244E+01  3.296929589E+01  0.000000000E+00  0.00000E+00  9.000E+00
#rwgt            1           9   37.931144039660410                6     2859428           0
</event>
<event>
      6   9999  3.45752E-01  1.29482E+01 -1.00000E+00  1.76100E-01
      21    -1     0     0   501   511  0.000000000E+00  0.000000000E+00  1.346698497E+01  1.346698497E+01  0.000000000E+00  0.00000E+00  9.000E+00
      21    -1     0     0   502   503  0.000000000E+00  0.000000000E+00 -1.637532794E+03  1.637532794E+03  0.000000000E+00  0.00000E+00  9.000E+00
      25     1     1     2     0     0 -7.369335075E+00 -5.778926675E+00 -1.556229074E+03  1.561269026E+03  1.249973456E+02  0.00000E+00  9.000E+00
       5     1     1     2   501     0 -8.221384467E+00  6.221988709E+00  6.083444147E+00  1.287925071E+01  4.750000000E+00  0.00000E+00  9.000E+00
      -5     1     1     2     0   503  3.720172654E+00  4.728655509E+00 -3.515403483E+01  3.598011301E+01  4.750000000E+00  0.00000E+00  9.000E+00
      21     1     1     2   502   511  1.187054689E+01 -5.171717543E+00 -3.876614436E+01  4.087138968E+01  9.536743164E-07  0.00000E+00  9.000E+00
#rwgt            1           9   4.0524039164283746E-003           6     2864328           0
</event>
<event>
      6   9999  3.45752E-01  1.57362E+01 -1.00000E+00  1.68588E-01
      21    -1     0     0   501   502  0.000000000E+00  0.000000000E+00  3.830914242E+02  3.830914242E+02  0.000000000E+00  0.00000E+00  9.000E+00
      21    -1     0     0   512   503  0.000000000E+00  0.000000000E+00 -4.711140504E+01  4.711140504E+01  0.000000000E+00  0.00000E+00  9.000E+00
      25     1     1     2     0     0 -1.659282451E+00 -4.226091757E+00  4.924214430E+01  1.344240622E+02  1.249977066E+02  0.00000E+00  9.000E+00
       5     1     1     2   501     0 -7.585366840E-01 -2.657196399E+00  2.518999128E+02  2.519598473E+02  4.750000000E+00  0.00000E+00  9.000E+00
      -5     1     1     2     0   503 -1.332721085E+00 -8.399416423E+00  1.973300264E+01  2.200636806E+01  4.750000000E+00  0.00000E+00  9.000E+00
      21     1     1     2   512   502  3.750540219E+00  1.528270458E+01  1.510495939E+01  2.181255165E+01  0.000000000E+00  0.00000E+00  9.000E+00
#rwgt            1           9   9.0764245773613909E-004           6     2866790           0
</event>
<event>
      6   9999  3.45752E-01  1.21756E+01 -1.00000E+00  1.78616E-01
      21    -1     0     0   501   502  0.000000000E+00  0.000000000E+00  3.788139776E+01  3.788139776E+01  0.000000000E+00  0.00000E+00  9.000E+00
      21    -1     0     0   511   503  0.000000000E+00  0.000000000E+00 -1.618035510E+03  1.618035510E+03  0.000000000E+00  0.00000E+00  9.000E+00
      25     1     1     2     0     0 -7.744023545E+00 -5.537406226E+01 -9.278974515E+01  1.654117946E+02  1.249994733E+02  0.00000E+00  9.000E+00
       5     1     1     2   501     0  2.525408342E-01  1.174826336E-01 -6.983898929E+00  8.450735074E+00  4.750000000E+00  0.00000E+00  9.000E+00
      -5     1     1     2     0   503  1.958637537E+01  5.385693928E+01 -1.293595498E+03  1.294872994E+03  4.750000000E+00  0.00000E+00  9.000E+00
      21     1     1     2   511   502 -1.209489266E+01  1.399640349E+00 -1.867849699E+02  1.871813837E+02  0.000000000E+00  0.00000E+00  9.000E+00
#rwgt            1           9   8.0226659066529437E-003           6     2868933           0
</event>
<event>
      6   9999  3.45752E-01  2.85653E+01 -1.00000E+00  1.49228E-01
      21    -1     0     0   501   502  0.000000000E+00  0.000000000E+00  3.180065175E+01  3.180065175E+01  0.000000000E+00  0.00000E+00  9.000E+00
      21    -1     0     0   502   512  0.000000000E+00  0.000000000E+00 -1.265461784E+03  1.265461784E+03  0.000000000E+00  0.00000E+00  9.000E+00
      25     1     1     2     0     0  9.334124665E+01  6.785669243E+01 -3.503428963E+02  3.894641270E+02  1.250001687E+02  0.00000E+00  9.000E+00
       5     1     1     2   501     0  2.625897052E+01  2.859678817E+01 -7.186281152E+01  8.181769984E+01  4.750000000E+00  0.00000E+00  9.000E+00
      -5     1     1     2     0   503 -9.968071475E+01 -7.597938470E+01 -6.777002841E+02  6.892092203E+02  4.750000000E+00  0.00000E+00  9.000E+00
      21     1     1     2   503   512 -1.991950242E+01 -2.047409590E+01 -1.337551399E+02  1.367713882E+02  2.697398305E-06  0.00000E+00  9.000E+00
#rwgt            1           9   1.0742564009425340E-002           6     2871967           0
</event>
<event>
      6   9999  3.45752E-01  1.30820E+01 -1.00000E+00  1.75687E-01
      21    -1     0     0   501   502  0.000000000E+00  0.000000000E+00  2.513916852E+03  2.513916852E+03  0.000000000E+00  0.00000E+00  9.000E+00
       3    -1     0     0   502     0  0.000000000E+00  0.000000000E+00 -2.148094156E+01  2.148094156E+01  0.000000000E+00  0.00000E+00  9.000E+00
      25     1     1     2     0     0  6.960621050E+00  2.270972163E+00  5.758909137E+02  5.893466052E+02  1.250018762E+02  0.00000E+00  9.000E+00
       5     1     1     2   501     0 -1.287471852E+00  5.785318308E+00  1.889083308E+03  1.889098578E+03  4.750000000E+00  0.00000E+00  9.000E+00
      -5     1     1     2     0   503  3.368980275E+00  1.397667616E+00  3.903158660E+01  3.948836227E+01  4.750000000E+00  0.00000E+00  9.000E+00
       3     1     1     2   503     0 -9.042129473E+00 -9.453958087E+00 -1.156989822E+01  1.746424844E+01  1.831327855E-06  0.00000E+00  9.000E+00
#rwgt            1           9   3.4054627442480869E-003           6     2873431           0
</event>
<event>
      6   9999  3.45752E-01  2.99285E+00 -1.00000E+00  2.77183E-01
      21    -1     0     0   501   502  0.000000000E+00  0.000000000E+00  5.804193497E+01  5.804193497E+01  0.000000000E+00  0.00000E+00  9.000E+00
       2    -1     0     0   502     0  0.000000000E+00  0.000000000E+00 -3.541956450E+03  3.541956450E+03  0.000000000E+00  0.00000E+00  9.000E+00
      25     1     1     2     0     0 -1.019854109E+01 -4.029702534E+00 -1.043743604E+03  1.051258607E+03  1.249947929E+02  0.00000E+00  9.000E+00
       5     1     1     2   501     0 -4.752388028E+00  7.050454478E+00  5.359297292E+01  5.447075680E+01  4.750000000E+00  0.00000E+00  9.000E+00
      -5     1     1     2     0   503  1.755733248E+01 -4.491734083E+00 -3.486185445E+02  3.491215944E+02  4.750000000E+00  0.00000E+00  9.000E+00
       2     1     1     2   503     0 -2.606403360E+00  1.470982139E+00 -2.145145340E+03  2.145147428E+03  3.051757812E-05  0.00000E+00  9.000E+00
#rwgt            1           9   2.0841773908883884E-004           6     2876283           0
</event>
<event>
      6   9999  3.45752E-01  2.00468E+01 -1.00000E+00  1.60133E-01
      21    -1     0     0   501   511  0.000000000E+00  0.000000000E+00  7.402263544E+01  7.402263544E+01  0.000000000E+00  0.00000E+00  9.000E+00
      21    -1     0     0   502   503  0.000000000E+00  0.000000000E+00 -1.891917525E+02  1.891917525E+02  0.000000000E+00  0.00000E+00  9.000E+00
      25     1     1     2     0     0  1.527850678E+01  3.982138012E+00 -1.558453020E+02  2.004029788E+02  1.249972223E+02  0.00000E+00  9.000E+00
       5     1     1     2   501     0  1.878328633E+00 -1.246354550E+00  9.139521464E+00  1.054394948E+01  4.750000000E+00  0.00000E+00  9.000E+00
      -5     1     1     2     0   503  1.250943304E+00 -1.067483268E+01 -3.184553115E+00  1.217459611E+01  4.750000000E+00  0.00000E+00  9.000E+00
      21     1     1     2   502   511 -1.840777872E+01  7.939049217E+00  3.472121662E+01  4.009286350E+01  9.536743164E-07  0.00000E+00  9.000E+00
#rwgt            1           9   1.3798729516507831E-004           6     2885185           0
</event>
<event>
      6   9999  3.45752E-01  1.28968E+01 -1.00000E+00  1.76261E-01
      21    -1     0     0   512   502  0.000000000E+00  0.000000000E+00  1.789217045E+01  1.789217045E+01  0.000000000E+00  0.00000E+00  9.000E+00
      21    -1     0     0   502   503  0.000000000E+00  0.000000000E+00 -8.953484451E+02  8.953484451E+02  0.000000000E+00  0.00000E+00  9.000E+00
      25     1     1     2     0     0  2.613965154E+01  5.269524483E+01 -6.123625579E+02  6.277551170E+02  1.250140563E+02  0.00000E+00  9.000E+00
       5     1     1     2   501     0  1.052744240E+00 -1.208197736E+00  1.049559527E+00  5.121726995E+00  4.750000000E+00  0.00000E+00  9.000E+00
      -5     1     1     2     0   503 -2.867875162E+01 -6.429786385E+01 -2.496270311E+02  2.594087571E+02  4.750000000E+00  0.00000E+00  9.000E+00
      21     1     1     2   512   501  1.486355844E+00  1.281081676E+01 -1.651624506E+01  2.095501445E+01  3.371747881E-07  0.00000E+00  9.000E+00
#rwgt            1           9   1.0825926226867833E-003           6     2886646           0
</event>
<event>
      6   9999  3.45752E-01  1.07514E+01 -1.00000E+00  1.83939E-01
      -2    -1     0     0     0   502  0.000000000E+00  0.000000000E+00  2.422425699E+02  2.422425699E+02  0.000000000E+00  0.00000E+00  9.000E+00
      21    -1     0     0   502   503  0.000000000E+00  0.000000000E+00 -2.066203787E+02  2.066203787E+02  0.000000000E+00  0.00000E+00  9.000E+00
      25     1     1     2     0     0  5.000753077E+01 -9.044334127E+01 -2.647568782E+01  1.643374228E+02  1.250003015E+02  0.00000E+00  9.000E+00
       5     1     1     2   501     0  2.622237157E+01  7.764600022E+00 -8.019983976E+00  2.889263621E+01  4.750000000E+00  0.00000E+00  9.000E+00
      -5     1     1     2     0   503 -6.564877312E+01  8.458460000E+01 -6.150556719E+01  1.235710859E+02  4.750000000E+00  0.00000E+00  9.000E+00
      -2     1     1     2     0   501 -1.058112922E+01 -1.905858743E+00  1.316234303E+02  1.320618037E+02  1.907348633E-06  0.00000E+00  9.000E+00
#rwgt            1           9   7.2140822124429002E-002           6     2888897           0
</event>
<event>
      6   9999  3.45752E-01  7.52095E+00 -1.00000E+00  2.01244E-01
      21    -1     0     0   501   511  0.000000000E+00  0.000000000E+00  4.990040080E+01  4.990040080E+01  0.000000000E+00  0.00000E+00  9.000E+00
      21    -1     0     0   502   503  0.000000000E+00  0.000000000E+00 -1.130106641E+03  1.130106641E+03  0.000000000E+00  0.00000E+00  9.000E+00
      25     1     1     2     0     0 -3.833533940E+01 -9.475199346E+01 -2.824225232E+02  3.253202002E+02  1.249928499E+02  0.00000E+00  9.000E+00
       5     1     1     2   501     0  1.633046463E+00  2.747243138E+00  1.334725860E+01  1.452329156E+01  4.750000000E+00  0.00000E+00  9.000E+00
      -5     1     1     2     0   503  2.929481294E+01  9.070323208E+01 -8.216824096E+02  8.272060246E+02  4.750000000E+00  0.00000E+00  9.000E+00
      21     1     1     2   502   511  7.407479990E+00  1.301518237E+00  1.055143395E+01  1.295752554E+01  6.307962682E-07  0.00000E+00  9.000E+00
#rwgt            1           9  0.33429711377182031                6     2891979           0
</event>
<event>
      6   9999  3.45752E-01  1.01306E+01 -1.00000E+00  1.86602E-01
      21    -1     0     0   501   512  0.000000000E+00  0.000000000E+00  1.306785852E+01  1.306785852E+01  0.000000000E+00  0.00000E+00  9.000E+00
      21    -1     0     0   502   503  0.000000000E+00  0.000000000E+00 -7.289849865E+02  7.289849865E+02  0.000000000E+00  0.00000E+00  9.000E+00
      25     1     1     2     0     0  5.202530694E+00 -1.036263828E+01 -6.159508813E+02  6.286151805E+02  1.250084254E+02  0.00000E+00  9.000E+00
       5     1     1     2   501     0  4.887206358E-01 -1.099222036E+00 -3.113894967E+00  5.805685042E+00  4.750000000E+00  0.00000E+00  9.000E+00
      -5     1     1     2     0   503  2.650076494E+00  5.712847979E+00 -9.717657684E+01  9.749620056E+01  4.750000000E+00  0.00000E+00  9.000E+00
      21     1     1     2   502   512 -8.341327824E+00  5.749012340E+00  3.242250834E-01  1.013577894E+01  2.829259268E-07  0.00000E+00  9.000E+00
#rwgt            1           9   7.4830507785721015E-004           6     2896532           0
</event>
<event>
      6   9999  3.45752E-01  2.73085E+00 -1.00000E+00  2.88044E-01
      21    -1     0     0   501   511  0.000000000E+00  0.000000000E+00  4.666020673E+01  4.666020673E+01  0.000000000E+00  0.00000E+00  9.000E+00
      21    -1     0     0   502   503  0.000000000E+00  0.000000000E+00 -2.621272941E+02  2.621272941E+02  0.000000000E+00  0.00000E+00  9.000E+00
      25     1     1     2     0     0 -2.201455808E+01 -8.350613904E+00 -1.354580188E+02  1.858336440E+02  1.250235772E+02  0.00000E+00  9.000E+00
       5     1     1     2   501     0 -6.829058376E-02 -5.744685689E-01  9.591821524E+00  1.071915192E+01  4.750000000E+00  0.00000E+00  9.000E+00
      -5     1     1     2     0   503  2.021940920E+01  6.928808232E+00 -9.954394112E+01  1.019234595E+02  4.750000000E+00  0.00000E+00  9.000E+00
      21     1     1     2   502   511  1.863439461E+00  1.996274241E+00  9.943051028E+00  1.031124538E+01  0.000000000E+00  0.00000E+00  9.000E+00
#rwgt            1           9   2.5642099143017363E-002           6     2898880           0
</event>
<event>
      6   9999  3.45752E-01  1.11281E+01 -1.00000E+00  1.82433E-01
      21    -1     0     0   512   503  0.000000000E+00  0.000000000E+00  1.366295067E+03  1.366295067E+03  0.000000000E+00  0.00000E+00  9.000E+00
      21    -1     0     0   501   502  0.000000000E+00  0.000000000E+00 -6.568722323E+00  6.568722323E+00  0.000000000E+00  0.00000E+00  9.000E+00
      25     1     1     2     0     0  1.728755279E+01 -5.643502387E+00  1.067231382E+03  1.074684111E+03  1.250296256E+02  0.00000E+00  9.000E+00
       5     1     1     2   501     0  1.270523996E+01  9.507538016E+00  4.553914646E+01  4.845815475E+01  4.750000000E+00  0.00000E+00  9.000E+00
      -5     1     1     2     0   503 -2.229876967E+01 -1.190371517E+01  1.594539993E+02  1.615149342E+02  4.750000000E+00  0.00000E+00  9.000E+00
      21     1     1     2   512   502 -7.694023081E+00  8.039679536E+00  8.750181704E+01  8.820658945E+01  1.348699152E-06  0.00000E+00  9.000E+00
#rwgt            1           9   96.754447650179898                6     2905405           0
</event>
<event>
      6   9999  3.45752E-01  7.35104E+00 -1.00000E+00  2.02467E-01
      21    -1     0     0   502   511  0.000000000E+00  0.000000000E+00  2.637389398E+02  2.637389398E+02  0.000000000E+00  0.00000E+00  9.000E+00
      21    -1     0     0   501   502  0.000000000E+00  0.000000000E+00 -7.075681971E+02  7.075681971E+02  0.000000000E+00  0.00000E+00  9.000E+00
      25     1     1     2     0     0  8.366619910E+00  2.305020452E+00 -6.748315186E+02  6.863657150E+02  1.250000110E+02  0.00000E+00  9.000E+00
       5     1     1     2   501     0  4.015268742E-01 -1.810438098E-01 -1.101787201E+01  1.200624855E+01  4.750000000E+00  0.00000E+00  9.000E+00
      -5     1     1     2     0   503 -1.489209036E+00 -3.151073445E+00 -1.484165097E+01  1.596822191E+01  4.750000000E+00  0.00000E+00  9.000E+00
      21     1     1     2   503   511 -7.278937748E+00  1.027096803E+00  2.568617843E+02  2.569669514E+02  3.814697266E-06  0.00000E+00  9.000E+00
#rwgt            1           9   2.8988364789485082E-005           6     2907987           0
</event>
<event>
      6   9999  3.45752E-01  3.50159E+01 -1.00000E+00  1.43622E-01
      21    -1     0     0   501   512  0.000000000E+00  0.000000000E+00  5.305524192E+01  5.305524192E+01  0.000000000E+00  0.00000E+00  9.000E+00
      21    -1     0     0   502   503  0.000000000E+00  0.000000000E+00 -5.953497078E+02  5.953497078E+02  0.000000000E+00  0.00000E+00  9.000E+00
      25     1     1     2     0     0 -6.894417396E+01 -2.571812627E+01 -3.798805422E+02  4.066317372E+02  1.250016890E+02  0.00000E+00  9.000E+00
       5     1     1     2   501     0 -6.819041750E-01 -1.253986488E+00 -4.686004664E+00  6.823387365E+00  4.750000000E+00  0.00000E+00  9.000E+00
      -5     1     1     2     0   503  4.906815239E+01 -1.373674495E+00 -1.844329553E+02  1.909126713E+02  4.750000000E+00  0.00000E+00  9.000E+00
      21     1     1     2   502   512  2.055792574E+01  2.834578726E+01  2.670503619E+01  4.403715390E+01  1.011524364E-06  0.00000E+00  9.000E+00
#rwgt            1           9   9.7495307438635343E-003           6     2911028           0
</event>
<event>
      6   9999  3.45752E-01  8.28592E+00 -1.00000E+00  1.96227E-01
      21    -1     0     0   501   502  0.000000000E+00  0.000000000E+00  3.997857258E+01  3.997857258E+01  0.000000000E+00  0.00000E+00  9.000E+00
      21    -1     0     0   502   511  0.000000000E+00  0.000000000E+00 -4.636664639E+02  4.636664639E+02  0.000000000E+00  0.00000E+00  9.000E+00
      25     1     1     2     0     0 -7.969483199E+00 -1.472463282E+00 -3.379948619E+02  3.604588586E+02  1.249975249E+02  0.00000E+00  9.000E+00
       5     1     1     2   501     0 -3.830283628E-01 -1.579738928E+00  2.776020571E+01  2.821052652E+01  4.750000000E+00  0.00000E+00  9.000E+00
      -5     1     1     2     0   503  8.762542199E-01 -5.201919079E-01 -9.291673944E+00  1.048504295E+01  4.750000000E+00  0.00000E+00  9.000E+00
      21     1     1     2   503   511  7.476257342E+00  3.572394117E+00 -1.041615612E+02  1.044906084E+02  1.907348633E-06  0.00000E+00  9.000E+00
#rwgt            1           9   1.6014364502076910E-004           6     2912132           0
</event>
<event>
      6   9999  3.45752E-01  2.20194E+01 -1.00000E+00  1.57086E-01
      21    -1     0     0   512   502  0.000000000E+00  0.000000000E+00  7.031010637E+01  7.031010637E+01  0.000000000E+00  0.00000E+00  9.000E+00
      21    -1     0     0   502   503  0.000000000E+00  0.000000000E+00 -1.966959111E+03  1.966959111E+03  0.000000000E+00  0.00000E+00  9.000E+00
      25     1     1     2     0     0  1.869100615E+01  1.922335941E+01 -1.633736855E+03  1.638731335E+03  1.250015450E+02  0.00000E+00  9.000E+00
       5     1     1     2   501     0 -2.693792527E+00  6.109663198E+00  6.414795791E+01  6.466921606E+01  4.750000000E+00  0.00000E+00  9.000E+00
      -5     1     1     2     0   503  7.254795979E-01 -1.100806609E+01 -2.934020917E+02  2.936478396E+02  4.750000000E+00  0.00000E+00  9.000E+00
      21     1     1     2   512   501 -1.672269322E+01 -1.432495652E+01 -3.365801572E+01  4.022082632E+01  4.768371582E-07  0.00000E+00  9.000E+00
#rwgt            1           9   1.3938456952548384E-003           6     2915560           0
</event>
<event>
      6   9999  3.45752E-01  3.91895E+00 -1.00000E+00  2.49705E-01
      21    -1     0     0   501   511  0.000000000E+00  0.000000000E+00  8.535057123E+01  8.535057123E+01  0.000000000E+00  0.00000E+00  9.000E+00
      21    -1     0     0   502   503  0.000000000E+00  0.000000000E+00 -7.377702679E+02  7.377702679E+02  0.000000000E+00  0.00000E+00  9.000E+00
      25     1     1     2     0     0  3.762679017E-01  2.437478992E+01 -6.413735455E+02  6.538958788E+02  1.250020936E+02  0.00000E+00  9.000E+00
       5     1     1     2   501     0  3.289619890E-01  1.545559986E-01 -6.076887016E+00  7.721603418E+00  4.750000000E+00  0.00000E+00  9.000E+00
      -5     1     1     2     0   503 -1.574471607E+00 -2.070801734E+01 -8.182238804E+01  8.455037923E+01  4.750000000E+00  0.00000E+00  9.000E+00
      21     1     1     2   502   511  8.692417159E-01 -3.821328583E+00  7.685312388E+01  7.695297774E+01  9.536743164E-07  0.00000E+00  9.000E+00
#rwgt            1           9   5.3951576139181121E-004           6     2918677           0
</event>
<event>
      6   9999  3.45752E-01  1.34753E+02 -1.00000E+00  1.15176E-01
      21    -1     0     0   501   502  0.000000000E+00  0.000000000E+00  3.103717428E+02  3.103717428E+02  0.000000000E+00  0.00000E+00  9.000E+00
      21    -1     0     0   502   512  0.000000000E+00  0.000000000E+00 -7.913463691E+02  7.913463691E+02  0.000000000E+00  0.00000E+00  9.000E+00
      25     1     1     2     0     0  6.944114485E+01 -2.473587632E+02 -4.744022171E+02  5.538002559E+02  1.250153172E+02  0.00000E+00  9.000E+00
       5     1     1     2   501     0  7.831953866E+01  1.554950066E+02  2.054855494E+02  2.693687449E+02  4.750000000E+00  0.00000E+00  9.000E+00
      -5     1     1     2     0   503 -4.053178564E+01  1.025293610E+01 -2.842619060E+01  5.077951514E+01  4.750000000E+00  0.00000E+00  9.000E+00
      21     1     1     2   503   512 -1.072288979E+02  8.161082055E+01 -1.836317681E+02  2.277695959E+02  2.697398305E-06  0.00000E+00  9.000E+00
#rwgt            1           9   5.6215933792159816E-004           6     2923420           0
</event>
<event>
      6   9999  3.45752E-01  2.33983E+01 -1.00000E+00  1.55177E-01
      21    -1     0     0   501   502  0.000000000E+00  0.000000000E+00  1.486577520E+01  1.486577520E+01  0.000000000E+00  0.00000E+00  9.000E+00
       1    -1     0     0   502     0  0.000000000E+00  0.000000000E+00 -1.279731730E+03  1.279731730E+03  0.000000000E+00  0.00000E+00  9.000E+00
      25     1     1     2     0     0 -8.375700491E+00 -4.176287704E+00 -7.821854513E+02  7.921666169E+02  1.250050999E+02  0.00000E+00  9.000E+00
       5     1     1     2   501     0 -6.744244668E+00  6.907550353E+00  5.893615919E+00  1.226769321E+01  4.750000000E+00  0.00000E+00  9.000E+00
      -5     1     1     2     0   503 -6.396207737E+00  6.463126972E+00 -5.438973220E+01  5.534879360E+01  4.750000000E+00  0.00000E+00  9.000E+00
       1     1     1     2   503     0  2.151615290E+01 -9.194389621E+00 -4.341843870E+02  4.348144013E+02  0.000000000E+00  0.00000E+00  9.000E+00
#rwgt            1           9   3.8517536133593886                6     2924466           0
</event>
<event>
      6   9999 -3.45752E-01  3.15855E+00 -1.00000E+00  2.71190E-01
      21    -1     0     0   501   502  0.000000000E+00  0.000000000E+00  2.105424487E+01  2.105424487E+01  0.000000000E+00  0.00000E+00  9.000E+00
      21    -1     0     0   511   503  0.000000000E+00  0.000000000E+00 -6.262066967E+02  6.262066967E+02  0.000000000E+00  0.00000E+00  9.000E+00
      25     1     1     2     0     0 -8.654162022E+00  3.161942501E+00 -2.540468751E+02  2.832842505E+02  1.250010377E+02  0.00000E+00  9.000E+00
       5     1     1     2   501     0 -2.902816246E-01 -5.065467764E-01  5.430991115E+00  7.238716568E+00  4.750000000E+00  0.00000E+00  9.000E+00
      -5     1     1     2     0   503  7.072439847E+00 -1.113710135E-01 -2.200992226E+02  2.202640736E+02  4.750000000E+00  0.00000E+00  9.000E+00
      21     1     1     2   511   502  1.872003799E+00 -2.544024711E+00 -1.364373453E+02  1.364739010E+02  2.697398305E-06  0.00000E+00  9.000E+00
#rwgt            1           9  -6.1239576468821088E-003           6     2925908           0
</event>
<event>
      6   9999  3.45752E-01  3.22284E+01 -1.00000E+00  1.45853E-01
      21    -1     0     0   501   502  0.000000000E+00  0.000000000E+00  7.926887464E+01  7.926887464E+01  0.000000000E+00  0.00000E+00  9.000E+00
      21    -1     0     0   512   503  0.000000000E+00  0.000000000E+00 -2.940431323E+03  2.940431323E+03  0.000000000E+00  0.00000E+00  9.000E+00
      25     1     1     2     0     0  1.031755296E+01 -8.374578721E+01 -4.756967996E+02  4.990310396E+02  1.249988986E+02  0.00000E+00  9.000E+00
       5     1     1     2   501     0 -2.802693818E+00  5.436187620E+00  6.589890223E+01  6.635235522E+01  4.750000000E+00  0.00000E+00  9.000E+00
      -5     1     1     2     0   503 -3.561088118E+01  6.252095167E+01 -1.000829341E+03  1.003423608E+03  4.750000000E+00  0.00000E+00  9.000E+00
      21     1     1     2   512   502  2.809602204E+01  1.578864793E+01 -1.450535210E+03  1.450893195E+03  0.000000000E+00  0.00000E+00  9.000E+00
#rwgt            1           9   2.5510305859941032E-003           6     2931780           0
</event>
<event>
      6   9999  3.45752E-01  8.22150E+01 -1.00000E+00  1.24164E-01
      21    -1     0     0   511   502  0.000000000E+00  0.000000000E+00  2.976171006E+01  2.976171006E+01  0.000000000E+00  0.00000E+00  9.000E+00
      21    -1     0     0   502   503  0.000000000E+00  0.000000000E+00 -9.927411904E+02  9.927411904E+02  0.000000000E+00  0.00000E+00  9.000E+00
      25     1     1     2     0     0  1.123856430E+01 -6.053795473E+01 -5.047323816E+02  5.236137606E+02  1.250017759E+02  0.00000E+00  9.000E+00
       5     1     1     2   501     0 -2.770337079E+01 -2.592574741E+01 -1.219603077E+02  1.278143195E+02  4.750000000E+00  0.00000E+00  9.000E+00
      -5     1     1     2     0   503  1.184416836E+01  4.378626183E+00 -2.553478553E+02  2.557040211E+02  4.750000000E+00  0.00000E+00  9.000E+00
      21     1     1     2   511   501  4.620638125E+00  8.208507595E+01 -8.093893576E+01  1.153707992E+02  2.523185073E-06  0.00000E+00  9.000E+00
#rwgt            1           9  0.21386776381839787                6     2934536           0
</event>
<event>
      6   9999  3.45752E-01  3.11090E+00 -1.00000E+00  2.72852E-01
      21    -1     0     0   501   512  0.000000000E+00  0.000000000E+00  2.046955456E+02  2.046955456E+02  0.000000000E+00  0.00000E+00  9.000E+00
      21    -1     0     0   502   503  0.000000000E+00  0.000000000E+00 -2.878613840E+02  2.878613840E+02  0.000000000E+00  0.00000E+00  9.000E+00
      25     1     1     2     0     0 -1.676146515E+01  7.400769478E+00 -2.494017174E+02  2.795681667E+02  1.249856996E+02  0.00000E+00  9.000E+00
       5     1     1     2   501     0  9.419670580E+00 -1.923412969E+00  1.737850999E+02  1.741156316E+02  4.750000000E+00  0.00000E+00  9.000E+00
      -5     1     1     2     0   503  4.245514330E+00 -5.176078600E+00 -2.231832123E+01  2.377995257E+01  4.750000000E+00  0.00000E+00  9.000E+00
      21     1     1     2   502   512  3.096280236E+00 -3.012779084E-01  1.476910036E+01  1.509317876E+01  1.685873940E-07  0.00000E+00  9.000E+00
#rwgt            1           9  0.11751502739340040                6     2935166           0
</event>
</LesHouchesEvents>
 #Random number generator exit values:            6       2943340             0
